Membrane in water
40155
    1TCq1    O1    1   0.554   1.247  10.957  0.3822  0.0046  0.1134
    1TCq1    C1    2   0.566   1.112  10.948  0.2991 -0.3549  0.4038
    1TCq1    O2    3   0.551   1.043  10.852 -0.3929 -0.4853 -0.1367
    1TCq1    C2    4   0.601   1.057  11.078 -0.2994  0.2567 -0.2942
    1TCq1    C3    5   0.680   1.133  11.160 -0.6642 -0.3272 -0.2414
    1TCq1    C4    6   0.729   1.082  11.280  0.1768 -0.7002 -0.3609
    1TCq1    C5    7   0.699   0.953  11.318 -0.1716  0.5174 -0.4602
    1TCq1    C6    8   0.621   0.882  11.224 -0.2160 -0.2191  1.0179
    1TCq1    C7    9   0.571   0.931  11.108  0.4832  0.0844  1.0954
    1TCq1    C8   10   0.588   0.750  11.269  0.3637  0.0617  0.0584
    1TCq1    O4   11   0.645   0.711  11.371  0.2549  0.3668 -0.2278
    1TCq1    C9   12   0.810   1.164  11.374 -0.5038  0.1007 -0.4544
    1TCq1    O5   13   0.846   1.280  11.341  0.3881 -0.1202  0.2265
    1TCq1    O6   14   0.853   1.106  11.478 -0.4456 -0.1052  0.7498
    1TCq1    H1   15   0.541   1.291  11.044 -1.2510  0.2827 -0.2699
    1TCq1    H2   16   0.718   1.227  11.122  0.0369 -0.0510  1.1139
    1TCq1    H3   17   0.747   0.904  11.402  0.1694  0.3474 -0.7511
    1TCq1    H4   18   0.493   0.879  11.054 -0.3986  1.2480  1.2470
    2MPD2     C   19   0.297   0.321  11.288  0.5323  0.2893 -0.2249
    2MPD2    C1   20   0.339   0.403  11.395 -0.4498  0.5118  0.2807
    2MPD2    C2   21   0.417   0.515  11.359 -0.3523 -0.0486 -0.9954
    2MPD2    C3   22   0.444   0.546  11.225 -0.2297 -0.1214 -0.7041
    2MPD2    C4   23   0.397   0.464  11.131  0.0985 -0.3384 -1.1791
    2MPD2    C5   24   0.328   0.351  11.162 -0.5627  0.9646 -0.0243
    2MPD2     H   25   0.446   0.587  11.435 -2.3146 -2.2647  1.8952
    2MPD2    H1   26   0.419   0.490  11.028 -0.5813  0.9255 -1.0056
    2MPD2    H2   27   0.245   0.227  11.299 -0.4691  0.9061  0.2875
    2MPD2    H3   28   0.309   0.279  11.084 -4.5968 -0.1778  1.9996
    2MPD2     N   29   0.506   0.673  11.181 -0.1996 -0.3749 -0.0034
    2MPD2    H5   30   0.485   0.700  11.086  0.9337  0.5611  0.0225
    2MPD2    N1   31   0.313   0.375  11.531  0.0672  0.4163  0.3456
    2MPD2    H7   32   0.356   0.441  11.594 -0.4141  1.0000  0.0658
    3TCq1    O1   33   4.109   0.805  11.290  0.7000  0.6475  0.5663
    3TCq1    C1   34   4.231   0.850  11.330  0.4993 -0.7159  0.2104
    3TCq1    O2   35   4.318   0.770  11.367 -0.1389  0.1394  0.5736
    3TCq1    C2   36   4.259   0.983  11.268  0.5944 -0.4393  0.1621
    3TCq1    C3   37   4.389   1.019  11.235 -0.4083 -0.9585  0.6439
    3TCq1    C4   38   4.422   1.153  11.216  0.0106  0.0140  0.0630
    3TCq1    C5   39   4.326   1.250  11.227 -0.0152  0.2920 -0.3051
    3TCq1    C6   40   4.198   1.215  11.256 -0.2513 -0.1557 -0.5112
    3TCq1    C7   41   4.159   1.087  11.273 -0.0597  0.2062 -0.1962
    3TCq1    C8   42   4.093   1.314  11.234 -0.2660  0.0054 -0.2683
    3TCq1    O4   43   3.982   1.269  11.204 -0.4806  0.0513  0.9307
    3TCq1    C9   44   4.562   1.181  11.173  0.6868  0.8648 -0.7999
    3TCq1    O5   45   4.609   1.103  11.090 -0.2964 -0.1589  0.3132
    3TCq1    O6   46   4.619   1.283  11.212 -0.3921 -0.0723 -0.1152
    3TCq1    H1   47   4.066   0.858  11.220  1.9287  0.6068 -0.2087
    3TCq1    H2   48   4.462   0.940  11.222 -0.2394 -0.7282  0.1861
    3TCq1    H3   49   4.359   1.350  11.202  2.8438 -0.9056 -1.4227
    3TCq1    H4   50   4.053   1.074  11.291  0.0165  0.1875  0.2456
    4MPD2     C   51   3.899   1.788  11.190  0.3829 -0.0767  0.7899
    4MPD2    C1   52   4.019   1.800  11.270 -0.2167  0.1310 -0.3082
    4MPD2    C2   53   4.095   1.683  11.285  0.5525 -0.1134 -0.4425
    4MPD2    C3   54   4.045   1.556  11.238 -0.3940  0.1567 -0.2287
    4MPD2    C4   55   3.925   1.552  11.165 -0.3811 -0.1651  0.9453
    4MPD2    C5   56   3.859   1.664  11.139  0.3073  0.2834  0.5211
    4MPD2     H   57   4.189   1.692  11.339  1.6258 -1.7537 -2.0232
    4MPD2    H1   58   3.885   1.458  11.129 -1.0350  0.3736  0.2763
    4MPD2    H2   59   3.835   1.873  11.171  2.2886  1.4566  1.2998
    4MPD2    H3   60   3.777   1.663  11.068 -0.8500  1.1758  1.8400
    4MPD2     N   61   4.123   1.445  11.263  0.3624 -0.5210  0.0377
    4MPD2    H5   62   4.206   1.457  11.320 -1.1232  1.8069  1.6805
    4MPD2    N1   63   4.060   1.925  11.333 -0.0158  0.1005  0.5173
    4MPD2    H7   64   4.154   1.923  11.372  0.8224 -1.4058 -1.5942
    5TCq1    O1   65   0.683   3.122  12.140 -0.2553 -0.0444  0.2976
    5TCq1    C1   66   0.687   3.144  12.005  0.7428  0.4429  0.0647
    5TCq1    O2   67   0.784   3.108  11.940  0.1324  0.2809  0.2245
    5TCq1    C2   68   0.542   3.162  11.969  0.2402  0.1243 -0.2861
    5TCq1    C3   69   0.476   3.251  12.053 -0.0878 -1.0988 -0.3275
    5TCq1    C4   70   0.370   3.322  12.009 -0.6843  0.0325 -0.3588
    5TCq1    C5   71   0.325   3.312  11.881  0.7147  0.5639  0.2049
    5TCq1    C6   72   0.396   3.233  11.793  0.5322  0.0125 -0.1104
    5TCq1    C7   73   0.509   3.158  11.836  0.0395  0.2772 -0.1046
    5TCq1    C8   74   0.342   3.221  11.657  0.1260  0.0271  0.0496
    5TCq1    O4   75   0.373   3.115  11.598  0.3005  0.5174  0.2596
    5TCq1    C9   76   0.302   3.411  12.098 -0.1360  0.1960  0.1700
    5TCq1    O5   77   0.257   3.517  12.048  0.1737  0.0711 -0.3841
    5TCq1    O6   78   0.302   3.390  12.221  0.0852  0.0358  0.0088
    5TCq1    H1   79   0.591   3.114  12.174 -0.7871  2.1364 -0.6388
    5TCq1    H2   80   0.518   3.284  12.146 -0.4462  0.8860 -0.8802
    5TCq1    H3   81   0.231   3.362  11.862 -0.3545 -0.7656  2.0672
    5TCq1    H4   82   0.564   3.097  11.765 -2.0261  0.3185 -1.7375
    6MPD2     C   83   0.158   3.479  11.467  0.2062 -0.2528  0.1173
    6MPD2    C1   84   0.227   3.361  11.487 -1.0841  0.3532 -0.3708
    6MPD2    C2   85   0.231   3.274  11.380 -0.0715  0.3380 -0.4337
    6MPD2    C3   86   0.181   3.299  11.252  0.1557 -0.2507 -0.4619
    6MPD2    C4   87   0.117   3.416  11.228  0.8693  0.5737  0.6152
    6MPD2    C5   88   0.104   3.503  11.340  0.3259 -0.4085 -0.2611
    6MPD2     H   89   0.270   3.174  11.394 -2.2867 -0.4420  0.0979
    6MPD2    H1   90   0.082   3.454  11.133 -0.2772 -0.5179  0.5989
    6MPD2    H2   91   0.142   3.556  11.542  1.2939 -0.2039  0.3061
    6MPD2    H3   92   0.039   3.589  11.331  1.7652  0.3041 -3.6994
    6MPD2     N   93   0.202   3.190  11.155 -0.0721 -0.2750  0.1750
    6MPD2    H5   94   0.258   3.109  11.182 -1.3492 -1.7913 -1.7107
    6MPD2    N1   95   0.272   3.334  11.618  0.0135  0.4063  0.5025
    6MPD2    H7   96   0.257   3.405  11.689 -1.6728  0.4561  0.0936
    7TCq1    O1   97   1.799   3.199  13.359 -0.5315 -0.0744  0.2818
    7TCq1    C1   98   1.672   3.146  13.384  0.1578  0.0696 -0.1985
    7TCq1    O2   99   1.585   3.120  13.300 -0.6068  0.2314 -0.0512
    7TCq1    C2  100   1.685   3.078  13.510  0.2124  0.5443 -0.1542
    7TCq1    C3  101   1.569   3.030  13.576 -0.3811 -0.1053  0.0871
    7TCq1    C4  102   1.572   2.930  13.668  0.0423  0.2138  0.1588
    7TCq1    C5  103   1.692   2.888  13.713 -0.1545 -0.6334 -0.5966
    7TCq1    C6  104   1.806   2.938  13.656  0.3034  0.0903 -0.2057
    7TCq1    C7  105   1.802   3.033  13.556 -0.2924 -0.1201  0.2643
    7TCq1    C8  106   1.916   2.846  13.652 -0.1491  0.5219 -0.0884
    7TCq1    O4  107   1.897   2.739  13.591  0.1962 -0.2284 -0.5064
    7TCq1    C9  108   1.457   2.892  13.745 -0.0680  0.9871  0.6587
    7TCq1    O5  109   1.483   2.852  13.862 -0.6708 -0.0668 -0.1593
    7TCq1    O6  110   1.342   2.931  13.713 -0.6786 -0.5620  0.1998
    7TCq1    H1  111   1.850   3.225  13.439 -1.4425  3.7524 -0.3740
    7TCq1    H2  112   1.473   3.075  13.551  0.1131  0.1916 -1.2955
    7TCq1    H3  113   1.700   2.816  13.793 -0.4101 -1.8891 -1.6917
    7TCq1    H4  114   1.896   3.050  13.506  1.1057 -0.0007  2.9585
    8MPD2     C  115   2.398   2.715  13.773  0.2573 -0.7295  0.4310
    8MPD2    C1  116   2.299   2.639  13.714  0.9236 -0.3173 -0.5733
    8MPD2    C2  117   2.173   2.702  13.694  0.6426 -0.1875 -0.1500
    8MPD2    C3  118   2.156   2.831  13.729 -0.5204 -0.3015 -0.6589
    8MPD2    C4  119   2.253   2.899  13.787  0.3529  0.2263 -0.0289
    8MPD2    C5  120   2.385   2.849  13.800  0.1580  0.2292 -0.3849
    8MPD2     H  121   2.095   2.641  13.650 -0.3553 -0.0702  1.4609
    8MPD2    H1  122   2.237   3.001  13.820  0.2130  0.2131 -0.0589
    8MPD2    H2  123   2.491   2.670  13.807 -0.1794 -1.0333  1.2082
    8MPD2    H3  124   2.455   2.893  13.870  0.3610 -0.5996 -0.0589
    8MPD2     N  125   2.026   2.892  13.719  0.0339  0.1098  0.9866
    8MPD2    H5  126   2.015   2.987  13.753 -2.2309  0.7159 -1.4130
    8MPD2    N1  127   2.326   2.502  13.696 -0.6960  0.3744 -0.1102
    8MPD2    H7  128   2.405   2.460  13.745 -1.7843 -3.7359 -1.9036
    9TCq1    O1  129   0.053   0.916  11.142  0.6720  0.3383  0.0795
    9TCq1    C1  130   0.186   0.931  11.147  0.1058 -0.8527 -0.6686
    9TCq1    O2  131   0.267   0.841  11.160  0.1332  0.4465 -0.4242
    9TCq1    C2  132   0.224   1.051  11.074  0.7861 -0.1081  0.5383
    9TCq1    C3  133   0.223   1.043  10.937 -0.1343 -0.3538 -0.2163
    9TCq1    C4  134   0.222   1.158  10.867  0.2837  0.3749  0.1361
    9TCq1    C5  135   0.211   1.278  10.932 -0.4025 -0.1104  0.7557
    9TCq1    C6  136   0.185   1.276  11.064 -0.1528  0.7447  0.5418
    9TCq1    C7  137   0.199   1.162  11.143 -0.1983  0.1169  0.0897
    9TCq1    C8  138   0.202   1.402  11.125 -0.5352  0.0118 -0.3426
    9TCq1    O4  139   0.294   1.468  11.076  0.9019 -0.8838  0.0579
    9TCq1    C9  140   0.233   1.140  10.723 -0.3346  0.0450  0.7016
    9TCq1    O5  141   0.216   1.246  10.656  0.0715  0.2092 -0.3953
    9TCq1    O6  142   0.243   1.020  10.680  0.0645  0.3200 -0.0134
    9TCq1    H1  143   0.013   0.994  11.097 -1.2094  0.3637  1.7851
    9TCq1    H2  144   0.229   0.945  10.891 -0.5827  0.8650 -2.8132
    9TCq1    H3  145   0.233   1.370  10.879 -0.9984 -0.8824 -0.8200
    9TCq1    H4  146   0.219   1.157  11.249 -2.2864 -1.2143  0.4182
   10MPD2     C  147   0.230   1.629  11.314 -0.5910 -0.0997  0.2813
   10MPD2    C1  148   0.169   1.509  11.342 -0.2108  0.1373  0.0760
   10MPD2    C2  149   0.128   1.490  11.470  0.1233 -0.6515 -0.6913
   10MPD2    C3  150   0.150   1.585  11.573 -0.3507 -0.5102  0.2736
   10MPD2    C4  151   0.217   1.700  11.535  0.7280  0.0395 -0.6100
   10MPD2    C5  152   0.250   1.725  11.407 -0.1401 -0.7980  0.1010
   10MPD2     H  153   0.107   1.389  11.503  0.0752  0.0846  1.5430
   10MPD2    H1  154   0.240   1.772  11.612  2.3430 -0.3403 -0.7348
   10MPD2    H2  155   0.261   1.651  11.213 -0.8497 -1.1176 -0.0144
   10MPD2    H3  156   0.308   1.813  11.380  0.0467 -0.3449  1.9789
   10MPD2     N  157   0.128   1.559  11.712 -0.2147 -0.2568  0.1765
   10MPD2    H5  158   0.165   1.627  11.778 -1.8527 -0.2639  1.0922
   10MPD2    N1  159   0.148   1.404  11.249  0.6353  0.0736  0.0001
   10MPD2    H7  160   0.073   1.337  11.261  0.5519  0.4088  1.3682
   11TCq1    O1  161   1.875   1.512  14.137  0.4080  0.1454  0.4910
   11TCq1    C1  162   1.801   1.461  14.238 -0.2916  0.5694  0.5504
   11TCq1    O2  163   1.836   1.460  14.353  0.2578 -0.5687 -0.4951
   11TCq1    C2  164   1.704   1.367  14.180 -0.5536 -0.2071 -0.2624
   11TCq1    C3  165   1.747   1.286  14.080  0.5859  0.3306  0.2971
   11TCq1    C4  166   1.664   1.178  14.058 -0.0036  0.6516 -0.0096
   11TCq1    C5  167   1.539   1.170  14.113 -0.0784  0.0381 -0.0169
   11TCq1    C6  168   1.496   1.263  14.203 -0.4161 -0.6718 -0.3686
   11TCq1    C7  169   1.585   1.358  14.242 -0.6238  0.1469  0.1478
   11TCq1    C8  170   1.388   1.225  14.292 -0.1772 -0.6300  0.0473
   11TCq1    O4  171   1.391   1.281  14.398  0.1339  0.0452 -0.0976
   11TCq1    C9  172   1.703   1.084  13.955 -0.0022 -0.1723  0.6262
   11TCq1    O5  173   1.610   1.023  13.893 -0.1896 -0.3811  0.1666
   11TCq1    O6  174   1.827   1.075  13.933  0.3437  0.0103 -0.6027
   11TCq1    H1  175   1.807   1.490  14.069  1.0704  1.6742 -0.6886
   11TCq1    H2  176   1.841   1.293  14.025  1.3295 -1.8862  1.2788
   11TCq1    H3  177   1.472   1.089  14.083 -1.3436  0.3416  1.9864
   11TCq1    H4  178   1.557   1.425  14.323  1.1629 -0.3617  1.1894
   12MPD2     C  179   1.232   1.041  14.449  0.0302 -0.4419  0.1567
   12MPD2    C1  180   1.200   1.075  14.317  0.3148  0.3371  0.6244
   12MPD2    C2  181   1.087   1.010  14.258 -0.0037 -0.2326  0.5899
   12MPD2    C3  182   1.001   0.933  14.336  0.2910 -0.9409 -0.2310
   12MPD2    C4  183   1.027   0.915  14.472  0.6074  0.2545 -0.0804
   12MPD2    C5  184   1.143   0.960  14.521 -0.2961  0.1570  0.6891
   12MPD2     H  185   1.076   1.023  14.151 -0.6452 -0.6132  0.6138
   12MPD2    H1  186   0.956   0.856  14.530 -0.3222 -0.6542 -2.1447
   12MPD2    H2  187   1.315   1.081  14.506 -0.1600 -0.0267  0.1347
   12MPD2    H3  188   1.163   0.951  14.627  0.0718  0.0135  0.6082
   12MPD2     N  189   0.885   0.865  14.292 -0.4683  0.5140 -0.5006
   12MPD2    H5  190   0.824   0.813  14.355  0.6390 -2.4961 -1.9292
   12MPD2    N1  191   1.289   1.145  14.235 -0.0380 -0.8576  0.1095
   12MPD2    H7  192   1.262   1.163  14.139  2.2692 -0.3195 -0.4467
   13TCq1    O1  193   0.957   1.171  11.984 -0.0676  1.1472  0.3046
   13TCq1    C1  194   0.972   1.306  12.003 -0.5434 -0.6465 -0.1395
   13TCq1    O2  195   1.057   1.351  12.079 -0.1569 -0.4609  0.2650
   13TCq1    C2  196   0.903   1.382  11.904  0.5542 -0.0450 -0.3957
   13TCq1    C3  197   0.943   1.509  11.883  0.3896  0.2874 -0.2203
   13TCq1    C4  198   0.853   1.606  11.843 -0.8154 -0.1239  0.4997
   13TCq1    C5  199   0.724   1.562  11.822  0.0019  0.0180  0.5876
   13TCq1    C6  200   0.694   1.429  11.832  0.2079  0.3287  0.7344
   13TCq1    C7  201   0.775   1.341  11.881  0.3322 -1.0472  0.1705
   13TCq1    C8  202   0.570   1.374  11.773  0.2482 -0.1727 -0.8230
   13TCq1    O4  203   0.479   1.455  11.756 -0.1905 -0.1671 -0.6265
   13TCq1    C9  204   0.896   1.739  11.821 -0.1850  0.5032  0.4687
   13TCq1    O5  205   1.018   1.768  11.839  0.2061  0.0046  0.2904
   13TCq1    O6  206   0.808   1.829  11.793  0.1849  0.2354  0.0921
   13TCq1    H1  207   0.873   1.149  11.938  1.3092 -0.2202 -1.5596
   13TCq1    H2  208   1.044   1.535  11.911  0.2275 -0.3691  0.9362
   13TCq1    H3  209   0.649   1.631  11.783 -0.6974 -0.2706  1.4235
   13TCq1    H4  210   0.738   1.245  11.916 -3.3704 -0.0764 -0.9929
   14MPD2     C  211   0.535   1.063  11.573 -0.1919 -0.3325 -0.3899
   14MPD2    C1  212   0.488   1.182  11.633  0.5560 -1.1664  0.4156
   14MPD2    C2  213   0.347   1.212  11.627  0.6004  0.1085  0.2341
   14MPD2    C3  214   0.259   1.120  11.572 -0.1515  0.2296 -1.1063
   14MPD2    C4  215   0.305   1.012  11.506  0.0959 -0.1452 -0.0167
   14MPD2    C5  216   0.441   0.978  11.502  0.7868 -0.1460  0.1793
   14MPD2     H  217   0.303   1.302  11.669 -2.2747 -2.9258  3.7095
   14MPD2    H1  218   0.244   0.941  11.452  2.6498 -2.7332  0.4714
   14MPD2    H2  219   0.639   1.033  11.583 -0.0406 -0.2617 -1.7094
   14MPD2    H3  220   0.474   0.895  11.442  0.5941  2.0991 -3.0436
   14MPD2     N  221   0.119   1.143  11.574 -0.1596  0.2458  0.0377
   14MPD2    H5  222   0.084   1.225  11.622  2.0313  0.2627  1.5993
   14MPD2    N1  223   0.588   1.257  11.701 -0.2399  0.3399  0.3262
   14MPD2    H7  224   0.677   1.209  11.710  1.2823  2.3303 -4.0108
   15TCq1    O1  225   1.929   0.536   1.831 -0.3065 -0.5670  0.2097
   15TCq1    C1  226   2.005   0.453   1.759  0.3296  0.6017  0.1605
   15TCq1    O2  227   2.033   0.468   1.640  0.2584  0.4773  0.4175
   15TCq1    C2  228   2.093   0.387   1.851  0.4865  0.4641 -0.1207
   15TCq1    C3  229   2.128   0.451   1.970 -0.8498  0.9711  0.4683
   15TCq1    C4  230   2.238   0.408   2.035 -0.3473  0.6614 -0.2750
   15TCq1    C5  231   2.303   0.298   1.995 -0.2192 -0.1684 -0.5437
   15TCq1    C6  232   2.277   0.245   1.872 -0.8743 -0.4652 -0.3010
   15TCq1    C7  233   2.171   0.290   1.793 -0.6055  0.2141 -0.2699
   15TCq1    C8  234   2.362   0.145   1.818  0.0098  0.2075  0.1148
   15TCq1    O4  235   2.460   0.123   1.890 -0.1612  0.0376 -0.3281
   15TCq1    C9  236   2.284   0.480   2.147  0.2432  0.0826 -0.3865
   15TCq1    O5  237   2.205   0.566   2.196  0.8815  0.1871  0.5361
   15TCq1    O6  238   2.396   0.443   2.193 -0.0819  0.5721  0.4162
   15TCq1    H1  239   1.908   0.508   1.922 -1.4754 -1.9139 -0.4663
   15TCq1    H2  240   2.075   0.537   2.008 -1.9922  0.9009 -0.9568
   15TCq1    H3  241   2.384   0.251   2.050  0.3522  2.0698  0.5356
   15TCq1    H4  242   2.147   0.249   1.696  2.0287 -0.2072 -0.7356
   16MPD2     C  243   2.323   4.687   1.501  0.0921  0.4177  0.6365
   16MPD2    C1  244   2.390   0.012   1.606  0.6561  0.6760  0.1657
   16MPD2    C2  245   2.517   4.694   1.619 -0.2131 -0.1068 -0.5826
   16MPD2    C3  246   2.576   4.604   1.538  0.6120  0.1050  0.1734
   16MPD2    C4  247   2.502   4.568   1.424  0.9108  0.1066  0.5272
   16MPD2    C5  248   2.374   4.609   1.401  0.0769 -0.0651  0.2799
   16MPD2     H  249   2.570   4.710   1.711  0.6667  2.0968 -1.4811
   16MPD2    H1  250   2.556   4.523   1.342  1.9441  1.1336  0.6434
   16MPD2    H2  251   2.223   0.006   1.498 -0.8823 -2.0278  0.4461
   16MPD2    H3  252   2.307   4.593   1.318 -1.2771 -0.8521  1.5329
   16MPD2     N  253   2.700   4.541   1.561 -0.4720  0.1504 -0.2203
   16MPD2    H5  254   2.744   4.575   1.646  2.5039  2.4063 -2.6543
   16MPD2    N1  255   2.323   0.096   1.701 -0.6487 -0.5229 -0.6087
   16MPD2    H7  256   2.234   0.135   1.671 -0.3087  0.1100 -0.8100
   17TCq1    O1  257   0.454   4.525  12.283  0.6980  0.4865  0.0396
   17TCq1    C1  258   0.461   4.462  12.170  0.4434  0.5204  0.2821
   17TCq1    O2  259   0.463   4.340  12.164  1.0406 -0.4099  0.4336
   17TCq1    C2  260   0.454   4.552  12.050  0.2459 -0.5867  0.1302
   17TCq1    C3  261   0.439   4.495  11.931  0.3695 -0.6010  0.1590
   17TCq1    C4  262   0.440   4.563  11.814 -0.1769 -0.3417 -0.0783
   17TCq1    C5  263   0.452   4.704  11.819  0.6103 -0.9735 -0.1670
   17TCq1    C6  264   0.486   0.036  11.945  0.4516  0.3768 -0.1064
   17TCq1    C7  265   0.480   4.687  12.065  0.1717 -0.6045 -0.4637
   17TCq1    C8  266   0.534   0.172  11.949 -0.0817 -0.3371  0.1479
   17TCq1    O4  267   0.504   0.245  12.041  0.0928 -0.2281  0.1633
   17TCq1    C9  268   0.407   4.498  11.690 -0.4433 -0.9181  0.0705
   17TCq1    O5  269   0.361   4.567  11.595 -0.8022 -0.0814  0.0597
   17TCq1    O6  270   0.378   4.375  11.695  0.3689  0.4895  0.4469
   17TCq1    H1  271   0.421   4.618  12.290 -0.5190  0.1097 -0.7185
   17TCq1    H2  272   0.436   4.386  11.931 -0.1032 -0.5983 -1.3824
   17TCq1    H3  273   0.447   0.041  11.728 -3.7010 -1.7269 -0.3739
   17TCq1    H4  274   0.500   0.014  12.160  1.4829 -1.7066 -0.1771
   18MPD2     C  275   0.573   0.444  11.836  0.2937 -0.9008  0.1065
   18MPD2    C1  276   0.607   0.323  11.772 -0.4726  0.6996  0.0882
   18MPD2    C2  277   0.662   0.321  11.651 -0.6041  0.1010 -0.3396
   18MPD2    C3  278   0.667   0.442  11.577  0.2909 -0.1256 -0.0587
   18MPD2    C4  279   0.631   0.558  11.635  0.7122 -0.3277  0.1367
   18MPD2    C5  280   0.589   0.559  11.767  0.2520  0.0064 -0.7225
   18MPD2     H  281   0.687   0.224  11.610 -0.6643 -0.8476  1.8743
   18MPD2    H1  282   0.651   0.656  11.594 -1.3064 -0.7294 -1.7909
   18MPD2    H2  283   0.535   0.466  11.935  0.4354 -0.3795  0.0472
   18MPD2    H3  284   0.571   0.653  11.818 -0.1450 -1.8193  2.4394
   18MPD2     N  285   0.711   0.446  11.445  0.0966 -0.4024  0.4342
   18MPD2    H5  286   0.707   0.539  11.404  3.2603 -0.9445 -1.0452
   18MPD2    N1  287   0.586   0.197  11.826  1.0142  0.0583 -0.5383
   18MPD2    H7  288   0.610   0.117  11.769 -3.3735 -3.1224  2.0612
   19TMC2    C1  289   1.576   0.286  13.820 -0.5868 -0.1696  0.3615
   19TMC2    C2  290   1.536   0.291  13.687 -0.3367  0.7672 -0.0298
   19TMC2    C3  291   1.488   0.174  13.635 -0.0256  0.4293  0.1323
   19TMC2    C4  292   1.575   0.172  13.893 -0.1899 -0.4292  0.5672
   19TMC2    C5  293   1.532   0.053  13.828 -0.2668 -0.2707  0.0376
   19TMC2    C6  294   1.480   0.051  13.700  0.0283  0.4837 -0.6131
   19TMC2     C  295   1.622   0.408  13.882 -0.0709  0.6801  0.3371
   19TMC2     O  296   1.601   0.516  13.828 -0.0671  0.6000  0.0133
   19TMC2     H  297   1.526   0.384  13.632  0.4580  2.2038  2.2785
   19TMC2    H1  298   1.585   0.178  14.001 -1.5335  0.2051  0.6493
   19TMC2    H2  299   1.451   4.680  13.649 -0.0798 -1.2017  2.5113
   19TMC2    C7  300   1.501   4.665  13.919  0.4008 -0.4267 -0.4204
   19TMC2    C8  301   1.421   0.178  13.505 -0.4481  0.1439  0.7886
   19TMC2    O1  302   1.517   4.692  14.039  0.3651  0.2821 -0.4958
   19TMC2    O2  303   1.340   0.098  13.463  0.3339  0.7373  0.0926
   19TMC2    O5  304   1.523   0.233  13.429 -0.1755  0.6606  0.2378
   19TMC2    H5  305   1.602   0.256  13.483  1.5094 -1.8818 -1.1214
   20MPD2     C  306   1.757   0.607  14.067 -0.3779 -0.5022 -0.2314
   20MPD2    C1  307   1.759   0.468  14.082  0.3541  0.2001  0.8666
   20MPD2    C2  308   1.835   0.411  14.190  0.1548 -0.8686  0.4459
   20MPD2    C3  309   1.900   0.495  14.276  0.1789  0.1240 -0.0489
   20MPD2    C4  310   1.895   0.631  14.256 -0.5492 -0.1595  0.1705
   20MPD2    C5  311   1.825   0.688  14.150  0.0633 -1.0518  0.1299
   20MPD2     H  312   1.837   0.303  14.200 -1.7563 -0.8600  0.9661
   20MPD2    H1  313   1.937   0.698  14.330  0.1531  0.5793 -0.9037
   20MPD2    H2  314   1.703   0.655  13.987 -0.5304 -0.4254 -0.0837
   20MPD2    H3  315   1.814   0.795  14.134  0.8261 -1.2038 -1.4145
   20MPD2     N  316   1.964   0.448  14.391  0.0486  0.1044  0.2157
   20MPD2    H5  317   2.004   0.513  14.459  2.0903 -1.5043  0.5757
   20MPD2    N1  318   1.696   0.379  13.997  0.5956 -0.5066  0.2182
   20MPD2    H7  319   1.716   0.280  14.012 -2.0337 -1.0776  0.0586
   21MPD2     C  320   4.397   1.518  14.239 -0.5517  0.8160  0.0935
   21MPD2    C1  321   4.439   1.413  14.315  0.3153  0.3785 -0.4428
   21MPD2    C2  322   4.359   1.356  14.405 -0.4524 -0.2540  0.3701
   21MPD2    C3  323   4.228   1.397  14.423  0.3117  0.1611 -0.2944
   21MPD2    C4  324   4.188   1.519  14.367  0.2538 -0.7425  0.3852
   21MPD2    C5  325   4.273   1.570  14.268  0.1045 -0.4947  1.2060
   21MPD2     H  326   4.391   1.280  14.476  1.4364 -0.7001 -0.9490
   21MPD2    H1  327   4.089   1.559  14.387  0.9496  0.7162  0.8880
   21MPD2    H2  328   4.455   1.564  14.160  0.7087 -1.0322 -0.0812
   21MPD2    H3  329   4.236   1.644  14.198 -0.2805 -1.8514 -0.0277
   21MPD2     N  330   4.143   1.348  14.528 -0.2571  0.2506 -0.1952
   21MPD2    H5  331   4.070   1.413  14.557  0.5450  1.1721 -0.2514
   21MPD2    N1  332   4.569   1.364  14.302 -0.3105  0.0403 -0.6216
   21MPD2    H7  333   4.598   1.294  14.368 -0.2723  0.9400  0.3176
   22TCq2    C1  334   4.149   1.219  14.579 -0.9671  1.0600  0.4904
   22TCq2    O2  335   4.233   1.134  14.548  0.2989  0.4333 -0.6750
   22TCq2    C2  336   4.064   1.186  14.690 -0.5529  0.7252  0.0203
   22TCq2    C3  337   4.089   1.060  14.740  0.2568  0.2165  0.1014
   22TCq2    C4  338   4.016   1.017  14.850 -0.8412 -0.2942  0.6590
   22TCq2    C5  339   3.921   1.104  14.906  0.9518  0.2979  0.3355
   22TCq2    C6  340   3.892   1.223  14.847 -0.2715 -0.3810 -0.3926
   22TCq2    C7  341   3.965   1.264  14.741  0.0848 -0.1620  0.7382
   22TCq2    C8  342   3.816   1.320  14.922  0.0476  0.2546  0.1644
   22TCq2    O4  343   3.838   1.323  15.041  0.0445  0.9598 -0.3442
   22TCq2    C9  344   4.037   0.886  14.910 -0.1254  0.1119  0.3732
   22TCq2    O5  345   3.956   0.860  15.004 -0.4334 -0.6399  0.5379
   22TCq2    O6  346   4.100   0.807  14.840 -0.2657  0.1745  0.0405
   22TCq2    H2  347   4.156   0.989  14.694  0.3589 -1.7684  3.3380
   22TCq2    H3  348   3.853   1.070  14.983  2.5117  0.2045  1.6873
   22TCq2    H4  349   3.941   1.362  14.700 -1.7236  0.5101  3.3295
   23MPD2     C  350   1.118   2.298  14.853  0.9891 -0.1645  0.3814
   23MPD2    C1  351   1.035   2.195  14.861 -0.3140  0.3818  0.7926
   23MPD2    C2  352   0.977   2.141  14.752 -0.5972 -0.0845 -0.2446
   23MPD2    C3  353   0.999   2.200  14.632 -0.2527 -0.0847  0.4812
   23MPD2    C4  354   1.083   2.303  14.623 -0.4187  0.6528 -0.0319
   23MPD2    C5  355   1.150   2.352  14.733 -0.0564  0.1763  0.0330
   23MPD2     H  356   0.901   2.066  14.772  0.3710 -1.5533 -2.0839
   23MPD2    H1  357   1.098   2.352  14.528 -2.6703  1.4680  0.0514
   23MPD2    H2  358   1.184   2.333  14.932 -0.4194  1.7589  0.6807
   23MPD2    H3  359   1.219   2.434  14.718  0.9801 -0.7893 -0.4537
   23MPD2     N  360   0.934   2.161  14.514 -0.6878  0.0776  0.2623
   23MPD2    H5  361   0.970   2.203  14.429 -0.6073 -0.2226  0.1480
   23MPD2    N1  362   1.003   2.148  14.989  0.0658  0.2712 -0.5869
   23MPD2    H7  363   0.946   2.066  15.009 -1.6676  1.3233 -1.3071
   24TCq2    C1  364   0.838   2.067  14.502  0.3095  0.3714  0.3744
   24TCq2    O2  365   0.802   1.982  14.580 -0.0537 -0.1913  0.1355
   24TCq2    C2  366   0.782   2.067  14.360  0.7729  0.2217 -0.4150
   24TCq2    C3  367   0.787   2.185  14.282 -0.4421  0.0364  0.4415
   24TCq2    C4  368   0.677   2.217  14.202 -0.3450 -0.5693 -0.6753
   24TCq2    C5  369   0.568   2.130  14.192 -0.2082 -0.1239  0.2847
   24TCq2    C6  370   0.570   2.012  14.258  0.6380 -0.0615  0.2454
   24TCq2    C7  371   0.673   1.983  14.347  0.0907  0.5467 -0.0899
   24TCq2    C8  372   0.449   1.929  14.269  0.7182 -0.2356 -0.0761
   24TCq2    O4  373   0.464   1.807  14.296  0.0962  0.1796 -0.8425
   24TCq2    C9  374   0.672   2.328  14.113  0.1101 -0.1209  0.2742
   24TCq2    O5  375   0.780   2.396  14.108 -0.3297  0.2183  0.2156
   24TCq2    O6  376   0.576   2.336  14.031  0.6217  0.0782  0.0746
   24TCq2    H2  377   0.865   2.259  14.285 -0.3878  0.0177 -0.3581
   24TCq2    H3  378   0.476   2.156  14.141 -1.1189 -1.4232  1.2687
   24TCq2    H4  379   0.662   1.890  14.401  4.6807  0.3809  0.5727
   25TMC2    C1  380   4.545   4.289  11.519  0.0250  0.0521  0.3965
   25TMC2    C2  381   4.623   4.374  11.443 -1.1225 -0.5698  0.1594
   25TMC2    C3  382   4.605   4.508  11.454 -0.3379  1.0014  0.0588
   25TMC2    C4  383   4.441   4.344  11.596 -0.1124 -0.0009  0.0202
   25TMC2    C5  384   4.413   4.477  11.593 -0.5179  0.5014  0.5479
   25TMC2    C6  385   4.502   4.556  11.525 -0.9325 -0.2311  1.0292
   25TMC2     C  386   4.539   4.155  11.466 -0.3025 -0.2699 -0.2112
   25TMC2     O  387   4.641   4.105  11.421 -0.4400  0.5077 -1.0402
   25TMC2     H  388   4.693   4.320  11.379  1.6355  2.2807  0.7867
   25TMC2    H1  389   4.387   4.279  11.664 -1.6030 -1.2992 -2.4016
   25TMC2    H2  390   4.497   4.660  11.554  0.4093  0.3013 -0.6433
   25TMC2    C7  391   4.326   4.524  11.699  0.0756  0.3143  0.3457
   25TMC2    C8  392   4.710   4.599  11.398  0.6491 -0.4863 -0.0469
   25TMC2    O1  393   4.268   4.435  11.764 -0.5736  0.4778 -0.5457
   25TMC2    O2  394   0.109   4.574  11.390 -0.0726 -0.2417  0.2653
   25TMC2    O5  395   4.644   4.709  11.370  0.7170  0.1329  0.0317
   25TMC2    H5  396   4.551   4.691  11.343  1.3985 -1.4550 -1.2145
   26MPD2     C  397   4.285   3.723  11.384  0.3618 -0.2481  0.0354
   26MPD2    C1  398   4.203   3.807  11.451  0.7617 -0.0603  0.2914
   26MPD2    C2  399   4.252   3.929  11.494  0.3570 -0.3182 -0.4576
   26MPD2    C3  400   4.377   3.966  11.459  0.1478  0.2246  0.1763
   26MPD2    C4  401   4.470   3.881  11.391  0.2306  0.3462  0.3300
   26MPD2    C5  402   4.412   3.755  11.361 -0.1399  0.0961  0.3767
   26MPD2     H  403   4.204   3.993  11.567  1.4747 -2.2469  1.9479
   26MPD2    H1  404   4.576   3.896  11.372 -0.6685  5.8797 -0.2748
   26MPD2    H2  405   4.246   3.625  11.357 -0.9762  0.1311  0.5664
   26MPD2    H3  406   4.484   3.686  11.319 -0.4247  0.6568 -1.0395
   26MPD2     N  407   4.412   4.101  11.482  0.1982 -0.1878 -0.5530
   26MPD2    H5  408   4.338   4.167  11.503 -1.4050 -1.4648 -2.3010
   26MPD2    N1  409   4.074   3.767  11.469 -0.1126  0.0113  0.3692
   26MPD2    H7  410   4.056   3.675  11.430  1.3262  0.6925 -1.9161
   27TMC2    C1  411   3.067   1.568  12.113  0.3035 -0.1719  0.0442
   27TMC2    C2  412   3.101   1.492  12.003 -0.1636  0.4917  0.1866
   27TMC2    C3  413   3.108   1.546  11.883 -0.0471  0.6920 -0.7773
   27TMC2    C4  414   3.036   1.703  12.111  0.0879 -0.7511 -0.3693
   27TMC2    C5  415   3.054   1.760  11.985  0.6490 -0.4830 -0.5542
   27TMC2    C6  416   3.080   1.676  11.869  0.0878  0.5365 -0.2550
   27TMC2     C  417   3.071   1.491  12.237 -0.1705 -0.6931 -0.1412
   27TMC2     O  418   3.133   1.382  12.235 -0.0564  0.0160  0.1690
   27TMC2     H  419   3.132   1.388  12.012 -2.0967 -0.1056 -0.0554
   27TMC2    H1  420   3.017   1.757  12.204 -2.4827 -0.7671 -0.8976
   27TMC2    H2  421   3.102   1.708  11.768 -1.4063 -0.8958 -1.0250
   27TMC2    C7  422   3.028   1.902  11.984  0.0233  0.5136  0.4442
   27TMC2    C8  423   3.176   1.478  11.781 -0.3831  0.4037  0.3492
   27TMC2    O1  424   2.968   1.941  12.087 -0.1636 -0.1838  0.1791
   27TMC2    O2  425   3.258   1.530  11.705  0.5987  0.1857  0.3134
   27TMC2    O5  426   3.073   1.404  11.732  0.2162  0.1535 -0.0463
   27TMC2    H5  427   3.012   1.384  11.807 -1.3873  2.6655 -0.6863
   28MPD2     C  428   2.950   1.426  12.730  0.0245  0.4276 -0.3060
   28MPD2    C1  429   2.888   1.541  12.688 -0.4352  0.2883 -0.2734
   28MPD2    C2  430   2.907   1.575  12.555 -0.0417 -0.1414 -0.8858
   28MPD2    C3  431   3.000   1.513  12.473  0.2289  0.0805 -0.0900
   28MPD2    C4  432   3.068   1.402  12.520  0.3520  0.3965  0.1152
   28MPD2    C5  433   3.038   1.361  12.649 -0.6825 -0.1818 -0.2225
   28MPD2     H  434   2.846   1.656  12.517 -1.9284 -0.0627  2.3146
   28MPD2    H1  435   3.147   1.353  12.464  2.0139  2.7402  0.3520
   28MPD2    H2  436   2.921   1.380  12.824 -0.9391 -0.4831 -1.0474
   28MPD2    H3  437   3.085   1.272  12.689 -0.9005  0.3217  1.1827
   28MPD2     N  438   3.002   1.553  12.340 -0.3969 -0.1329 -0.1007
   28MPD2    H5  439   2.947   1.638  12.326  0.6624  0.5054 -0.3528
   28MPD2    N1  440   2.804   1.605  12.780  0.5519 -0.1717  0.2427
   28MPD2    H7  441   2.774   1.549  12.859 -0.0910 -0.3739 -0.1497
   29MPD2     C  442   2.538   4.110  14.349  0.1202 -0.0740  0.2990
   29MPD2    C1  443   2.600   4.126  14.468  0.3386  0.4205  0.9282
   29MPD2    C2  444   2.633   4.260  14.501 -0.2905  0.0204 -0.9334
   29MPD2    C3  445   2.617   4.363  14.416 -0.0684 -0.3048  0.1884
   29MPD2    C4  446   2.542   4.345  14.298 -0.2822 -0.2112  0.5519
   29MPD2    C5  447   2.510   4.219  14.265  0.3674  0.2846  0.2877
   29MPD2     H  448   2.698   4.273  14.587 -2.4584 -0.2072  0.7337
   29MPD2    H1  449   2.516   4.423  14.227  0.8509 -0.2603  0.0915
   29MPD2    H2  450   2.527   4.015  14.297  2.8188 -0.7524  0.9814
   29MPD2    H3  451   2.470   4.196  14.167 -0.5430 -0.2595  0.7826
   29MPD2     N  452   2.666   4.497  14.440 -0.4157  0.2566  0.1944
   29MPD2    H5  453   2.655   4.569  14.368 -1.8008  0.8373  0.9837
   29MPD2    N1  454   2.653   4.021  14.544 -0.0394  0.1983 -0.2994
   29MPD2    H7  455   2.724   4.052  14.610 -1.2259  1.1572  0.5141
   30TCq2    C1  456   2.712   4.540  14.559  0.3598  0.4420  0.2589
   30TCq2    O2  457   2.706   4.496  14.671 -0.2978 -0.0813  0.1202
   30TCq2    C2  458   2.779   4.671  14.543  0.2367  0.3054 -0.3380
   30TCq2    C3  459   2.800   0.031  14.654 -0.3821 -0.7946 -0.9763
   30TCq2    C4  460   2.882   0.134  14.643  0.0205 -0.6796  0.0376
   30TCq2    C5  461   2.940   0.168  14.525 -0.2356 -0.1108 -0.2556
   30TCq2    C6  462   2.921   0.088  14.421  0.0014  0.4261 -0.3913
   30TCq2    C7  463   2.841   4.700  14.428 -0.3512 -0.4919  0.1734
   30TCq2    C8  464   2.996   0.112  14.297  0.0611 -0.0409  0.0657
   30TCq2    O4  465   2.949   0.062  14.194 -0.1268 -0.1446  0.3980
   30TCq2    C9  466   2.907   0.220  14.754 -0.7502 -0.5874  0.1507
   30TCq2    O5  467   2.842   0.199  14.862 -0.0232  0.2171  0.0120
   30TCq2    O6  468   3.000   0.294  14.727 -0.1135 -0.1028 -0.0076
   30TCq2    H2  469   2.754   0.004  14.749  1.5266 -1.9498 -0.3751
   30TCq2    H3  470   3.000   0.258  14.513 -1.2031  0.5355 -0.2349
   30TCq2    H4  471   2.838   4.638  14.339 -1.2964 -0.3621  0.1198
   31MPD2     C  472   0.924   2.967  14.995  0.2859  0.3865 -0.1478
   31MPD2    C1  473   0.804   2.997  14.937  0.3041 -0.0744  0.4005
   31MPD2    C2  474   0.692   2.942  14.994  0.5118  0.1689 -0.0187
   31MPD2    C3  475   0.699   2.848  15.100 -0.3019 -0.4458  0.1103
   31MPD2    C4  476   0.822   2.826  15.158  0.0352 -0.6024  0.3636
   31MPD2    C5  477   0.930   2.878  15.098 -0.6195  0.8710  0.3148
   31MPD2     H  478   0.597   2.972  14.951  0.9759  1.0728 -0.4106
   31MPD2    H1  479   0.838   2.757  15.241 -1.0517 -1.3917 -0.0782
   31MPD2    H2  480   1.019   3.006  14.961 -0.1808  1.1629 -0.5546
   31MPD2    H3  481   1.028   2.869  15.144 -0.8414 -3.0609 -0.0023
   31MPD2     N  482   0.588   2.797  15.167  0.5858  0.6308 -0.3468
   31MPD2    H5  483   0.603   2.763  15.262 -1.0378  4.1029  1.1572
   31MPD2    N1  484   0.794   3.080  14.822 -0.1515  0.0472  0.5671
   31MPD2    H7  485   0.885   3.101  14.781 -0.1345 -0.8717  0.1458
   32TCq2    C1  486   0.459   2.806  15.122 -0.7267  0.7534 -0.2389
   32TCq2    O2  487   0.420   2.833  15.010 -0.3773 -0.0250  0.2214
   32TCq2    C2  488   0.355   2.821  15.223 -0.1554 -0.0323 -0.2928
   32TCq2    C3  489   0.245   2.900  15.194  0.0247 -0.4554 -0.3290
   32TCq2    C4  490   0.163   2.947  15.298 -0.1799  0.2260 -0.3143
   32TCq2    C5  491   0.173   2.894  15.423  0.0754  0.5365 -0.3699
   32TCq2    C6  492   0.280   2.799  15.441 -0.5879  0.6009  0.1655
   32TCq2    C7  493   0.374   2.766  15.351 -0.2530 -1.0652  0.7142
   32TCq2    C8  494   0.322   2.763  15.577  0.2526 -0.3867 -0.0509
   32TCq2    O4  495   0.393   2.664  15.597  0.4828  0.3377 -0.1495
   32TCq2    C9  496   0.056   3.041  15.261 -0.0476  0.2544  0.2880
   32TCq2    O5  497   4.713   3.096  15.354 -0.2891 -0.6956 -0.0634
   32TCq2    O6  498   0.049   3.067  15.140  0.2088 -0.4006  0.4794
   32TCq2    H2  499   0.231   2.954  15.101 -1.1141  1.5632  1.0267
   32TCq2    H3  500   0.098   2.943  15.484 -0.4739  0.4217 -0.9485
   32TCq2    H4  501   0.446   2.689  15.377  1.8143  0.8402  0.5374
   33MPD2     C  502   1.031   0.947  11.153  0.2505  0.9988 -0.2209
   33MPD2    C1  503   0.947   0.882  11.067  0.3298  0.3721 -0.0303
   33MPD2    C2  504   0.903   0.955  10.959  1.1995  0.3229  0.4265
   33MPD2    C3  505   0.949   1.081  10.927  0.4002 -0.2758 -0.2995
   33MPD2    C4  506   1.041   1.139  11.014 -0.1275 -0.0688  0.4655
   33MPD2    C5  507   1.070   1.080  11.135  0.5184  0.8501 -0.6522
   33MPD2     H  508   0.825   0.914  10.895  0.4248  2.2752  0.1250
   33MPD2    H1  509   1.073   1.241  11.000 -1.7242  0.2393 -0.9526
   33MPD2    H2  510   1.060   0.895  11.244  1.6956 -0.4842 -1.5124
   33MPD2    H3  511   1.140   1.130  11.201  1.0449 -0.5182 -0.1831
   33MPD2     N  512   0.895   1.141  10.810  0.1271 -0.2147  0.6515
   33MPD2    H5  513   0.832   1.084  10.754  0.5683  0.6665 -0.7339
   33MPD2    N1  514   0.924   0.744  11.090 -0.1290 -0.1749 -0.4041
   33MPD2    H7  515   0.962   0.698  11.173  2.3468 -0.3914 -1.6458
   34TCq2    C1  516   0.929   1.262  10.762 -0.4892 -0.0703  0.5235
   34TCq2    O2  517   1.011   1.343  10.803  0.0584 -0.0420  0.4701
   34TCq2    C2  518   0.855   1.293  10.639  0.0583 -0.5861  0.7995
   34TCq2    C3  519   0.735   1.229  10.620 -0.3017 -0.0871  0.3730
   34TCq2    C4  520   0.680   1.233  10.495 -0.1434  0.4360  0.0932
   34TCq2    C5  521   0.737   1.314  10.394  0.1696  1.1106 -0.2197
   34TCq2    C6  522   0.858   1.382  10.419 -0.1148  0.6856  0.3658
   34TCq2    C7  523   0.923   1.362  10.538 -0.7023  0.4347  0.3831
   34TCq2    C8  524   0.916   1.471  10.317  0.0870  0.2421 -0.1044
   34TCq2    O4  525   0.848   1.486  10.218  0.1953  0.0972  0.2533
   34TCq2    C9  526   0.571   1.145  10.460  0.1747  0.0614 -0.2112
   34TCq2    O5  527   0.565   1.036  10.525  0.1302  0.1967  0.3364
   34TCq2    O6  528   0.505   1.169  10.358 -0.3653 -0.3476  0.0434
   34TCq2    H2  529   0.694   1.162  10.695 -1.9072  1.5194  0.9138
   34TCq2    H3  530   0.690   1.323  10.297 -1.0765  1.0147  0.3615
   34TCq2    H4  531   1.013   1.413  10.570 -1.0778  1.7391 -0.6484
   35MPD2     C  532   2.727   2.406  12.100 -0.7003 -0.6627 -0.5255
   35MPD2    C1  533   2.600   2.354  12.081 -0.4933  0.2781  0.4494
   35MPD2    C2  534   2.543   2.373  11.954 -0.1339 -0.2421 -0.8686
   35MPD2    C3  535   2.607   2.445  11.851  0.1271 -0.4668  0.1395
   35MPD2    C4  536   2.736   2.490  11.873 -0.0845 -0.5588  0.2099
   35MPD2    C5  537   2.792   2.476  11.995 -0.4108  0.8694 -0.6293
   35MPD2     H  538   2.446   2.332  11.928 -0.4817  0.2872 -0.3951
   35MPD2    H1  539   2.788   2.532  11.788 -2.2638  2.3877  0.3276
   35MPD2    H2  540   2.779   2.389  12.193 -0.5144 -0.3505 -0.5731
   35MPD2    H3  541   2.889   2.522  12.013 -0.5304 -1.0341  5.1060
   35MPD2     N  542   2.538   2.465  11.727 -0.4495  0.1702  0.0735
   35MPD2    H5  543   2.443   2.429  11.719 -0.5205  0.1949  0.8553
   35MPD2    N1  544   2.526   2.269  12.172  0.6054 -0.4804  0.2607
   35MPD2    H7  545   2.446   2.222  12.131 -1.9733  2.4678  1.9632
   36TCq2    C1  546   2.571   2.552  11.632  0.1367 -0.0701 -0.2815
   36TCq2    O2  547   2.631   2.656  11.653  0.3449 -0.3951  0.1673
   36TCq2    C2  548   2.477   2.559  11.523 -0.1364  0.1257 -0.0302
   36TCq2    C3  549   2.428   2.680  11.482 -0.3136 -0.1959  0.9917
   36TCq2    C4  550   2.309   2.681  11.406 -0.3595 -0.2017 -0.1206
   36TCq2    C5  551   2.235   2.572  11.373 -0.1889 -0.7204 -0.2083
   36TCq2    C6  552   2.293   2.456  11.404  0.9385  0.4801  0.5693
   36TCq2    C7  553   2.410   2.443  11.481  0.6214 -0.0583 -0.5718
   36TCq2    C8  554   2.216   2.330  11.389 -0.3212 -1.2521 -0.4525
   36TCq2    O4  555   2.263   2.235  11.450 -0.4285 -0.4307  0.0818
   36TCq2    C9  556   2.252   2.807  11.360  0.8309 -0.7617  0.3870
   36TCq2    O5  557   2.303   2.913  11.417 -0.1436  0.1262  0.6388
   36TCq2    O6  558   2.144   2.806  11.297  0.2765 -0.1373  0.1459
   36TCq2    H2  559   2.471   2.777  11.500 -0.5952  0.1517 -0.1695
   36TCq2    H3  560   2.143   2.573  11.316 -0.1688 -0.2400 -0.2259
   36TCq2    H4  561   2.452   2.346  11.505  0.9134  0.3799  0.7003
   37TMC2    C1  562   4.337   2.793  11.572  0.3777  0.1179 -0.3606
   37TMC2    C2  563   4.355   2.835  11.446 -0.2652 -0.0533 -0.4824
   37TMC2    C3  564   4.485   2.813  11.401  0.0041  0.1480  0.0664
   37TMC2    C4  565   4.436   2.743  11.655  0.7370  0.3172 -0.7380
   37TMC2    C5  566   4.564   2.732  11.604  0.2345 -0.3057 -0.8919
   37TMC2    C6  567   4.592   2.774  11.476 -0.0287  0.5597 -0.0739
   37TMC2     C  568   4.197   2.792  11.616  0.0746 -0.3762 -0.0705
   37TMC2     O  569   4.121   2.879  11.576 -0.0603 -0.1375  0.0641
   37TMC2     H  570   4.272   2.883  11.395 -1.5733  1.1205  2.7264
   37TMC2    H1  571   4.413   2.717  11.758  1.8460  1.2530 -0.2583
   37TMC2    H2  572   4.689   2.762  11.430  0.8664 -2.9048  2.7781
   37TMC2    C7  573   4.663   2.671  11.697  0.2228 -0.8098 -0.3138
   37TMC2    C8  574   4.501   2.840  11.263  0.4466 -0.0283  0.0159
   37TMC2    O1  575   4.634   2.684  11.818 -0.4929 -0.1361 -0.1893
   37TMC2    O2  576   4.430   2.913  11.194  0.6670  0.0606  0.7776
   37TMC2    O5  577   4.578   2.735  11.226 -0.3946  0.2517  0.2590
   37TMC2    H5  578   4.584   2.664  11.293 -1.3972  2.6359  2.8512
   38MPD2     C  579   3.815   2.598  11.891 -0.5521 -0.5257 -0.2584
   38MPD2    C1  580   3.931   2.542  11.940 -0.2539 -0.3021 -0.3570
   38MPD2    C2  581   4.053   2.574  11.873  0.8626  0.3565 -0.5777
   38MPD2    C3  582   4.048   2.660  11.765  0.0167  0.2994 -0.4399
   38MPD2    C4  583   3.931   2.719  11.726  1.4702 -1.2001 -0.1572
   38MPD2    C5  584   3.821   2.697  11.798 -0.4378  0.3438 -0.0375
   38MPD2     H  585   4.145   2.537  11.917  0.4437  0.2714  0.2329
   38MPD2    H1  586   3.931   2.777  11.635 -0.9113 -2.8112 -1.1734
   38MPD2    H2  587   3.716   2.580  11.932  0.5103 -0.4009  2.3091
   38MPD2    H3  588   3.725   2.731  11.760 -1.4002 -2.0334  0.2188
   38MPD2     N  589   4.173   2.692  11.706  0.1263  0.1470 -0.2391
   38MPD2    H5  590   4.244   2.622  11.727 -0.3179  0.1051  1.1168
   38MPD2    N1  591   3.938   2.474  12.063  0.2208  0.3300  0.0993
   38MPD2    H7  592   4.032   2.456  12.097  0.0004 -0.5588  0.2389
   39MPD2     C  593   3.101   4.064   1.790  0.0244  0.1164  0.2512
   39MPD2    C1  594   3.026   4.151   1.868  0.1931  0.8636  0.1236
   39MPD2    C2  595   2.892   4.170   1.848 -0.7336  0.2288 -0.1714
   39MPD2    C3  596   2.839   4.117   1.732 -0.4073  0.2511  0.2789
   39MPD2    C4  597   2.911   4.040   1.653 -0.3919 -0.4209 -0.3548
   39MPD2    C5  598   3.036   4.003   1.684  1.2699  0.2922 -0.0919
   39MPD2     H  599   2.838   4.222   1.926  1.3312  0.4537  1.0970
   39MPD2    H1  600   2.860   3.989   1.572 -1.0627 -0.1022 -0.1342
   39MPD2    H2  601   3.200   4.029   1.816 -0.2001  0.3710  1.4533
   39MPD2    H3  602   3.092   3.922   1.638  0.1976 -1.0491  0.9676
   39MPD2     N  603   2.707   4.138   1.693 -0.4081  0.2302  0.4298
   39MPD2    H5  604   2.683   4.091   1.607  2.1283 -0.7075  0.2345
   39MPD2    N1  605   3.099   4.215   1.976  0.1678  0.2414 -0.0445
   39MPD2    H7  606   3.199   4.202   1.984  0.1201  0.8086  1.4956
   40TCq2    C1  607   3.047   4.296   2.073 -0.4687 -0.1623  0.0235
   40TCq2    O2  608   2.929   4.322   2.101 -0.1002 -0.2127 -0.3958
   40TCq2    C2  609   3.142   4.349   2.163 -0.1869  0.0130  0.0448
   40TCq2    C3  610   3.096   4.395   2.284 -0.2806 -0.3336 -0.9385
   40TCq2    C4  611   3.179   4.467   2.366 -0.0329 -0.3858 -0.2536
   40TCq2    C5  612   3.303   4.506   2.314  0.0585 -0.0988  0.0341
   40TCq2    C6  613   3.343   4.466   2.194  0.1592  0.3823  1.1173
   40TCq2    C7  614   3.259   4.395   2.111 -0.4643  0.0396  0.5777
   40TCq2    C8  615   3.470   4.523   2.136 -0.9004  0.4852  0.0129
   40TCq2    O4  616   3.523   4.465   2.042  0.0337  0.3321  0.1615
   40TCq2    C9  617   3.123   4.541   2.478 -0.0738 -0.4215 -0.7426
   40TCq2    O5  618   3.192   4.631   2.531  0.3634  0.3476 -0.2869
   40TCq2    O6  619   3.015   4.505   2.525 -0.5859  0.0379  0.0628
   40TCq2    H2  620   2.992   4.394   2.316  0.1610 -1.8780  0.4296
   40TCq2    H3  621   3.370   4.567   2.373 -1.0289 -0.2742  1.4696
   40TCq2    H4  622   3.296   4.363   2.015 -1.1941  1.8668 -0.3145
   41TMC2    C1  623   1.582   1.937  14.141  0.0377 -0.5333  0.2411
   41TMC2    C2  624   1.664   2.044  14.186 -0.0170 -0.0293 -0.3960
   41TMC2    C3  625   1.659   2.161  14.119  0.0752  0.1639  0.5751
   41TMC2    C4  626   1.482   1.963  14.051 -0.3849  0.4662  0.2820
   41TMC2    C5  627   1.467   2.093  14.000  0.3375  0.3628  0.1660
   41TMC2    C6  628   1.570   2.188  14.020  0.0084 -1.0051 -0.8366
   41TMC2     C  629   1.548   1.841  14.243  0.5985 -0.2335 -0.3990
   41TMC2     O  630   1.441   1.787  14.242  0.6641 -0.1278  0.3249
   41TMC2     H  631   1.714   2.048  14.282  1.3739 -0.7718 -1.0795
   41TMC2    H1  632   1.409   1.885  14.035  0.1442  0.0132  0.0430
   41TMC2    H2  633   1.569   2.289  13.982  2.2006 -1.0514 -1.0212
   41TMC2    C7  634   1.401   2.100  13.868  0.0945 -0.7209  0.2274
   41TMC2    C8  635   1.752   2.262  14.162  0.0806 -0.3422 -0.2245
   41TMC2    O1  636   1.346   1.999  13.824  0.0116 -0.2731  0.8354
   41TMC2    O2  637   1.731   2.383  14.143 -0.2345 -0.1994  0.2924
   41TMC2    O5  638   1.874   2.213  14.161  0.1885 -0.4820  0.1940
   41TMC2    H5  639   1.870   2.120  14.130 -2.2510 -1.2648  2.8677
   42MPD2     C  640   1.545   1.659  14.467 -0.4805  1.3095 -0.0990
   42MPD2    C1  641   1.654   1.733  14.428  0.0360  0.5016  0.0820
   42MPD2    C2  642   1.760   1.743  14.518  0.2497 -0.5395  0.2925
   42MPD2    C3  643   1.758   1.672  14.639  0.0461 -0.3513 -1.1245
   42MPD2    C4  644   1.648   1.596  14.673 -0.7264  0.2856  0.2790
   42MPD2    C5  645   1.539   1.597  14.586  0.1134  0.4442  0.1319
   42MPD2     H  646   1.845   1.807  14.501 -0.9430  0.6252 -1.3512
   42MPD2    H1  647   1.633   1.542  14.766 -2.6427 -0.9635 -0.7466
   42MPD2    H2  648   1.455   1.659  14.407 -0.0248 -1.0190 -0.7879
   42MPD2    H3  649   1.452   1.549  14.630  0.0689 -1.0252 -1.5647
   42MPD2     N  650   1.865   1.688  14.737  0.9736 -1.0878  0.1875
   42MPD2    H5  651   1.846   1.667  14.835 -1.6708  0.3660 -0.0088
   42MPD2    N1  652   1.658   1.823  14.321  0.1081  0.0367  0.0739
   42MPD2    H7  653   1.746   1.862  14.288 -1.1541  3.0843  0.3844
   43MPD2     C  654   3.009   1.048   0.789  0.2505  0.0547  0.6267
   43MPD2    C1  655   3.111   1.041   0.877  0.8666 -0.5385 -0.3429
   43MPD2    C2  656   3.100   1.109   1.002  0.0440 -0.4147  0.7166
   43MPD2    C3  657   2.984   1.171   1.038  0.3257 -0.3119 -0.2985
   43MPD2    C4  658   2.879   1.173   0.945  0.2909 -0.1897  0.0149
   43MPD2    C5  659   2.899   1.117   0.823 -0.2930  0.2864  0.3773
   43MPD2     H  660   3.183   1.086   1.067  2.1735  0.1265 -1.8543
   43MPD2    H1  661   2.789   1.233   0.951 -0.3544 -1.1025 -0.5324
   43MPD2    H2  662   3.014   1.013   0.686 -0.7792  0.3346  0.4852
   43MPD2    H3  663   2.836   1.135   0.737 -0.2932 -0.4788  0.2235
   43MPD2     N  664   2.965   1.244   1.163  0.3738 -0.5918 -0.6914
   43MPD2    H5  665   2.872   1.277   1.186  1.1467  0.4560  0.9575
   43MPD2    N1  666   3.235   0.973   0.857  0.4820  0.2330  0.2423
   43MPD2    H7  667   3.307   0.993   0.925  1.6241 -0.1776 -0.8384
   44TCq2    C1  668   3.248   1.236   1.674  0.5257  0.4892  0.2341
   44TCq2    O2  669   3.356   1.274   1.626 -0.4342 -0.0196 -0.0508
   44TCq2    C2  670   3.139   1.217   1.586  0.0247  0.4888 -0.4259
   44TCq2    C3  671   3.015   1.178   1.632 -0.6419  1.1321  0.1243
   44TCq2    C4  672   2.901   1.206   1.560  0.2352 -0.1776 -0.3381
   44TCq2    C5  673   2.913   1.251   1.435  0.0348  0.3288 -0.1261
   44TCq2    C6  674   3.043   1.285   1.384  0.4456  0.4865 -0.1952
   44TCq2    C7  675   3.156   1.277   1.464 -0.4993 -0.6024 -0.6103
   44TCq2    C8  676   3.071   1.275   1.242 -0.1205  0.1483 -0.1084
   44TCq2    O4  677   3.189   1.260   1.211  0.2394  0.0463  0.2705
   44TCq2    C9  678   2.770   1.177   1.613 -0.2038 -0.6981  1.3313
   44TCq2    O5  679   2.675   1.183   1.535  0.8307 -0.3419  0.2279
   44TCq2    O6  680   2.765   1.148   1.737 -0.1192 -0.4835 -0.1116
   44TCq2    H2  681   3.000   1.115   1.719  1.0803  1.3634  0.5854
   44TCq2    H3  682   2.829   1.270   1.369  0.9562  0.7168 -1.1804
   44TCq2    H4  683   3.253   1.309   1.426 -0.7144  3.2538  2.1065
   45TMC2    C1  684   3.760   2.347   9.820  0.0839  0.2971 -1.0941
   45TMC2    C2  685   3.742   2.293   9.700  0.2981  1.0898  0.3143
   45TMC2    C3  686   3.777   2.372   9.594  0.3007  0.0862 -0.0616
   45TMC2    C4  687   3.838   2.458   9.845 -0.0793 -0.1673  0.2323
   45TMC2    C5  688   3.889   2.520   9.727 -1.1998 -0.2195  0.6233
   45TMC2    C6  689   3.832   2.493   9.606 -0.4184  0.1930 -0.3824
   45TMC2     C  690   3.735   2.255   9.930 -0.3017 -0.3050  0.0823
   45TMC2     O  691   3.773   2.286  10.039 -0.6346  0.0731 -0.2325
   45TMC2     H  692   3.718   2.191   9.670  0.8315  1.4976 -1.4675
   45TMC2    H1  693   3.867   2.485   9.945 -0.4826 -0.9312  0.5534
   45TMC2    H2  694   3.878   2.544   9.521  1.1856  1.8413  1.4621
   45TMC2    C7  695   3.972   2.643   9.738 -0.1120 -0.7333 -0.1362
   45TMC2    C8  696   3.781   2.307   9.455 -0.0811 -0.2889 -0.3745
   45TMC2    O1  697   4.018   2.677   9.637  0.0558  0.3719 -0.1957
   45TMC2    O2  698   3.844   2.356   9.364  0.3028 -0.7851 -0.2570
   45TMC2    O5  699   3.686   2.216   9.440  0.0406 -0.2581 -0.7139
   45TMC2    H5  700   3.620   2.206   9.512  1.4407  0.3168  0.6517
   46MPD2     C  701   3.640   2.031  10.115  0.2489  0.4240 -0.1970
   46MPD2    C1  702   3.589   2.059   9.991  0.2179  0.2771 -0.2896
   46MPD2    C2  703   3.481   1.988   9.941  0.0442  0.1493 -0.2440
   46MPD2    C3  704   3.429   1.880  10.018  0.4353  0.5740  0.2696
   46MPD2    C4  705   3.481   1.857  10.145  0.3147  0.2281 -0.8903
   46MPD2    C5  706   3.587   1.929  10.192  0.0088 -0.3879 -0.9348
   46MPD2     H  707   3.460   2.021   9.840 -0.3905 -1.3083 -0.6334
   46MPD2    H1  708   3.448   1.768  10.196  0.0344  0.0508 -1.3804
   46MPD2    H2  709   3.720   2.092  10.154  0.3505  0.2794 -0.1780
   46MPD2    H3  710   3.629   1.907  10.289 -0.9613  1.5688 -0.0612
   46MPD2     N  711   3.327   1.792   9.961 -0.2798  0.3290 -0.4546
   46MPD2    H5  712   3.298   1.819   9.868  0.6506 -0.6696 -1.0416
   46MPD2    N1  713   3.641   2.160   9.904  0.0714 -0.1009  0.7203
   46MPD2    H7  714   3.597   2.150   9.813 -3.5232  2.6421  2.1461
   47TMC2    C1  715   1.500   3.011   9.264 -0.4939 -0.6583 -0.1420
   47TMC2    C2  716   1.596   2.945   9.202  0.2122  0.1615  0.2310
   47TMC2    C3  717   1.564   2.882   9.082 -0.2517 -0.0278  0.0477
   47TMC2    C4  718   1.371   3.020   9.214  0.2529  0.4786 -0.0781
   47TMC2    C5  719   1.347   2.956   9.098  0.5692 -0.1349  0.2031
   47TMC2    C6  720   1.441   2.879   9.033 -0.2175 -0.1309 -0.5550
   47TMC2     C  721   1.527   3.100   9.374 -0.3814  0.2310  0.0629
   47TMC2     O  722   1.463   3.205   9.375  0.6979  0.4785  0.1777
   47TMC2     H  723   1.698   2.955   9.236 -0.1650  0.8607  1.1418
   47TMC2    H1  724   1.289   3.065   9.268 -0.1140 -1.7352  1.2371
   47TMC2    H2  725   1.423   2.827   8.939 -0.8011 -0.2995 -0.3468
   47TMC2    C7  726   1.216   2.977   9.042  0.3672 -0.6247 -0.1478
   47TMC2    C8  727   1.664   2.820   8.996  0.5283  0.1321 -0.3529
   47TMC2    O1  728   1.148   3.062   9.102 -0.0898 -0.2495 -0.5458
   47TMC2    O2  729   1.639   2.796   8.878  0.3658  0.4742 -0.1127
   47TMC2    O5  730   1.776   2.790   9.065  0.3438 -0.3785 -0.3387
   47TMC2    H5  731   1.769   2.785   9.163  0.9832 -0.3941 -0.2908
   48MPD2     C  732   1.648   3.250   9.587  0.1195 -0.8020 -0.5101
   48MPD2    C1  733   1.661   3.115   9.576  0.3484 -0.2032 -0.6527
   48MPD2    C2  734   1.736   3.039   9.663 -0.0764  0.7270 -0.3241
   48MPD2    C3  735   1.800   3.102   9.764  0.3314 -0.8500 -0.3576
   48MPD2    C4  736   1.796   3.241   9.773  0.3065 -0.0149  0.3004
   48MPD2    C5  737   1.713   3.311   9.687 -0.0343  0.1448 -0.5944
   48MPD2     H  738   1.738   2.932   9.650  2.1053  0.8880 -1.1742
   48MPD2    H1  739   1.845   3.293   9.854  0.8357  0.7022 -0.4796
   48MPD2    H2  740   1.572   3.301   9.530 -0.4007 -0.5614  0.3945
   48MPD2    H3  741   1.698   3.418   9.702  0.2260  0.0089  0.6638
   48MPD2     N  742   1.885   3.025   9.849 -0.3615  0.4248 -0.4188
   48MPD2    H5  743   1.877   2.924   9.837  0.1113  0.5468 -1.7809
   48MPD2    N1  744   1.620   3.052   9.459  0.1243 -0.4271  0.9265
   48MPD2    H7  745   1.633   2.952   9.446  1.3592 -0.5233  2.9109
   49MPD2     C  746   4.137   4.206  10.504 -0.4958 -0.4730 -0.2847
   49MPD2    C1  747   4.055   4.314  10.479 -0.4075 -0.3631  0.4420
   49MPD2    C2  748   4.051   4.408  10.582 -0.0261  0.2910 -0.2916
   49MPD2    C3  749   4.123   4.391  10.707  0.5211 -0.1144 -0.1601
   49MPD2    C4  750   4.195   4.273  10.728  1.0179  0.1177 -0.8007
   49MPD2    C5  751   4.196   4.181  10.629  0.1192 -0.2442 -1.1657
   49MPD2     H  752   3.999   4.502  10.571 -1.4815 -0.5889 -0.9710
   49MPD2    H1  753   4.249   4.243  10.817  0.4977  0.7399 -0.2790
   49MPD2    H2  754   4.161   4.140  10.422 -1.2443 -2.0577  0.7691
   49MPD2    H3  755   4.262   4.095  10.636  0.7168  0.3536  0.5548
   49MPD2     N  756   4.135   4.493  10.803 -0.4924 -0.1854 -0.4905
   49MPD2    H5  757   4.189   4.473  10.887  0.0420 -0.4905 -0.9063
   49MPD2    N1  758   3.985   4.332  10.358 -0.1423 -0.3272  0.0676
   49MPD2    H7  759   3.924   4.413  10.350  0.7340  0.1684 -1.5660
   50TCq2    C1  760   3.976   4.237  10.256  1.0659 -0.1689 -0.0673
   50TCq2    O2  761   4.008   4.118  10.255  0.0024 -0.0991 -0.1795
   50TCq2    C2  762   3.906   4.281  10.140  0.0495  0.9413  0.8121
   50TCq2    C3  763   3.912   4.413  10.123  0.1413 -0.1425 -0.0488
   50TCq2    C4  764   3.835   4.455  10.012 -0.1453 -0.0766  0.9134
   50TCq2    C5  765   3.779   4.369   9.918  0.6168  0.1335 -0.0186
   50TCq2    C6  766   3.793   4.237   9.940  0.5454  0.0360 -0.2774
   50TCq2    C7  767   3.848   4.185  10.053  0.7638 -0.2458 -0.2679
   50TCq2    C8  768   3.735   4.151   9.838  0.1505 -0.0359 -0.2127
   50TCq2    O4  769   3.685   4.199   9.736 -0.2538  0.6273  0.6777
   50TCq2    C9  770   3.818   4.594   9.988 -0.1011  0.8355 -0.2908
   50TCq2    O5  771   3.713   4.633   9.933 -0.0692 -0.0610  0.3298
   50TCq2    O6  772   3.886   4.677  10.052  0.2916  0.6182 -0.3664
   50TCq2    H2  773   3.986   4.477  10.171  0.3291 -0.1640 -0.3108
   50TCq2    H3  774   3.716   4.402   9.837 -0.6574 -3.7289 -0.6070
   50TCq2    H4  775   3.864   4.080  10.076 -0.7682 -0.5102 -0.3885
   51MPD2     C  776   0.209   4.439   1.328 -0.0599  0.8109 -0.2017
   51MPD2    C1  777   0.111   4.383   1.407  0.0184  0.6523  0.1628
   51MPD2    C2  778   0.028   4.457   1.484 -0.1498  1.0219 -0.2432
   51MPD2    C3  779   0.046   4.594   1.497 -0.9016 -0.2182  0.0774
   51MPD2    C4  780   0.146   4.646   1.415 -0.2668  0.2983  0.0304
   51MPD2    C5  781   0.215   4.572   1.325  0.4052 -0.1802  0.1269
   51MPD2     H  782   4.668   4.407   1.535  0.2699  0.4121 -0.1721
   51MPD2    H1  783   0.166   0.031   1.428  3.2235 -0.5933  2.0720
   51MPD2    H2  784   0.258   4.389   1.245 -2.1267 -2.1414  0.3865
   51MPD2    H3  785   0.298   4.620   1.275  0.5881 -0.6933 -0.0623
   51MPD2     N  786   4.696   4.690   1.579  0.0700 -0.5495  0.0681
   51MPD2    H5  787   4.720   0.068   1.578  0.3213 -0.6163 -0.3761
   51MPD2    N1  788   0.078   4.247   1.411  0.2987 -0.4672  0.7963
   51MPD2    H7  789   4.710   4.223   1.454  1.1990 -1.1852  2.2566
   52TCq2    C1  790   4.595   4.659   1.663 -0.4255  0.4009  0.5353
   52TCq2    O2  791   4.547   4.546   1.682 -0.4733  0.2242  0.1882
   52TCq2    C2  792   4.522   0.058   1.715  0.2545 -0.5967  0.0031
   52TCq2    C3  793   4.407   0.032   1.784 -0.2722  0.2857  0.1752
   52TCq2    C4  794   4.348   0.137   1.843 -0.4349  0.6847 -0.4736
   52TCq2    C5  795   4.410   0.257   1.853  0.4842  0.7161 -0.0932
   52TCq2    C6  796   4.531   0.278   1.791  0.2296 -0.6355 -0.8989
   52TCq2    C7  797   4.589   0.177   1.717 -0.5030 -0.6195 -0.4232
   52TCq2    C8  798   4.632   0.360   1.858  0.8636  0.4170 -0.1186
   52TCq2    O4  799   0.000   0.302   1.916 -0.1443 -0.4591  0.1268
   52TCq2    C9  800   4.226   0.123   1.915  0.0107  0.0089  0.6305
   52TCq2    O5  801   4.178   0.007   1.926  0.2770  0.0380  0.1179
   52TCq2    O6  802   4.180   0.232   1.962 -0.3036  0.7768  0.3287
   52TCq2    H2  803   4.359   4.656   1.783  0.0695  0.0909  2.2372
   52TCq2    H3  804   4.363   0.348   1.888 -1.2009  0.5690 -1.9566
   52TCq2    H4  805   4.696   0.185   1.698 -0.3730 -0.7042  0.2328
   53TMC2    C1  806   0.487   2.533  12.192 -0.5083 -0.2450  0.5817
   53TMC2    C2  807   0.566   2.447  12.260 -0.0063 -0.1363 -0.0480
   53TMC2    C3  808   0.543   2.433  12.394 -0.1138  0.2787  0.4071
   53TMC2    C4  809   0.369   2.580  12.245 -0.4876 -0.1705 -0.3832
   53TMC2    C5  810   0.343   2.565  12.380  0.3073  0.0508  0.3350
   53TMC2    C6  811   0.431   2.484  12.452  0.3273 -0.1080  0.3642
   53TMC2     C  812   0.488   2.516  12.042 -0.5477  0.4398 -0.1091
   53TMC2     O  813   0.598   2.482  11.995  0.2227  0.0127  0.1337
   53TMC2     H  814   0.658   2.406  12.219  0.6534 -0.7207  1.9858
   53TMC2    H1  815   0.309   2.651  12.189  1.5873 -0.3467 -2.8654
   53TMC2    H2  816   0.411   2.450  12.553  0.1678  0.0320  0.3820
   53TMC2    C7  817   0.222   2.608  12.440  0.3871 -0.1397  1.0872
   53TMC2    C8  818   0.618   2.324  12.465  0.3284  0.2826 -0.3315
   53TMC2    O1  819   0.140   2.664  12.365  0.1413  0.1291  1.1006
   53TMC2    O2  820   0.616   2.306  12.584 -0.6098  0.6565 -0.0914
   53TMC2    O5  821   0.645   2.227  12.370  0.1036 -0.0075  0.3823
   53TMC2    H5  822   0.633   2.256  12.277  0.7265 -1.6101 -0.1883
   54MPD2     C  823   0.419   2.487  11.758 -0.0132 -0.2316 -0.3017
   54MPD2    C1  824   0.328   2.517  11.853  0.3038  0.1980  0.1063
   54MPD2    C2  825   0.196   2.553  11.812  0.3358 -0.6445  0.1472
   54MPD2    C3  826   0.173   2.577  11.677  0.0860 -0.1160 -0.3693
   54MPD2    C4  827   0.271   2.546  11.587  1.3172  0.1780 -0.8009
   54MPD2    C5  828   0.389   2.503  11.623 -0.2192 -0.3285  0.1561
   54MPD2     H  829   0.120   2.568  11.888 -1.9176  1.9294 -2.5969
   54MPD2    H1  830   0.244   2.562  11.484 -0.9125  1.6032  0.0135
   54MPD2    H2  831   0.521   2.455  11.774  0.1065  0.4425  0.3041
   54MPD2    H3  832   0.466   2.484  11.549 -0.6940  2.7556 -1.1280
   54MPD2     N  833   0.050   2.634  11.626 -0.0852 -0.2619  0.2374
   54MPD2    H5  834   0.028   2.625  11.527 -0.5430 -0.0997  0.3259
   54MPD2    N1  835   0.362   2.515  11.989  0.0673  0.0010 -0.3668
   54MPD2    H7  836   0.283   2.526  12.052  0.2367  0.1543 -0.1835
   55MPD2     C  837   0.886   0.918   1.419  0.8580  0.0982 -0.3356
   55MPD2    C1  838   0.883   0.829   1.315  0.2851  0.5697 -0.1063
   55MPD2    C2  839   0.760   0.768   1.301 -0.2562 -0.3080 -0.0436
   55MPD2    C3  840   0.645   0.798   1.373 -0.3594  0.3437  1.3812
   55MPD2    C4  841   0.652   0.903   1.465 -0.0053  0.1378 -0.1288
   55MPD2    C5  842   0.777   0.956   1.490 -0.1462  0.6140  0.1764
   55MPD2     H  843   0.755   0.684   1.233  1.9852 -1.1320  0.7956
   55MPD2    H1  844   0.560   0.921   1.521  0.3073  0.5204  0.2597
   55MPD2    H2  845   0.979   0.974   1.420 -0.2389  1.9412  0.3316
   55MPD2    H3  846   0.782   1.035   1.565 -2.2035  1.6387 -0.7636
   55MPD2     N  847   0.526   0.733   1.341 -0.0688  0.0333 -0.3212
   55MPD2    H5  848   0.543   0.644   1.294  1.0587  0.4565 -0.7204
   55MPD2    N1  849   0.997   0.800   1.237 -0.3679 -0.5769  0.4204
   55MPD2    H7  850   1.072   0.868   1.247  0.4138 -1.5069  0.8648
   56TCq2    C1  851   1.003   0.699   1.142 -0.4527 -0.5729  0.1374
   56TCq2    O2  852   0.941   0.595   1.139  0.0911 -0.0270  0.0401
   56TCq2    C2  853   1.112   0.723   1.051 -0.3511 -0.0591  0.3690
   56TCq2    C3  854   1.164   0.843   1.017 -0.0122  0.1117 -0.1098
   56TCq2    C4  855   1.257   0.845   0.919  0.3616 -0.8213 -0.1522
   56TCq2    C5  856   1.298   0.727   0.858  0.1442  0.2851 -0.2328
   56TCq2    C6  857   1.238   0.607   0.885 -0.2368 -0.1764  0.8869
   56TCq2    C7  858   1.145   0.609   0.986  0.0668  0.5987  0.1971
   56TCq2    C8  859   1.287   0.489   0.825  0.2319  0.3991  0.2995
   56TCq2    O4  860   1.380   0.496   0.750 -0.4292 -0.7808  0.1504
   56TCq2    C9  861   1.343   0.959   0.896  0.2030 -0.0650 -0.2063
   56TCq2    O5  862   1.416   0.954   0.794  0.2015 -0.0898 -0.1541
   56TCq2    O6  863   1.319   1.063   0.963  0.0625  0.2343 -0.2682
   56TCq2    H2  864   1.128   0.933   1.067  2.1288  0.1131  1.4272
   56TCq2    H3  865   1.378   0.730   0.785 -0.3969  1.3385 -0.7725
   56TCq2    H4  866   1.098   0.515   1.013 -0.1533  0.1249 -1.8831
   57TMC2    C1  867   0.536   1.199  13.947 -0.4125 -0.2748 -0.6298
   57TMC2    C2  868   0.582   1.204  14.074 -0.0384  0.1450 -0.1656
   57TMC2    C3  869   0.720   1.200  14.095  0.2322  0.1754  0.4448
   57TMC2    C4  870   0.625   1.195  13.838  0.5522 -0.0717 -0.4260
   57TMC2    C5  871   0.753   1.196  13.868 -0.3480 -0.5691 -0.6683
   57TMC2    C6  872   0.806   1.200  13.996 -0.4029  0.4146  0.2645
   57TMC2     C  873   0.397   1.237  13.936 -1.0888  0.4687  0.2678
   57TMC2     O  874   0.347   1.299  14.033  0.7215 -0.5661 -0.4486
   57TMC2     H  875   0.517   1.227  14.158 -0.6966  0.7925 -0.8583
   57TMC2    H1  876   0.597   1.211  13.734 -0.7480 -1.2306 -0.2494
   57TMC2    H2  877   0.912   1.204  14.017  0.2893 -0.2405 -3.1233
   57TMC2    C7  878   0.841   1.133  13.772  0.0062  0.5278 -0.1826
   57TMC2    C8  879   0.762   1.208  14.236  0.0893 -0.7535 -0.0316
   57TMC2    O1  880   0.959   1.140  13.801 -0.3666  0.3923 -0.6193
   57TMC2    O2  881   0.685   1.189  14.330  0.0056 -0.3949 -0.1881
   57TMC2    O5  882   0.880   1.266  14.256 -0.0097  0.2880 -0.3795
   57TMC2    H5  883   0.926   1.297  14.175  1.4150  1.2271  0.7782
   58MPD2     C  884   4.701   1.264  13.646  0.0679  0.2440  0.5628
   58MPD2    C1  885   0.002   1.302  13.775  0.0151 -0.3037  0.5924
   58MPD2    C2  886   0.129   1.279  13.829  0.2367  0.0140  0.5516
   58MPD2    C3  887   0.236   1.221  13.755 -0.0668  0.4479  0.2858
   58MPD2    C4  888   0.207   1.176  13.627 -0.3223 -0.6082  0.0882
   58MPD2    C5  889   0.081   1.204  13.573  0.2855  0.3596 -0.5592
   58MPD2     H  890   0.141   1.302  13.934  0.3200 -1.5903  0.8912
   58MPD2    H1  891   0.287   1.130  13.571 -0.0859 -0.3266  0.1986
   58MPD2    H2  892   4.611   1.272  13.585  0.5793  1.6087 -0.0294
   58MPD2    H3  893   0.070   1.165  13.473 -0.4527  2.0960 -1.1593
   58MPD2     N  894   0.357   1.190  13.811  0.3894 -0.4378  0.8606
   58MPD2    H5  895   0.418   1.129  13.759 -1.0797 -1.6840  0.6111
   58MPD2    N1  896   4.626   1.380  13.840  0.0732 -0.9198 -0.1248
   58MPD2    H7  897   4.642   1.425  13.930 -1.0424 -2.5221  0.8809
   59MPD2     C  898   2.465   1.188  13.476 -0.7061  0.0612  0.5580
   59MPD2    C1  899   2.515   1.210  13.350  0.3267 -0.2570  0.0991
   59MPD2    C2  900   2.640   1.273  13.340  0.2038 -0.2153 -0.1897
   59MPD2    C3  901   2.708   1.316  13.455  0.4422 -0.1083  0.3042
   59MPD2    C4  902   2.651   1.300  13.582 -0.1521  0.3649 -0.4334
   59MPD2    C5  903   2.528   1.244  13.583 -0.8825  0.1469 -0.4007
   59MPD2     H  904   2.687   1.284  13.243 -0.1013  1.3978 -0.1608
   59MPD2    H1  905   2.699   1.331  13.675  1.6227 -1.8759 -0.6082
   59MPD2    H2  906   2.373   1.134  13.493 -1.4122  0.4153 -2.2213
   59MPD2    H3  907   2.487   1.225  13.682  0.6527  1.6870  0.5229
   59MPD2     N  908   2.828   1.392  13.457  0.7960  0.1575  0.1535
   59MPD2    H5  909   2.853   1.441  13.542 -1.8108  1.7373 -0.0064
   59MPD2    N1  910   2.448   1.162  13.237 -0.5623 -0.1180  0.1628
   59MPD2    H7  911   2.363   1.106  13.240 -0.3339 -0.4987 -0.5517
   60TCq2    C1  912   2.477   1.207  13.111  0.0009  0.4734  0.5444
   60TCq2    O2  913   2.535   1.304  13.071  0.3019  0.0841  0.0032
   60TCq2    C2  914   2.417   1.133  13.003 -0.2801 -0.3546  0.7657
   60TCq2    C3  915   2.353   1.018  13.036  0.4988  0.0786  0.4257
   60TCq2    C4  916   2.300   0.953  12.928 -0.5831 -0.4435 -0.2495
   60TCq2    C5  917   2.286   1.009  12.806  0.0555  0.1599 -0.0758
   60TCq2    C6  918   2.334   1.131  12.781 -0.5783  0.6354  0.2584
   60TCq2    C7  919   2.400   1.198  12.880  0.0193  0.3292 -0.5963
   60TCq2    C8  920   2.334   1.185  12.647  0.6023  0.1742 -0.4885
   60TCq2    O4  921   2.306   1.110  12.554 -0.5005 -0.2485 -0.1364
   60TCq2    C9  922   2.248   0.820  12.948  0.1081 -0.2477  0.0792
   60TCq2    O5  923   2.250   0.778  13.069  0.1863 -0.1816  0.3273
   60TCq2    O6  924   2.202   0.758  12.850 -0.1223  0.0518  0.3023
   60TCq2    H2  925   2.354   0.959  13.127  1.4626  0.5220  0.7090
   60TCq2    H3  926   2.244   0.952  12.724 -0.1649  0.6656 -0.3191
   60TCq2    H4  927   2.469   1.276  12.850  2.2982 -1.8806 -1.1695
   61MPD2     C  928   2.150   2.724  15.957 -0.8187 -0.0294  0.1018
   61MPD2    C1  929   2.117   2.846  15.907  0.2287 -0.0825 -0.2277
   61MPD2    C2  930   2.160   2.876  15.779 -0.4355 -0.0630  0.0881
   61MPD2    C3  931   2.214   2.783  15.691  0.1260 -0.2065 -0.8900
   61MPD2    C4  932   2.231   2.660  15.740 -0.0302 -0.4153 -0.7714
   61MPD2    C5  933   2.210   2.634  15.871 -0.6232 -0.0342  0.5744
   61MPD2     H  934   2.147   2.976  15.738 -0.8165  0.3734  1.2857
   61MPD2    H1  935   2.290   2.589  15.684  0.1680 -0.6156 -0.3108
   61MPD2    H2  936   2.139   2.682  16.057  0.0397 -0.2340  0.1069
   61MPD2    H3  937   2.234   2.537  15.910  0.9786  0.7376  1.4700
   61MPD2     N  938   2.250   2.822  15.565  0.4184  0.4345  0.6805
   61MPD2    H5  939   2.252   2.921  15.542 -0.8494  0.1171 -0.7519
   61MPD2    N1  940   2.043   2.946  15.979  0.1882 -0.0743  0.0454
   61MPD2    H7  941   2.024   3.034  15.932 -1.9268 -0.8165 -0.4885
   62TCq2    C1  942   2.003   2.931  16.110 -0.1289  0.5048  0.2995
   62TCq2    O2  943   2.008   2.830  16.179  0.6421  0.2443 -0.3670
   62TCq2    C2  944   1.892   3.023  16.141 -0.5353  0.2822 -0.2100
   62TCq2    C3  945   1.779   2.958  16.184  0.3293 -0.0658 -0.0253
   62TCq2    C4  946   1.658   3.023  16.178 -0.1175 -0.7071  0.5471
   62TCq2    C5  947   1.649   3.157  16.150  0.3337  0.1969 -0.1782
   62TCq2    C6  948   1.765   3.217  16.110  0.6234 -0.2086  0.2008
   62TCq2    C7  949   1.887   3.150  16.095  0.0514 -0.0664  0.1743
   62TCq2    C8  950   1.753   3.343  16.036  0.7521 -0.0705 -0.6986
   62TCq2    O4  951   1.858   3.398  15.997 -0.0137 -0.3873 -0.0359
   62TCq2    C9  952   1.548   2.948  16.236 -0.5057 -0.0753 -0.0764
   62TCq2    O5  953   1.446   3.016  16.261 -0.3332  0.0210  0.1202
   62TCq2    O6  954   1.563   2.822  16.240 -0.1806 -0.2653 -0.0748
   62TCq2    H2  955   1.789   2.862  16.233 -0.1510 -0.4525 -0.6767
   62TCq2    H3  956   1.553   3.206  16.158 -0.8491 -2.0918 -0.1895
   62TCq2    H4  957   1.977   3.208  16.078 -1.0499  0.2782 -4.4118
   63TMC2    C1  958   1.596   3.208  10.660  0.6664 -0.1869 -0.2509
   63TMC2    C2  959   1.703   3.288  10.693 -0.5339  0.1124  0.6590
   63TMC2    C3  960   1.739   3.381  10.600 -0.2010  0.5291 -0.0868
   63TMC2    C4  961   1.530   3.213  10.543 -0.6090  0.5785 -0.2421
   63TMC2    C5  962   1.585   3.298  10.450 -0.3623 -0.2503  0.3378
   63TMC2    C6  963   1.682   3.389  10.479  0.0399  0.0425 -0.2379
   63TMC2     C  964   1.535   3.119  10.759 -0.3911 -0.7724 -0.5258
   63TMC2     O  965   1.541   3.151  10.876  0.0084 -0.3055  0.3922
   63TMC2     H  966   1.767   3.259  10.775  0.1749 -2.5361 -0.7975
   63TMC2    H1  967   1.437   3.159  10.527 -0.1695 -0.0980 -0.5135
   63TMC2    H2  968   1.710   3.472  10.415  0.1453  1.2635  1.4152
   63TMC2    C7  969   1.504   3.324  10.337  0.2537 -0.1001  0.2359
   63TMC2    C8  970   1.867   3.440  10.605 -0.4720  0.1656  0.1601
   63TMC2    O1  971   1.396   3.279  10.332 -0.3553  0.7943  0.5634
   63TMC2    O2  972   1.937   3.460  10.509 -0.0816 -0.1352  0.3790
   63TMC2    O5  973   1.862   3.517  10.720  0.0973 -0.4101 -0.0815
   63TMC2    H5  974   1.804   3.501  10.797 -1.0963 -3.4639 -1.6147
   64MPD2     C  975   1.302   2.698  10.947  0.6064 -0.3985  0.4904
   64MPD2    C1  976   1.344   2.672  10.819 -0.1776  0.1229 -0.3170
   64MPD2    C2  977   1.398   2.773  10.741 -0.9244 -0.3939  0.1490
   64MPD2    C3  978   1.434   2.894  10.793 -0.8137  0.2527 -0.1198
   64MPD2    C4  979   1.409   2.908  10.930  0.1280 -0.7033  0.0681
   64MPD2    C5  980   1.337   2.818  11.004  0.3436  0.5333  0.0899
   64MPD2     H  981   1.418   2.748  10.638 -0.4700  1.6469 -0.2653
   64MPD2    H1  982   1.440   2.987  10.997 -1.2510 -0.4895  0.4687
   64MPD2    H2  983   1.263   2.619  11.011 -2.4381  0.9858  0.3334
   64MPD2    H3  984   1.330   2.841  11.110 -1.1881 -2.9288  0.7249
   64MPD2     N  985   1.493   2.997  10.712  0.2191 -0.0094 -0.8009
   64MPD2    H5  986   1.511   2.987  10.613  0.8138  1.7419 -0.8618
   64MPD2    N1  987   1.318   2.545  10.754  0.0640 -0.0801  0.0053
   64MPD2    H7  988   1.364   2.530  10.664 -0.1611  3.1860 -0.6358
   65MPD2     C  989   2.488   2.230  15.878  0.7062 -0.1491 -0.4454
   65MPD2    C1  990   2.542   2.211  15.744 -0.7567  0.0682 -0.2804
   65MPD2    C2  991   2.537   2.084  15.696 -0.4260  0.2042  0.2376
   65MPD2    C3  992   2.486   1.980  15.774  0.4109 -0.2035 -0.7710
   65MPD2    C4  993   2.438   2.007  15.904 -0.1438  0.1949  0.4077
   65MPD2    C5  994   2.447   2.129  15.953  0.0012  0.1338 -0.7277
   65MPD2     H  995   2.571   2.065  15.595 -0.0071 -0.2664  0.4668
   65MPD2    H1  996   2.404   1.929  15.971 -1.9830  1.2567  0.7127
   65MPD2    H2  997   2.468   2.333  15.907 -0.0735 -0.2624 -0.5929
   65MPD2    H3  998   2.401   2.146  16.050  1.7220  0.4727  0.0426
   65MPD2     N  999   2.469   1.851  15.721 -0.2648 -0.0676  0.1256
   65MPD2    H5 1000   2.421   1.782  15.779  0.5179 -0.6143  0.1270
   65MPD2    N1 1001   2.567   2.320  15.654 -0.6583  0.2382 -0.3671
   65MPD2    H7 1002   2.608   2.297  15.563  0.5362 -2.3474  0.8195
   66TCq2    C1 1003   2.543   2.453  15.679 -0.0233  0.2733 -0.4392
   66TCq2    O2 1004   2.508   2.513  15.786 -0.1855 -0.1875  0.1086
   66TCq2    C2 1005   2.585   2.537  15.569  0.1644 -0.0110  0.1419
   66TCq2    C3 1006   2.621   2.485  15.452 -0.5015 -0.7562 -0.2605
   66TCq2    C4 1007   2.681   2.572  15.364  0.0621  0.2099 -0.6356
   66TCq2    C5 1008   2.689   2.707  15.386 -0.0642  0.8334 -0.9548
   66TCq2    C6 1009   2.649   2.759  15.508  0.4597 -0.0842 -0.0342
   66TCq2    C7 1010   2.597   2.675  15.597  0.6152  0.5191  0.4645
   66TCq2    C8 1011   2.635   2.905  15.507  0.9019 -0.6683  0.6131
   66TCq2    O4 1012   2.689   2.966  15.418  0.4849  0.1468 -0.0659
   66TCq2    C9 1013   2.744   2.515  15.247 -0.8803  0.4035  0.1297
   66TCq2    O5 1014   2.722   2.394  15.216  0.2140 -0.4250 -0.2531
   66TCq2    O6 1015   2.803   2.589  15.162  0.2364 -0.8029 -0.0925
   66TCq2    H2 1016   2.631   2.378  15.436 -0.0765 -0.4472 -2.0020
   66TCq2    H3 1017   2.753   2.760  15.317  1.0360  0.2347 -0.3881
   66TCq2    H4 1018   2.562   2.720  15.690 -2.4051 -2.4752  0.8019
   67MPD2     C 1019   2.396   1.865  14.094 -0.8100 -0.3341 -0.3684
   67MPD2    C1 1020   2.424   1.981  14.157  0.3079 -0.2003  0.0653
   67MPD2    C2 1021   2.351   2.096  14.126 -0.4333  0.3288 -0.3962
   67MPD2    C3 1022   2.254   2.079  14.027  0.1363 -0.0788 -0.0895
   67MPD2    C4 1023   2.233   1.957  13.963  0.1574 -0.9278  0.2514
   67MPD2    C5 1024   2.309   1.851  13.992 -0.1956  0.4656 -0.1383
   67MPD2     H 1025   2.379   2.191  14.172  1.9812 -0.2270 -0.7243
   67MPD2    H1 1026   2.162   1.949  13.882  0.5136  0.9855 -0.2284
   67MPD2    H2 1027   2.458   1.776  14.095 -0.5955 -0.2126 -2.9137
   67MPD2    H3 1028   2.301   1.758  13.938  1.9118  0.8838 -1.1729
   67MPD2     N 1029   2.162   2.187  13.988 -0.6001 -0.7494 -0.3657
   67MPD2    H5 1030   2.090   2.146  13.930 -2.3143  1.4931  0.1824
   67MPD2    N1 1031   2.540   1.993  14.239 -0.3231  0.4323 -0.5268
   67MPD2    H7 1032   2.554   2.087  14.275  0.7825 -0.3391  1.0710
   68TCq2    C1 1033   2.636   1.900  14.263  0.6878  0.0319  0.3148
   68TCq2    O2 1034   2.652   1.788  14.220  0.0828 -0.1253  0.0618
   68TCq2    C2 1035   2.743   1.967  14.338 -0.4922  0.2029 -0.0934
   68TCq2    C3 1036   2.739   2.105  14.348  0.2754  0.2284 -0.1398
   68TCq2    C4 1037   2.755   2.154  14.474 -0.1431  0.6275  1.2522
   68TCq2    C5 1038   2.787   2.077  14.584  0.2373 -0.1037  0.0726
   68TCq2    C6 1039   2.805   1.940  14.560 -0.2822  0.0520  0.5131
   68TCq2    C7 1040   2.802   1.889  14.431  0.0833 -0.4837  0.3704
   68TCq2    C8 1041   2.878   1.857  14.659 -0.7572  0.1764  0.3035
   68TCq2    O4 1042   2.927   1.753  14.617  0.2590  0.0923 -0.1137
   68TCq2    C9 1043   2.733   2.290  14.491  0.0993 -0.5452 -0.1463
   68TCq2    O5 1044   2.657   2.340  14.407  0.3840 -0.1472  0.9682
   68TCq2    O6 1045   2.758   2.343  14.604  0.1635  0.3486  0.1043
   68TCq2    H2 1046   2.734   2.174  14.264 -0.0194  0.9288  0.4581
   68TCq2    H3 1047   2.795   2.116  14.684 -0.5171 -0.5712  0.3149
   68TCq2    H4 1048   2.794   1.783  14.408 -1.5560 -0.3615  0.3588
   69TMC2    C1 1049   0.291   3.091  12.614 -0.0279 -0.1667 -0.7670
   69TMC2    C2 1050   0.193   3.180  12.598  0.6151  0.6163  0.3701
   69TMC2    C3 1051   0.148   3.217  12.474 -0.3825 -0.2272  0.4661
   69TMC2    C4 1052   0.345   3.036  12.492  0.5027  0.4408 -0.2330
   69TMC2    C5 1053   0.279   3.062  12.372  0.3263  0.7093  0.2562
   69TMC2    C6 1054   0.175   3.151  12.360 -0.1651  0.9057 -0.6650
   69TMC2     C 1055   0.310   3.022  12.738 -0.0186 -0.4438  0.3963
   69TMC2     O 1056   0.264   3.077  12.839 -0.0577 -0.3406  0.2782
   69TMC2     H 1057   0.167   3.242  12.683  0.9556  0.9592  0.2237
   69TMC2    H1 1058   0.427   2.964  12.488  0.3286  0.1521  1.4786
   69TMC2    H2 1059   0.126   3.171  12.266  1.3104  0.2181 -1.5817
   69TMC2    C7 1060   0.332   3.003  12.249  0.1269 -0.4614  0.0870
   69TMC2    C8 1061   0.055   3.329  12.468  0.1252  0.3304 -0.2822
   69TMC2    O1 1062   0.454   3.019  12.232 -0.1384 -0.3076 -0.1667
   69TMC2    O2 1063   4.681   3.331  12.542  0.0507 -1.0329  0.0970
   69TMC2    O5 1064   0.060   3.383  12.339 -0.9254 -0.5130  0.3455
   69TMC2    H5 1065   0.153   3.379  12.308 -1.3180 -2.3134 -0.5734
   70MPD2     C 1066   0.534   2.730  12.824  0.3035 -0.5392 -1.1668
   70MPD2    C1 1067   0.428   2.822  12.838  0.5743 -1.4041 -0.6885
   70MPD2    C2 1068   0.356   2.824  12.957  0.0343  0.4733  0.6210
   70MPD2    C3 1069   0.389   2.742  13.062  0.8136 -0.3795 -0.6922
   70MPD2    C4 1070   0.497   2.657  13.051 -0.2314 -0.2397 -0.0723
   70MPD2    C5 1071   0.563   2.649  12.927  0.0059 -0.3176 -0.3254
   70MPD2     H 1072   0.269   2.887  12.964 -0.0815  0.2617  1.0739
   70MPD2    H1 1073   0.532   2.595  13.132  0.1878 -0.9416 -0.7820
   70MPD2    H2 1074   0.594   2.718  12.734  1.4897 -0.6361 -0.3513
   70MPD2    H3 1075   0.652   2.590  12.906  1.7714  2.0682  0.5044
   70MPD2     N 1076   0.312   2.714  13.185 -0.8994  0.7706 -0.3336
   70MPD2    H5 1077   0.336   2.636  13.246 -2.0887 -0.5811 -1.6035
   70MPD2    N1 1078   0.397   2.915  12.733 -0.3870 -0.6495 -0.1958
   70MPD2    H7 1079   0.458   2.909  12.652 -0.5735 -0.6310 -0.3388
   71TMC2    C1 1080   3.816   3.284   1.432 -0.3891 -0.0325 -0.5462
   71TMC2    C2 1081   3.929   3.213   1.462 -0.1078 -0.3083 -0.0050
   71TMC2    C3 1082   3.980   3.242   1.585  0.6313 -0.5719 -0.5962
   71TMC2    C4 1083   3.756   3.370   1.522 -0.9680  0.1134 -0.1859
   71TMC2    C5 1084   3.813   3.383   1.648  0.0248  0.0435  0.0869
   71TMC2    C6 1085   3.927   3.327   1.679  0.5171  0.5136  0.4888
   71TMC2     C 1086   3.810   3.348   1.299 -0.4078  0.4458 -1.4174
   71TMC2     O 1087   3.708   3.412   1.282  0.0109 -0.3189  0.2393
   71TMC2     H 1088   3.971   3.144   1.390  2.5162  2.7015 -1.3722
   71TMC2    H1 1089   3.662   3.419   1.498 -2.1467 -0.7217  2.8014
   71TMC2    H2 1090   3.975   3.340   1.776 -1.0136  1.8911  1.0703
   71TMC2    C7 1091   3.750   3.453   1.761  1.1304  0.8048  0.6803
   71TMC2    C8 1092   4.106   3.180   1.619 -0.0839  1.5377  0.2405
   71TMC2    O1 1093   3.825   3.494   1.850 -0.2253 -0.1133  0.0145
   71TMC2    O2 1094   4.174   3.153   1.523  0.2582  0.5839  0.5724
   71TMC2    O5 1095   4.063   3.091   1.715  0.2880  0.5638 -0.1414
   71TMC2    H5 1096   4.041   3.144   1.794 -0.0757 -1.7684  1.3246
   72MPD2     C 1097   4.058   3.566   0.909  0.4758 -0.1116  0.2611
   72MPD2    C1 1098   3.942   3.599   0.977 -0.6493  0.4134  0.5690
   72MPD2    C2 1099   3.900   3.533   1.092  0.0239 -0.2113  0.3745
   72MPD2    C3 1100   3.976   3.422   1.130 -0.1733  0.1984 -0.0021
   72MPD2    C4 1101   4.083   3.382   1.058 -0.1868 -0.2434  0.5301
   72MPD2    C5 1102   4.130   3.460   0.954  0.7027 -0.2404 -0.0278
   72MPD2     H 1103   3.812   3.562   1.148 -1.1718 -2.5803 -0.2542
   72MPD2    H1 1104   4.134   3.290   1.088  2.7026  1.5401  1.1355
   72MPD2    H2 1105   4.083   3.609   0.812 -1.6542  2.3383  0.8140
   72MPD2    H3 1106   4.214   3.419   0.900  2.1021  0.1347  1.9017
   72MPD2     N 1107   3.927   3.334   1.231  0.8088  0.1331  0.4679
   72MPD2    H5 1108   3.983   3.262   1.277  1.7680  1.0445  0.7287
   72MPD2    N1 1109   3.858   3.711   0.950  0.6434  0.2669 -0.1247
   72MPD2    H7 1110   3.780   3.725   1.013  0.7995 -2.1193  0.5924
   73TMC2    C1 1111   2.077   4.598  14.342  0.2164  0.6034  0.1904
   73TMC2    C2 1112   1.954   4.596  14.400 -0.4197  0.2221 -0.0322
   73TMC2    C3 1113   1.949   4.603  14.539 -0.0258 -0.1837 -0.2218
   73TMC2    C4 1114   2.192   4.590  14.421 -0.4409 -0.2105 -0.2388
   73TMC2    C5 1115   2.183   4.612  14.558 -0.1169 -0.4285  0.3049
   73TMC2    C6 1116   2.060   4.621  14.616 -0.0649  0.2574 -0.0963
   73TMC2     C 1117   2.104   4.697  14.242  0.4883  0.1599  0.5522
   73TMC2     O 1118   2.207   0.041  14.263  0.4358 -0.5523 -0.7819
   73TMC2     H 1119   1.863   4.577  14.345 -0.6019  1.1951 -0.0703
   73TMC2    H1 1120   2.293   4.584  14.384 -0.5904 -0.1514 -0.6580
   73TMC2    H2 1121   2.048   4.634  14.723 -0.3803  0.8188 -0.1971
   73TMC2    C7 1122   2.274   4.707  14.613  0.1838  0.3978 -0.4450
   73TMC2    C8 1123   1.820   4.602  14.590 -0.1921 -0.7755 -0.1223
   73TMC2    O1 1124   2.270   0.001  14.733  0.6066 -0.2689 -0.0097
   73TMC2    O2 1125   1.720   4.644  14.530 -0.3783  0.0686  0.2977
   73TMC2    O5 1126   1.806   4.517  14.697 -0.0314  0.4179 -0.2314
   73TMC2    H5 1127   1.889   4.465  14.704 -1.0221 -1.3452 -1.5155
   74MPD2     C 1128   1.995   0.289  13.863  0.2294 -0.0011  0.7224
   74MPD2    C1 1129   2.080   0.307  13.968 -0.6693  0.0168 -0.4998
   74MPD2    C2 1130   2.083   0.204  14.060  0.3121 -0.6590 -0.3369
   74MPD2    C3 1131   2.009   0.092  14.046  0.3279  0.2658 -0.4148
   74MPD2    C4 1132   1.924   0.075  13.939 -0.3051  0.3860 -0.6578
   74MPD2    C5 1133   1.922   0.173  13.849 -0.4233  0.1994  0.3464
   74MPD2     H 1134   2.133   0.218  14.155  1.9791 -0.6469 -1.2151
   74MPD2    H1 1135   1.857   4.712  13.924 -1.3638  1.4862 -2.1257
   74MPD2    H2 1136   1.990   0.368  13.788  0.9110 -0.8816 -0.2601
   74MPD2    H3 1137   1.875   0.160  13.752  0.6979 -0.9758 -0.0348
   74MPD2     N 1138   2.013   4.709  14.140  0.0262 -0.1961  0.3873
   74MPD2    H5 1139   1.949   4.632  14.123  1.3923 -1.4954  1.1234
   74MPD2    N1 1140   2.155   0.426  13.975  0.1989  0.0990  0.3666
   74MPD2    H7 1141   2.149   0.499  13.905 -0.0998 -0.0594  0.2250
   75TCq2    C1 1142   2.164   2.318  14.010 -0.1972  1.0517 -0.4643
   75TCq2    O2 1143   2.261   2.375  14.054 -0.0430 -0.2303 -0.0851
   75TCq2    C2 1144   2.058   2.392  13.946 -0.2596  0.6950 -0.3483
   75TCq2    C3 1145   2.059   2.527  13.977  0.2124 -0.3613 -0.3316
   75TCq2    C4 1146   1.951   2.599  13.944 -0.7502 -0.1494  0.5675
   75TCq2    C5 1147   1.860   2.552  13.855  0.0575 -0.0044 -0.1110
   75TCq2    C6 1148   1.867   2.418  13.819 -0.2178  0.3293 -0.3874
   75TCq2    C7 1149   1.958   2.332  13.879  0.1502  0.3810 -0.2259
   75TCq2    C8 1150   1.800   2.362  13.704 -0.0316 -0.4781 -0.2779
   75TCq2    O4 1151   1.760   2.249  13.727  0.0034  0.3794  0.0043
   75TCq2    C9 1152   1.936   2.725  14.012  0.3271  0.0348  0.4120
   75TCq2    O5 1153   1.838   2.803  13.985 -0.5161 -0.3776  0.2834
   75TCq2    O6 1154   1.987   2.737  14.131  0.3020  0.0295  0.5784
   75TCq2    H2 1155   2.128   2.567  14.050 -1.5313 -2.0185  2.2056
   75TCq2    H3 1156   1.774   2.614  13.832 -0.8388 -1.5653 -0.9206
   75TCq2    H4 1157   1.962   2.228  13.850 -0.9966  0.7505 -1.7133
   76MPD2     C 1158   1.369   2.824  11.904 -0.5121 -0.7260 -0.4741
   76MPD2    C1 1159   1.264   2.740  11.925 -0.2498 -0.2321  0.2001
   76MPD2    C2 1160   1.286   2.631  12.006 -0.5335  0.4449  0.1646
   76MPD2    C3 1161   1.413   2.606  12.058  0.0582 -0.1215  0.1488
   76MPD2    C4 1162   1.518   2.699  12.044  0.0184 -0.0474  0.2989
   76MPD2    C5 1163   1.495   2.802  11.960 -0.0552 -0.0904  0.2499
   76MPD2     H 1164   1.206   2.561  12.033  0.7084 -0.8235  0.5568
   76MPD2    H1 1165   1.612   2.688  12.097  1.7270  0.9470 -2.4980
   76MPD2    H2 1166   1.365   2.909  11.836 -2.6750  0.9655  1.7630
   76MPD2    H3 1167   1.578   2.867  11.939 -2.6272  2.4597 -2.0601
   76MPD2     N 1168   1.451   2.482  12.112  0.2380  0.2744 -0.0411
   76MPD2    H5 1169   1.543   2.473  12.154 -0.0060  0.7051  0.5767
   76MPD2    N1 1170   1.135   2.751  11.864  0.2423 -0.2670  0.6215
   76MPD2    H7 1171   1.066   2.690  11.906  1.5489 -1.0946  1.5815
   77TCq2    C1 1172   1.370   2.372  12.114  0.2839  0.3557 -0.0373
   77TCq2    O2 1173   1.268   2.354  12.048  0.7406 -0.1241 -0.0590
   77TCq2    C2 1174   1.421   2.254  12.185 -0.1917  0.1576 -0.4009
   77TCq2    C3 1175   1.395   2.129  12.130  0.3021 -0.1138  0.0415
   77TCq2    C4 1176   1.465   2.014  12.159 -0.6391  0.3851 -0.2094
   77TCq2    C5 1177   1.553   2.023  12.263 -0.0296  0.2742  0.7519
   77TCq2    C6 1178   1.573   2.148  12.321 -0.5674  0.3253 -0.4953
   77TCq2    C7 1179   1.519   2.266  12.279  0.3951  0.3615 -0.4102
   77TCq2    C8 1180   1.672   2.145  12.425 -0.1477  0.2804 -0.3854
   77TCq2    O4 1181   1.762   2.060  12.426  0.5236  0.3861 -0.3413
   77TCq2    C9 1182   1.431   1.889  12.089 -0.4153 -0.3637 -0.4477
   77TCq2    O5 1183   1.495   1.790  12.124  0.1222  0.9744 -0.2133
   77TCq2    O6 1184   1.361   1.898  11.984  0.1974 -0.3988 -0.0391
   77TCq2    H2 1185   1.313   2.109  12.062  1.3361  2.0466 -1.8209
   77TCq2    H3 1186   1.603   1.933  12.297 -1.0182 -1.0486 -1.2949
   77TCq2    H4 1187   1.549   2.361  12.321 -2.2334  0.2819  1.6609
   78MPD1     C 1188   1.983   3.655   1.684 -0.5962  0.0142  0.1502
   78MPD1    C1 1189   2.098   3.578   1.664  0.1342  0.2610  0.2741
   78MPD1    C2 1190   2.208   3.580   1.754 -0.3527  0.0653 -0.4501
   78MPD1    C3 1191   2.196   3.657   1.872  0.3932  0.6130 -0.5816
   78MPD1    C4 1192   2.077   3.727   1.894 -0.8520  0.1084 -0.5651
   78MPD1    C5 1193   1.980   3.724   1.804 -0.0487 -1.0824 -0.4255
   78MPD1     H 1194   2.290   3.513   1.732 -0.6109 -0.1351 -0.7870
   78MPD1    H1 1195   2.051   3.777   1.986  0.4223  0.7978 -0.5841
   78MPD1    H2 1196   1.899   3.661   1.616 -1.2505  1.0748  1.0668
   78MPD1    H3 1197   1.883   3.761   1.836 -0.5723 -2.2325 -0.6717
   78MPD1     N 1198   2.291   3.655   1.981  0.9181  0.4962 -0.1842
   78MPD1    H5 1199   2.276   3.728   2.051  1.8406  1.2454 -0.7663
   78MPD1    N1 1200   2.112   3.502   1.545  0.4535 -1.1018 -0.2646
   78MPD1    H6 1201   2.181   3.427   1.549  1.8750  0.1670 -1.0051
   78MPD1    H7 1202   2.024   3.452   1.534 -0.2285 -0.9279  4.3982
   79TCq2    C1 1203   2.404   3.572   1.992  0.3161 -0.0484  0.2699
   79TCq2    O2 1204   2.453   3.487   1.921 -0.2334  0.3976  0.2130
   79TCq2    C2 1205   2.477   3.596   2.112  0.9874 -0.0833  0.5542
   79TCq2    C3 1206   2.413   3.658   2.219  0.4673  0.0431  0.5833
   79TCq2    C4 1207   2.483   3.663   2.332 -0.0075 -0.4373 -0.2703
   79TCq2    C5 1208   2.609   3.607   2.344  0.2181 -0.6516 -0.2347
   79TCq2    C6 1209   2.674   3.547   2.245  0.7451  0.1403  0.1327
   79TCq2    C7 1210   2.609   3.548   2.122 -0.6306 -0.0134  0.0797
   79TCq2    C8 1211   2.815   3.525   2.240  0.3615 -0.8015  0.2412
   79TCq2    O4 1212   2.852   3.477   2.140 -0.1652  0.0237 -0.1710
   79TCq2    C9 1213   2.417   3.709   2.452 -0.2190 -0.4741  0.3224
   79TCq2    O5 1214   2.482   3.741   2.548  0.1987 -1.1073 -0.6048
   79TCq2    O6 1215   2.291   3.717   2.450 -0.4890 -0.0148 -0.0728
   79TCq2    H2 1216   2.312   3.695   2.218  1.5575  2.9484 -0.0000
   79TCq2    H3 1217   2.640   3.605   2.447 -2.3255  0.5637  0.5524
   79TCq2    H4 1218   2.650   3.512   2.029  0.3171 -0.2804  0.6009
   80MPD2     C 1219   4.666   2.345  12.504  0.4897 -0.1978 -0.0397
   80MPD2    C1 1220   4.625   2.326  12.373  0.0553  0.0243 -0.1911
   80MPD2    C2 1221   4.490   2.341  12.348  0.5509 -0.0110 -0.1392
   80MPD2    C3 1222   4.401   2.365  12.443 -0.3199  0.0414 -0.7779
   80MPD2    C4 1223   4.448   2.385  12.572  0.0552  0.1057 -0.4145
   80MPD2    C5 1224   4.578   2.373  12.601 -0.1512  0.0609  0.8109
   80MPD2     H 1225   4.452   2.318  12.249  0.5953 -0.4873 -0.0446
   80MPD2    H1 1226   4.385   2.418  12.654 -1.0559 -1.6971 -0.5418
   80MPD2    H2 1227   0.049   2.346  12.535 -0.3035  0.0718  2.6381
   80MPD2    H3 1228   4.608   2.378  12.705 -0.0718  0.2800  0.7764
   80MPD2     N 1229   4.267   2.375  12.414 -0.3396  0.1487  0.8607
   80MPD2    H5 1230   4.238   2.359  12.318 -0.6799  1.7044  0.7006
   80MPD2    N1 1231   4.707   2.279  12.271 -0.5674  0.9845  0.2544
   80MPD2    H7 1232   4.672   2.260  12.178  2.7037 -2.2199 -0.3300
   81TCq2    C1 1233   0.121   2.260  12.278 -0.5358 -0.4791 -0.1997
   81TCq2    O2 1234   0.200   2.295  12.368 -0.0870  0.0202  0.4890
   81TCq2    C2 1235   0.183   2.188  12.162  0.0366  0.0396  0.5248
   81TCq2    C3 1236   0.317   2.212  12.141 -0.4056  0.2504  0.2325
   81TCq2    C4 1237   0.370   2.145  12.037 -0.2931 -0.3970 -0.0977
   81TCq2    C5 1238   0.286   2.066  11.951  0.1208  0.5422  0.4797
   81TCq2    C6 1239   0.157   2.055  11.977  0.7327 -0.0239  0.7270
   81TCq2    C7 1240   0.102   2.113  12.087 -0.0897 -0.0994 -0.1759
   81TCq2    C8 1241   0.088   1.941  11.917  0.3092 -0.3669 -0.1830
   81TCq2    O4 1242   0.109   1.931  11.796  0.7680 -0.0703  0.9874
   81TCq2    C9 1243   0.511   2.156  12.005  0.2588 -0.2985  0.1815
   81TCq2    O5 1244   0.546   2.151  11.885  0.4837  0.2795 -0.2464
   81TCq2    O6 1245   0.580   2.220  12.092 -0.1363 -0.1005  0.2556
   81TCq2    H2 1246   0.381   2.263  12.212 -2.2374  3.0717 -0.1530
   81TCq2    H3 1247   0.333   2.000  11.879  1.7446  0.4572  1.5999
   81TCq2    H4 1248   0.002   2.091  12.125  0.0568  0.3436  0.4697
   82MPD2     C 1249   2.919   1.688  11.217 -0.9350  0.2193  0.4751
   82MPD2    C1 1250   2.886   1.556  11.192 -0.0406  0.1993  0.2120
   82MPD2    C2 1251   2.962   1.456  11.249  0.1827  0.1481 -0.3142
   82MPD2    C3 1252   3.068   1.486  11.335 -0.2329  0.0740  0.7800
   82MPD2    C4 1253   3.094   1.616  11.360  0.1342 -0.2958 -0.0539
   82MPD2    C5 1254   3.027   1.716  11.301  0.1067  0.1637  0.8924
   82MPD2     H 1255   2.949   1.355  11.212  0.1862  0.5277 -1.3687
   82MPD2    H1 1256   3.182   1.639  11.420  0.9488 -0.4770 -1.1884
   82MPD2    H2 1257   2.877   1.774  11.165  0.4627  0.8407  0.3777
   82MPD2    H3 1258   3.059   1.816  11.328  0.6656  0.4074 -0.7040
   82MPD2     N 1259   3.150   1.397  11.408 -0.5346  0.0741  0.1345
   82MPD2    H5 1260   3.210   1.432  11.483 -0.4107  0.2770 -0.0581
   82MPD2    N1 1261   2.793   1.529  11.092 -0.0266 -0.0175 -0.3707
   82MPD2    H7 1262   2.768   1.602  11.027 -0.6148 -0.9814 -1.2372
   83TCq2    C1 1263   3.148   1.258  11.390 -0.0219  0.4161  0.0783
   83TCq2    O2 1264   3.081   1.184  11.318  0.6447 -0.2215  0.4207
   83TCq2    C2 1265   3.241   1.190  11.471  0.6941  0.3876  0.8181
   83TCq2    C3 1266   3.360   1.242  11.511 -0.0187 -0.3568  0.0452
   83TCq2    C4 1267   3.461   1.163  11.554 -0.4310 -0.0792 -0.1586
   83TCq2    C5 1268   3.429   1.034  11.591 -0.5126 -0.0783 -0.1486
   83TCq2    C6 1269   3.305   0.984  11.565  0.7224 -0.2971 -0.2499
   83TCq2    C7 1270   3.209   1.054  11.496  0.1914  0.2368 -0.1100
   83TCq2    C8 1271   3.286   0.839  11.572  0.7352  0.6607  0.1390
   83TCq2    O4 1272   3.385   0.773  11.576  0.3700 -0.5614  0.0990
   83TCq2    C9 1273   3.598   1.213  11.568  0.3125 -0.2621  0.0218
   83TCq2    O5 1274   3.607   1.341  11.575  0.0836  0.2628 -0.4494
   83TCq2    O6 1275   3.689   1.134  11.600 -0.5960  0.4221 -0.0347
   83TCq2    H2 1276   3.385   1.347  11.501  1.0955 -0.8528 -2.3875
   83TCq2    H3 1277   3.507   0.972  11.634  0.4748  0.6909 -0.8304
   83TCq2    H4 1278   3.113   1.014  11.467  0.4494  1.3478 -2.4586
   84TCq2    C1 1279   4.079   4.616  10.799 -0.1826  0.3921 -0.7717
   84TCq2    O2 1280   4.004   4.666  10.714  0.3793 -0.1458 -0.1769
   84TCq2    C2 1281   4.112   4.698  10.916  0.9060  0.5253  0.2526
   84TCq2    C3 1282   4.201   4.654  11.010  0.6850  0.3634 -0.1308
   84TCq2    C4 1283   4.248   0.023  11.104 -0.3491 -1.2027  1.0505
   84TCq2    C5 1284   4.212   0.156  11.096  0.4818  0.3194  0.1976
   84TCq2    C6 1285   4.113   0.191  11.007  0.3929  0.0505  0.4214
   84TCq2    C7 1286   4.066   0.102  10.910  0.3819  0.0837  0.2480
   84TCq2    C8 1287   4.037   0.304  11.058  0.3071  0.6684  0.6295
   84TCq2    O4 1288   4.107   0.384  11.119 -0.5252  0.2646 -0.4038
   84TCq2    C9 1289   4.341   4.691  11.207  0.5157  0.2723 -0.8965
   84TCq2    O5 1290   4.382   4.573  11.189  0.4787 -0.6690 -0.0025
   84TCq2    O6 1291   4.393   0.052  11.288 -0.1700 -0.0992 -0.3142
   84TCq2    H2 1292   4.239   4.553  11.014  2.5385  1.0706  0.0361
   84TCq2    H3 1293   4.240   0.220  11.179 -1.1936  1.6606 -0.2675
   84TCq2    H4 1294   3.984   0.136  10.848  2.2513 -1.1192 -2.8905
   85MPD2     C 1295   0.055   3.050  16.399  0.1523  0.1407  0.4833
   85MPD2    C1 1296   4.679   3.103  16.314  0.1911  0.3911  0.1112
   85MPD2    C2 1297   4.720   3.181  16.213  0.1335  0.2442  0.0129
   85MPD2    C3 1298   0.128   3.229  16.198 -0.2681 -0.3153 -0.1745
   85MPD2    C4 1299   0.226   3.171  16.278  0.0163 -0.3284  0.2038
   85MPD2    C5 1300   0.189   3.078  16.375 -0.2899  0.0292 -0.3100
   85MPD2     H 1301   4.639   3.218  16.152  0.6308  0.6996 -0.3720
   85MPD2    H1 1302   0.333   3.178  16.265  0.3421 -0.2127  2.8733
   85MPD2    H2 1303   0.027   2.985  16.481 -1.8123  0.9859  0.4819
   85MPD2    H3 1304   0.265   3.025  16.431  0.9859 -1.0297 -3.0370
   85MPD2     N 1305   0.149   3.332  16.100  0.4370 -0.1583 -0.0505
   85MPD2    H5 1306   0.074   3.381  16.054  0.9280  1.4900  0.9273
   85MPD2    N1 1307   4.540   3.061  16.323 -0.0998  0.2936  0.4155
   85MPD2    H7 1308   4.477   3.099  16.253  0.7868  0.2899 -0.3912
   86TCq2    C1 1309   0.278   3.366  16.065 -0.1189  0.0853 -0.2862
   86TCq2    O2 1310   0.387   3.322  16.088  0.3041  0.1399 -0.4086
   86TCq2    C2 1311   0.273   3.496  15.999  0.6310 -0.4532  0.0464
   86TCq2    C3 1312   0.159   3.566  15.988  1.0666  0.5810  0.1835
   86TCq2    C4 1313   0.142   3.663  15.894  0.5499 -0.4376  0.3018
   86TCq2    C5 1314   0.235   3.680  15.803  0.1716 -0.3045  0.1001
   86TCq2    C6 1315   0.353   3.599  15.801 -0.3296  0.2629 -0.0816
   86TCq2    C7 1316   0.373   3.509  15.902 -0.3840 -0.0311  0.2459
   86TCq2    C8 1317   0.418   3.577  15.678 -0.2472 -0.6536  0.1192
   86TCq2    O4 1318   0.472   3.468  15.666 -0.2419  0.2765 -0.0581
   86TCq2    C9 1319   0.010   3.724  15.881  0.2450 -0.2774  0.2817
   86TCq2    O5 1320   0.004   3.809  15.790 -0.6579  0.5016 -0.1184
   86TCq2    O6 1321   4.638   3.666  15.938 -0.0819 -0.0830 -0.1585
   86TCq2    H2 1322   0.080   3.562  16.062  0.7610  0.2148 -0.1571
   86TCq2    H3 1323   0.217   3.747  15.719  0.2986 -2.4785 -1.6656
   86TCq2    H4 1324   0.461   3.446  15.900  0.5418  1.2291  0.8329
   87MPD2     C 1325   1.665   2.355   1.785  0.3841 -0.1510  0.1448
   87MPD2    C1 1326   1.716   2.272   1.690 -0.3775  0.1752 -0.6948
   87MPD2    C2 1327   1.653   2.278   1.566  0.0574  0.5550 -0.4126
   87MPD2    C3 1328   1.557   2.373   1.537 -0.0693 -0.5508  0.7471
   87MPD2    C4 1329   1.515   2.455   1.636 -0.1602 -0.3024  0.1285
   87MPD2    C5 1330   1.566   2.443   1.761 -0.6642 -0.5999  0.2333
   87MPD2     H 1331   1.681   2.211   1.485  1.3402  0.9426 -0.2996
   87MPD2    H1 1332   1.434   2.525   1.620  0.7174  0.1705 -2.2480
   87MPD2    H2 1333   1.697   2.345   1.888  0.3889  2.4651  0.3970
   87MPD2    H3 1334   1.537   2.497   1.851  0.6711  0.6179 -0.0843
   87MPD2     N 1335   1.500   2.387   1.409 -0.4315 -0.0534 -0.2487
   87MPD2    H5 1336   1.435   2.463   1.392  1.3010  1.5320  0.1966
   87MPD2    N1 1337   1.823   2.183   1.721 -0.0819  0.4415 -0.7136
   87MPD2    H7 1338   1.853   2.178   1.818 -2.3477  2.8016  0.1354
   88TCq2    C1 1339   1.887   2.107   1.628 -0.4972  0.7680 -0.2475
   88TCq2    O2 1340   1.889   2.107   1.504 -0.2207  0.0956  0.6392
   88TCq2    C2 1341   1.969   2.006   1.693 -0.4340 -0.6163  0.0410
   88TCq2    C3 1342   1.928   1.955   1.808 -0.2910  0.0190  0.5189
   88TCq2    C4 1343   2.007   1.862   1.864  0.2356 -0.1322  0.4898
   88TCq2    C5 1344   2.120   1.814   1.806 -0.2069 -0.2477 -0.9854
   88TCq2    C6 1345   2.160   1.879   1.695 -0.1312  0.6171 -0.7493
   88TCq2    C7 1346   2.084   1.972   1.629  0.9781  0.0489 -0.4326
   88TCq2    C8 1347   2.257   1.815   1.602 -0.3493 -0.5160 -0.1650
   88TCq2    O4 1348   2.258   1.853   1.486 -0.1019 -0.7021 -0.4514
   88TCq2    C9 1349   1.962   1.795   1.986 -0.4983  0.1264 -0.3471
   88TCq2    O5 1350   2.054   1.737   2.056  0.1430 -0.0159 -0.3405
   88TCq2    O6 1351   1.848   1.816   2.032  0.2588 -0.8952 -0.2850
   88TCq2    H2 1352   1.837   1.978   1.862 -0.7411  0.1736 -0.3062
   88TCq2    H3 1353   2.175   1.732   1.851 -1.0751  0.4821  1.3657
   88TCq2    H4 1354   2.107   2.012   1.532  1.8458 -0.3003 -0.3762
   89MPD2     C 1355   3.728   4.662   2.072  0.2232 -0.4242 -0.5020
   89MPD2    C1 1356   3.640   4.699   2.172  0.6267  0.1209 -0.3726
   89MPD2    C2 1357   3.678   0.085   2.261 -0.4583  0.1161  0.0016
   89MPD2    C3 1358   3.780   0.166   2.223  0.1037  0.2231  0.2037
   89MPD2    C4 1359   3.863   0.129   2.121 -0.4858 -0.1237  0.2298
   89MPD2    C5 1360   3.837   0.015   2.046 -0.5237 -0.0833 -0.0001
   89MPD2     H 1361   3.618   0.115   2.346 -0.7461  1.3011 -0.6132
   89MPD2    H1 1362   3.953   0.186   2.098 -0.7760  0.2082 -0.0898
   89MPD2    H2 1363   3.713   4.584   1.998 -1.4504  0.4258 -1.0551
   89MPD2    H3 1364   3.909   4.709   1.970  0.1371 -2.3063  1.4041
   89MPD2     N 1365   3.809   0.268   2.310  0.4889 -0.2516  0.5076
   89MPD2    H5 1366   3.738   0.291   2.379  0.0125  1.7576 -0.6409
   89MPD2    N1 1367   3.514   4.634   2.199  0.1920  0.1960 -0.0093
   89MPD2    H7 1368   3.454   4.688   2.261  0.3322 -0.0040  0.3006
   90TCq2    C1 1369   3.900   0.363   2.292 -0.1354  0.1253  0.2561
   90TCq2    O2 1370   3.960   0.393   2.191  0.3508  0.3644 -0.0947
   90TCq2    C2 1371   3.885   0.473   2.392  0.2991  0.5769  0.0073
   90TCq2    C3 1372   3.885   0.450   2.526  0.4387 -0.7737 -0.0614
   90TCq2    C4 1373   3.874   0.559   2.607 -0.7986  0.3143 -0.1428
   90TCq2    C5 1374   3.893   0.687   2.561 -0.3437 -0.0006 -0.1035
   90TCq2    C6 1375   3.901   0.704   2.425 -0.6042 -0.0825  0.6563
   90TCq2    C7 1376   3.889   0.600   2.341 -0.3250 -0.2771  0.0716
   90TCq2    C8 1377   3.898   0.841   2.365 -0.5947  0.0669  0.5145
   90TCq2    O4 1378   3.875   0.934   2.444 -0.1059 -0.3098  0.5831
   90TCq2    C9 1379   3.863   0.541   2.754 -0.2742  0.3743  0.0216
   90TCq2    O5 1380   3.830   0.428   2.796  0.3527 -0.2766  0.3328
   90TCq2    O6 1381   3.894   0.637   2.827 -0.1707 -0.4784 -0.0421
   90TCq2    H2 1382   3.873   0.350   2.565  0.3885  0.1354  2.2373
   90TCq2    H3 1383   3.891   0.765   2.637 -2.0422 -0.1081 -0.0375
   90TCq2    H4 1384   3.862   0.605   2.237 -0.0738 -1.6937 -0.0545
   91TMC2    C1 1385   4.639   4.639  16.901  0.0047 -1.2371  0.0320
   91TMC2    C2 1386   4.697   4.658  17.023  0.0401  0.1857  0.0169
   91TMC2    C3 1387   4.632   0.020  17.110  0.2348 -0.0177 -0.4064
   91TMC2    C4 1388   4.524   4.700  16.866  0.4362  0.0840  0.2124
   91TMC2    C5 1389   4.467   0.073  16.953  0.4375  0.6742  0.7363
   91TMC2    C6 1390   4.526   0.099  17.071 -0.4149 -0.3742  0.9496
   91TMC2     C 1391   4.675   4.528  16.824 -0.1279  0.1152  0.4469
   91TMC2     O 1392   4.581   4.451  16.803 -0.1664  0.0971 -0.0167
   91TMC2     H 1393   0.055   4.593  17.060 -0.0063  0.5685  0.7921
   91TMC2    H1 1394   4.483   4.685  16.767  0.9712 -0.4891  0.0820
   91TMC2    H2 1395   4.491   0.176  17.138  1.8373 -0.0328  1.7308
   91TMC2    C7 1396   4.334   0.132  16.927 -0.0747 -0.8834 -0.7055
   91TMC2    C8 1397   4.668   0.034  17.247  0.3183  0.6745 -0.2782
   91TMC2    O1 1398   4.315   0.237  16.983 -0.1328  0.2009  0.4259
   91TMC2    O2 1399   0.060   0.036  17.289  0.0024 -0.0094 -0.3323
   91TMC2    O5 1400   4.562   0.018  17.329  0.0229  0.1941  0.9134
   91TMC2    H5 1401   4.476   0.025  17.283  0.1043 -0.4772  0.6564
   92MPD2     C 1402   0.090   4.297  16.696  0.2873 -0.0522 -0.5745
   92MPD2    C1 1403   0.157   4.406  16.747  0.1290  0.0951  0.3526
   92MPD2    C2 1404   0.292   4.412  16.736  0.0481  0.3517 -0.9873
   92MPD2    C3 1405   0.369   4.323  16.663  0.5262  0.4309 -1.0208
   92MPD2    C4 1406   0.304   4.219  16.607  0.5801  0.0547  0.1371
   92MPD2    C5 1407   0.167   4.215  16.618  0.3154 -0.2030  0.1008
   92MPD2     H 1408   0.333   4.498  16.789  1.3930  0.0810 -1.5859
   92MPD2    H1 1409   0.353   4.149  16.540 -0.0230  0.5881 -0.8693
   92MPD2    H2 1410   4.704   4.282  16.706  0.3958 -0.5776 -0.1765
   92MPD2    H3 1411   0.115   4.134  16.568 -0.0882 -0.2463  0.5974
   92MPD2     N 1412   0.500   4.355  16.628  0.0509 -0.3013 -0.0169
   92MPD2    H5 1413   0.524   4.454  16.625 -0.4359 -0.1343  1.7041
   92MPD2    N1 1414   0.094   4.511  16.812  0.1221 -0.1662 -0.0764
   92MPD2    H7 1415   0.154   4.581  16.855  0.3541 -0.8501  0.7049
   93MPD2     C 1416   1.391   4.271  13.377  0.7331 -0.7061 -0.2688
   93MPD2    C1 1417   1.435   4.176  13.468  0.4114  0.7585  0.0821
   93MPD2    C2 1418   1.337   4.090  13.516  0.8318  0.6204  0.5592
   93MPD2    C3 1419   1.199   4.116  13.481 -0.1170 -0.1660 -0.7812
   93MPD2    C4 1420   1.168   4.209  13.378  0.3969 -0.5278 -0.7963
   93MPD2    C5 1421   1.268   4.282  13.324  0.0702  0.4876 -0.1308
   93MPD2     H 1422   1.362   4.015  13.590  2.4054  0.9851  0.3927
   93MPD2    H1 1423   1.068   4.220  13.335  0.6890  1.7080 -0.8858
   93MPD2    H2 1424   1.465   4.327  13.322  0.6887  0.5089  0.9116
   93MPD2    H3 1425   1.235   4.349  13.246  2.0053 -0.6003 -1.8641
   93MPD2     N 1426   1.089   4.041  13.530  0.3412 -0.2491 -0.2848
   93MPD2    H5 1427   0.995   4.068  13.504  0.4945  0.7733  0.2240
   93MPD2    N1 1428   1.567   4.152  13.510  0.1209  0.7544 -0.2647
   93MPD2    H7 1429   1.590   4.082  13.579 -0.3797  0.1800 -0.6747
   94TCq2    C1 1430   1.672   4.234  13.475  0.0454  0.0741  0.5660
   94TCq2    O2 1431   1.678   4.329  13.396 -0.1688  0.4056  0.5770
   94TCq2    C2 1432   1.796   4.199  13.543  0.1588 -0.5050  0.0250
   94TCq2    C3 1433   1.849   4.088  13.496  0.5864 -0.2393 -0.2635
   94TCq2    C4 1434   1.962   4.056  13.562 -0.2213  0.0448 -0.7830
   94TCq2    C5 1435   2.011   4.114  13.675  0.1364 -0.3996  0.0806
   94TCq2    C6 1436   1.944   4.222  13.718  0.6533  0.1283 -0.1124
   94TCq2    C7 1437   1.831   4.263  13.653 -0.6708 -0.8491  0.6074
   94TCq2    C8 1438   2.003   4.319  13.811 -0.0195  0.0876  0.3276
   94TCq2    O4 1439   1.942   4.419  13.838 -0.1354 -0.0546 -0.1417
   94TCq2    C9 1440   2.036   3.942  13.507  0.1969  0.4276 -0.3799
   94TCq2    O5 1441   1.979   3.874  13.419 -0.8933  0.4877  0.6706
   94TCq2    O6 1442   2.158   3.926  13.546 -0.7554  0.2564  0.6452
   94TCq2    H2 1443   1.819   4.047  13.400  0.2467  2.4891 -1.3266
   94TCq2    H3 1444   2.103   4.078  13.719  0.7940  2.2546  0.8697
   94TCq2    H4 1445   1.763   4.338  13.692  1.3325  0.7029  1.1047
   95TMC2    C1 1446   1.783   1.394  16.174 -0.4690  0.4708  0.0513
   95TMC2    C2 1447   1.731   1.510  16.218 -0.0596  0.4098  0.8391
   95TMC2    C3 1448   1.706   1.517  16.352  0.0284 -0.3965  0.5002
   95TMC2    C4 1449   1.815   1.293  16.261 -0.0840 -0.4274  0.2324
   95TMC2    C5 1450   1.790   1.308  16.390  0.4581 -0.3004 -0.2943
   95TMC2    C6 1451   1.729   1.420  16.438  0.5075  0.4534  0.1320
   95TMC2     C 1452   1.844   1.399  16.040  0.3384  0.7356  0.1223
   95TMC2     O 1453   1.884   1.509  15.998 -0.0195  0.2185 -0.1704
   95TMC2     H 1454   1.719   1.594  16.150  0.3315  0.7864  1.2276
   95TMC2    H1 1455   1.858   1.201  16.225 -0.2636  0.5125 -2.3893
   95TMC2    H2 1456   1.725   1.443  16.543 -1.4050 -1.9434  0.5807
   95TMC2    C7 1457   1.818   1.190  16.469  0.1817 -0.8949 -0.1549
   95TMC2    C8 1458   1.647   1.630  16.412  0.6315  0.3171  0.1663
   95TMC2    O1 1459   1.860   1.087  16.422 -0.3367 -0.0488  0.3137
   95TMC2    O2 1460   1.692   1.685  16.514 -1.4209 -0.2687  0.0851
   95TMC2    O5 1461   1.569   1.694  16.324 -0.3602  0.1016 -0.1858
   95TMC2    H5 1462   1.533   1.634  16.255  2.4241 -2.8546  0.9419
   96MPD2     C 1463   1.990   1.157  15.619  0.1601  0.7989  0.3399
   96MPD2    C1 1464   2.023   1.283  15.672 -0.0984 -0.2531 -0.0869
   96MPD2    C2 1465   1.968   1.322  15.788 -0.5130  0.0135  0.0538
   96MPD2    C3 1466   1.880   1.242  15.853  0.4840  0.4465  0.2731
   96MPD2    C4 1467   1.844   1.121  15.806  0.9266 -0.2003  0.4584
   96MPD2    C5 1468   1.900   1.082  15.688 -0.3753 -0.6104 -0.8891
   96MPD2     H 1469   2.001   1.413  15.835  1.6067 -1.0021  0.5251
   96MPD2    H1 1470   1.788   1.054  15.871 -1.1887  0.3034 -0.8164
   96MPD2    H2 1471   2.050   1.111  15.541  0.8787  1.8812  0.2679
   96MPD2    H3 1472   1.894   0.986  15.638  0.1045 -1.7892  1.3160
   96MPD2     N 1473   1.835   1.276  15.980  0.6025  0.2610 -0.9912
   96MPD2    H5 1474   1.788   1.205  16.034  0.5995  0.6033 -0.5434
   96MPD2    N1 1475   2.129   1.355  15.608 -0.6694 -0.0831  0.7013
   96MPD2    H7 1476   2.179   1.300  15.538  1.4704  2.5442  0.1594
   97MPD2     C 1477   4.369   3.615   1.301  0.6055 -0.9212 -0.6481
   97MPD2    C1 1478   4.359   3.750   1.263 -1.1852  0.0995 -0.8729
   97MPD2    C2 1479   4.387   3.790   1.131  0.3849  0.0726  0.5513
   97MPD2    C3 1480   4.402   3.689   1.033 -0.5734 -0.0462  0.4861
   97MPD2    C4 1481   4.401   3.554   1.067 -0.4274 -0.0741 -0.6391
   97MPD2    C5 1482   4.388   3.518   1.204 -0.6482  0.7318  0.1505
   97MPD2     H 1483   4.377   3.895   1.106 -1.4394 -0.2111  0.0344
   97MPD2    H1 1484   4.413   3.483   0.986  1.2250  1.4419 -1.7066
   97MPD2    H2 1485   4.374   3.583   1.405 -1.0575  2.2917  0.4200
   97MPD2    H3 1486   4.406   3.414   1.231  0.6763  1.6472  2.8151
   97MPD2     N 1487   4.400   3.724   0.899  0.0134  0.4193  0.1015
   97MPD2    H5 1488   4.374   3.651   0.833 -0.2277 -1.1016  1.8654
   97MPD2    N1 1489   4.337   3.845   1.367 -0.0401 -0.1913 -0.3465
   97MPD2    H7 1490   4.311   3.805   1.457  2.1344 -1.2220 -0.1777
   98TCq2    C1 1491   4.434   3.844   0.845  0.0779  0.2709 -0.3378
   98TCq2    O2 1492   4.482   3.944   0.903  0.3941 -0.5728 -0.3709
   98TCq2    C2 1493   4.400   3.859   0.702 -0.0089 -0.5790 -0.0666
   98TCq2    C3 1494   4.319   3.772   0.635 -0.2248  0.3529 -0.3479
   98TCq2    C4 1495   4.319   3.779   0.499 -0.1375 -0.2980 -0.1286
   98TCq2    C5 1496   4.397   3.871   0.430 -0.5883 -0.0543 -0.8228
   98TCq2    C6 1497   4.473   3.953   0.505  0.2285 -0.1104 -0.6437
   98TCq2    C7 1498   4.476   3.947   0.640 -0.2026 -0.2395 -0.9771
   98TCq2    C8 1499   4.503   4.082   0.452  0.2349 -0.2978 -0.3135
   98TCq2    O4 1500   4.589   4.152   0.505 -0.0022 -0.2096 -0.5980
   98TCq2    C9 1501   4.239   3.692   0.418  0.5121 -0.2182  0.2307
   98TCq2    O5 1502   4.221   3.721   0.297 -0.0977  0.7186 -0.0367
   98TCq2    O6 1503   4.174   3.603   0.477 -0.7378 -0.5896  0.1588
   98TCq2    H2 1504   4.262   3.696   0.686  2.8487 -2.1042 -0.5972
   98TCq2    H3 1505   4.397   3.893   0.324 -1.7269  0.7319 -0.6685
   98TCq2    H4 1506   4.550   4.006   0.694 -0.4009  0.4420 -1.4418
   99MPD2     C 1507   3.387   1.349   2.153 -0.0342  0.1401  0.1410
   99MPD2    C1 1508   3.251   1.321   2.142  0.7026  0.2620  0.5541
   99MPD2    C2 1509   3.195   1.292   2.025  0.1146  0.1378  0.4572
   99MPD2    C3 1510   3.268   1.278   1.909  0.6956  0.5988  0.0404
   99MPD2    C4 1511   3.403   1.301   1.919  0.2551  0.1808 -0.4461
   99MPD2    C5 1512   3.458   1.334   2.036 -0.7932 -0.1613  0.2348
   99MPD2     H 1513   3.089   1.269   2.028  0.4088 -0.9876  2.0181
   99MPD2    H1 1514   3.473   1.307   1.837  0.2020  1.7485 -0.3745
   99MPD2    H2 1515   3.433   1.371   2.249 -2.5961 -0.4330  1.5048
   99MPD2    H3 1516   3.566   1.331   2.029 -0.6980  0.2503  1.5502
   99MPD2     N 1517   3.194   1.247   1.797  0.4000 -0.3884 -0.0826
   99MPD2    H5 1518   3.096   1.229   1.815  0.2630 -2.4135 -2.9264
   99MPD2    N1 1519   3.168   1.316   2.257  0.3177  0.0492 -0.0731
   99MPD2    H7 1520   3.082   1.263   2.244  0.1575  0.5346 -1.0025
  100TCq2    C1 1521   3.199   1.379   2.380 -0.0327 -0.0264 -0.8190
  100TCq2    O2 1522   3.295   1.445   2.415  0.2280 -0.1674 -0.3752
  100TCq2    C2 1523   3.102   1.346   2.486  1.0166 -0.8549 -0.3922
  100TCq2    C3 1524   3.144   1.381   2.612 -0.4742 -0.5832 -0.7827
  100TCq2    C4 1525   3.052   1.367   2.717  0.5023  0.2724  0.6370
  100TCq2    C5 1526   2.939   1.294   2.696 -0.4688 -0.1521 -0.2558
  100TCq2    C6 1527   2.901   1.263   2.568  0.0505 -0.3297  0.7495
  100TCq2    C7 1528   2.981   1.279   2.461 -0.3484  0.3558 -0.3739
  100TCq2    C8 1529   2.764   1.223   2.551  0.2785 -0.3617  0.0225
  100TCq2    O4 1530   2.689   1.247   2.644  0.3180 -0.4624 -0.2961
  100TCq2    C9 1531   3.088   1.413   2.846 -0.8321  0.0595  0.1653
  100TCq2    O5 1532   3.183   1.495   2.856 -0.8136  0.1218 -0.7300
  100TCq2    O6 1533   3.012   1.375   2.940 -0.3104 -0.5804  0.2763
  100TCq2    H2 1534   3.245   1.415   2.631 -1.1966 -0.0437  2.0383
  100TCq2    H3 1535   2.872   1.268   2.777  1.7056 -0.4085  1.4441
  100TCq2    H4 1536   2.940   1.273   2.360 -0.5993  1.5677 -0.3429
  101MPD2     C 1537   3.396   2.018  12.798 -0.4521  0.4369  0.1516
  101MPD2    C1 1538   3.327   2.087  12.894 -0.1426 -0.1517 -0.5379
  101MPD2    C2 1539   3.290   2.016  13.006  1.2696  0.0290 -0.7921
  101MPD2    C3 1540   3.318   1.880  13.021  0.1088  0.4769 -0.5207
  101MPD2    C4 1541   3.385   1.807  12.925  0.2087  0.0075  0.2571
  101MPD2    C5 1542   3.423   1.878  12.811  0.1642  0.4818 -0.2726
  101MPD2     H 1543   3.216   2.055  13.075  1.5548 -0.4469 -0.2157
  101MPD2    H1 1544   3.414   1.703  12.928  0.2457  0.0256  0.4911
  101MPD2    H2 1545   3.420   2.061  12.701  1.1161  1.3875  0.9707
  101MPD2    H3 1546   3.461   1.823  12.726 -0.0006  1.4265 -0.9646
  101MPD2     N 1547   3.273   1.818  13.144  0.0235  0.2367  0.5048
  101MPD2    H5 1548   3.247   1.879  13.221  3.6231  2.2347  0.1288
  101MPD2    N1 1549   3.301   2.222  12.865 -0.2466  0.3858 -0.4058
  101MPD2    H7 1550   3.347   2.256  12.781  1.0671  0.3946  0.3091
  102TCq2    C1 1551   3.427   2.676  12.715  0.2808  0.2485 -0.2093
  102TCq2    O2 1552   3.539   2.637  12.750  0.3568 -0.7945  0.1085
  102TCq2    C2 1553   3.316   2.626  12.789  0.0206  0.5730 -0.5465
  102TCq2    C3 1554   3.192   2.690  12.763  0.0321  0.2676  0.5014
  102TCq2    C4 1555   3.085   2.617  12.808  0.3187 -0.0236  0.2360
  102TCq2    C5 1556   3.091   2.497  12.872  0.0217 -0.5909  0.0544
  102TCq2    C6 1557   3.215   2.441  12.888 -0.4708  1.0246  0.1888
  102TCq2    C7 1558   3.326   2.511  12.849 -0.7306  0.1121 -0.9833
  102TCq2    C8 1559   3.223   2.304  12.941 -0.0215  0.2626 -0.2527
  102TCq2    O4 1560   3.156   2.281  13.041 -0.2196 -0.5719  0.1061
  102TCq2    C9 1561   2.955   2.676  12.794  0.5304  0.8563  0.3532
  102TCq2    O5 1562   2.958   2.798  12.765 -0.5188  0.1066 -0.2064
  102TCq2    O6 1563   2.864   2.593  12.772  0.1247  0.5561 -0.6162
  102TCq2    H2 1564   3.180   2.781  12.707  2.3015 -0.0550 -0.5421
  102TCq2    H3 1565   2.999   2.446  12.899 -0.3331  0.8050  1.4985
  102TCq2    H4 1566   3.423   2.469  12.876 -1.3631 -1.3340 -0.9204
  103TMC2    C1 1567   1.662   2.613  13.076  0.1005  0.2933  0.8077
  103TMC2    C2 1568   1.750   2.716  13.088 -0.3522 -0.2341  0.2599
  103TMC2    C3 1569   1.755   2.781  13.215  0.0401 -0.0558 -0.8990
  103TMC2    C4 1570   1.592   2.557  13.177 -0.4501  0.4890 -0.5781
  103TMC2    C5 1571   1.600   2.619  13.302 -0.1919 -0.2275  0.1062
  103TMC2    C6 1572   1.681   2.730  13.321  0.1348  0.1276  0.1570
  103TMC2     C 1573   1.659   2.535  12.948  0.1804 -0.2784 -0.2643
  103TMC2     O 1574   1.550   2.493  12.915  0.6096 -0.4843 -0.4945
  103TMC2     H 1575   1.804   2.747  12.999 -2.4058 -2.3369 -1.6994
  103TMC2    H1 1576   1.529   2.473  13.153  2.7072 -1.7433 -1.0523
  103TMC2    H2 1577   1.694   2.762  13.424  0.2088  0.7529 -0.0462
  103TMC2    C7 1578   1.550   2.556  13.424 -0.1417  0.0803 -0.4426
  103TMC2    C8 1579   1.857   2.878  13.233 -0.2761  0.1900  0.1154
  103TMC2    O1 1580   1.585   2.598  13.535  0.3483 -0.3425  0.3734
  103TMC2    O2 1581   1.911   2.931  13.137 -0.0811 -0.5173 -0.1699
  103TMC2    O5 1582   1.924   2.833  13.339 -0.5682  0.0434  0.3509
  103TMC2    H5 1583   1.877   2.772  13.399 -1.4885  1.1035  0.7206
  104MPD2     C 1584   1.941   2.374  12.786 -0.2950  0.7036 -0.1858
  104MPD2    C1 1585   1.814   2.420  12.796  0.8014 -0.0793 -0.2127
  104MPD2    C2 1586   1.717   2.378  12.709 -0.1845  0.4228  0.6127
  104MPD2    C3 1587   1.753   2.289  12.606 -0.8574 -0.0633  0.2784
  104MPD2    C4 1588   1.884   2.254  12.589  0.3084 -0.3931 -0.3710
  104MPD2    C5 1589   1.977   2.294  12.687 -0.2655  0.6533  0.2977
  104MPD2     H 1590   1.617   2.419  12.717  0.4576  2.2505 -0.7369
  104MPD2    H1 1591   1.919   2.185  12.513  0.6350 -0.0265 -0.5528
  104MPD2    H2 1592   2.020   2.398  12.857 -1.6956  0.1105  1.5780
  104MPD2    H3 1593   2.078   2.254  12.679 -0.8512 -1.0775  1.5327
  104MPD2     N 1594   1.661   2.254  12.510 -0.1589  0.2367  0.0642
  104MPD2    H5 1595   1.568   2.290  12.525  0.4398  1.2144  1.4760
  104MPD2    N1 1596   1.786   2.503  12.906  0.6462 -0.3624 -0.0888
  104MPD2    H7 1597   1.871   2.536  12.952  0.6944 -0.0331 -0.4058
  105MPD2     C 1598   3.106   1.313   0.338  0.0068  0.7629 -0.1559
  105MPD2    C1 1599   3.035   1.431   0.317  0.4598  0.2204 -0.0570
  105MPD2    C2 1600   2.971   1.499   0.421  0.8449 -0.0711 -0.6766
  105MPD2    C3 1601   2.974   1.458   0.552  0.0641 -0.2103 -0.5534
  105MPD2    C4 1602   3.045   1.338   0.570 -0.6177  0.1118  0.3333
  105MPD2    C5 1603   3.096   1.268   0.465 -0.5495  0.7230  0.1597
  105MPD2     H 1604   2.926   1.593   0.391 -0.1655  0.1715  1.6626
  105MPD2    H1 1605   3.044   1.288   0.666 -0.2466  1.6632  1.1579
  105MPD2    H2 1606   3.176   1.270   0.267 -0.8190 -0.0828 -0.4536
  105MPD2    H3 1607   3.153   1.180   0.492 -1.9633  0.6767  2.9810
  105MPD2     N 1608   2.906   1.528   0.649 -0.3841  0.2006  0.1025
  105MPD2    H5 1609   2.836   1.593   0.613  0.2232  0.4743 -0.5820
  105MPD2    N1 1610   3.041   1.504   0.200 -0.1938 -0.1013 -0.5779
  105MPD2    H7 1611   3.011   1.601   0.194 -0.3465 -0.1324 -0.3401
  106TCq2    C1 1612   2.918   1.503   0.785  0.1414 -0.4179 -0.2885
  106TCq2    O2 1613   3.000   1.430   0.838  0.2346 -0.3703  0.5304
  106TCq2    C2 1614   2.813   1.563   0.859 -0.3113  0.5142 -0.1213
  106TCq2    C3 1615   2.728   1.652   0.807  0.2494  0.0248 -0.6938
  106TCq2    C4 1616   2.631   1.709   0.887  0.2098 -0.6309  0.5076
  106TCq2    C5 1617   2.608   1.663   1.017 -0.6451  0.3416  0.5077
  106TCq2    C6 1618   2.699   1.576   1.071  0.1659  0.4372  0.2761
  106TCq2    C7 1619   2.807   1.532   0.993 -0.7862 -0.1464  0.0177
  106TCq2    C8 1620   2.709   1.550   1.218  0.2767 -0.0209  0.6226
  106TCq2    O4 1621   2.779   1.455   1.249  0.4785  0.1007  0.3508
  106TCq2    C9 1622   2.548   1.816   0.843 -0.1213  0.6408 -0.5062
  106TCq2    O5 1623   2.460   1.856   0.918  0.5530  0.5445  0.0898
  106TCq2    O6 1624   2.594   1.881   0.746 -0.3906 -0.7483  0.0719
  106TCq2    H2 1625   2.747   1.694   0.709 -1.8145  1.9742 -0.2658
  106TCq2    H3 1626   2.524   1.707   1.069 -1.3212  0.0483 -0.3256
  106TCq2    H4 1627   2.895   1.488   1.038 -0.9792 -0.6871 -0.1437
  107TMC2    C1 1628   3.774   0.866  11.821  0.1454  0.4538  0.3905
  107TMC2    C2 1629   3.861   0.960  11.774 -0.1722  0.3136 -0.1515
  107TMC2    C3 1630   3.918   0.931  11.653 -0.2841  0.2285 -0.2308
  107TMC2    C4 1631   3.756   0.743  11.764 -0.5808 -0.4595 -0.3811
  107TMC2    C5 1632   3.810   0.716  11.638 -0.3503 -0.2631  0.0730
  107TMC2    C6 1633   3.890   0.813  11.578 -0.0204 -0.3812 -0.5065
  107TMC2     C 1634   3.669   0.926  11.895 -0.0454  0.2066 -0.3637
  107TMC2     O 1635   3.618   0.863  11.984 -0.0328  0.0498  0.0257
  107TMC2     H 1636   3.883   1.057  11.816  1.3843  0.1970 -0.7012
  107TMC2    H1 1637   3.694   0.667  11.811 -0.3782 -1.1174 -1.1758
  107TMC2    H2 1638   3.916   0.801  11.474 -2.0159 -2.9020 -0.7111
  107TMC2    C7 1639   3.759   0.598  11.574  0.0407  0.7367 -0.5502
  107TMC2    C8 1640   4.004   1.021  11.588 -0.0002 -0.6323  0.0419
  107TMC2    O1 1641   3.683   0.528  11.637  0.0481 -0.2421 -0.5277
  107TMC2    O2 1642   4.119   0.997  11.561  0.1090  0.0113 -0.6366
  107TMC2    O5 1643   3.938   1.141  11.586  0.1403  0.0565  0.1431
  107TMC2    H5 1644   3.843   1.139  11.610 -0.2207  2.7565 -1.1079
  108MPD2     C 1645   3.584   1.284  11.914  0.2506  0.2606 -0.2704
  108MPD2    C1 1646   3.571   1.152  11.941 -0.3895 -0.3090  0.4657
  108MPD2    C2 1647   3.476   1.112  12.042  0.6051  0.1816  0.0664
  108MPD2    C3 1648   3.398   1.209  12.100  0.1417  0.5628 -0.3295
  108MPD2    C4 1649   3.398   1.336  12.054  0.4929 -0.2930  0.5312
  108MPD2    C5 1650   3.489   1.374  11.960 -0.1565 -0.2530  0.0680
  108MPD2     H 1651   3.462   1.008  12.068 -0.6046  0.2899 -0.1348
  108MPD2    H1 1652   3.326   1.408  12.091 -1.9969 -2.5943  0.1982
  108MPD2    H2 1653   3.634   1.314  11.822 -0.6116  3.1353  0.2137
  108MPD2    H3 1654   3.493   1.477  11.926  2.7273 -0.6193 -0.7586
  108MPD2     N 1655   3.300   1.175  12.199 -0.1652  0.0410 -0.2581
  108MPD2    H5 1656   3.229   1.243  12.223 -0.3204 -0.4023  0.5526
  108MPD2    N1 1657   3.648   1.059  11.869  0.6251 -0.1114  0.3427
  108MPD2    H7 1658   3.698   1.092  11.787 -0.8444 -2.0796 -1.3641
  109MPD2     C 1659   4.005   2.995   2.300 -0.0836 -0.4977 -0.1285
  109MPD2    C1 1660   3.970   3.127   2.286  0.0620 -0.8952 -0.3949
  109MPD2    C2 1661   4.054   3.217   2.337  0.1560  0.8010 -0.1905
  109MPD2    C3 1662   4.175   3.191   2.400 -0.9168 -0.2576  0.3963
  109MPD2    C4 1663   4.204   3.057   2.421  0.5984  0.4295  0.0915
  109MPD2    C5 1664   4.119   2.963   2.370 -0.5483 -0.5398 -0.5346
  109MPD2     H 1665   4.029   3.322   2.328  0.9292  1.2109  2.2299
  109MPD2    H1 1666   4.288   3.026   2.481 -0.7612 -2.9319  0.2635
  109MPD2    H2 1667   3.944   2.919   2.253 -1.3613 -0.2484  1.1378
  109MPD2    H3 1668   4.142   2.857   2.381 -2.1251 -0.8296 -0.0359
  109MPD2     N 1669   4.257   3.301   2.442  0.3493 -0.3920 -0.0789
  109MPD2    H5 1670   4.217   3.395   2.433  1.4940  0.1135  0.2122
  109MPD2    N1 1671   3.856   3.149   2.211 -0.2835 -0.0798  0.1234
  109MPD2    H7 1672   3.830   3.078   2.144 -1.0031  0.9940 -0.7311
  110TCq2    C1 1673   4.385   3.291   2.485  0.1564 -0.1212 -0.0744
  110TCq2    O2 1674   4.454   3.191   2.489  0.9070 -0.2186  0.3097
  110TCq2    C2 1675   4.450   3.417   2.502 -0.0348  0.0400 -0.4118
  110TCq2    C3 1676   4.574   3.418   2.566 -0.6770 -0.1573 -0.0409
  110TCq2    C4 1677   4.647   3.527   2.550  0.5693  0.3200  0.8238
  110TCq2    C5 1678   4.609   3.638   2.476 -1.0254  0.6639 -0.2716
  110TCq2    C6 1679   4.490   3.629   2.414  0.3158 -0.1286  0.7691
  110TCq2    C7 1680   4.401   3.523   2.427  0.4402  0.2673  0.3762
  110TCq2    C8 1681   4.449   3.734   2.321 -0.1284 -0.3801 -0.0025
  110TCq2    O4 1682   4.383   3.700   2.224  0.1807  0.0320 -0.4867
  110TCq2    C9 1683   0.070   3.521   2.592 -0.6113  0.0879  0.3913
  110TCq2    O5 1684   0.146   3.618   2.558 -0.7357  0.0914  0.9361
  110TCq2    O6 1685   0.103   3.411   2.651  0.4731  0.1653  0.4697
  110TCq2    H2 1686   4.612   3.327   2.609 -0.1136  0.3969  0.6358
  110TCq2    H3 1687   4.689   3.705   2.447 -1.4691  1.7768  1.0977
  110TCq2    H4 1688   4.307   3.517   2.374  1.2459  2.2007 -1.2792
  111TMC2    C1 1689   4.144   3.170  11.408 -0.1839 -0.7405 -0.5917
  111TMC2    C2 1690   4.245   3.201  11.313 -0.1790 -0.3848 -0.0097
  111TMC2    C3 1691   4.366   3.222  11.364  0.3270  0.7729  0.0086
  111TMC2    C4 1692   4.176   3.160  11.541 -0.1022  0.3438 -0.4098
  111TMC2    C5 1693   4.310   3.174  11.586  0.3735  0.4286  0.8818
  111TMC2    C6 1694   4.407   3.212  11.497 -0.3342 -0.3780  0.4564
  111TMC2     C 1695   4.010   3.173  11.360 -1.1625  0.6255 -0.6150
  111TMC2     O 1696   3.973   3.242  11.267 -0.2137 -0.0714  0.0068
  111TMC2     H 1697   4.224   3.219  11.209 -1.9855  2.2140  0.7864
  111TMC2    H1 1698   4.103   3.135  11.616  1.6501  1.5140  1.6645
  111TMC2    H2 1699   4.510   3.227  11.525 -0.4006 -0.4406  0.7320
  111TMC2    C7 1700   4.329   3.135  11.725  0.8974  0.1650 -0.1203
  111TMC2    C8 1701   4.454   3.312  11.291 -0.1079  0.9394 -0.2710
  111TMC2    O1 1702   4.227   3.092  11.786 -0.7505  0.7191 -0.6467
  111TMC2    O2 1703   4.440   3.320  11.169  0.1897  0.0078  0.1475
  111TMC2    O5 1704   4.463   3.421  11.375  0.2493 -0.2251 -0.0051
  111TMC2    H5 1705   4.428   3.408  11.466  1.6339  1.4411  0.7787
  112MPD2     C 1706   3.528   3.097  11.504  0.3497 -0.7226 -0.5971
  112MPD2    C1 1707   3.574   3.158  11.389  0.3707 -0.3072 -1.0797
  112MPD2    C2 1708   3.709   3.159  11.356  0.2863 -0.6087  0.1650
  112MPD2    C3 1709   3.794   3.100  11.450  0.0663  0.3393  0.4725
  112MPD2    C4 1710   3.745   3.025  11.558 -0.0689  0.6391 -0.2212
  112MPD2    C5 1711   3.612   3.021  11.582  0.2496  0.4775 -0.5804
  112MPD2     H 1712   3.746   3.221  11.275 -2.8922  0.9466 -0.0917
  112MPD2    H1 1713   3.819   2.976  11.620  1.7225  2.4663 -0.8871
  112MPD2    H2 1714   3.422   3.105  11.524  0.2878  1.5054 -1.8356
  112MPD2    H3 1715   3.576   2.967  11.668 -1.8725 -0.9724 -2.3819
  112MPD2     N 1716   3.935   3.099  11.440 -0.7475 -0.3434 -0.1868
  112MPD2    H5 1717   3.983   3.049  11.514  0.6982  2.9206  1.0885
  112MPD2    N1 1718   3.500   3.231  11.291  0.0611 -0.3665  0.0847
  112MPD2    H7 1719   3.551   3.262  11.209 -1.6506 -0.8272 -1.1373
  113MPD2     C 1720   2.462   0.752   1.380 -0.2455  1.2470  0.0582
  113MPD2    C1 1721   2.400   0.871   1.354  0.0410 -0.0364  0.3533
  113MPD2    C2 1722   2.333   0.886   1.240 -0.3996  0.2575 -0.4945
  113MPD2    C3 1723   2.336   0.791   1.142 -0.3136 -0.1533  0.7912
  113MPD2    C4 1724   2.406   0.675   1.164 -0.1986  0.2350 -0.2500
  113MPD2    C5 1725   2.472   0.660   1.284 -0.5319  0.2524 -0.0121
  113MPD2     H 1726   2.278   0.979   1.227  0.5875  1.0113  0.7251
  113MPD2    H1 1727   2.432   0.611   1.080 -0.2316  0.3598 -0.3553
  113MPD2    H2 1728   2.520   0.735   1.470 -2.5523  0.3891  1.3858
  113MPD2    H3 1729   2.532   0.571   1.289 -1.0481 -0.1340 -0.6652
  113MPD2     N 1730   2.269   0.796   1.015 -0.1946 -0.6428  0.7472
  113MPD2    H5 1731   2.269   0.721   0.948 -2.3963  0.7145 -0.7469
  113MPD2    N1 1732   2.393   0.977   1.447 -0.4255  0.2974  0.4039
  113MPD2    H7 1733   2.331   1.046   1.406  0.1962 -0.9010 -2.6295
  114TCq2    C1 1734   2.190   0.904   0.968 -0.6263  0.0990 -0.3099
  114TCq2    O2 1735   2.179   1.014   1.013  0.0809  0.1071 -0.0590
  114TCq2    C2 1736   2.092   0.860   0.871  0.2057  0.2366 -0.4898
  114TCq2    C3 1737   2.025   0.957   0.800 -0.9854 -0.0322  0.3740
  114TCq2    C4 1738   1.919   0.908   0.725 -0.5651 -0.9676 -0.1853
  114TCq2    C5 1739   1.886   0.779   0.705  0.1071  0.4160  0.0545
  114TCq2    C6 1740   1.952   0.684   0.781 -0.0957 -0.3135 -0.5010
  114TCq2    C7 1741   2.057   0.728   0.860  0.3639  0.4856  0.1596
  114TCq2    C8 1742   1.898   0.558   0.791 -0.7924  0.3891 -1.0073
  114TCq2    O4 1743   1.849   0.517   0.688 -0.3857  0.1818  0.7382
  114TCq2    C9 1744   1.832   1.007   0.663  0.0767 -0.6293  0.3012
  114TCq2    O5 1745   1.872   1.124   0.629  0.3393  0.2457  0.5781
  114TCq2    O6 1746   1.711   0.973   0.673  0.2798  0.1962  0.4902
  114TCq2    H2 1747   2.040   1.063   0.817 -0.1619  0.0639 -0.9592
  114TCq2    H3 1748   1.799   0.753   0.645  0.8117  0.8079 -1.1449
  114TCq2    H4 1749   2.108   0.653   0.919  0.1099  0.1537 -0.0446
  115TMC2    C1 1750   2.647   3.929   0.178  0.1526 -0.3134 -0.1441
  115TMC2    C2 1751   2.580   3.945   0.056  0.6414  0.3051 -0.1663
  115TMC2    C3 1752   2.635   4.040  17.656 -0.0783 -0.4748  0.0959
  115TMC2    C4 1753   2.756   4.001   0.213  0.5375  0.1267  0.3322
  115TMC2    C5 1754   2.796   4.097   0.129  0.3351  0.4908 -0.3557
  115TMC2    C6 1755   2.740   4.114   0.001 -0.0531  0.2751 -0.2510
  115TMC2     C 1756   2.603   3.812   0.260 -0.3762 -0.1426  0.6163
  115TMC2     O 1757   2.508   3.747   0.221 -0.2343  0.2395 -0.0177
  115TMC2     H 1758   2.477   3.919   0.036  0.3993 -0.4455  2.0561
  115TMC2    H1 1759   2.788   4.001   0.317  0.6947 -0.0920  0.2826
  115TMC2    H2 1760   2.755   4.198  17.621  1.0866 -0.4732 -0.9333
  115TMC2    C7 1761   2.864   4.212   0.192  0.5033 -0.1280  0.5705
  115TMC2    C8 1762   2.559   4.083  17.541  0.4380  0.3566 -0.0199
  115TMC2    O1 1763   2.860   4.221   0.313 -0.6794  0.3008  0.7291
  115TMC2    O2 1764   2.546   4.199  17.510  0.0917 -0.0598  0.2501
  115TMC2    O5 1765   2.479   3.981  17.500 -0.2529 -0.6250  0.3804
  115TMC2    H5 1766   2.490   3.890  17.536 -2.1213 -1.0166 -0.0294
  116MPD2     C 1767   2.681   3.418   0.600 -0.1738 -0.8485  0.0574
  116MPD2    C1 1768   2.641   3.415   0.465  0.3863 -0.4254  0.4228
  116MPD2    C2 1769   2.635   3.540   0.391  0.4774  0.0443  0.2011
  116MPD2    C3 1770   2.675   3.663   0.447 -0.1411  0.7398  0.6295
  116MPD2    C4 1771   2.718   3.658   0.577  0.4023  0.0801 -0.4235
  116MPD2    C5 1772   2.724   3.539   0.651  0.5406 -0.2582 -0.3385
  116MPD2     H 1773   2.609   3.539   0.286  1.9097 -3.4406 -0.1395
  116MPD2    H1 1774   2.751   3.751   0.621 -2.2618  1.4655 -1.3476
  116MPD2    H2 1775   2.689   3.325   0.656 -2.4521 -1.9340 -1.4395
  116MPD2    H3 1776   2.748   3.538   0.757 -0.7020 -0.5463 -0.0632
  116MPD2     N 1777   2.675   3.789   0.375 -0.0813  0.0878  0.0239
  116MPD2    H5 1778   2.724   3.868   0.417  0.2864 -0.3484  0.4119
  116MPD2    N1 1779   2.600   3.291   0.408 -0.4346 -0.5666  0.1626
  116MPD2    H7 1780   2.618   3.210   0.466 -2.0239 -0.9080  0.1908
  117TMC2    C1 1781   0.872   4.490  14.376  0.1702 -0.2427  0.2729
  117TMC2    C2 1782   0.881   4.576  14.488 -0.1249 -0.0571  0.0621
  117TMC2    C3 1783   1.006   4.591  14.549 -0.4398 -0.4628  0.3513
  117TMC2    C4 1784   0.985   4.438  14.323  0.1414  0.4153 -0.6695
  117TMC2    C5 1785   1.106   4.463  14.385 -0.0475  0.3194 -0.5110
  117TMC2    C6 1786   1.117   4.541  14.496 -0.2707  0.7397 -0.4040
  117TMC2     C 1787   0.769   4.516  14.273 -0.0476 -0.0015 -0.2154
  117TMC2     O 1788   0.745   4.427  14.189  0.2824 -0.1348 -1.2013
  117TMC2     H 1789   0.797   4.620  14.539  0.9985  2.8771 -0.5872
  117TMC2    H1 1790   0.975   4.376  14.235  1.9056 -2.8923  1.4637
  117TMC2    H2 1791   1.213   4.533  14.545 -1.3138 -0.9240  1.3398
  117TMC2    C7 1792   1.231   4.454  14.308 -0.1486  0.1807  0.0068
  117TMC2    C8 1793   0.990   4.613  14.690  0.3911 -0.0032 -0.4350
  117TMC2    O1 1794   1.320   4.531  14.332 -0.6203 -0.1537  0.6710
  117TMC2    O2 1795   0.890   4.595  14.755  0.3255  0.2745  0.1611
  117TMC2    O5 1796   1.107   4.656  14.739 -0.4516  0.0972 -0.4216
  117TMC2    H5 1797   1.167   4.684  14.667  0.4555  0.3308  0.4244
  118MPD2     C 1798   1.277   4.224  14.027  0.7268 -0.8993  0.6170
  118MPD2    C1 1799   1.297   4.338  14.100 -0.1464 -0.5341 -0.9634
  118MPD2    C2 1800   1.368   4.443  14.045 -0.1545 -0.3831  0.3307
  118MPD2    C3 1801   1.422   4.438  13.920 -0.0309 -0.4175  0.6445
  118MPD2    C4 1802   1.410   4.321  13.849  0.0298  1.0626 -0.1197
  118MPD2    C5 1803   1.340   4.211  13.906  0.5747  0.6474 -0.1396
  118MPD2     H 1804   1.379   4.532  14.105 -3.8530  0.1508  0.1785
  118MPD2    H1 1805   1.449   4.304  13.750  2.6306 -2.1580  1.4301
  118MPD2    H2 1806   1.225   4.143  14.079 -0.7511 -1.1682 -1.2721
  118MPD2    H3 1807   1.334   4.118  13.851  1.5332  0.1278  0.6269
  118MPD2     N 1808   1.477   4.546  13.856  0.2539  0.0322 -0.6161
  118MPD2    H5 1809   1.495   4.547  13.756 -0.1576  0.1617 -0.6902
  118MPD2    N1 1810   1.219   4.353  14.217 -0.3663  0.2941  0.5282
  118MPD2    H7 1811   1.145   4.287  14.237 -0.2774 -0.0146 -0.1516
  119MPD2     C 1812   0.045   1.926  13.781  0.4195 -0.0641 -1.0880
  119MPD2    C1 1813   4.639   1.885  13.800 -0.4810  0.5945 -0.0351
  119MPD2    C2 1814   4.564   1.858  13.686  0.6526  0.0108  0.1737
  119MPD2    C3 1815   4.618   1.880  13.559  0.0266  0.5415 -0.0024
  119MPD2    C4 1816   0.027   1.924  13.537  0.8506 -0.1524  0.4650
  119MPD2    C5 1817   0.103   1.944  13.650 -0.2606 -0.0676  0.1308
  119MPD2     H 1818   4.463   1.824  13.704  0.5102  0.0335 -0.5835
  119MPD2    H1 1819   0.077   1.920  13.440 -1.9752 -2.1237 -0.8980
  119MPD2    H2 1820   0.099   1.944  13.873 -2.5634 -0.6572  0.7996
  119MPD2    H3 1821   0.209   1.966  13.644 -0.6097  1.6060  0.1196
  119MPD2     N 1822   4.544   1.847  13.439  0.2854  0.6441 -0.4971
  119MPD2    H5 1823   4.584   1.874  13.349  1.0961  1.6763  0.1777
  119MPD2    N1 1824   4.588   1.871  13.934  0.2295 -0.0229  0.0050
  119MPD2    H7 1825   4.655   1.908  14.002  1.5960 -3.2345  0.4226
  120TCq2    C1 1826   4.430   1.769  13.438 -0.9499 -0.0527  0.2868
  120TCq2    O2 1827   4.374   1.710  13.532  0.2574 -0.7572 -0.4493
  120TCq2    C2 1828   4.369   1.758  13.305 -0.4642 -0.2501  0.7701
  120TCq2    C3 1829   4.442   1.768  13.192  0.2294  0.3342  0.2889
  120TCq2    C4 1830   4.372   1.771  13.076  0.0913  0.0999 -0.1216
  120TCq2    C5 1831   4.237   1.762  13.069  0.5069 -0.1721 -0.2023
  120TCq2    C6 1832   4.167   1.745  13.182  0.1490  0.1153  0.3286
  120TCq2    C7 1833   4.236   1.740  13.305 -0.3215 -0.6650 -0.0798
  120TCq2    C8 1834   4.021   1.760  13.190  0.4681  0.2698  0.3236
  120TCq2    O4 1835   3.967   1.845  13.119  0.6155  0.1168 -0.0389
  120TCq2    C9 1836   4.447   1.775  12.952 -0.6861  0.2910 -0.0079
  120TCq2    O5 1837   4.397   1.727  12.848  0.5907  0.0348 -0.2375
  120TCq2    O6 1838   4.559   1.831  12.964  0.1576 -0.2017  0.0169
  120TCq2    H2 1839   4.550   1.778  13.188 -0.0517  3.3742 -0.0807
  120TCq2    H3 1840   4.175   1.765  12.979 -0.9026  1.5314  0.8238
  120TCq2    H4 1841   4.185   1.738  13.400  0.0108 -0.2539  0.1016
  121TMC2    C1 1842   0.665   2.941  14.098  0.5800  0.4217  0.3541
  121TMC2    C2 1843   0.747   2.864  14.013  1.1344  0.3181 -0.7378
  121TMC2    C3 1844   0.711   2.732  13.998  0.0742 -0.6845  1.1076
  121TMC2    C4 1845   0.566   2.892  14.168 -0.6624 -0.6806  0.3481
  121TMC2    C5 1846   0.535   2.755  14.159  0.0582  0.7509  0.4292
  121TMC2    C6 1847   0.599   2.678  14.067 -0.4853  0.5035 -0.1038
  121TMC2     C 1848   0.688   3.082  14.099 -0.2685  0.3371  0.4464
  121TMC2     O 1849   0.658   3.146  14.198  0.1897 -0.5383 -0.8556
  121TMC2     H 1850   0.832   2.902  13.958  0.9100 -0.2343 -1.4600
  121TMC2    H1 1851   0.524   2.952  14.248 -0.7996 -1.4714  0.8766
  121TMC2    H2 1852   0.568   2.578  14.039  0.1846  0.7517 -1.6948
  121TMC2    C7 1853   0.395   2.732  14.171  0.4587 -0.6189  0.3690
  121TMC2    C8 1854   0.762   2.668  13.877 -0.7846 -0.3442 -0.6659
  121TMC2    O1 1855   0.361   2.611  14.157  0.1691 -0.3943  0.2728
  121TMC2    O2 1856   0.798   2.738  13.782  0.2757 -0.4809  0.1005
  121TMC2    O5 1857   0.756   2.533  13.880  0.3975  0.7703 -0.0476
  121TMC2    H5 1858   0.738   2.496  13.969  0.0590 -4.7371 -2.4302
  122MPD2     C 1859   0.775   3.365  14.062 -0.6860 -1.1315 -0.0831
  122MPD2    C1 1860   0.779   3.269  13.968 -0.0501  0.6217  0.3216
  122MPD2    C2 1861   0.817   3.311  13.839 -0.4317  0.4291 -0.3021
  122MPD2    C3 1862   0.870   3.438  13.809 -0.8879 -0.1671 -0.1305
  122MPD2    C4 1863   0.873   3.532  13.911 -0.4903  0.2701  0.4133
  122MPD2    C5 1864   0.813   3.497  14.028 -0.9577 -0.0009  0.0685
  122MPD2     H 1865   0.829   3.236  13.762  0.5341  0.7512 -0.4689
  122MPD2    H1 1866   0.894   3.636  13.888 -1.1707  1.1347  3.7107
  122MPD2    H2 1867   0.759   3.341  14.167  1.0178  0.4623  0.5291
  122MPD2    H3 1868   0.808   3.569  14.109 -0.1138  0.3508 -0.1961
  122MPD2     N 1869   0.935   3.465  13.690  0.1726  0.2293  0.4695
  122MPD2    H5 1870   0.919   3.395  13.618 -0.0357  1.5726 -0.7909
  122MPD2    N1 1871   0.750   3.131  13.986 -0.1470 -0.6132  0.1180
  122MPD2    H7 1872   0.747   3.074  13.903  0.3699  0.2551 -0.5002
  123MPD2     C 1873   3.975   0.600  10.867 -0.1539 -0.1777  1.1277
  123MPD2    C1 1874   3.913   0.676  10.775  0.0616 -0.2370 -1.1192
  123MPD2    C2 1875   3.995   0.760  10.701 -0.1041  0.3696 -0.2858
  123MPD2    C3 1876   4.125   0.795  10.732  0.4082  0.8405 -0.0574
  123MPD2    C4 1877   4.180   0.727  10.844  0.4869  0.6530  0.6527
  123MPD2    C5 1878   4.108   0.619  10.885 -0.2597 -0.5971  0.6801
  123MPD2     H 1879   3.973   0.798  10.602 -0.4892 -2.0446 -1.1132
  123MPD2    H1 1880   4.285   0.735  10.867  0.6482  0.9912 -0.1886
  123MPD2    H2 1881   3.929   0.517  10.920 -1.5892 -1.1292 -1.6084
  123MPD2    H3 1882   4.168   0.552  10.945  1.9821  0.7551 -0.0522
  123MPD2     N 1883   4.194   0.888  10.656  0.4649  0.6518  0.0230
  123MPD2    H5 1884   4.155   0.923  10.569 -1.3299 -1.1420  0.1068
  123MPD2    N1 1885   3.778   0.642  10.728  0.1572 -0.3965 -0.3758
  123MPD2    H7 1886   3.735   0.562  10.772  0.1250  0.9246  1.9764
  124TCq2    C1 1887   4.318   0.937  10.673  0.4457  0.2254 -0.6256
  124TCq2    O2 1888   4.404   0.898  10.752  0.0162 -0.2216  0.4987
  124TCq2    C2 1889   4.343   1.046  10.583  0.6542  0.4802 -0.6428
  124TCq2    C3 1890   4.463   1.071  10.539  0.5663 -0.5675  0.3707
  124TCq2    C4 1891   4.483   1.153  10.430 -0.7534  0.3372 -0.4920
  124TCq2    C5 1892   4.377   1.202  10.359 -0.4072 -0.3055 -0.2375
  124TCq2    C6 1893   4.253   1.192  10.414  0.4403 -0.1305  0.3656
  124TCq2    C7 1894   4.238   1.112  10.528  0.0057  0.2173 -0.4468
  124TCq2    C8 1895   4.140   1.184  10.320  0.3247 -0.6963  0.9269
  124TCq2    O4 1896   4.067   1.089  10.335  0.0605 -0.1771  0.3683
  124TCq2    C9 1897   4.609   1.191  10.384 -0.0164 -0.5124  0.0418
  124TCq2    O5 1898   4.706   1.169  10.458 -0.5239 -0.0628 -0.7144
  124TCq2    O6 1899   4.610   1.239  10.266  0.0094  0.2003  0.6391
  124TCq2    H2 1900   4.547   1.039  10.600 -0.0660 -1.9381  0.5315
  124TCq2    H3 1901   4.391   1.246  10.261  2.1503  1.3615  0.8839
  124TCq2    H4 1902   4.135   1.112  10.560  0.0942  0.0656 -0.1682
  125TMC2    C1 1903   0.273   3.184   8.905 -0.4777  0.0753  0.5232
  125TMC2    C2 1904   0.303   3.234   9.025  0.2149  0.0110 -0.2132
  125TMC2    C3 1905   0.431   3.249   9.064  0.8360  0.0964  0.3054
  125TMC2    C4 1906   0.368   3.118   8.829  0.1763 -0.3819 -0.1033
  125TMC2    C5 1907   0.499   3.139   8.869 -0.1343 -0.0805  0.1821
  125TMC2    C6 1908   0.531   3.193   8.990 -0.4480 -0.2449 -0.0824
  125TMC2     C 1909   0.141   3.153   8.875 -0.5343  0.1218  0.2718
  125TMC2     O 1910   0.121   3.070   8.783  0.4663  0.1750  0.7524
  125TMC2     H 1911   0.222   3.251   9.095 -1.5501  0.3236 -2.3620
  125TMC2    H1 1912   0.345   3.075   8.732 -1.4692 -1.5980  0.8205
  125TMC2    H2 1913   0.635   3.208   9.019 -0.4779  0.5747 -0.4144
  125TMC2    C7 1914   0.592   3.060   8.808 -0.4254  0.4459  0.0676
  125TMC2    C8 1915   0.450   3.321   9.185 -0.0819 -0.7366  0.0344
  125TMC2    O1 1916   0.555   3.014   8.699  0.1979  0.5872 -0.4030
  125TMC2    O2 1917   0.362   3.385   9.235  0.2479  0.6425  0.1137
  125TMC2    O5 1918   0.531   3.250   9.260  0.4665  0.1564  0.1806
  125TMC2    H5 1919   0.594   3.198   9.205  0.7474 -1.3838  1.9900
  126MPD1     C 1920   4.371   3.267   8.828 -0.0637  0.3858 -0.3753
  126MPD1    C1 1921   4.427   3.364   8.909 -0.1192 -0.0854 -0.0777
  126MPD1    C2 1922   4.560   3.348   8.943  0.0748 -0.6534  0.2701
  126MPD1    C3 1923   4.634   3.238   8.905 -0.0088 -0.5792  0.1142
  126MPD1    C4 1924   4.573   3.144   8.827  0.2161 -0.5331 -0.1206
  126MPD1    C5 1925   4.445   3.166   8.783  0.4212  0.5076 -0.4296
  126MPD1     H 1926   4.619   3.419   8.999  0.5899  0.5888 -1.8105
  126MPD1    H1 1927   4.625   3.054   8.794  0.2953 -0.3437 -0.5170
  126MPD1    H2 1928   4.273   3.270   8.782 -0.2498 -3.1865 -0.2343
  126MPD1    H3 1929   4.406   3.092   8.715 -0.6740  0.2708  0.4397
  126MPD1     N 1930   0.053   3.236   8.934  0.5548  0.1994 -0.1073
  126MPD1    H5 1931   0.088   3.302   9.002 -0.7752 -0.1618  0.9253
  126MPD1    N1 1932   4.357   3.489   8.917  0.0782 -0.2179 -0.3905
  126MPD1    H6 1933   4.383   3.543   8.999 -0.5852  0.7483 -0.8151
  126MPD1    H7 1934   4.258   3.469   8.930 -0.2147  1.3895 -0.1205
  127MPD2     C 1935   2.089   2.112   9.896  0.4261 -0.7999 -0.0059
  127MPD2    C1 1936   2.029   2.145  10.010 -0.2809 -0.0778 -0.4038
  127MPD2    C2 1937   2.034   2.273  10.064  0.6724  0.4885 -0.3942
  127MPD2    C3 1938   2.083   2.380   9.986 -0.0340 -0.5162 -0.0847
  127MPD2    C4 1939   2.143   2.346   9.868  0.3749 -0.5959 -0.0307
  127MPD2    C5 1940   2.146   2.218   9.825 -0.2375  0.1795 -0.1014
  127MPD2     H 1941   1.979   2.305  10.152 -0.0693  0.4089 -0.8274
  127MPD2    H1 1942   2.178   2.417   9.794 -3.4034 -3.2986 -4.3646
  127MPD2    H2 1943   2.109   2.011   9.861 -0.1166 -0.4258 -1.3815
  127MPD2    H3 1944   2.188   2.203   9.726  1.4732 -0.9221  0.7857
  127MPD2     N 1945   2.077   2.510  10.040 -0.4060 -0.4065 -0.0814
  127MPD2    H5 1946   2.028   2.528  10.127 -1.9349  0.6466 -1.1522
  127MPD2    N1 1947   1.969   2.037  10.086  0.6734  0.2421  0.1558
  127MPD2    H7 1948   1.965   1.947  10.039  0.2993  1.5558 -2.3128
  128TCq2    C1 1949   1.943   2.040  10.222 -0.4109 -0.3780  0.1123
  128TCq2    O2 1950   1.977   2.123  10.309  0.2462  0.0079 -0.3034
  128TCq2    C2 1951   1.879   1.918  10.268 -0.0225 -0.1886 -0.2359
  128TCq2    C3 1952   1.882   1.886  10.406 -0.1159  0.3308 -0.3114
  128TCq2    C4 1953   1.778   1.802  10.446 -0.1167  0.0749  0.2823
  128TCq2    C5 1954   1.680   1.755  10.366 -0.1088  0.5171 -0.8769
  128TCq2    C6 1955   1.672   1.802  10.243 -0.7114  0.3577  1.3356
  128TCq2    C7 1956   1.770   1.887  10.196 -0.5108  0.5103 -0.4602
  128TCq2    C8 1957   1.545   1.800  10.169 -0.2310  0.8532  0.7131
  128TCq2    O4 1958   1.538   1.871  10.070  0.3561  0.2870 -0.2245
  128TCq2    C9 1959   1.783   1.752  10.588  0.2042  0.2191  0.5511
  128TCq2    O5 1960   1.688   1.688  10.633 -0.6326  0.0169 -0.2545
  128TCq2    O6 1961   1.889   1.777  10.656  0.4124 -0.2881  0.3928
  128TCq2    H2 1962   1.956   1.931  10.471 -0.4987 -0.3308  0.5802
  128TCq2    H3 1963   1.604   1.688  10.406 -0.9421  1.6962 -0.4751
  128TCq2    H4 1964   1.751   1.926  10.096  1.4335 -0.2528 -1.1161
  129MPD2     C 1965   4.692   3.637   2.051 -0.0944 -0.0144 -0.7146
  129MPD2    C1 1966   4.609   3.584   1.956 -0.7503 -0.2133  0.3697
  129MPD2    C2 1967   4.597   3.660   1.839  0.0760 -0.4092  0.4079
  129MPD2    C3 1968   4.670   3.776   1.809 -0.1544  0.8813  0.2214
  129MPD2    C4 1969   0.026   3.817   1.909  0.2294 -0.1312  0.2998
  129MPD2    C5 1970   0.040   3.749   2.024 -0.3746 -0.0223 -0.2369
  129MPD2     H 1971   4.522   3.621   1.770 -1.1473  2.0587  0.3258
  129MPD2    H1 1972   0.092   3.901   1.896  0.4355 -0.3135  0.1749
  129MPD2    H2 1973   4.708   3.594   2.150 -3.1141  0.0689 -0.1837
  129MPD2    H3 1974   0.114   3.789   2.093 -0.1040  1.4123 -1.3688
  129MPD2     N 1975   4.668   3.843   1.682  0.2758 -0.2360 -0.5881
  129MPD2    H5 1976   0.007   3.925   1.677 -0.8525  0.5928 -0.5640
  129MPD2    N1 1977   4.528   3.467   1.976  0.1243 -0.1232  0.0417
  129MPD2    H7 1978   4.445   3.448   1.920 -0.4509  2.9520 -0.1463
  130TCq2    C1 1979   4.544   3.371   2.077 -0.2203 -0.1374 -0.5634
  130TCq2    O2 1980   4.639   3.357   2.148 -0.3701  0.7688  0.0551
  130TCq2    C2 1981   4.435   3.283   2.079 -0.3716  0.6308 -0.2861
  130TCq2    C3 1982   4.313   3.326   2.043 -0.0277 -0.7866  0.1998
  130TCq2    C4 1983   4.215   3.235   2.039  0.4139 -0.5004 -0.0201
  130TCq2    C5 1984   4.236   3.103   2.071  0.0805 -0.7190  1.0488
  130TCq2    C6 1985   4.361   3.065   2.104 -0.2447  0.0376 -0.2750
  130TCq2    C7 1986   4.458   3.157   2.119 -0.4159  0.6261  0.1938
  130TCq2    C8 1987   4.393   2.924   2.096 -0.6241 -0.0554  0.3161
  130TCq2    O4 1988   4.323   2.857   2.021  0.7936 -0.6088  0.3015
  130TCq2    C9 1989   4.083   3.275   1.998 -0.0779  0.0280 -0.1067
  130TCq2    O5 1990   4.008   3.186   1.946 -0.7465 -0.2555  0.0764
  130TCq2    O6 1991   4.063   3.397   1.986 -0.5577 -0.3290 -0.5387
  130TCq2    H2 1992   4.296   3.430   2.019  2.1364 -0.4302  0.2145
  130TCq2    H3 1993   4.145   3.044   2.064  0.0173 -0.6850  1.5726
  130TCq2    H4 1994   4.560   3.122   2.113 -0.9389 -0.9977  0.7715
  131MPD2     C 1995   3.258   1.339  10.242  0.7390  0.1136  0.4762
  131MPD2    C1 1996   3.389   1.318  10.275 -0.6721  0.3729 -0.0059
  131MPD2    C2 1997   3.422   1.197  10.330  0.1059 -0.2800 -0.2323
  131MPD2    C3 1998   3.329   1.099  10.352 -0.7354 -0.5548 -1.1861
  131MPD2    C4 1999   3.194   1.125  10.333  0.6417  0.5551  0.4673
  131MPD2    C5 2000   3.164   1.247  10.276 -1.0387  0.2787  0.5357
  131MPD2     H 2001   3.527   1.181  10.354  0.4591 -0.0925 -1.6191
  131MPD2    H1 2002   3.107   1.060  10.343  2.5279 -2.0862 -0.0991
  131MPD2    H2 2003   3.226   1.431  10.196 -1.4141 -0.1962  1.3511
  131MPD2    H3 2004   3.062   1.275  10.251 -1.0590  0.7424  1.1214
  131MPD2     N 2005   3.379   0.981  10.409 -0.0265 -0.4447 -0.1748
  131MPD2    H5 2006   3.478   0.975  10.431  0.2711 -1.7443 -1.8903
  131MPD2    N1 2007   3.481   1.420  10.252 -0.3222  0.0910  0.0285
  131MPD2    H7 2008   3.441   1.500  10.203 -0.5071  0.5410  0.9168
  132TCq2    C1 2009   3.763   1.747   9.955 -0.5288  0.9666  0.2366
  132TCq2    O2 2010   3.713   1.673   9.870  0.2871 -0.4327 -0.3903
  132TCq2    C2 2011   3.768   1.688  10.088 -0.0188 -0.3809  0.2915
  132TCq2    C3 2012   3.860   1.725  10.183  0.1912 -0.3221 -0.2124
  132TCq2    C4 2013   3.856   1.677  10.309 -0.5403  0.8415  0.2222
  132TCq2    C5 2014   3.771   1.581  10.340 -0.3388  0.3420 -0.3267
  132TCq2    C6 2015   3.684   1.544  10.251  0.4221 -0.2563 -0.2071
  132TCq2    C7 2016   3.672   1.590  10.119  0.3567 -0.6701  0.1570
  132TCq2    C8 2017   3.620   1.421  10.283  0.1704  0.3339 -0.0024
  132TCq2    O4 2018   3.674   1.342  10.361 -0.0761  0.1764 -0.1701
  132TCq2    C9 2019   3.959   1.708  10.409 -0.5692  0.4725  0.0821
  132TCq2    O5 2020   4.060   1.768  10.366 -0.5681 -0.5834 -0.4032
  132TCq2    O6 2021   3.951   1.653  10.519 -0.0051  0.1066 -0.1435
  132TCq2    H2 2022   3.932   1.801  10.157 -0.8896  0.6698 -0.2790
  132TCq2    H3 2023   3.757   1.531  10.436  1.1331 -1.0024 -0.8196
  132TCq2    H4 2024   3.592   1.547  10.059 -1.1742  0.9115  1.0573
  133MPD2     C 2025   2.749   0.938   9.643  0.0015  0.3160 -0.5181
  133MPD2    C1 2026   2.690   1.053   9.602  0.3424  0.7422  0.2550
  133MPD2    C2 2027   2.745   1.176   9.644 -0.2324  0.1047  0.6487
  133MPD2    C3 2028   2.856   1.184   9.718  0.8810 -0.0856  0.8720
  133MPD2    C4 2029   2.925   1.066   9.745  0.0413 -0.3347  0.5470
  133MPD2    C5 2030   2.870   0.947   9.704  0.0174  0.0547  0.0225
  133MPD2     H 2031   2.683   1.263   9.625 -1.9307 -1.5462 -1.4391
  133MPD2    H1 2032   3.021   1.066   9.795  1.0757 -1.3429 -1.4583
  133MPD2    H2 2033   2.702   0.843   9.623  1.7201 -0.4771 -0.7612
  133MPD2    H3 2034   2.910   0.854   9.744 -0.0024 -0.5688 -1.3882
  133MPD2     N 2035   2.905   1.303   9.762 -0.2151 -0.1827 -0.5904
  133MPD2    H5 2036   2.856   1.388   9.738 -2.5855 -1.0935  0.9833
  133MPD2    N1 2037   2.571   1.049   9.526  0.0730  0.2433 -0.0007
  133MPD2    H7 2038   2.535   0.957   9.506 -1.0934  0.2962  1.8997
  134TCq2    C1 2039   2.501   1.151   9.481  0.5226 -0.3429  0.0394
  134TCq2    O2 2040   2.509   1.276   9.493 -0.1785  0.0033 -0.5480
  134TCq2    C2 2041   2.387   1.114   9.393 -0.8039 -0.0002  0.2525
  134TCq2    C3 2042   2.297   1.205   9.352  0.3628 -0.8433 -1.0169
  134TCq2    C4 2043   2.182   1.168   9.295  0.4324 -0.2226  0.4713
  134TCq2    C5 2044   2.164   1.037   9.259 -0.1889 -0.2670  0.0291
  134TCq2    C6 2045   2.261   0.946   9.300 -0.7197  0.0699 -0.5032
  134TCq2    C7 2046   2.380   0.983   9.355  0.6632  1.0802 -0.6313
  134TCq2    C8 2047   2.262   0.809   9.260 -0.1338  0.2506  0.2982
  134TCq2    O4 2048   2.368   0.749   9.252 -0.2670 -0.6955  0.1678
  134TCq2    C9 2049   2.089   1.267   9.249  0.3323  0.1304  0.0687
  134TCq2    O5 2050   2.104   1.386   9.294  0.4880 -0.1888 -0.3313
  134TCq2    O6 2051   1.977   1.220   9.214  0.5333 -0.6772  0.0818
  134TCq2    H2 2052   2.324   1.309   9.366 -0.8461 -0.9733  2.2858
  134TCq2    H3 2053   2.075   1.012   9.202  0.5932  0.7329 -1.6519
  134TCq2    H4 2054   2.448   0.903   9.383  2.3309  1.7625 -2.7789
  135MPD2     C 2055   0.178   3.478   8.740 -0.3731 -0.8558  0.0915
  135MPD2    C1 2056   0.279   3.510   8.824  0.1490  0.4139  0.2655
  135MPD2    C2 2057   0.412   3.488   8.792 -0.2919  0.5038  0.0200
  135MPD2    C3 2058   0.442   3.408   8.680 -0.5864 -0.5613  0.3776
  135MPD2    C4 2059   0.341   3.376   8.597  0.2120 -0.1961 -0.1087
  135MPD2    C5 2060   0.212   3.422   8.615  0.5771  0.6412 -0.6116
  135MPD2     H 2061   0.487   3.509   8.867  0.1108  2.8607 -1.0475
  135MPD2    H1 2062   0.359   3.321   8.505  0.8028  1.0621 -0.7438
  135MPD2    H2 2063   0.072   3.499   8.745 -0.1711 -0.1844  1.6789
  135MPD2    H3 2064   0.134   3.388   8.548  1.9972 -2.0881 -0.8969
  135MPD2     N 2065   0.572   3.371   8.635  0.2953 -0.4926 -0.7363
  135MPD2    H5 2066   0.577   3.330   8.543  1.6092 -2.5879  0.2801
  135MPD2    N1 2067   0.252   3.576   8.945  0.2993  0.0673  0.3567
  135MPD2    H7 2068   0.327   3.617   9.000  1.3383 -1.6873  0.2488
  136TCq2    C1 2069   0.133   3.629   8.990  0.3972 -0.7270 -0.0053
  136TCq2    O2 2070   0.026   3.627   8.931  0.0183  0.0340  0.3344
  136TCq2    C2 2071   0.140   3.700   9.115 -0.2698  0.2395 -0.1240
  136TCq2    C3 2072   0.025   3.761   9.161  0.3116 -0.1745  0.1107
  136TCq2    C4 2073   0.036   3.809   9.294 -0.0714 -0.0531 -0.0963
  136TCq2    C5 2074   0.147   3.802   9.377  0.1256  0.1896  0.4668
  136TCq2    C6 2075   0.259   3.752   9.309 -0.1647 -0.3119  0.3019
  136TCq2    C7 2076   0.256   3.701   9.181 -0.1553  0.5020  0.4361
  136TCq2    C8 2077   0.362   3.692   9.399  0.1430 -0.0117  0.8166
  136TCq2    O4 2078   0.478   3.673   9.363  0.1816 -0.3314 -0.1152
  136TCq2    C9 2079   4.638   3.872   9.345  0.4038  0.1327 -0.7363
  136TCq2    O5 2080   4.542   3.898   9.266  0.2519  0.2332  0.3683
  136TCq2    O6 2081   4.636   3.907   9.466 -0.5498  0.5539  0.1563
  136TCq2    H2 2082   4.657   3.757   9.100  0.1310 -1.8749  0.4965
  136TCq2    H3 2083   0.152   3.848   9.475  0.2569  0.3278  0.3962
  136TCq2    H4 2084   0.340   3.637   9.156  0.3212  0.3604  2.4271
  137MPD2     C 2085   0.623   1.711  10.393 -0.2253  0.1997 -0.0388
  137MPD2    C1 2086   0.535   1.801  10.343  0.0678  0.3166 -0.2103
  137MPD2    C2 2087   0.545   1.930  10.392 -1.1379 -0.1662 -0.9834
  137MPD2    C3 2088   0.641   1.978  10.482 -0.2281 -0.1627 -0.3049
  137MPD2    C4 2089   0.730   1.883  10.534  0.2097 -0.6871  0.6102
  137MPD2    C5 2090   0.715   1.751  10.493  0.1830 -0.0280 -0.4174
  137MPD2     H 2091   0.470   2.003  10.362 -2.2390 -1.5307 -1.5945
  137MPD2    H1 2092   0.799   1.912  10.613 -0.8164  2.4339  0.3494
  137MPD2    H2 2093   0.619   1.606  10.369  0.7805 -0.0585  0.9115
  137MPD2    H3 2094   0.781   1.676  10.534 -0.0585  0.2534  0.5051
  137MPD2     N 2095   0.651   2.119  10.504 -0.0993  0.2275  0.2312
  137MPD2    H5 2096   0.571   2.174  10.475  0.4684  0.9241 -0.0108
  137MPD2    N1 2097   0.436   1.757  10.257 -0.2449 -0.4207 -0.0586
  137MPD2    H7 2098   0.451   1.664  10.220  0.6917 -0.2381 -0.1320
  138TCq2    C1 2099   0.357   1.835  10.176 -0.5876  0.0498 -0.3520
  138TCq2    O2 2100   0.351   1.953  10.164  0.0829 -0.5109  0.8793
  138TCq2    C2 2101   0.259   1.750  10.111  0.0710 -0.3457 -0.0978
  138TCq2    C3 2102   0.245   1.622  10.147 -0.9539 -0.5160  0.5740
  138TCq2    C4 2103   0.178   1.527  10.062 -0.3537  0.5244  0.1857
  138TCq2    C5 2104   0.133   1.568   9.947  0.1783  0.1406 -0.2378
  138TCq2    C6 2105   0.156   1.693   9.902 -0.3702  0.0887 -0.1496
  138TCq2    C7 2106   0.227   1.786   9.979 -0.5006 -0.2452  0.0218
  138TCq2    C8 2107   0.133   1.726   9.768 -0.0971  0.7107  0.3486
  138TCq2    O4 2108   0.136   1.635   9.686 -0.1838 -0.2752 -0.0694
  138TCq2    C9 2109   0.154   1.389  10.112 -0.2376 -0.0152 -0.2243
  138TCq2    O5 2110   0.092   1.306  10.040  0.4926 -0.7816  0.4729
  138TCq2    O6 2111   0.192   1.360  10.224  0.0444  0.7217  0.4028
  138TCq2    H2 2112   0.287   1.586  10.241 -0.6398  0.5544  0.8386
  138TCq2    H3 2113   0.069   1.501   9.890  0.6612  0.5841 -1.3089
  138TCq2    H4 2114   0.245   1.884   9.936 -0.7507  0.0281  0.5438
  139TMC2    C1 2115   1.440   0.731  13.517  0.3391 -0.3590 -0.7126
  139TMC2    C2 2116   1.568   0.704  13.545 -0.7107 -0.5801 -0.3100
  139TMC2    C3 2117   1.636   0.806  13.596 -0.0935 -0.6457 -0.1172
  139TMC2    C4 2118   1.384   0.856  13.520 -0.2474  0.3099  0.3211
  139TMC2    C5 2119   1.463   0.954  13.568 -0.1792 -0.5571  0.1975
  139TMC2    C6 2120   1.588   0.928  13.613 -0.7995  0.7651 -0.6900
  139TMC2     C 2121   1.352   0.615  13.479  0.1419  0.0169  0.3581
  139TMC2     O 2122   1.406   0.523  13.420 -0.9701  0.3382  0.5152
  139TMC2     H 2123   1.606   0.602  13.545 -0.5376 -0.5159 -0.3114
  139TMC2    H1 2124   1.283   0.876  13.488  0.1632  0.7650 -0.6928
  139TMC2    H2 2125   1.657   1.003  13.649 -1.4751  0.5474  1.0304
  139TMC2    C7 2126   1.411   1.087  13.579  0.1674 -0.0919  0.3576
  139TMC2    C8 2127   1.753   0.763  13.668  0.2993  0.7316 -0.1992
  139TMC2    O1 2128   1.318   1.112  13.505  1.3082  0.2008  0.7643
  139TMC2    O2 2129   1.818   0.664  13.634 -0.6533 -0.6770  0.6604
  139TMC2    O5 2130   1.787   0.846  13.774 -0.5222 -0.2929  0.0696
  139TMC2    H5 2131   1.720   0.908  13.808  0.2935 -1.0206  3.0177
  140MPD2     C 2132   0.999   0.585  13.559 -0.0979  0.0412  0.1824
  140MPD2    C1 2133   1.112   0.546  13.500  0.0930 -0.2406  0.6835
  140MPD2    C2 2134   1.115   0.420  13.445 -0.6566 -0.0817 -0.4642
  140MPD2    C3 2135   1.002   0.347  13.431 -0.3031  0.1244 -0.2496
  140MPD2    C4 2136   0.882   0.388  13.483 -0.3063 -0.5647  0.2556
  140MPD2    C5 2137   0.884   0.508  13.546 -0.3016  0.4230  0.0695
  140MPD2     H 2138   1.203   0.374  13.403  0.6404  0.9753  1.1224
  140MPD2    H1 2139   0.790   0.330  13.480 -0.9699  0.5912 -1.6323
  140MPD2    H2 2140   0.983   0.674  13.619  3.2155  0.8804 -0.1933
  140MPD2    H3 2141   0.794   0.551  13.588 -1.2790 -1.8435  0.2796
  140MPD2     N 2142   1.022   0.224  13.369 -0.4386  0.1427 -0.8964
  140MPD2    H5 2143   1.114   0.206  13.328  0.3283  2.3227 -0.1220
  140MPD2    N1 2144   1.220   0.631  13.525  0.2246 -0.2216  0.5116
  140MPD2    H7 2145   1.194   0.706  13.589  2.8691  1.1695 -0.0570
  141TCq2    C1 2146   1.988   1.746  14.708  0.0308  0.6724  0.0367
  141TCq2    O2 2147   2.037   1.750  14.598  0.1432  0.0143 -0.7998
  141TCq2    C2 2148   2.074   1.766  14.822  0.2288  0.7221  0.6921
  141TCq2    C3 2149   2.027   1.717  14.944 -0.3979  0.2048  0.3734
  141TCq2    C4 2150   2.109   1.745  15.050  0.4965  0.6294  0.4474
  141TCq2    C5 2151   2.220   1.822  15.044 -0.2874 -0.6062  0.4104
  141TCq2    C6 2152   2.254   1.878  14.924 -0.8660  0.6766  0.0300
  141TCq2    C7 2153   2.185   1.843  14.806 -0.1359 -0.1409  0.9305
  141TCq2    C8 2154   2.287   2.024  14.919  0.3606 -0.3179  0.4676
  141TCq2    O4 2155   2.352   2.064  15.014  0.0982  0.6050 -0.3456
  141TCq2    C9 2156   2.084   1.699  15.187 -0.0798 -0.6787 -0.1132
  141TCq2    O5 2157   2.139   1.770  15.278  0.0523 -0.5874 -0.4202
  141TCq2    O6 2158   1.985   1.623  15.199 -0.1579  0.4479  0.1453
  141TCq2    H2 2159   1.932   1.667  14.960 -0.6222  0.4745 -0.1079
  141TCq2    H3 2160   2.273   1.853  15.133 -0.0828 -2.6204  0.9832
  141TCq2    H4 2161   2.215   1.879  14.709 -1.3485 -0.8602  0.2840
  142MPD2     C 2162   3.799   0.281  10.518  0.2166  0.0603  0.7237
  142MPD2    C1 2163   3.675   0.271  10.464  0.4171 -1.0647  0.6511
  142MPD2    C2 2164   3.633   0.362  10.369  0.2468 -0.1762 -0.2107
  142MPD2    C3 2165   3.710   0.473  10.341 -0.8805  0.1935 -0.1556
  142MPD2    C4 2166   3.837   0.482  10.403 -0.1630  0.2508 -0.1043
  142MPD2    C5 2167   3.874   0.386  10.486  0.1335 -0.6658 -0.2172
  142MPD2     H 2168   3.534   0.362  10.325  0.5768 -0.8230 -0.9701
  142MPD2    H1 2169   3.900   0.566  10.376  0.3112  0.3429  1.2986
  142MPD2    H2 2170   3.840   0.203  10.581 -1.3492 -1.4252 -0.1122
  142MPD2    H3 2171   3.973   0.397  10.528  0.8808  0.5032 -2.3172
  142MPD2     N 2172   3.671   0.580  10.255 -0.0705  0.7167  0.0131
  142MPD2    H5 2173   3.743   0.642  10.219  0.7225 -0.3548 -0.2359
  142MPD2    N1 2174   3.593   0.167  10.506 -0.2816  0.7185 -0.8489
  142MPD2    H7 2175   3.632   0.083  10.548 -2.0544 -0.3009 -1.2420
  143TCq2    C1 2176   3.541   0.602  10.205  0.4889 -0.6016  0.2478
  143TCq2    O2 2177   3.437   0.543  10.225  0.3989  0.1351  0.7612
  143TCq2    C2 2178   3.533   0.718  10.120 -0.2613 -0.0654  0.6820
  143TCq2    C3 2179   3.439   0.719  10.025 -0.8866  0.0890 -0.3264
  143TCq2    C4 2180   3.407   0.845   9.971  0.5824 -0.3483  0.1419
  143TCq2    C5 2181   3.473   0.966  10.011  0.7617 -0.9026  0.4464
  143TCq2    C6 2182   3.569   0.950  10.105 -0.7792  0.1286 -0.1615
  143TCq2    C7 2183   3.602   0.826  10.159 -0.2042 -0.0468  0.4130
  143TCq2    C8 2184   3.666   1.050  10.129  0.0337  0.5405  0.3001
  143TCq2    O4 2185   3.722   1.038  10.235  0.1419 -0.1737  0.0512
  143TCq2    C9 2186   3.304   0.852   9.870 -0.3799  0.5616  0.6506
  143TCq2    O5 2187   3.228   0.750   9.861  0.7032 -0.2479  0.2363
  143TCq2    O6 2188   3.310   0.962   9.805 -0.1333 -0.5280  0.0686
  143TCq2    H2 2189   3.397   0.628   9.985  0.5957 -1.2841  1.2301
  143TCq2    H3 2190   3.438   1.066   9.987  0.0611 -0.5227  3.0230
  143TCq2    H4 2191   3.697   0.809  10.208  0.0204 -1.9267 -0.6836
  144MPD2     C 2192   2.151   0.049   1.012  0.5901 -0.4578  0.2360
  144MPD2    C1 2193   2.203   4.659   0.953  0.3884 -0.4777  0.3502
  144MPD2    C2 2194   2.336   4.620   0.986  0.4145  0.3984  0.4156
  144MPD2    C3 2195   2.407   4.693   1.075  0.3347 -0.2691 -0.5733
  144MPD2    C4 2196   2.343   0.076   1.139  0.1206  0.2519 -0.0733
  144MPD2    C5 2197   2.216   0.111   1.113  0.2913 -0.4348  0.0467
  144MPD2     H 2198   2.386   4.541   0.933 -1.3346 -0.5339  0.1715
  144MPD2    H1 2199   2.396   0.143   1.205  0.2156 -0.6085  0.7263
  144MPD2    H2 2200   2.056   0.090   0.981  0.8324  0.2999  0.4852
  144MPD2    H3 2201   2.173   0.201   1.155  0.5213 -0.2592 -0.0944
  144MPD2     N 2202   2.547   4.681   1.103 -1.3145 -0.1543  0.2981
  144MPD2    H5 2203   2.573   0.021   1.179 -1.6852  0.8863 -0.4086
  144MPD2    N1 2204   2.136   4.580   0.852  0.1378  0.7888 -0.6067
  144MPD2    H7 2205   2.191   4.508   0.807  3.4635  2.8024  0.2155
  145TCq2    C1 2206   2.649   4.612   1.038 -0.0420 -0.0860  0.0275
  145TCq2    O2 2207   2.652   4.559   0.926  0.4939 -0.1403 -0.4892
  145TCq2    C2 2208   2.785   4.626   1.097 -0.1477 -0.0763  0.3444
  145TCq2    C3 2209   2.895   4.599   1.024 -0.2918  0.6885 -0.2133
  145TCq2    C4 2210   3.017   4.635   1.066 -0.1737  0.1355 -0.0437
  145TCq2    C5 2211   3.027   4.718   1.177  0.3195  0.3131 -0.6269
  145TCq2    C6 2212   2.916   0.028   1.246  0.1451 -0.4053  0.1222
  145TCq2    C7 2213   2.789   4.699   1.213  0.2980 -0.3198 -0.3106
  145TCq2    C8 2214   2.937   0.053   1.388 -0.1241  0.2391  0.1601
  145TCq2    O4 2215   3.047   0.036   1.439  0.3841 -0.2179 -0.2218
  145TCq2    C9 2216   3.132   4.605   0.979  0.1446  0.5139  0.0763
  145TCq2    O5 2217   3.241   4.653   1.021  0.2521 -0.0304  0.0180
  145TCq2    O6 2218   3.120   4.527   0.882  0.3342  0.7839  0.7757
  145TCq2    H2 2219   2.885   4.545   0.930 -0.9443 -1.8401  1.3003
  145TCq2    H3 2220   3.121   0.037   1.215 -0.2613  0.8457  0.2577
  145TCq2    H4 2221   2.707   4.696   1.284 -0.9547  0.3413 -1.7506
  146TMC2    C1 2222   3.035   3.649  12.763 -0.2856 -0.3953 -0.2161
  146TMC2    C2 2223   2.927   3.681  12.687 -0.2011 -0.1564 -0.2430
  146TMC2    C3 2224   2.924   3.633  12.558 -0.1379  0.2912 -0.1846
  146TMC2    C4 2225   3.135   3.575  12.714 -0.3241  0.6340 -0.2703
  146TMC2    C5 2226   3.131   3.533  12.580  0.4881  0.2883  0.8846
  146TMC2    C6 2227   3.027   3.568  12.504 -0.3370 -0.2612 -0.2582
  146TMC2     C 2228   3.035   3.695  12.901 -0.3660 -0.4407 -0.2593
  146TMC2     O 2229   2.929   3.743  12.939  0.4490 -0.3857 -0.1630
  146TMC2     H 2230   2.841   3.738  12.719 -0.2990 -0.9202  0.8895
  146TMC2    H1 2231   3.218   3.552  12.780  0.7903  3.6011 -0.6754
  146TMC2    H2 2232   3.027   3.550  12.397 -0.1776  0.6107 -0.4090
  146TMC2    C7 2233   3.239   3.468  12.513  1.3032  0.1808 -0.3688
  146TMC2    C8 2234   2.845   3.709  12.469  0.0370 -0.1462 -0.0162
  146TMC2    O1 2235   3.219   3.437  12.394  0.4182  0.8724  0.2020
  146TMC2    O2 2236   2.795   3.815  12.492 -0.0201  0.8742 -0.5932
  146TMC2    O5 2237   2.779   3.610  12.407  0.5901  0.6566 -0.4487
  146TMC2    H5 2238   2.807   3.516  12.411 -1.9171 -0.0518  0.4360
  147MPD2     C 2239   3.629   3.138  12.463 -0.3068  0.3968 -0.0436
  147MPD2    C1 2240   3.598   3.147  12.595 -0.1269 -0.6935 -0.1642
  147MPD2    C2 2241   3.495   3.233  12.644  0.6330  0.1584  0.3809
  147MPD2    C3 2242   3.437   3.321  12.553  0.1869  0.0547 -0.3306
  147MPD2    C4 2243   3.478   3.318  12.418  0.0202  0.1686 -0.6731
  147MPD2    C5 2244   3.569   3.230  12.376 -0.3006  0.2139  0.1204
  147MPD2     H 2245   3.464   3.230  12.748  0.2564  2.1664  0.3331
  147MPD2    H1 2246   3.432   3.380  12.342 -1.8892 -0.4693 -0.0256
  147MPD2    H2 2247   3.698   3.062  12.428  1.1894  0.6472  2.3445
  147MPD2    H3 2248   3.600   3.222  12.273  0.9587 -1.1446  0.6115
  147MPD2     N 2249   3.336   3.413  12.599 -0.7246  0.4955  0.6433
  147MPD2    H5 2250   3.328   3.418  12.700 -2.1542  2.4934  0.4290
  147MPD2    N1 2251   3.672   3.066  12.684 -0.4249 -0.4122  0.1104
  147MPD2    H7 2252   3.749   3.018  12.638  0.3387  2.1064 -1.2758
  148MPD2     C 2253   4.119   2.321  11.048 -0.0639  0.0070 -0.4409
  148MPD2    C1 2254   4.080   2.195  11.034 -0.4516  0.3890  0.4308
  148MPD2    C2 2255   3.948   2.175  11.052  0.5167 -0.1776 -0.5458
  148MPD2    C3 2256   3.857   2.276  11.084 -0.1484  0.5755 -0.4263
  148MPD2    C4 2257   3.899   2.402  11.092  0.5053  0.6350 -0.0064
  148MPD2    C5 2258   4.031   2.423  11.074  0.3667  1.0596  0.7540
  148MPD2     H 2259   3.915   2.072  11.038  0.7060 -0.3696  0.4330
  148MPD2    H1 2260   3.839   2.489  11.113 -0.3284  0.3741 -1.3164
  148MPD2    H2 2261   4.222   2.348  11.025  0.1386  0.0800  0.5417
  148MPD2    H3 2262   4.068   2.524  11.077  0.7005  0.9218  1.2607
  148MPD2     N 2263   3.722   2.243  11.115 -0.2794 -0.1140 -0.1612
  148MPD2    H5 2264   3.671   2.315  11.166  1.7581 -0.2672  2.0826
  148MPD2    N1 2265   4.158   2.086  10.998 -0.1272 -0.2230 -0.0699
  148MPD2    H7 2266   4.117   1.993  10.988  0.5542 -0.5092 -0.2243
  149TCq2    C1 2267   4.286   2.098  10.958  0.3133  0.0442 -0.7374
  149TCq2    O2 2268   4.350   2.194  10.925 -0.1380  0.0030 -0.1855
  149TCq2    C2 2269   4.340   1.968  10.920  0.0394  0.4504  0.6776
  149TCq2    C3 2270   4.447   1.958  10.824  0.5730  0.2652 -0.7084
  149TCq2    C4 2271   4.477   1.832  10.777  0.2324 -0.3604 -0.3591
  149TCq2    C5 2272   4.420   1.723  10.833 -0.4027 -0.2048 -0.5478
  149TCq2    C6 2273   4.324   1.737  10.928 -0.1804  0.6056 -0.3032
  149TCq2    C7 2274   4.278   1.854  10.973  0.2454 -0.3958 -1.2786
  149TCq2    C8 2275   4.219   1.638  10.927  0.5292  0.0746  0.0646
  149TCq2    O4 2276   4.106   1.679  10.905 -0.0344 -0.1899  0.9307
  149TCq2    C9 2277   4.598   1.816  10.696 -0.3805  0.2889  0.5714
  149TCq2    O5 2278   4.653   1.919  10.670 -0.1115 -0.0976  0.1001
  149TCq2    O6 2279   4.617   1.705  10.638 -0.0768  0.2223 -0.5696
  149TCq2    H2 2280   4.512   2.041  10.802  0.5582 -0.2847 -2.7750
  149TCq2    H3 2281   4.460   1.627  10.802  0.1111 -0.3931  0.7179
  149TCq2    H4 2282   4.191   1.867  11.038  0.7101 -2.0772 -0.3129
  150MPD2     C 2283   0.556   1.331  12.211  0.3999 -0.7478  0.6376
  150MPD2    C1 2284   0.489   1.457  12.209  0.0059  0.6240  0.0013
  150MPD2    C2 2285   0.568   1.575  12.208 -0.2882 -0.7581 -0.0650
  150MPD2    C3 2286   0.702   1.572  12.216 -1.1063 -0.6955 -0.2912
  150MPD2    C4 2287   0.766   1.446  12.238 -0.0375 -0.7757 -0.3022
  150MPD2    C5 2288   0.694   1.329  12.224 -0.3310 -0.0279  0.0864
  150MPD2     H 2289   0.512   1.667  12.215  3.1820  1.1563  2.1982
  150MPD2    H1 2290   0.873   1.435  12.253 -0.0750 -0.0194  0.5099
  150MPD2    H2 2291   0.496   1.241  12.205  2.7400 -2.4123  2.2437
  150MPD2    H3 2292   0.746   1.235  12.239  1.5976  0.7718 -1.5617
  150MPD2     N 2293   0.770   1.692  12.208  0.0216  0.0558  0.4093
  150MPD2    H5 2294   0.716   1.777  12.201 -0.6017 -0.2579  1.3870
  150MPD2    N1 2295   0.351   1.460  12.191 -0.0907  0.0736  0.5022
  150MPD2    H7 2296   0.306   1.369  12.186  1.0459 -0.4940  0.5026
  151TCq2    C1 2297   0.905   1.711  12.236 -0.6641  0.0004  0.0801
  151TCq2    O2 2298   0.991   1.631  12.265  0.3571  0.0128 -0.1156
  151TCq2    C2 2299   0.942   1.844  12.244 -0.1196  0.3407  0.3779
  151TCq2    C3 2300   0.897   1.926  12.145  0.3769 -0.1322  0.4189
  151TCq2    C4 2301   0.944   2.052  12.144  0.1516  0.4046  0.0434
  151TCq2    C5 2302   1.049   2.098  12.221 -0.6959 -0.2535 -0.2936
  151TCq2    C6 2303   1.100   2.005  12.312 -0.6889 -0.1498 -0.1043
  151TCq2    C7 2304   1.043   1.882  12.329  1.0339 -0.1574  0.7229
  151TCq2    C8 2305   1.200   2.037  12.412  0.3444  0.8370 -0.8147
  151TCq2    O4 2306   1.234   2.150  12.436  0.3176 -0.4516  0.1385
  151TCq2    C9 2307   0.890   2.136  12.039 -0.6494  0.0487  0.4772
  151TCq2    O5 2308   0.833   2.082  11.941 -0.4296  0.2418 -0.6104
  151TCq2    O6 2309   0.912   2.261  12.048  0.5389  0.7916  0.1845
  151TCq2    H2 2310   0.823   1.897  12.071  0.0860  0.0737  0.6329
  151TCq2    H3 2311   1.095   2.195  12.204 -2.0105  0.1677 -1.4339
  151TCq2    H4 2312   1.074   1.804  12.398 -0.6172 -1.5266 -0.0787
  152MPD2     C 2313   0.174   1.211  12.788  0.5625  0.0351  0.9163
  152MPD2    C1 2314   0.185   1.311  12.699  0.7952  0.2833 -0.5828
  152MPD2    C2 2315   0.070   1.349  12.621  0.2453 -0.4347 -0.0740
  152MPD2    C3 2316   4.673   1.287  12.649 -0.3034 -0.0613  0.2189
  152MPD2    C4 2317   4.661   1.202  12.757  0.6058  0.0202  0.0088
  152MPD2    C5 2318   0.053   1.155  12.817 -0.3473 -0.2313  0.5670
  152MPD2     H 2319   0.075   1.421  12.539  1.2013  1.1135  1.3433
  152MPD2    H1 2320   4.572   1.147  12.783 -0.4201  2.0762  0.7956
  152MPD2    H2 2321   0.262   1.180  12.843 -0.8733 -1.2141  2.4827
  152MPD2    H3 2322   0.037   1.092  12.903 -0.6877 -1.6350 -0.5192
  152MPD2     N 2323   4.554   1.323  12.581  0.3552  0.5751  0.3896
  152MPD2    H5 2324   4.561   1.388  12.502 -2.3801 -0.8178 -0.9884
  152MPD2    N1 2325   0.312   1.366  12.679 -0.0659  0.0359  0.1291
  152MPD2    H7 2326   0.392   1.323  12.724  0.3076 -0.3528 -0.8930
  153TCq2    C1 2327   0.335   1.481  12.603  0.4830  0.0731  0.0707
  153TCq2    O2 2328   0.254   1.566  12.567  0.2651  0.3416  0.0530
  153TCq2    C2 2329   0.481   1.499  12.576  0.2647 -0.4131  0.2686
  153TCq2    C3 2330   0.575   1.394  12.600 -0.3680  0.2480  0.1722
  153TCq2    C4 2331   0.706   1.419  12.583 -0.2601 -0.0795 -0.4561
  153TCq2    C5 2332   0.751   1.541  12.551 -0.2568 -0.1412  0.5751
  153TCq2    C6 2333   0.656   1.641  12.538  0.5234  0.2298 -0.2896
  153TCq2    C7 2334   0.527   1.625  12.548  0.5316 -0.9230  1.0880
  153TCq2    C8 2335   0.697   1.774  12.551 -0.7025 -1.0859 -0.1076
  153TCq2    O4 2336   0.622   1.862  12.508 -0.1413  0.2784 -0.5864
  153TCq2    C9 2337   0.802   1.311  12.579  0.0686 -0.3205  0.3356
  153TCq2    O5 2338   0.924   1.339  12.553 -0.2322  0.0424 -0.0581
  153TCq2    O6 2339   0.766   1.201  12.626 -0.6177 -0.5187 -0.1258
  153TCq2    H2 2340   0.541   1.291  12.596 -2.5779  1.0077 -0.4878
  153TCq2    H3 2341   0.855   1.558  12.526 -0.3351  0.5623  0.7169
  153TCq2    H4 2342   0.460   1.709  12.536  2.7830  0.6648 -0.4054
  154MPD2     C 2343   2.754   1.162   0.441 -0.7842 -0.3587  0.2497
  154MPD2    C1 2344   2.678   1.094   0.534 -0.5307 -0.0364  0.2977
  154MPD2    C2 2345   2.579   1.155   0.606  0.0756 -0.2619  0.0437
  154MPD2    C3 2346   2.547   1.292   0.581  0.2463  0.2202 -0.1264
  154MPD2    C4 2347   2.615   1.358   0.482  0.0735 -0.1906  0.0786
  154MPD2    C5 2348   2.725   1.296   0.420 -0.4620  0.7749  0.2741
  154MPD2     H 2349   2.514   1.105   0.677  1.2954  0.4499  1.6699
  154MPD2    H1 2350   2.589   1.462   0.468  1.2041  0.1421  0.4372
  154MPD2    H2 2351   2.829   1.119   0.376 -0.0484  1.5550 -0.1566
  154MPD2    H3 2352   2.776   1.354   0.344 -1.0554  2.2633  1.0039
  154MPD2     N 2353   2.436   1.357   0.647  0.6476 -0.2165 -0.6759
  154MPD2    H5 2354   2.385   1.297   0.710 -1.0979  0.1743 -1.7065
  154MPD2    N1 2355   2.714   0.960   0.556  0.2820  0.4369  0.4988
  154MPD2    H7 2356   2.785   0.926   0.491 -0.3324  0.7246 -0.3129
  155TCq2    C1 2357   2.677   0.888   0.669 -0.3157 -0.0852  0.4599
  155TCq2    O2 2358   2.640   0.931   0.776 -0.0441 -0.3386 -0.6279
  155TCq2    C2 2359   2.726   0.754   0.661 -0.3320 -0.1699  0.3909
  155TCq2    C3 2360   2.788   0.698   0.770  0.4081 -0.4648  0.4129
  155TCq2    C4 2361   2.889   0.607   0.743  0.1163 -0.0549  1.2393
  155TCq2    C5 2362   2.920   0.566   0.619  0.0111  0.3703 -0.3830
  155TCq2    C6 2363   2.834   0.594   0.512 -0.3754  0.1681 -0.4857
  155TCq2    C7 2364   2.746   0.700   0.533  0.1896 -0.2127  0.1158
  155TCq2    C8 2365   2.878   0.578   0.367 -0.1333  1.1545  0.6087
  155TCq2    O4 2366   2.816   0.636   0.277  0.4425  0.0454 -0.3511
  155TCq2    C9 2367   2.971   0.556   0.851 -0.1935  0.1100  0.8128
  155TCq2    O5 2368   3.064   0.474   0.823  0.2257  0.3498 -0.4398
  155TCq2    O6 2369   2.955   0.606   0.965 -0.0865 -0.1665  0.2369
  155TCq2    H2 2370   2.784   0.733   0.873  2.1408  1.1667 -0.0872
  155TCq2    H3 2371   3.016   0.517   0.611 -1.3746 -2.4619  0.4990
  155TCq2    H4 2372   2.697   0.737   0.444  0.3215 -1.5424 -0.5026
  156MPD2     C 2373   0.743   3.635  12.547  0.3073 -0.3828 -0.7706
  156MPD2    C1 2374   0.679   3.688  12.441  0.3729  0.7800 -0.1752
  156MPD2    C2 2375   0.593   3.795  12.460 -0.4269 -0.2950  0.0830
  156MPD2    C3 2376   0.592   3.866  12.581 -0.1438 -0.3095 -1.2314
  156MPD2    C4 2377   0.672   3.811  12.687  0.0365 -0.1888  0.9019
  156MPD2    C5 2378   0.743   3.703  12.666  0.3543 -0.3781 -0.3837
  156MPD2     H 2379   0.517   3.824  12.389 -0.7657 -2.4963 -0.4652
  156MPD2    H1 2380   0.669   3.855  12.786  2.8263  1.6409  0.1508
  156MPD2    H2 2381   0.800   3.543  12.539 -0.6563 -1.0876  0.5364
  156MPD2    H3 2382   0.786   3.659  12.755  0.1181 -1.9172 -1.0270
  156MPD2     N 2383   0.505   3.977  12.597 -0.3794  0.4734 -0.5481
  156MPD2    H5 2384   0.463   4.011  12.511 -0.6353 -0.0630 -0.6375
  156MPD2    N1 2385   0.688   3.618  12.320 -0.0010 -0.0123  0.3090
  156MPD2    H7 2386   0.753   3.541  12.314 -1.5880 -1.2943 -0.4335
  157TCq2    C1 2387   0.630   3.666  12.203 -0.0103 -0.0318 -0.7970
  157TCq2    O2 2388   0.536   3.746  12.188  0.0563  0.0975 -0.1938
  157TCq2    C2 2389   0.672   3.591  12.087 -0.1749 -0.1616 -0.0348
  157TCq2    C3 2390   0.783   3.523  12.087  0.0687  0.4111 -0.6575
  157TCq2    C4 2391   0.820   3.463  11.970 -0.6094  0.0748  0.0837
  157TCq2    C5 2392   0.738   3.470  11.862 -0.3197  0.2643 -0.0489
  157TCq2    C6 2393   0.612   3.522  11.877  0.4097  0.3964 -0.0698
  157TCq2    C7 2394   0.580   3.598  11.986  0.0188 -0.7142 -0.9611
  157TCq2    C8 2395   0.551   3.562  11.751 -0.5406  0.3324 -0.9537
  157TCq2    O4 2396   0.549   3.477  11.661  0.4228 -0.1764 -0.2254
  157TCq2    C9 2397   0.957   3.420  11.960  0.1314  0.2787  0.5004
  157TCq2    O5 2398   1.040   3.418  12.054 -0.0414  0.5291  0.1649
  157TCq2    O6 2399   0.988   3.366  11.851  0.2410 -0.0187 -0.4551
  157TCq2    H2 2400   0.856   3.522  12.168  1.2471  2.6095 -1.6773
  157TCq2    H3 2401   0.764   3.413  11.774 -0.8578  0.1223 -0.1165
  157TCq2    H4 2402   0.486   3.652  11.987  0.0473 -0.6627 -1.0412
  158TMC2    C1 2403   1.222   2.557  14.003 -0.0336 -0.4267  0.1822
  158TMC2    C2 2404   1.218   2.691  14.018 -0.1797 -0.4964  1.0246
  158TMC2    C3 2405   1.166   2.764  13.915  0.7760 -0.3646  0.0072
  158TMC2    C4 2406   1.170   2.494  13.890 -0.3335 -0.3508  0.3917
  158TMC2    C5 2407   1.117   2.569  13.788 -0.1881  0.3135 -0.4860
  158TMC2    C6 2408   1.123   2.710  13.798 -0.4621 -0.3219 -0.1919
  158TMC2     C 2409   1.275   2.480  14.111  0.3783  0.4218  0.4202
  158TMC2     O 2410   1.358   2.535  14.185  0.1203  0.3351  0.3268
  158TMC2     H 2411   1.244   2.741  14.110 -0.2270 -1.0082  1.3173
  158TMC2    H1 2412   1.181   2.388  13.875  0.0964 -0.4516  1.4494
  158TMC2    H2 2413   1.085   2.768  13.715  0.1564  0.0921 -0.1872
  158TMC2    C7 2414   1.062   2.511  13.667  0.2258 -0.2328  0.1684
  158TMC2    C8 2415   1.130   2.898  13.952 -0.1263 -0.1815  0.2235
  158TMC2    O1 2416   1.048   2.591  13.573 -0.2878 -0.5158 -0.1167
  158TMC2    O2 2417   1.054   2.914  14.044 -0.1764  0.0767  0.2173
  158TMC2    O5 2418   1.144   2.986  13.846  0.0155  0.0403  0.1605
  158TMC2    H5 2419   1.227   2.966  13.796 -0.2301  1.5531 -0.8454
  159MPD2     C 2420   1.281   2.045  14.398  0.6905  0.0729  0.5844
  159MPD2    C1 2421   1.194   2.028  14.294 -1.1774  0.2676 -0.0962
  159MPD2    C2 2422   1.185   2.133  14.205 -0.3356  0.0756  0.5542
  159MPD2    C3 2423   1.256   2.249  14.211  0.2205  0.0983 -0.3266
  159MPD2    C4 2424   1.353   2.260  14.306  0.4301 -0.2930  0.5120
  159MPD2    C5 2425   1.362   2.155  14.402 -0.4510  0.2773 -0.2788
  159MPD2     H 2426   1.096   2.141  14.144  0.4080 -0.1989 -0.5677
  159MPD2    H1 2427   1.411   2.351  14.317  0.0607  0.1444 -1.1984
  159MPD2    H2 2428   1.303   1.973  14.476 -0.7312 -1.9219 -0.8962
  159MPD2    H3 2429   1.419   2.155  14.494  0.4944 -1.5005 -0.8735
  159MPD2     N 2430   1.224   2.355  14.120  0.0485 -0.3509  0.3348
  159MPD2    H5 2431   1.149   2.340  14.053 -1.1876  4.8744  0.5500
  159MPD2    N1 2432   1.119   1.914  14.288  0.5752  0.0350 -0.4188
  159MPD2    H7 2433   1.142   1.840  14.353 -1.2398 -0.6484 -0.5619
  160TMC2    C1 2434   1.050   0.505   1.534 -0.0482 -1.1647 -0.3048
  160TMC2    C2 2435   0.970   0.399   1.511 -0.0891 -0.4766 -0.2269
  160TMC2    C3 2436   1.006   0.318   1.413  0.6688  1.3394 -0.4509
  160TMC2    C4 2437   1.166   0.522   1.463 -0.4358 -0.0228  0.0956
  160TMC2    C5 2438   1.206   0.421   1.381  0.4738  0.2196 -0.5133
  160TMC2    C6 2439   1.120   0.322   1.344  0.2841 -0.0114 -0.1385
  160TMC2     C 2440   1.029   0.598   1.642 -0.2355 -0.1576 -0.2952
  160TMC2     O 2441   1.126   0.648   1.696 -0.5827 -0.0895  0.8062
  160TMC2     H 2442   0.871   0.384   1.554  0.4255 -2.6132  0.2052
  160TMC2    H1 2443   1.223   0.612   1.481  1.1414 -0.8024 -0.9539
  160TMC2    H2 2444   1.142   0.255   1.261 -1.0405 -1.1155  0.4038
  160TMC2    C7 2445   1.310   0.448   1.282 -0.0909  0.6629  0.4104
  160TMC2    C8 2446   0.895   0.263   1.343  0.4182  0.9257 -0.5992
  160TMC2    O1 2447   1.310   0.375   1.183 -0.4460  0.7674 -0.1305
  160TMC2    O2 2448   0.796   0.331   1.334 -0.3423 -0.1762  0.7498
  160TMC2    O5 2449   0.917   0.137   1.305  0.5115  0.2945 -0.1067
  160TMC2    H5 2450   1.008   0.107   1.329 -0.1221 -0.8712  0.8700
  161MPD2     C 2451   0.910   0.801   1.824 -0.3188  0.6221 -0.7062
  161MPD2    C1 2452   0.839   0.716   1.742  0.3091  0.2537  0.9112
  161MPD2    C2 2453   0.703   0.721   1.745  0.1748 -0.6474 -0.0922
  161MPD2    C3 2454   0.638   0.823   1.810  0.2087 -0.5657 -0.5933
  161MPD2    C4 2455   0.712   0.915   1.884 -0.1742 -0.1759 -0.2100
  161MPD2    C5 2456   0.849   0.894   1.902  0.6741  0.6732 -0.0091
  161MPD2     H 2457   0.654   0.641   1.689 -1.4363  0.4328 -0.2272
  161MPD2    H1 2458   0.663   0.999   1.933  0.7226  0.4234 -0.3353
  161MPD2    H2 2459   1.017   0.803   1.840 -0.0736 -0.8133 -2.1535
  161MPD2    H3 2460   0.912   0.947   1.972  0.7655  0.2187  0.2536
  161MPD2     N 2461   0.500   0.844   1.811 -0.6263  0.1104  0.0132
  161MPD2    H5 2462   0.466   0.918   1.871  1.5870 -0.6716  2.1974
  161MPD2    N1 2463   0.899   0.625   1.645 -0.1195  0.7998  0.6204
  161MPD2    H7 2464   0.836   0.570   1.588  0.8830  1.6977 -1.3531
  162TMC2    C1 2465   3.405   2.790   1.574 -0.0774 -0.2066 -0.9477
  162TMC2    C2 2466   3.278   2.827   1.534 -0.2316  0.0814  0.6739
  162TMC2    C3 2467   3.197   2.899   1.613 -0.6149  0.2996  0.3721
  162TMC2    C4 2468   3.446   2.804   1.704 -1.1254 -0.1642 -0.6076
  162TMC2    C5 2469   3.349   2.857   1.790 -0.3324 -0.2555 -0.1618
  162TMC2    C6 2470   3.233   2.918   1.743  0.5131  0.3966 -0.0473
  162TMC2     C 2471   3.482   2.713   1.475  0.5753 -0.4403  0.2388
  162TMC2     O 2472   3.455   2.715   1.357 -0.3764  0.5304  0.1737
  162TMC2     H 2473   3.238   2.815   1.434  2.3681 -0.5524 -0.2855
  162TMC2    H1 2474   3.545   2.773   1.735 -2.1272 -1.0061  1.7216
  162TMC2    H2 2475   3.175   2.974   1.816 -0.9282  0.1402 -1.0045
  162TMC2    C7 2476   3.377   2.854   1.935 -0.8664  0.2689  0.3989
  162TMC2    C8 2477   3.056   2.909   1.566  0.0821  0.4829  0.6454
  162TMC2    O1 2478   3.316   2.933   2.007 -1.0051  0.4646  0.2556
  162TMC2    O2 2479   2.995   2.820   1.508  0.0386  0.5052 -0.1794
  162TMC2    O5 2480   3.003   2.999   1.649 -0.0622  0.3720  0.5277
  162TMC2    H5 2481   3.066   3.066   1.681 -0.6665  0.3456  1.7470
  163MPD2     C 2482   3.857   2.376   1.399 -0.0724  0.0974 -0.0827
  163MPD2    C1 2483   3.781   2.436   1.308  0.1915 -0.1011 -0.4182
  163MPD2    C2 2484   3.698   2.539   1.351 -0.5491 -0.0141  0.1115
  163MPD2    C3 2485   3.689   2.560   1.486  0.2304  0.0593  0.7462
  163MPD2    C4 2486   3.770   2.493   1.577  0.6879 -0.5343 -0.6581
  163MPD2    C5 2487   3.863   2.400   1.531 -0.4275 -0.5385 -0.3642
  163MPD2     H 2488   3.635   2.594   1.283 -0.7482  1.5904  1.5755
  163MPD2    H1 2489   3.756   2.507   1.683 -3.7263  0.3052 -1.3241
  163MPD2    H2 2490   3.929   2.301   1.367 -1.3721 -2.1369  2.2169
  163MPD2    H3 2491   3.931   2.347   1.596  2.9878  1.6023 -2.1808
  163MPD2     N 2492   3.590   2.649   1.537  0.2727  0.2327  0.0949
  163MPD2    H5 2493   3.586   2.647   1.638 -2.8925  0.5500 -0.0381
  163MPD2    N1 2494   3.798   2.401   1.175  0.2382 -0.4208 -0.4257
  163MPD2    H7 2495   3.838   2.311   1.150  1.8186  1.2515 -3.9847
  164TCq2    C1 2496   3.975   2.035  11.357  0.1063 -0.1152  0.4047
  164TCq2    O2 2497   3.852   2.034  11.364  0.3252  0.1313  0.1564
  164TCq2    C2 2498   4.043   2.148  11.415  0.2403 -0.0016 -0.6372
  164TCq2    C3 2499   4.177   2.152  11.443 -0.5642 -0.3073  0.4054
  164TCq2    C4 2500   4.230   2.274  11.476  1.1250  0.8929 -0.2983
  164TCq2    C5 2501   4.147   2.380  11.489 -0.5712 -0.4712  0.3668
  164TCq2    C6 2502   4.010   2.368  11.475  0.9491  0.6749 -0.4513
  164TCq2    C7 2503   3.959   2.251  11.438  0.0053 -0.6606  0.1243
  164TCq2    C8 2504   3.918   2.481  11.448  0.7778 -0.3051  0.4682
  164TCq2    O4 2505   3.799   2.466  11.467 -0.4495 -0.4530 -0.2746
  164TCq2    C9 2506   4.376   2.281  11.498 -0.4528 -0.8941 -0.4970
  164TCq2    O5 2507   4.425   2.388  11.539 -0.3257  0.2240 -0.2131
  164TCq2    O6 2508   4.440   2.175  11.480 -0.0291  0.0799 -0.0244
  164TCq2    H2 2509   4.238   2.065  11.422 -1.7630 -1.4374  1.6519
  164TCq2    H3 2510   4.195   2.472  11.520  0.4363 -0.2958 -1.7178
  164TCq2    H4 2511   3.861   2.250  11.393 -0.7272  1.6928  1.6598
  165MPD2     C 2512   4.625   0.692   1.989 -0.0585 -0.2205  0.1559
  165MPD2    C1 2513   4.685   0.578   1.944  0.2062  0.1915  0.1976
  165MPD2    C2 2514   0.098   0.557   1.961 -0.0227  0.0172  0.1947
  165MPD2    C3 2515   0.170   0.653   2.027  0.4046  0.1947  0.6964
  165MPD2    C4 2516   0.110   0.765   2.078 -0.5748 -0.1941 -0.2887
  165MPD2    C5 2517   4.698   0.784   2.057 -0.0348 -0.0583 -0.5882
  165MPD2     H 2518   0.154   0.476   1.916 -1.5988 -0.7598 -0.3489
  165MPD2    H1 2519   0.174   0.839   2.125 -0.4163  0.4952 -1.5853
  165MPD2    H2 2520   4.518   0.708   1.979 -0.3896 -0.6596  3.2786
  165MPD2    H3 2521   4.660   0.876   2.100 -1.4190 -1.8123  1.9378
  165MPD2     N 2522   0.308   0.642   2.038 -0.2082  0.8166  0.3914
  165MPD2    H5 2523   0.365   0.721   2.069  3.1475 -0.8465 -1.5045
  165MPD2    N1 2524   4.599   0.492   1.871  0.1802  0.3687  0.2847
  165MPD2    H7 2525   4.506   0.523   1.844  0.2313  0.9558  0.7762
  166TCq2    C1 2526   0.393   0.537   2.007  0.9930  0.2393  0.1948
  166TCq2    O2 2527   0.375   0.423   1.962  0.4376 -0.2384  0.2948
  166TCq2    C2 2528   0.536   0.565   2.040  0.1883  0.7225 -0.2738
  166TCq2    C3 2529   0.567   0.657   2.136  0.2040  0.5800  0.3846
  166TCq2    C4 2530   0.697   0.667   2.182 -0.4617  0.3145 -0.3756
  166TCq2    C5 2531   0.793   0.576   2.135 -0.6935 -0.0180 -0.7253
  166TCq2    C6 2532   0.763   0.490   2.031 -0.0404  0.9592 -0.7591
  166TCq2    C7 2533   0.632   0.477   1.988 -0.3561  0.6857 -0.7124
  166TCq2    C8 2534   0.869   0.421   1.959 -0.0051 -0.5522  0.3897
  166TCq2    O4 2535   0.986   0.461   1.983 -0.0899 -0.6809 -0.7729
  166TCq2    C9 2536   0.725   0.762   2.289 -0.9822 -1.0047  0.2017
  166TCq2    O5 2537   0.833   0.749   2.348  0.6770 -0.2532  0.1826
  166TCq2    O6 2538   0.628   0.826   2.338  0.4737  0.1813  0.2513
  166TCq2    H2 2539   0.487   0.719   2.174  0.5613  0.9234  0.5809
  166TCq2    H3 2540   0.894   0.585   2.174 -0.9054 -1.4051  0.1244
  166TCq2    H4 2541   0.600   0.411   1.908  0.0318 -1.4769  0.9366
  167TMC2    C1 2542   3.129   2.508  12.339  0.3205 -0.1292 -0.1948
  167TMC2    C2 2543   3.011   2.578  12.350 -0.1678  0.4200  0.0268
  167TMC2    C3 2544   2.926   2.533  12.450 -0.7084  0.2614 -1.1177
  167TMC2    C4 2545   3.154   2.396  12.403  0.4007 -0.8977 -0.1167
  167TMC2    C5 2546   3.068   2.355  12.501  0.0233 -0.0124  0.1682
  167TMC2    C6 2547   2.954   2.429  12.532  0.1224  0.2624  0.1546
  167TMC2     C 2548   3.166   2.500  12.203 -0.9188  0.4488  0.8784
  167TMC2     O 2549   3.170   2.604  12.140  0.5388  0.6158 -0.1107
  167TMC2     H 2550   2.985   2.660  12.283  2.1995  1.1838  0.0708
  167TMC2    H1 2551   3.251   2.348  12.391  0.8682 -0.7812  3.2631
  167TMC2    H2 2552   2.883   2.397  12.607  1.5375  0.9989  1.8224
  167TMC2    C7 2553   3.085   2.226  12.561 -0.2731 -1.1112  0.6183
  167TMC2    C8 2554   2.788   2.575  12.438 -0.4066  0.6011 -0.8300
  167TMC2    O1 2555   2.994   2.195  12.635  0.6497  0.1204  0.6249
  167TMC2    O2 2556   2.743   2.632  12.343 -0.4811  0.0658 -0.1136
  167TMC2    O5 2557   2.733   2.580  12.559 -0.5925  0.1173  0.2866
  167TMC2    H5 2558   2.799   2.566  12.630 -2.3770  4.0643  2.6958
  168MPD2     C 2559   3.162   2.396  11.912  0.1861 -0.4738  0.1129
  168MPD2    C1 2560   3.132   2.321  12.025 -0.0450  0.3712 -0.4105
  168MPD2    C2 2561   3.105   2.185  12.013  0.2845  0.2629  0.2521
  168MPD2    C3 2562   3.098   2.121  11.889  0.1370 -0.0641 -0.4872
  168MPD2    C4 2563   3.127   2.196  11.781 -0.1273 -0.7980  0.2965
  168MPD2    C5 2564   3.157   2.330  11.790  0.3463  0.7921  0.3151
  168MPD2     H 2565   3.072   2.135  12.103 -0.5364 -1.6643 -1.1389
  168MPD2    H1 2566   3.113   2.154  11.682 -1.5152  2.0267 -0.7263
  168MPD2    H2 2567   3.182   2.502  11.918 -2.1431 -0.0200 -0.1372
  168MPD2    H3 2568   3.178   2.383  11.698  2.2969  0.4980  0.5694
  168MPD2     N 2569   3.079   1.982  11.879  0.5036  0.4576  0.0555
  168MPD2    H5 2570   3.082   1.946  11.783 -0.3227 -1.9648  0.9274
  168MPD2    N1 2571   3.136   2.370  12.155 -0.1614 -0.2649  0.4119
  168MPD2    H7 2572   3.102   2.308  12.228  2.2801 -0.5550  1.3158
  169MPD1     C 2573   0.737   0.391   9.277 -0.2594 -0.1201 -0.5359
  169MPD1    C1 2574   0.865   0.345   9.268  0.3429 -1.0832  0.0551
  169MPD1    C2 2575   0.954   0.397   9.363 -0.4384 -0.5145 -0.3650
  169MPD1    C3 2576   0.915   0.487   9.458 -0.1156 -0.5973 -0.4398
  169MPD1    C4 2577   0.782   0.520   9.470  0.2846  0.1427  0.2589
  169MPD1    C5 2578   0.693   0.475   9.379 -0.7304  0.2424 -0.1631
  169MPD1     H 2579   1.060   0.373   9.363 -0.5104 -0.8305 -0.4191
  169MPD1    H1 2580   0.748   0.597   9.538  1.8390  2.1652 -1.2637
  169MPD1    H2 2581   0.663   0.358   9.204 -0.8141  1.4177 -0.6732
  169MPD1    H3 2582   0.586   0.490   9.388 -0.8264 -0.1364 -0.6549
  169MPD1     N 2583   1.017   0.530   9.549  0.2309 -0.0449  0.2285
  169MPD1    H5 2584   1.111   0.498   9.529  0.8376  0.8673  1.5979
  169MPD1    N1 2585   0.909   0.259   9.166 -0.4978 -0.0348  0.3702
  169MPD1    H6 2586   0.996   0.214   9.196  0.0121  0.4593 -0.3695
  169MPD1    H7 2587   0.844   0.186   9.138  0.7176 -0.3807 -1.5711
  170MPD1     C 2588   4.148   3.919  13.246 -0.4155  0.0752 -0.3308
  170MPD1    C1 2589   4.072   3.923  13.360  0.7558 -0.3586  0.0641
  170MPD1    C2 2590   4.081   4.031  13.440 -0.5485  0.3491  0.4942
  170MPD1    C3 2591   4.171   4.131  13.422 -0.0661  0.3708 -0.0237
  170MPD1    C4 2592   4.239   4.126  13.305  0.0756 -0.0286 -0.5401
  170MPD1    C5 2593   4.232   4.022  13.217  0.2525  0.0163  1.0014
  170MPD1     H 2594   4.011   4.039  13.523 -1.7898 -0.9192 -0.4110
  170MPD1    H1 2595   4.310   4.201  13.275 -1.5367  1.3293 -0.9404
  170MPD1    H2 2596   4.144   3.833  13.180 -1.4461  0.2592 -0.5010
  170MPD1    H3 2597   4.288   4.021  13.124 -1.8623 -0.0153 -0.2873
  170MPD1     N 2598   4.172   4.232  13.523  0.2923 -0.4848 -0.2175
  170MPD1    H5 2599   4.122   4.225  13.610  0.6847  0.2484  0.0658
  170MPD1    N1 2600   3.958   3.841  13.365 -0.3922 -0.3408  0.2974
  170MPD1    H6 2601   3.931   3.823  13.462  0.8472  2.0655  1.0738
  170MPD1    H7 2602   3.952   3.752  13.316 -1.2215  1.2515 -2.5073
  171MPD1     C 2603   2.586   0.916  15.586 -0.2538  0.9512 -0.1845
  171MPD1    C1 2604   2.650   0.823  15.510  0.0372 -0.4287  0.5462
  171MPD1    C2 2605   2.739   0.727  15.563 -0.2842 -0.3668 -0.2935
  171MPD1    C3 2606   2.756   0.728  15.696  0.0957 -0.2117  0.0729
  171MPD1    C4 2607   2.692   0.828  15.768  0.4227  0.6046  0.6997
  171MPD1    C5 2608   2.610   0.918  15.714  0.3015  0.1368  0.2433
  171MPD1     H 2609   2.796   0.664  15.496 -0.7152 -1.5266  0.4301
  171MPD1    H1 2610   2.697   0.832  15.876  0.0655  1.2345  0.6948
  171MPD1    H2 2611   2.523   0.992  15.540 -1.0764  0.2164 -0.2694
  171MPD1    H3 2612   2.550   0.978  15.782 -1.7291 -2.4222  0.7231
  171MPD1     N 2613   2.834   0.642  15.772  0.5368  0.3418 -0.0650
  171MPD1    H5 2614   2.842   0.670  15.869  0.4892 -0.3497  0.1434
  171MPD1    N1 2615   2.644   0.846  15.368  0.3784 -0.2669 -0.0851
  171MPD1    H6 2616   2.553   0.881  15.340 -0.0793 -0.1871  1.5157
  171MPD1    H7 2617   2.667   0.763  15.313  0.8006  0.4552 -0.9832
  172MPD1     C 2618   2.656   4.492   0.397  0.0001  0.1319 -0.5218
  172MPD1    C1 2619   2.578   4.594   0.351 -1.4085  0.1802  0.0939
  172MPD1    C2 2620   2.496   4.661   0.446 -0.6111 -0.5619  0.3698
  172MPD1    C3 2621   2.510   4.621   0.578  0.3982  0.6502 -0.1774
  172MPD1    C4 2622   2.583   4.511   0.612  0.5246  0.2332 -0.1608
  172MPD1    C5 2623   2.652   4.440   0.519  0.0298  0.0688  0.3495
  172MPD1     H 2624   2.428   0.021   0.420 -0.9266 -0.9808 -0.1200
  172MPD1    H1 2625   2.596   4.478   0.715  1.9406  0.4200 -0.2726
  172MPD1    H2 2626   2.725   4.450   0.324 -0.7338 -0.8794 -0.6430
  172MPD1    H3 2627   2.718   4.359   0.549 -0.4663 -0.4238  0.1332
  172MPD1     N 2628   2.457   4.702   0.683 -0.0744  0.0583 -0.0187
  172MPD1    H5 2629   2.492   4.688   0.777  1.4444  1.5276 -0.3609
  172MPD1    N1 2630   2.619   4.657   0.235  0.6386  0.1585 -0.2342
  172MPD1    H6 2631   2.657   4.590   0.168  1.7908 -0.1762  0.7700
  172MPD1    H7 2632   2.534   4.693   0.192  0.5265  0.3967  0.1918
  173MPD1     C 2633   2.828   3.892  14.163 -0.4803 -0.0310 -0.0044
  173MPD1    C1 2634   2.941   3.864  14.237 -0.4568 -0.8575  0.1352
  173MPD1    C2 2635   3.009   3.966  14.304 -0.5511 -0.1009 -0.3761
  173MPD1    C3 2636   2.958   4.092  14.297  0.9887  0.3553 -0.0230
  173MPD1    C4 2637   2.842   4.122  14.220  0.8550  0.2151 -0.4575
  173MPD1    C5 2638   2.777   4.019  14.155  0.2081  0.5566 -0.0939
  173MPD1     H 2639   3.101   3.943  14.356 -0.3931  0.0125 -0.6052
  173MPD1    H1 2640   2.798   4.221  14.226  1.0627  0.3729 -1.5201
  173MPD1    H2 2641   2.769   3.815  14.115  0.5754 -0.1998 -1.0380
  173MPD1    H3 2642   2.681   4.042  14.109  0.2427 -0.7320 -0.7967
  173MPD1     N 2643   3.020   4.198  14.377  0.1536 -0.7848 -0.1252
  173MPD1    H5 2644   3.089   4.164  14.443 -2.7735 -1.7673  2.4332
  173MPD1    N1 2645   2.995   3.737  14.234  0.4865 -0.3678  0.2885
  173MPD1    H6 2646   3.063   3.700  14.299 -0.5989 -1.2838  0.9063
  173MPD1    H7 2647   2.927   3.664  14.214  2.1855 -2.2019  1.2971
  174MPD1     C 2648   3.752   4.486  14.189 -0.4063  0.0590 -0.3490
  174MPD1    C1 2649   3.732   4.441  14.318  0.3999  0.3826  0.1369
  174MPD1    C2 2650   3.612   4.472  14.378 -0.0360  0.2635  0.5138
  174MPD1    C3 2651   3.523   4.555  14.313 -0.0758 -0.1001 -0.3613
  174MPD1    C4 2652   3.554   4.597  14.187 -0.1261 -1.1013 -0.2804
  174MPD1    C5 2653   3.669   4.565  14.124 -0.1844 -0.7985  0.7113
  174MPD1     H 2654   3.600   4.430  14.477 -0.0050 -0.6482  0.1341
  174MPD1    H1 2655   3.488   4.661  14.130 -0.0003  0.0831  0.9125
  174MPD1    H2 2656   3.838   4.460  14.128  0.6848  0.5014  1.0062
  174MPD1    H3 2657   3.684   4.594  14.021  1.7803  0.5354  1.3749
  174MPD1     N 2658   3.399   4.578  14.368  0.3233  0.2641 -0.9405
  174MPD1    H5 2659   3.327   4.621  14.311  0.4560 -1.5007 -2.4283
  174MPD1    N1 2660   3.821   4.356  14.378 -0.4452  0.3138  0.0655
  174MPD1    H6 2661   3.828   4.355  14.480 -0.8575  1.2790  0.1051
  174MPD1    H7 2662   3.917   4.370  14.347 -0.8000  0.0556 -1.1252
  175MPD1     C 2663   1.317   1.258  15.745 -0.3204 -0.0063  0.3527
  175MPD1    C1 2664   1.435   1.285  15.803 -0.2190 -1.2977  0.4621
  175MPD1    C2 2665   1.494   1.190  15.883 -0.7467 -0.8083 -0.0185
  175MPD1    C3 2666   1.410   1.094  15.943  0.2022  0.2164 -0.0556
  175MPD1    C4 2667   1.282   1.084  15.899  0.4034  0.3436  0.0796
  175MPD1    C5 2668   1.241   1.160  15.796  0.2686  0.0570 -0.0618
  175MPD1     H 2669   1.600   1.197  15.905 -0.7100 -0.3338 -0.3563
  175MPD1    H1 2670   1.212   1.013  15.941 -0.7984  1.0180 -0.7774
  175MPD1    H2 2671   1.276   1.308  15.658  0.7027  0.9642  0.4374
  175MPD1    H3 2672   1.156   1.130  15.737 -0.4681  0.3045  0.8851
  175MPD1     N 2673   1.451   1.000  16.042  0.2062  0.5907 -0.0528
  175MPD1    H5 2674   1.387   0.925  16.064  0.2299  0.0813 -1.7484
  175MPD1    N1 2675   1.523   1.375  15.733  0.0184 -0.2013  0.2901
  175MPD1    H6 2676   1.469   1.448  15.686 -0.9015 -0.8791  0.2871
  175MPD1    H7 2677   1.601   1.412  15.787  1.8822 -1.0909 -1.7994
  176MPD1     C 2678   3.661   2.019  17.228 -0.4584  0.0975 -0.2329
  176MPD1    C1 2679   3.747   2.100  17.296 -0.5094 -0.4943  0.5347
  176MPD1    C2 2680   3.691   2.218  17.353  0.3517  0.3148  0.4666
  176MPD1    C3 2681   3.574   2.269  17.298  0.7580  0.0819  0.2634
  176MPD1    C4 2682   3.491   2.180  17.222  0.0388 -0.1288 -0.5836
  176MPD1    C5 2683   3.532   2.054  17.191 -0.7357 -0.2951  0.8152
  176MPD1     H 2684   3.749   2.281  17.418  1.3422  1.0050 -1.0729
  176MPD1    H1 2685   3.388   2.208  17.199 -0.1922  1.2697  2.1046
  176MPD1    H2 2686   3.686   1.915  17.213 -0.9007 -0.1166  0.5346
  176MPD1    H3 2687   3.473   1.973  17.149  0.7533 -0.3442 -1.2103
  176MPD1     N 2688   3.532   2.399  17.336  0.4027  0.3205  0.1144
  176MPD1    H5 2689   3.594   2.447  17.399  2.5487 -2.5930  0.2455
  176MPD1    N1 2690   3.872   2.055  17.336 -0.4644  0.1166 -0.4126
  176MPD1    H6 2691   3.937   2.131  17.356 -2.1286  1.2391  0.7641
  176MPD1    H7 2692   3.913   1.991  17.269  1.4758  1.4376 -0.4958
  177MPD1     C 2693   2.371   2.739  10.791 -0.2609 -0.5535  0.4714
  177MPD1    C1 2694   2.383   2.628  10.707 -0.6750 -0.2348  0.2872
  177MPD1    C2 2695   2.324   2.649  10.579  0.8970  0.0780  0.3827
  177MPD1    C3 2696   2.284   2.776  10.543 -0.5034  0.0253  0.1141
  177MPD1    C4 2697   2.298   2.886  10.622  0.4962  0.2553 -0.2084
  177MPD1    C5 2698   2.347   2.862  10.747 -0.8184  0.0702 -0.5197
  177MPD1     H 2699   2.306   2.566  10.511 -0.1527  0.9213 -0.3770
  177MPD1    H1 2700   2.282   2.988  10.588  0.4563 -0.1551 -1.4372
  177MPD1    H2 2701   2.390   2.728  10.897 -2.8454  0.2829  1.0239
  177MPD1    H3 2702   2.354   2.939  10.823  1.3247  0.0159 -0.6550
  177MPD1     N 2703   2.226   2.787  10.413  0.0617  0.3696 -1.1506
  177MPD1    H5 2704   2.245   2.707  10.354 -2.3843 -2.1176  1.4402
  177MPD1    N1 2705   2.410   2.500  10.762  1.4905 -0.2734  0.1388
  177MPD1    H6 2706   2.433   2.425  10.697 -1.1111 -0.6665 -0.3096
  177MPD1    H7 2707   2.332   2.462  10.814  1.8061 -0.9766  0.1048
  178MPD1     C 2708   4.678   3.686   0.648  0.6283 -0.1977 -0.4378
  178MPD1    C1 2709   4.614   3.576   0.591  0.4108  0.3621  0.1068
  178MPD1    C2 2710   4.610   3.564   0.451  0.3010 -0.2530 -0.3570
  178MPD1    C3 2711   4.675   3.649   0.370 -0.0078  0.5373 -0.0244
  178MPD1    C4 2712   0.012   3.752   0.428  0.0626  0.4834 -0.2233
  178MPD1    C5 2713   0.017   3.775   0.565  0.8872 -0.2965 -0.4536
  178MPD1     H 2714   4.565   3.472   0.417 -0.6256  0.5619 -1.3094
  178MPD1    H1 2715   0.062   3.828   0.369  4.6171 -2.6437 -0.4358
  178MPD1    H2 2716   4.688   3.700   0.756 -1.7261  0.7279 -0.3379
  178MPD1    H3 2717   0.067   3.860   0.611  2.5823 -1.5680  0.0696
  178MPD1     N 2718   4.683   3.642   0.226 -0.2620 -0.4575 -0.2099
  178MPD1    H5 2719   4.704   3.726   0.173  2.3143 -0.5357  0.7036
  178MPD1    N1 2720   4.547   3.485   0.675 -0.1176 -0.2463 -0.3183
  178MPD1    H6 2721   4.580   3.487   0.771 -0.6717  0.8997 -0.1507
  178MPD1    H7 2722   4.577   3.392   0.648  0.5558 -0.5941  1.6604
  179MPD1     C 2723   3.417   2.077  15.230  0.0840 -0.2962 -1.0024
  179MPD1    C1 2724   3.547   2.022  15.227 -0.2412 -0.0613  0.2248
  179MPD1    C2 2725   3.576   1.900  15.288  0.1078 -0.0637  0.3712
  179MPD1    C3 2726   3.476   1.825  15.338  0.1539 -0.2666  0.7280
  179MPD1    C4 2727   3.348   1.874  15.340 -0.4640 -0.2894  0.0231
  179MPD1    C5 2728   3.321   1.996  15.278 -0.6937 -0.2950  0.0700
  179MPD1     H 2729   3.679   1.868  15.289 -0.0321 -0.4535  1.4653
  179MPD1    H1 2730   3.263   1.831  15.391 -0.3864  2.2164  2.2406
  179MPD1    H2 2731   3.397   2.179  15.199  1.6003  0.6683  1.2542
  179MPD1    H3 2732   3.220   2.037  15.286 -0.4964  0.3871 -0.8680
  179MPD1     N 2733   3.496   1.697  15.399 -0.0944 -0.4127 -0.4158
  179MPD1    H5 2734   3.411   1.648  15.423 -1.0595  1.5629  0.1799
  179MPD1    N1 2735   3.657   2.096  15.186  0.7541  0.7296  0.5802
  179MPD1    H6 2736   3.639   2.166  15.114 -0.0443 -2.3437 -2.2222
  179MPD1    H7 2737   3.735   2.037  15.158  2.2132  2.2787  1.3483
  180MPD1     C 2738   3.716   3.375  14.969  0.0346  0.1481 -0.3065
  180MPD1    C1 2739   3.805   3.352  14.864  0.1059 -0.0466  0.5967
  180MPD1    C2 2740   3.755   3.290  14.749  0.6136  0.6073  0.2528
  180MPD1    C3 2741   3.627   3.230  14.746  0.2154 -0.3900 -0.4857
  180MPD1    C4 2742   3.539   3.255  14.850 -0.4431 -0.2199 -0.1598
  180MPD1    C5 2743   3.591   3.321  14.963  0.2457 -0.1091 -0.9672
  180MPD1     H 2744   3.826   3.285  14.667  2.5142 -0.2436  1.9469
  180MPD1    H1 2745   3.438   3.217  14.853 -1.4438  2.3034 -2.1995
  180MPD1    H2 2746   3.751   3.413  15.064  2.8043 -0.4317 -1.0974
  180MPD1    H3 2747   3.525   3.346  15.045 -0.9510  2.5489 -2.7360
  180MPD1     N 2748   3.589   3.162  14.630  0.4087  0.5160  0.1851
  180MPD1    H5 2749   3.669   3.142  14.570  1.4706  1.5581  1.2479
  180MPD1    N1 2750   3.928   3.410  14.875  0.3054 -0.5329 -0.3572
  180MPD1    H6 2751   3.951   3.421  14.974 -1.3164 -0.0922 -0.0096
  180MPD1    H7 2752   4.001   3.362  14.825  0.7410 -1.8580  1.5425
  181MPD1     C 2753   0.019   3.913  10.500  0.1615  0.1095 -0.1417
  181MPD1    C1 2754   4.677   4.024  10.537 -0.9371 -0.8546 -0.4422
  181MPD1    C2 2755   4.701   4.145  10.476 -0.4306 -0.4030  0.3927
  181MPD1    C3 2756   0.076   4.152  10.371  0.1542 -0.2430 -0.3320
  181MPD1    C4 2757   0.139   4.034  10.335  0.0304 -0.0256 -0.1865
  181MPD1    C5 2758   0.112   3.918  10.398 -0.5213 -0.1314 -0.5391
  181MPD1     H 2759   4.645   4.236  10.496 -1.5184 -0.0996 -4.0385
  181MPD1    H1 2760   0.193   4.028  10.241 -2.2872  1.7674 -1.6125
  181MPD1    H2 2761   4.706   3.818  10.539  0.7582 -0.3147 -0.6409
  181MPD1    H3 2762   0.171   3.831  10.371  0.3055  0.5499 -0.9314
  181MPD1     N 2763   0.117   4.269  10.300 -0.4782  0.3638  0.0582
  181MPD1    H5 2764   0.202   4.261  10.245 -1.3081  3.3270 -1.6396
  181MPD1    N1 2765   4.568   4.017  10.633 -0.2606  0.0902 -0.0505
  181MPD1    H6 2766   4.565   4.112  10.668 -0.8826 -0.3420  1.0570
  181MPD1    H7 2767   4.589   3.947  10.704 -0.2744 -0.6787 -0.8046
  182MPD1     C 2768   2.963   3.955   0.998  0.2908 -0.2227  0.1931
  182MPD1    C1 2769   2.897   4.036   1.087 -0.3111 -0.2916 -0.3829
  182MPD1    C2 2770   2.825   3.982   1.181 -0.7207  1.1585 -0.3835
  182MPD1    C3 2771   2.790   3.852   1.185 -0.5663 -0.1627 -0.3447
  182MPD1    C4 2772   2.850   3.773   1.099 -0.0277  0.0216 -0.3983
  182MPD1    C5 2773   2.927   3.822   1.001  0.8678 -0.4165  0.0404
  182MPD1     H 2774   2.774   4.051   1.247 -2.4621  0.2867 -0.8415
  182MPD1    H1 2775   2.843   3.665   1.105  0.8814 -0.0338 -0.2999
  182MPD1    H2 2776   3.040   3.995   0.935 -0.0337  0.7106  0.3900
  182MPD1    H3 2777   2.974   3.750   0.935 -1.6426 -3.0411  1.1212
  182MPD1     N 2778   2.701   3.792   1.269 -0.0255  0.2463  0.2233
  182MPD1    H5 2779   2.680   3.696   1.244  1.5557 -0.4993  1.7574
  182MPD1    N1 2780   2.934   4.173   1.095 -0.3483  0.6893 -0.9226
  182MPD1    H6 2781   2.851   4.215   1.136 -0.9044 -1.0447 -0.2274
  182MPD1    H7 2782   2.945   4.222   1.006 -1.4228  0.6027 -1.1006
  183MPD1     C 2783   1.790   3.710   8.978 -0.1050 -0.2379 -0.0408
  183MPD1    C1 2784   1.891   3.744   9.064 -0.5763 -0.6878  0.2224
  183MPD1    C2 2785   1.867   3.835   9.166  0.5724 -0.3323  0.4128
  183MPD1    C3 2786   1.742   3.896   9.189 -0.0877 -0.3172 -0.7510
  183MPD1    C4 2787   1.638   3.861   9.102 -0.3967  0.2751  0.1482
  183MPD1    C5 2788   1.667   3.768   9.001  0.7445 -0.3788 -0.7021
  183MPD1     H 2789   1.951   3.860   9.229  0.5615  2.7695 -0.7994
  183MPD1    H1 2790   1.535   3.889   9.118 -0.8004  0.3245 -2.5245
  183MPD1    H2 2791   1.787   3.632   8.903  2.4358  0.5119 -0.8997
  183MPD1    H3 2792   1.593   3.721   8.936 -0.3189 -1.1419  1.0529
  183MPD1     N 2793   1.729   3.986   9.299  0.4063  0.6664 -0.5522
  183MPD1    H5 2794   1.809   3.991   9.360 -1.1569  0.0461  1.5628
  183MPD1    N1 2795   2.024   3.690   9.039  0.2487 -0.4027 -0.1558
  183MPD1    H6 2796   2.090   3.703   9.116  1.8814  1.0787 -1.7896
  183MPD1    H7 2797   2.022   3.592   9.011  3.3870 -0.7294  0.7326
  184MPD1     C 2798   1.267   2.046  10.331  0.0486 -0.5663 -0.5579
  184MPD1    C1 2799   1.140   2.081  10.360  0.0916 -0.0457 -0.1296
  184MPD1    C2 2800   1.095   2.200  10.308 -0.2076  0.1690  0.2525
  184MPD1    C3 2801   1.180   2.283  10.235  0.0173  0.3576  0.4053
  184MPD1    C4 2802   1.309   2.241  10.203  0.0587  0.6064  0.4342
  184MPD1    C5 2803   1.341   2.115  10.235 -0.0438  0.0829 -0.2259
  184MPD1     H 2804   0.993   2.222  10.337 -0.2268 -2.5431  2.1803
  184MPD1    H1 2805   1.373   2.301  10.139  0.0192 -1.3685 -1.4766
  184MPD1    H2 2806   1.313   1.954  10.367  0.5283 -0.3293 -0.5575
  184MPD1    H3 2807   1.444   2.082  10.221 -0.2014 -0.7445  0.5702
  184MPD1     N 2808   1.141   2.400  10.177  0.3874  0.3867 -0.1939
  184MPD1    H5 2809   1.203   2.438  10.107 -3.2455  2.7078 -2.1593
  184MPD1    N1 2810   1.054   1.985  10.417  0.3652  0.3682 -0.3939
  184MPD1    H6 2811   1.106   1.909  10.461  0.1859  2.1486  2.8688
  184MPD1    H7 2812   0.989   2.032  10.478  1.0310  1.7738 -0.7755
  185MPD1     C 2813   0.464   3.033   9.606 -0.8370 -0.6437  0.3169
  185MPD1    C1 2814   0.434   2.974   9.723  0.0146  0.0038  0.1987
  185MPD1    C2 2815   0.534   2.911   9.792 -0.4653 -0.1671 -0.5089
  185MPD1    C3 2816   0.666   2.925   9.762  0.0700 -0.2980 -0.0662
  185MPD1    C4 2817   0.694   2.989   9.646  0.3343  0.1860 -0.1631
  185MPD1    C5 2818   0.593   3.044   9.570 -0.3027 -0.1815 -0.1372
  185MPD1     H 2819   0.503   2.850   9.877 -0.7346 -1.0788 -1.2648
  185MPD1    H1 2820   0.796   2.991   9.612  1.4086  0.1676  3.0196
  185MPD1    H2 2821   0.392   3.073   9.536 -0.8273 -0.2604  0.5221
  185MPD1    H3 2822   0.632   3.103   9.487 -0.2866 -1.0315 -0.7394
  185MPD1     N 2823   0.767   2.858   9.826 -0.2151  0.4563 -0.6790
  185MPD1    H5 2824   0.859   2.865   9.783  0.7813  2.7919  1.8522
  185MPD1    N1 2825   0.301   2.949   9.752 -0.1539  0.0855  0.2658
  185MPD1    H6 2826   0.290   2.940   9.853 -0.7541 -0.8994  0.1077
  185MPD1    H7 2827   0.240   3.029   9.734 -0.7140  0.0069  1.7821
  186MPD1     C 2828   4.355   1.561  15.918 -0.1886 -0.2107  0.2597
  186MPD1    C1 2829   4.274   1.520  16.022  0.1078  0.4864  0.0560
  186MPD1    C2 2830   4.232   1.599  16.126  1.1820 -0.5715  0.3815
  186MPD1    C3 2831   4.263   1.730  16.116  0.4258 -0.1658 -0.0946
  186MPD1    C4 2832   4.340   1.780  16.010  0.0882  0.2733  0.1450
  186MPD1    C5 2833   4.381   1.696  15.912  0.1300  0.3241  0.0076
  186MPD1     H 2834   4.174   1.559  16.209  1.3107 -3.2174 -0.7788
  186MPD1    H1 2835   4.363   1.886  15.999  0.3922 -0.2126 -3.8074
  186MPD1    H2 2836   4.380   1.489  15.841  0.8908 -1.6945  2.0105
  186MPD1    H3 2837   4.450   1.739  15.840  0.2413  1.0366  0.5404
  186MPD1     N 2838   4.232   1.831  16.212 -0.2319 -0.0169  0.2026
  186MPD1    H5 2839   4.248   1.926  16.180 -0.9977  0.6096  1.6717
  186MPD1    N1 2840   4.245   1.386  16.030  0.0344  0.4922 -0.3261
  186MPD1    H6 2841   4.230   1.347  15.937  0.1966 -0.7888  0.1853
  186MPD1    H7 2842   4.165   1.359  16.087 -0.4361 -0.3684 -1.3989
  187MPD1     C 2843   3.708   3.153   0.863 -0.2174  0.1646  0.2426
  187MPD1    C1 2844   3.658   3.096   0.746  0.8928 -0.2977  0.1986
  187MPD1    C2 2845   3.667   3.167   0.630  0.1740  0.4957 -0.3983
  187MPD1    C3 2846   3.741   3.284   0.620  0.1037 -1.3053  0.2544
  187MPD1    C4 2847   3.791   3.331   0.740 -0.1211 -0.0073  0.0553
  187MPD1    C5 2848   3.772   3.272   0.860  0.0989  0.0139 -0.5502
  187MPD1     H 2849   3.619   3.115   0.548 -1.4528 -0.4704  1.1708
  187MPD1    H1 2850   3.849   3.423   0.735 -0.2574  0.0143 -1.0904
  187MPD1    H2 2851   3.685   3.103   0.957 -0.4528 -1.1337 -0.4938
  187MPD1    H3 2852   3.794   3.330   0.949  0.1145  0.3391 -0.7666
  187MPD1     N 2853   3.760   3.355   0.502 -0.0770  0.6280  0.3179
  187MPD1    H5 2854   3.819   3.437   0.510 -0.7887  1.2903 -1.0765
  187MPD1    N1 2855   3.573   2.988   0.761  0.2423  0.0265  0.4448
  187MPD1    H6 2856   3.579   2.940   0.671  0.7970 -1.3013  1.1777
  187MPD1    H7 2857   3.594   2.929   0.842 -0.6797 -3.2896 -1.7236
  188MPD1     C 2858   4.073   3.771   9.899 -0.1065  0.0976  0.3315
  188MPD1    C1 2859   4.103   3.668   9.814 -0.2983  0.2501 -0.1573
  188MPD1    C2 2860   4.031   3.550   9.817  0.1921  0.1310  0.0871
  188MPD1    C3 2861   3.925   3.530   9.907  0.0341  0.3957 -0.9516
  188MPD1    C4 2862   3.908   3.630  10.000 -0.3623 -0.1742  0.4841
  188MPD1    C5 2863   3.979   3.747   9.993  0.2617 -0.0465 -0.3474
  188MPD1     H 2864   4.043   3.482   9.734 -1.0757  0.0790 -0.0586
  188MPD1    H1 2865   3.836   3.623  10.081  1.5047 -0.3471  2.1294
  188MPD1    H2 2866   4.108   3.873   9.889 -0.2786  0.1012 -0.2501
  188MPD1    H3 2867   3.940   3.827  10.056  0.3983  0.3544 -0.7687
  188MPD1     N 2868   3.844   3.413   9.911 -0.3325  0.3540  0.0853
  188MPD1    H5 2869   3.768   3.411   9.978  0.5860 -1.2287  1.0766
  188MPD1    N1 2870   4.183   3.689   9.705  0.5370  0.0889 -0.0798
  188MPD1    H6 2871   4.256   3.759   9.714  1.8504 -1.3408  0.3250
  188MPD1    H7 2872   4.222   3.602   9.669 -2.3066 -1.0614 -0.4238
  189MPD1     C 2873   0.851   4.569   0.612  0.1196 -0.6784 -0.1046
  189MPD1    C1 2874   0.804   4.499   0.510  0.0062 -0.5401 -0.2282
  189MPD1    C2 2875   0.673   4.519   0.475  0.3103  0.7875  0.0436
  189MPD1    C3 2876   0.592   4.613   0.537 -0.7599 -0.6906  0.5082
  189MPD1    C4 2877   0.638   4.674   0.649 -0.0259 -0.8818  0.3537
  189MPD1    C5 2878   0.767   4.655   0.687  0.1826 -0.4883 -0.3775
  189MPD1     H 2879   0.640   4.467   0.385 -0.3676  0.1656  0.6536
  189MPD1    H1 2880   0.583   0.023   0.711  0.3074  0.7454 -1.1599
  189MPD1    H2 2881   0.951   4.546   0.648 -0.0492 -0.3821  0.5474
  189MPD1    H3 2882   0.809   4.712   0.770  0.8079 -0.3299 -0.8054
  189MPD1     N 2883   0.461   4.634   0.491  0.7514  0.6089 -0.2224
  189MPD1    H5 2884   0.430   4.564   0.423 -0.2255  1.5546 -0.7545
  189MPD1    N1 2885   0.872   4.382   0.459  0.0001 -0.7222 -0.3341
  189MPD1    H6 2886   0.846   4.362   0.363  0.5122  1.2364 -0.8823
  189MPD1    H7 2887   0.971   4.399   0.477 -0.1634  1.2362 -1.2665
  190MPD1     C 2888   3.223   2.924  15.902 -0.0853 -0.4482  0.8954
  190MPD1    C1 2889   3.269   3.036  15.972 -1.0757  0.1591  0.7990
  190MPD1    C2 2890   3.382   3.102  15.919  1.5638 -0.8098 -0.0466
  190MPD1    C3 2891   3.457   3.043  15.819 -0.7014 -0.3120  0.2317
  190MPD1    C4 2892   3.418   2.926  15.760 -0.3084 -0.1278 -0.0082
  190MPD1    C5 2893   3.306   2.870  15.799 -0.8073  0.2927 -0.3073
  190MPD1     H 2894   3.428   3.188  15.968 -1.0994  1.2872 -1.2631
  190MPD1    H1 2895   3.471   2.866  15.686 -1.8422 -0.3284 -0.9609
  190MPD1    H2 2896   3.138   2.866  15.937 -0.6425 -0.0325  0.2493
  190MPD1    H3 2897   3.278   2.778  15.748 -1.5194  0.8344 -0.8813
  190MPD1     N 2898   3.582   3.096  15.786 -0.3950  0.1843 -0.0574
  190MPD1    H5 2899   3.604   3.189  15.821  0.5168  0.5044 -1.4412
  190MPD1    N1 2900   3.199   3.084  16.090 -0.5238 -0.1782 -0.5067
  190MPD1    H6 2901   3.107   3.040  16.095 -1.4276  2.0156  2.1507
  190MPD1    H7 2902   3.179   3.183  16.080  0.3890  0.0655  0.0957
  191MPD1     C 2903   2.981   0.088  13.002 -0.3353  0.8943  0.9756
  191MPD1    C1 2904   3.085   0.045  12.918 -0.0249  0.0222  0.1239
  191MPD1    C2 2905   3.114   0.117  12.806  0.2921 -0.7897 -0.7278
  191MPD1    C3 2906   3.032   0.224  12.767  0.8708  0.2934  0.2504
  191MPD1    C4 2907   2.918   0.249  12.836 -0.5369 -0.2902 -0.2359
  191MPD1    C5 2908   2.892   0.183  12.958 -0.3205  0.6896  0.1091
  191MPD1     H 2909   3.207   0.104  12.751  0.5394  0.7101 -0.6910
  191MPD1    H1 2910   2.851   0.330  12.808  0.8544  0.1910 -2.1812
  191MPD1    H2 2911   2.961   0.044  13.099  0.2103 -1.9362 -0.1734
  191MPD1    H3 2912   2.806   0.208  13.018 -2.5052 -0.3225 -2.6260
  191MPD1     N 2913   3.073   0.291  12.653  0.0977  0.1677  0.2451
  191MPD1    H5 2914   3.164   0.261  12.619  1.2484  2.9556  0.8652
  191MPD1    N1 2915   3.180   4.679  12.970 -0.4156 -0.4011 -0.3474
  191MPD1    H6 2916   3.226   4.624  12.897 -0.1716  1.3980 -1.5702
  191MPD1    H7 2917   3.149   4.618  13.045 -2.4772  0.3933 -0.5654
  192MPD1     C 2918   3.088   1.076  11.882 -0.4247  0.0504  0.1930
  192MPD1    C1 2919   2.981   1.039  11.960  0.0618  0.4204  0.1444
  192MPD1    C2 2920   3.001   0.939  12.052  0.3433  0.7715  0.3075
  192MPD1    C3 2921   3.124   0.873  12.062  0.5158  0.0384 -0.3789
  192MPD1    C4 2922   3.232   0.918  11.989  1.0182  0.3230 -0.0105
  192MPD1    C5 2923   3.206   1.018  11.905  0.1936 -0.4297  0.4691
  192MPD1     H 2924   2.918   0.902  12.111 -1.5335  1.2717 -2.0285
  192MPD1    H1 2925   3.333   0.877  11.991  0.2002 -1.6039  1.5742
  192MPD1    H2 2926   3.086   1.144  11.797  2.8422 -1.4096 -1.0491
  192MPD1    H3 2927   3.285   1.057  11.842 -0.3299 -1.7040 -0.9856
  192MPD1     N 2928   3.137   0.750  12.139 -0.4089 -0.1989  0.5697
  192MPD1    H5 2929   3.226   0.705  12.123  0.8472  3.0195 -1.5795
  192MPD1    N1 2930   2.843   1.075  11.921 -0.1271  0.0809 -0.9935
  192MPD1    H6 2931   2.782   1.073  12.002 -1.1798 -1.5564 -1.8272
  192MPD1    H7 2932   2.838   1.168  11.880 -1.2635  0.9860  1.1902
  193MPD1     C 2933   3.069   0.273  17.415  0.0232  0.0414 -0.3091
  193MPD1    C1 2934   3.192   0.330  17.426 -0.4934 -0.1487 -0.8287
  193MPD1    C2 2935   3.216   0.444  17.357 -0.1201  0.5030  0.7546
  193MPD1    C3 2936   3.120   0.509  17.285 -0.0752 -0.2894 -0.2836
  193MPD1    C4 2937   2.992   0.454  17.290  0.4000 -0.6185 -0.1078
  193MPD1    C5 2938   2.970   0.340  17.352  0.6788 -0.5473  0.4116
  193MPD1     H 2939   3.320   0.475  17.361 -0.1327  0.5533  0.6949
  193MPD1    H1 2940   2.917   0.495  17.224 -0.3160 -3.0495 -0.7920
  193MPD1    H2 2941   3.046   0.170  17.437  1.9113 -0.2944  0.1266
  193MPD1    H3 2942   2.876   0.291  17.331 -1.1896  2.4064  1.9061
  193MPD1     N 2943   3.147   0.619  17.194  0.4020  0.4887 -0.2271
  193MPD1    H5 2944   3.067   0.651  17.141 -0.6250 -0.0885  0.9599
  193MPD1    N1 2945   3.297   0.247  17.447  0.2084 -0.0599 -0.1153
  193MPD1    H6 2946   3.386   0.292  17.466  1.2143 -1.8928 -0.5028
  193MPD1    H7 2947   3.273   0.182  17.522 -0.9595  1.6280  0.9861
  194MPD1     C 2948   0.474   2.223  16.654 -0.5183 -1.2672  0.8778
  194MPD1    C1 2949   0.562   2.311  16.715 -0.2710 -0.1012  0.1433
  194MPD1    C2 2950   0.667   2.258  16.784 -0.3501 -0.1793 -0.1535
  194MPD1    C3 2951   0.695   2.126  16.772 -0.1101  0.6142  0.3660
  194MPD1    C4 2952   0.611   2.040  16.705 -0.6595 -0.1498  0.7432
  194MPD1    C5 2953   0.503   2.089  16.647 -0.2802 -0.5444  0.7358
  194MPD1     H 2954   0.731   2.332  16.831  1.9910 -1.5627 -1.1806
  194MPD1    H1 2955   0.630   1.933  16.711 -0.3292 -0.1282  0.1240
  194MPD1    H2 2956   0.379   2.258  16.616 -0.4431  0.4080  2.2370
  194MPD1    H3 2957   0.429   2.034  16.591 -1.1256 -0.1167  1.4298
  194MPD1     N 2958   0.815   2.061  16.817 -0.7983  0.4700 -0.1684
  194MPD1    H5 2959   0.832   1.962  16.803  0.0736  0.5640  0.2348
  194MPD1    N1 2960   0.533   2.445  16.723  0.3394  0.0127 -0.1401
  194MPD1    H6 2961   0.615   2.504  16.736 -0.3965  1.3284 -1.4357
  194MPD1    H7 2962   0.487   2.488  16.643  1.7930  0.1612 -0.8838
  195MPD1     C 2963   3.200   4.169   0.675  0.8091 -0.3507  0.6806
  195MPD1    C1 2964   3.127   4.159   0.559  0.3854  0.0500 -0.2591
  195MPD1    C2 2965   3.105   4.032   0.514 -1.1784  0.0495  0.1473
  195MPD1    C3 2966   3.175   3.919   0.557 -1.0436 -0.7712 -0.7488
  195MPD1    C4 2967   3.255   3.932   0.665 -0.7933 -0.1114  0.7938
  195MPD1    C5 2968   3.262   4.054   0.730  0.7374  0.2230  0.1758
  195MPD1     H 2969   3.046   4.025   0.424 -0.6669  1.6172 -0.3162
  195MPD1    H1 2970   3.313   3.854   0.712  0.5580 -0.3942 -1.3392
  195MPD1    H2 2971   3.212   4.266   0.722 -2.5861  0.8981 -1.0666
  195MPD1    H3 2972   3.317   4.056   0.823  1.9366  1.0089 -0.5538
  195MPD1     N 2973   3.155   3.788   0.508  0.3924  0.6733  0.1722
  195MPD1    H5 2974   3.203   3.711   0.552  1.2101  1.5718  0.8423
  195MPD1    N1 2975   3.031   4.257   0.527 -0.8995 -0.2869  0.2285
  195MPD1    H6 2976   2.989   4.253   0.434  2.0475  2.2320 -1.2332
  195MPD1    H7 2977   3.063   4.353   0.532 -2.1006  0.1249 -0.0060
  196MPD1     C 2978   3.329   4.089   0.246  0.1139 -0.1785  0.0452
  196MPD1    C1 2979   3.372   4.211   0.304  0.1013 -0.1415  0.5205
  196MPD1    C2 2980   3.459   4.206   0.415  0.3768 -0.3937  0.3633
  196MPD1    C3 2981   3.511   4.086   0.461 -0.6125 -0.3846 -0.0079
  196MPD1    C4 2982   3.473   3.966   0.399 -0.6865  0.3143 -0.0502
  196MPD1    C5 2983   3.386   3.973   0.293 -0.3075 -0.3512 -0.7010
  196MPD1     H 2984   3.484   4.299   0.464  1.2865 -0.4314 -0.0383
  196MPD1    H1 2985   3.487   3.864   0.434  0.8238  0.0378 -1.4329
  196MPD1    H2 2986   3.261   4.077   0.163  0.1035 -0.2470  0.0631
  196MPD1    H3 2987   3.356   3.875   0.258  0.1729 -1.5085  2.1250
  196MPD1     N 2988   3.597   4.064   0.568 -0.5180 -0.5299 -0.0200
  196MPD1    H5 2989   3.630   3.972   0.593 -0.1554 -0.2591  0.5189
  196MPD1    N1 2990   3.339   4.338   0.244  0.2471 -0.2461 -0.7229
  196MPD1    H6 2991   3.346   4.416   0.309 -2.3379  0.2333 -0.9846
  196MPD1    H7 2992   3.240   4.334   0.217 -0.1682 -1.3199  0.9577
  197MPD1     C 2993   2.171   1.450   0.303 -0.1292  0.8887 -0.4779
  197MPD1    C1 2994   2.154   1.562   0.225  0.4992  0.1110  0.3362
  197MPD1    C2 2995   2.112   1.539   0.088  0.1977 -0.9127 -0.1017
  197MPD1    C3 2996   2.057   1.417   0.053 -0.2701 -0.4450  0.0759
  197MPD1    C4 2997   2.051   1.316   0.141 -0.6623  0.0767  0.2812
  197MPD1    C5 2998   2.106   1.337   0.269  0.4922  0.0100 -0.1122
  197MPD1     H 2999   2.113   1.625   0.022  1.0791 -1.9135 -1.3900
  197MPD1    H1 3000   2.003   1.220   0.124 -0.0007 -0.7161  2.9082
  197MPD1    H2 3001   2.217   1.454   0.401  0.7026  0.8392 -0.8670
  197MPD1    H3 3002   2.101   1.260   0.345 -2.5072 -0.2987 -0.6337
  197MPD1     N 3003   2.004   1.400  17.617  0.0185  0.2808 -0.0204
  197MPD1    H5 3004   1.984   1.305  17.589 -0.6432  0.8395 -1.4435
  197MPD1    N1 3005   2.230   1.672   0.263  0.3804 -0.4388  0.2279
  197MPD1    H6 3006   2.219   1.704   0.359  0.4427  0.9747 -0.2350
  197MPD1    H7 3007   2.212   1.746   0.197  1.4089 -1.7416 -1.5001
  198MPD1     C 3008   4.141   3.847  16.755  0.2726  0.3746 -0.5495
  198MPD1    C1 3009   4.185   3.896  16.632  0.5484 -0.2250  0.6173
  198MPD1    C2 3010   4.103   3.988  16.571 -0.3873 -0.9038  0.2331
  198MPD1    C3 3011   3.994   4.043  16.637  0.7363  0.2509 -0.2610
  198MPD1    C4 3012   3.965   4.008  16.762 -0.4901 -0.5904  0.2970
  198MPD1    C5 3013   4.037   3.909  16.817 -0.4034 -0.2757  0.3757
  198MPD1     H 3014   4.126   4.027  16.472 -1.9762 -0.3265  0.0945
  198MPD1    H1 3015   3.892   4.056  16.827  0.0870 -0.9331  1.2025
  198MPD1    H2 3016   4.182   3.757  16.802 -2.1195 -0.5213 -0.1689
  198MPD1    H3 3017   3.995   3.857  16.903 -2.2351  0.4213 -0.0924
  198MPD1     N 3018   3.917   4.138  16.568 -0.1464 -0.8283  0.4873
  198MPD1    H5 3019   3.935   4.138  16.469 -1.8082  2.5434  0.1866
  198MPD1    N1 3020   4.284   3.827  16.568 -0.3195 -0.5077 -0.3989
  198MPD1    H6 3021   4.335   3.893  16.509  0.7376 -0.2730  0.7920
  198MPD1    H7 3022   4.351   3.787  16.633  0.1939 -2.4307 -2.1346
  199MPD1     C 3023   4.551   0.472   9.824 -0.4950  0.3379  0.3411
  199MPD1    C1 3024   4.626   0.583   9.782  0.4374 -0.4400  0.2325
  199MPD1    C2 3025   4.709   0.642   9.877  0.3871  0.3212 -0.6017
  199MPD1    C3 3026   0.002   0.584  10.002  0.0212 -0.5241 -0.2101
  199MPD1    C4 3027   4.650   0.476  10.036 -0.2206 -0.4591 -0.8960
  199MPD1    C5 3028   4.568   0.411   9.946  0.2547  0.2232 -0.6807
  199MPD1     H 3029   0.031   0.737   9.848  0.7920  0.4018  0.2486
  199MPD1    H1 3030   4.658   0.425  10.131 -0.3981  1.4859  0.1634
  199MPD1    H2 3031   4.477   0.430   9.756  1.7290 -2.1878 -0.5387
  199MPD1    H3 3032   4.500   0.335   9.982 -1.4668  3.6575  3.3183
  199MPD1     N 3033   0.090   0.638  10.107  0.2004 -0.4605  0.1624
  199MPD1    H5 3034   0.106   0.588  10.194  1.4400  1.7677  1.2124
  199MPD1    N1 3035   4.589   0.650   9.668 -0.1396  0.3997 -0.2601
  199MPD1    H6 3036   4.664   0.708   9.631  0.1046 -0.1118 -0.5634
  199MPD1    H7 3037   4.560   0.578   9.603 -2.2043  2.3520 -1.5033
  200MPD1     C 3038   4.339   0.543  15.097 -0.0986  0.0518  0.1810
  200MPD1    C1 3039   4.349   0.481  14.975 -0.1953  0.8828 -1.2375
  200MPD1    C2 3040   4.479   0.471  14.926 -0.6695  0.0136  0.3743
  200MPD1    C3 3041   4.587   0.513  15.000 -0.0486  0.0640 -0.2937
  200MPD1    C4 3042   4.575   0.533  15.131 -0.6136  0.2737  0.7925
  200MPD1    C5 3043   4.453   0.559  15.175  0.5175  0.6425 -0.4597
  200MPD1     H 3044   4.497   0.434  14.825  0.7968 -0.0148  0.6435
  200MPD1    H1 3045   4.652   0.556  15.204 -1.9898  2.3205  1.6153
  200MPD1    H2 3046   4.248   0.585  15.138 -0.5160 -0.6285 -0.0437
  200MPD1    H3 3047   4.438   0.603  15.273 -2.5536  0.5515 -0.8916
  200MPD1     N 3048   4.716   0.501  14.938 -0.0628 -0.1239 -0.1225
  200MPD1    H5 3049   4.718   0.461  14.845  1.3542  1.0591 -0.6058
  200MPD1    N1 3050   4.231   0.453  14.896 -0.9116 -0.2213 -0.5575
  200MPD1    H6 3051   4.254   0.385  14.823  1.5088 -0.3928  0.3583
  200MPD1    H7 3052   4.151   0.420  14.949 -1.4157  0.8682 -0.6560
  201MPD1     C 3053   2.136   4.564  13.216 -0.1647  0.5644  0.8080
  201MPD1    C1 3054   2.060   4.472  13.280  0.4734 -0.6639  0.3790
  201MPD1    C2 3055   2.067   4.337  13.249 -0.3981 -0.3053 -0.0658
  201MPD1    C3 3056   2.148   4.298  13.142 -0.4284  0.3545  0.0022
  201MPD1    C4 3057   2.217   4.396  13.071 -0.0644  0.3385 -0.3303
  201MPD1    C5 3058   2.208   4.524  13.109 -0.0315  0.3784 -0.5888
  201MPD1     H 3059   2.026   4.253  13.303 -1.0378  0.2209  0.2662
  201MPD1    H1 3060   2.281   4.370  12.988 -0.0156 -1.4589  0.2678
  201MPD1    H2 3061   2.134   4.666  13.254 -1.8333  0.3837  1.1918
  201MPD1    H3 3062   2.274   4.598  13.064  0.9441 -0.3894 -0.4105
  201MPD1     N 3063   2.159   4.161  13.112  0.0345  0.3184  0.0534
  201MPD1    H5 3064   2.106   4.103  13.176  3.7640 -1.4012  1.5595
  201MPD1    N1 3065   1.999   4.508  13.401 -0.2714 -0.0984 -0.1630
  201MPD1    H6 3066   1.916   4.451  13.414 -1.5375  1.9146  0.6503
  201MPD1    H7 3067   1.976   4.607  13.408 -3.1047 -0.7936  0.2216
  202MPD1     C 3068   1.981   2.653   9.255 -0.5065 -0.6425 -0.9680
  202MPD1    C1 3069   1.903   2.727   9.340  0.8506 -0.0827  0.2325
  202MPD1    C2 3070   1.943   2.850   9.379  0.4549  0.1668  1.6521
  202MPD1    C3 3071   2.079   2.862   9.381 -0.2473  0.6426 -0.0809
  202MPD1    C4 3072   2.166   2.780   9.306  0.5584  0.0592 -0.0205
  202MPD1    C5 3073   2.108   2.675   9.237 -0.9760  0.0134 -0.3519
  202MPD1     H 3074   1.880   2.911   9.442 -1.5132  1.0426 -1.1329
  202MPD1    H1 3075   2.275   2.784   9.301  0.6800 -1.0070  1.4584
  202MPD1    H2 3076   1.935   2.569   9.205  0.4063  0.0672 -2.9843
  202MPD1    H3 3077   2.152   2.621   9.154  1.5222  0.7890  0.4548
  202MPD1     N 3078   2.134   2.966   9.448 -0.3914  0.4894  0.5796
  202MPD1    H5 3079   2.235   2.967   9.451 -0.4315  1.6548  1.8437
  202MPD1    N1 3080   1.762   2.710   9.328  0.3194 -0.3472  0.3723
  202MPD1    H6 3081   1.719   2.736   9.416 -1.1371  1.2728 -0.8116
  202MPD1    H7 3082   1.740   2.612   9.311 -1.4687 -0.3863  3.0291
  203MPD1     C 3083   0.544   4.696  12.659  0.2880 -0.6458  0.3860
  203MPD1    C1 3084   0.573   4.632  12.770 -0.3638 -0.8802  0.4147
  203MPD1    C2 3085   0.664   4.535  12.763  0.0085  0.0722 -0.0657
  203MPD1    C3 3086   0.732   4.500  12.646 -0.4135 -0.1659 -0.4147
  203MPD1    C4 3087   0.700   4.568  12.531 -0.3779 -0.5940 -0.1655
  203MPD1    C5 3088   0.605   4.670  12.539 -0.0612  0.4949  0.7262
  203MPD1     H 3089   0.675   4.465  12.845 -0.9574  1.1725  0.9938
  203MPD1    H1 3090   0.754   4.545  12.440 -0.3029 -0.6098 -0.1174
  203MPD1    H2 3091   0.467   0.051  12.657 -0.8602 -1.7734  0.8513
  203MPD1    H3 3092   0.583   0.006  12.450 -1.1156 -1.5056 -0.3079
  203MPD1     N 3093   0.838   4.403  12.651  0.0087 -0.0538 -0.4576
  203MPD1    H5 3094   0.871   4.388  12.746  0.7644  1.8528 -0.4191
  203MPD1    N1 3095   0.492   4.651  12.885  0.3846 -0.7699  0.0058
  203MPD1    H6 3096   0.442   0.016  12.865  1.9725 -0.4372 -2.4807
  203MPD1    H7 3097   0.549   4.655  12.969 -0.6968  3.7788  0.4777
  204MPD1     C 3098   1.154   1.268   0.536 -0.3293 -0.1789  0.2316
  204MPD1    C1 3099   1.097   1.305   0.421  0.5972  0.7269 -0.1355
  204MPD1    C2 3100   1.022   1.211   0.357 -0.3787  0.0803  0.0162
  204MPD1    C3 3101   0.994   1.078   0.407 -0.2648 -0.4047 -0.5847
  204MPD1    C4 3102   1.062   1.046   0.524 -0.4979  0.5994 -0.4957
  204MPD1    C5 3103   1.132   1.141   0.590  0.3828 -0.1413 -0.3390
  204MPD1     H 3104   0.960   1.225   0.268  0.1447 -1.5515 -0.6053
  204MPD1    H1 3105   1.042   0.951   0.572  0.6365 -0.2765 -1.7345
  204MPD1    H2 3106   1.223   1.333   0.588 -0.0789 -0.1321 -0.1597
  204MPD1    H3 3107   1.169   1.120   0.689 -1.5093 -0.1752  0.3610
  204MPD1     N 3108   0.896   1.003   0.343 -0.0269  0.1289 -0.4499
  204MPD1    H5 3109   0.862   1.043   0.257  0.1913 -1.7950 -1.4261
  204MPD1    N1 3110   1.126   1.428   0.363  0.3615  0.1876 -0.7878
  204MPD1    H6 3111   1.127   1.417   0.262 -0.7380 -0.7452 -0.6975
  204MPD1    H7 3112   1.220   1.463   0.381  0.3026 -0.9415  1.7456
  205MPD1     C 3113   1.867   0.117  17.456  0.2684 -0.2022 -0.7209
  205MPD1    C1 3114   1.899   0.021  17.553  0.0222 -0.0571  0.4263
  205MPD1    C2 3115   1.785   4.707  17.631  0.1925  0.1298 -0.7047
  205MPD1    C3 3116   1.655   0.043  17.620  0.6008  0.8678 -0.4927
  205MPD1    C4 3117   1.635   0.127  17.518  0.4783  0.7833  0.3025
  205MPD1    C5 3118   1.741   0.156  17.435 -0.9772 -0.1084  0.0476
  205MPD1     H 3119   1.805   4.627   0.014 -0.1353 -0.4460 -1.2678
  205MPD1    H1 3120   1.541   0.170  17.484 -1.1987 -1.5644  1.8914
  205MPD1    H2 3121   1.944   0.149  17.387  1.8007  1.3061  1.6617
  205MPD1    H3 3122   1.713   0.217  17.350 -0.7556  0.7886  0.6263
  205MPD1     N 3123   1.545   0.025   0.029 -0.1871  0.0900 -0.0050
  205MPD1    H5 3124   1.461   0.080   0.012 -0.4308 -0.1744  0.3472
  205MPD1    N1 3125   2.026   4.682  17.560 -0.0919 -0.2433 -0.1322
  205MPD1    H6 3126   2.028   4.623  17.643  1.7397 -1.1827 -0.8284
  205MPD1    H7 3127   2.110   0.018  17.571 -0.0310 -0.4603  0.5269
  206MPD1     C 3128   0.933   2.743  16.875 -0.1210 -0.0968  0.2773
  206MPD1    C1 3129   0.947   2.612  16.862  0.6620 -0.4503  0.7258
  206MPD1    C2 3130   0.889   2.552  16.748 -0.5473  0.0656 -0.3492
  206MPD1    C3 3131   0.820   2.621  16.650  0.7208 -0.1617 -0.0166
  206MPD1    C4 3132   0.792   2.752  16.679 -0.4729  0.5880 -0.2909
  206MPD1    C5 3133   0.842   2.808  16.793 -0.5221 -0.7974 -0.2549
  206MPD1     H 3134   0.892   2.445  16.733 -1.8294  0.2067 -1.5766
  206MPD1    H1 3135   0.730   2.811  16.613  2.9637 -0.0190 -4.0836
  206MPD1    H2 3136   0.979   2.791  16.961  0.9116 -0.0418 -0.2976
  206MPD1    H3 3137   0.815   2.913  16.807  0.5881 -0.5238 -0.1724
  206MPD1     N 3138   0.753   2.563  16.534  0.2191 -0.4996  0.3437
  206MPD1    H5 3139   0.696   2.624  16.477  2.0934  1.0787  0.1430
  206MPD1    N1 3140   1.040   2.538  16.939  0.5344  0.1213 -0.3926
  206MPD1    H6 3141   1.039   2.577  17.033 -0.7129 -0.1184 -0.3084
  206MPD1    H7 3142   1.006   2.443  16.947  2.6711 -0.4818  1.4363
  207MPD1     C 3143   3.053   4.050  10.271  0.7242 -0.2717  0.0823
  207MPD1    C1 3144   3.027   4.178  10.225 -0.0438 -0.0063  0.3881
  207MPD1    C2 3145   3.078   4.284  10.297  0.1738 -0.2699  1.0166
  207MPD1    C3 3146   3.129   4.260  10.425  0.1412  0.2978  0.0351
  207MPD1    C4 3147   3.149   4.132  10.475 -0.3484 -0.1237  0.5946
  207MPD1    C5 3148   3.118   4.031  10.392  0.6198  0.3773 -0.1170
  207MPD1     H 3149   3.057   4.382  10.255 -1.2153 -1.3189 -0.7292
  207MPD1    H1 3150   3.199   4.103  10.567 -0.8837 -0.6438  0.7260
  207MPD1    H2 3151   3.023   3.957  10.222  1.4716 -1.2399  1.4816
  207MPD1    H3 3152   3.135   3.931  10.430 -1.5045 -0.0767 -0.3737
  207MPD1     N 3153   3.175   4.366  10.506 -0.4881  0.5387 -0.7134
  207MPD1    H5 3154   3.225   4.349  10.593 -0.6321  0.1892 -0.6980
  207MPD1    N1 3155   2.955   4.199  10.101 -0.6593  0.3705  0.1027
  207MPD1    H6 3156   2.878   4.133  10.101  1.4302 -2.0926 -0.2728
  207MPD1    H7 3157   2.916   4.292  10.102 -1.7676 -0.0687 -1.5405
  208MPD1     C 3158   2.360   4.192   0.138  0.0993  0.0378  0.0096
  208MPD1    C1 3159   2.401   4.132   0.258 -0.2754  0.3584 -0.4155
  208MPD1    C2 3160   2.315   4.035   0.303  0.5298  0.2557 -0.0495
  208MPD1    C3 3161   2.206   3.987   0.227 -0.2183  0.0268  1.2124
  208MPD1    C4 3162   2.181   4.038   0.098 -0.2614  0.4709 -0.2662
  208MPD1    C5 3163   2.252   4.144   0.062 -0.1968  0.1831  0.3757
  208MPD1     H 3164   2.337   4.004   0.404 -1.3929 -0.4971  0.1441
  208MPD1    H1 3165   2.092   4.016   0.039  1.5830 -2.8116 -1.8414
  208MPD1    H2 3166   2.413   4.271   0.087 -1.5998  0.1896 -1.5354
  208MPD1    H3 3167   2.227   4.199  17.659  0.6619  1.2861  0.8110
  208MPD1     N 3168   2.129   3.890   0.291 -0.5697  0.4855  0.6495
  208MPD1    H5 3169   2.161   3.856   0.381  0.8119 -1.0762 -0.4249
  208MPD1    N1 3170   2.488   4.200   0.341  0.3224  0.3965  0.0472
  208MPD1    H6 3171   2.563   4.245   0.289 -0.5539 -0.5806 -2.0720
  208MPD1    H7 3172   2.525   4.154   0.423  0.1269  0.4771  0.1811
  209MPD1     C 3173   3.719   4.429  12.118  0.2169 -0.4701 -0.3333
  209MPD1    C1 3174   3.734   4.564  12.089 -0.4932 -0.1546 -0.2184
  209MPD1    C2 3175   3.800   4.610  11.979 -0.1475 -0.1926  0.1201
  209MPD1    C3 3176   3.850   4.523  11.884  0.4880 -0.2132  0.4654
  209MPD1    C4 3177   3.836   4.385  11.908  0.4591 -0.5035  0.0126
  209MPD1    C5 3178   3.769   4.343  12.019 -0.6180 -0.4491 -0.2026
  209MPD1     H 3179   3.814   4.717  11.964  0.7891 -0.4919 -1.0574
  209MPD1    H1 3180   3.863   4.314  11.831 -1.7898 -2.2259  0.7946
  209MPD1    H2 3181   3.658   4.385  12.197  1.0237  0.1619  0.6495
  209MPD1    H3 3182   3.769   4.237  12.041  1.1990 -0.1146  1.4399
  209MPD1     N 3183   3.895   4.575  11.764 -0.5554 -0.0193 -0.1552
  209MPD1    H5 3184   3.891   4.676  11.758  2.4267  0.0546 -0.9826
  209MPD1    N1 3185   3.697   4.654  12.190 -0.3790  0.2769 -0.2539
  209MPD1    H6 3186   3.619   4.618  12.245 -0.3140 -1.2286 -1.1553
  209MPD1    H7 3187   3.690   0.029  12.159 -1.5730  0.2648 -0.0183
  210MPD1     C 3188   4.103   0.616  11.835  0.1558  0.1816  0.0195
  210MPD1    C1 3189   4.161   0.611  11.711 -0.0574 -0.4389  0.0125
  210MPD1    C2 3190   4.135   0.499  11.630 -0.1953  0.2454  0.3149
  210MPD1    C3 3191   4.049   0.405  11.684  1.2545  0.5269  0.3572
  210MPD1    C4 3192   3.983   0.419  11.801 -0.3263  0.6702 -0.4233
  210MPD1    C5 3193   4.009   0.527  11.886  0.0858 -0.1581 -0.0470
  210MPD1     H 3194   4.177   0.489  11.531  2.3490 -1.0043  1.5044
  210MPD1    H1 3195   3.918   0.340  11.838 -0.1302 -0.8629 -3.4149
  210MPD1    H2 3196   4.135   0.692  11.905  0.0446  0.6635 -0.4545
  210MPD1    H3 3197   3.956   0.535  11.981  2.0447 -0.4433  1.0825
  210MPD1     N 3198   4.016   0.277  11.625  0.8893 -0.0081  0.2854
  210MPD1    H5 3199   3.945   0.222  11.671 -0.0280  0.2340 -0.8389
  210MPD1    N1 3200   4.267   0.699  11.677 -0.1775 -0.1038 -0.4811
  210MPD1    H6 3201   4.282   0.700  11.577  0.2095 -1.8659 -0.4415
  210MPD1    H7 3202   4.255   0.795  11.708 -0.3191 -0.0210 -0.7987
  211MPD1     C 3203   1.575   4.194  16.658  0.0286 -0.3462  0.2684
  211MPD1    C1 3204   1.556   4.293  16.569  0.7543 -1.0657  0.5528
  211MPD1    C2 3205   1.427   4.346  16.553  0.2247 -0.1995 -0.3923
  211MPD1    C3 3206   1.318   4.283  16.609  0.3408  0.9574 -0.1018
  211MPD1    C4 3207   1.343   4.177  16.698 -0.2924  0.0552  0.1552
  211MPD1    C5 3208   1.468   4.138  16.726 -0.8028  0.1761  0.1528
  211MPD1     H 3209   1.399   4.427  16.486 -0.6121  1.8971  2.5162
  211MPD1    H1 3210   1.259   4.141  16.757  0.0702 -0.9178  0.0749
  211MPD1    H2 3211   1.671   4.150  16.684  0.2132  0.7147  1.4087
  211MPD1    H3 3212   1.483   4.060  16.799 -1.0382 -0.1571 -0.1594
  211MPD1     N 3213   1.188   4.322  16.568 -0.3369 -0.3871 -0.6977
  211MPD1    H5 3214   1.182   4.386  16.489  0.5756  0.6959  0.1084
  211MPD1    N1 3215   1.665   4.364  16.521  0.0192 -0.5630 -0.0371
  211MPD1    H6 3216   1.655   4.392  16.423  0.7654 -0.9641 -0.2238
  211MPD1    H7 3217   1.756   4.324  16.539 -0.3690 -1.0878  0.7669
  212MPD1     C 3218   0.409   3.048  16.649  0.4700 -0.5860 -0.2524
  212MPD1    C1 3219   0.294   3.049  16.722 -0.4115  0.5678  0.4372
  212MPD1    C2 3220   0.233   2.926  16.746  0.2722  0.5194  0.3296
  212MPD1    C3 3221   0.283   2.807  16.694  0.2960  0.2329 -0.2474
  212MPD1    C4 3222   0.399   2.814  16.618  0.3413  0.5722 -0.4498
  212MPD1    C5 3223   0.458   2.931  16.594 -0.3827  0.5910  0.5598
  212MPD1     H 3224   0.162   2.919  16.827  0.0432  1.2779  0.1947
  212MPD1    H1 3225   0.448   2.729  16.570 -0.4791  0.0379 -0.3497
  212MPD1    H2 3226   0.460   3.142  16.632  0.2052 -0.1316  1.4361
  212MPD1    H3 3227   0.556   2.932  16.549 -1.3584  1.2384 -1.5487
  212MPD1     N 3228   0.233   2.680  16.735 -0.1216 -0.1097  0.0381
  212MPD1    H5 3229   0.281   2.594  16.711 -2.2242 -0.7469 -1.9491
  212MPD1    N1 3230   0.249   3.160  16.789 -0.4335 -0.7947  0.2571
  212MPD1    H6 3231   0.250   3.251  16.743 -0.7892 -1.6348 -1.4293
  212MPD1    H7 3232   0.152   3.147  16.818 -0.1138  0.6899  1.9277
  213MPD1     C 3233   2.792   3.186  15.978  0.2027  0.5702 -0.3894
  213MPD1    C1 3234   2.874   3.093  15.919 -0.3972  0.3011  0.5882
  213MPD1    C2 3235   2.926   3.138  15.793 -0.0163  0.1016  0.1189
  213MPD1    C3 3236   2.918   3.269  15.758  0.5552 -0.2319 -0.2712
  213MPD1    C4 3237   2.848   3.363  15.830  1.2074  0.4318 -0.5346
  213MPD1    C5 3238   2.780   3.311  15.939  0.3333 -0.2589 -0.1574
  213MPD1     H 3239   2.975   3.066  15.728 -0.2321 -0.1726  0.2588
  213MPD1    H1 3240   2.839   3.469  15.808 -0.1025 -0.1351 -2.8077
  213MPD1    H2 3241   2.720   3.150  16.051 -0.0466 -2.2672 -2.0542
  213MPD1    H3 3242   2.711   3.364  16.003  1.3413  0.4517  0.3529
  213MPD1     N 3243   2.993   3.311  15.645  0.5124  0.7382  0.4843
  213MPD1    H5 3244   3.032   3.237  15.587 -1.2801  0.0321  0.1671
  213MPD1    N1 3245   2.857   2.956  15.949 -0.1614 -0.1396  0.4543
  213MPD1    H6 3246   2.841   2.934  16.047  0.1938  0.6834  0.6991
  213MPD1    H7 3247   2.930   2.895  15.915 -0.4615 -1.4784  2.1787
  214MPD1     C 3248   2.983   2.860  14.916 -0.4634 -0.2524  0.5697
  214MPD1    C1 3249   3.088   2.938  14.881  0.6705  0.2014 -0.3158
  214MPD1    C2 3250   3.138   3.036  14.975 -0.7194  0.4231 -0.4947
  214MPD1    C3 3251   3.077   3.056  15.100  0.6311  0.5386  0.4947
  214MPD1    C4 3252   2.966   2.974  15.124  0.1626 -0.6579 -0.0942
  214MPD1    C5 3253   2.923   2.883  15.034  0.8793  0.3452 -0.4053
  214MPD1     H 3254   3.225   3.095  14.946 -0.3114  0.1408  0.1505
  214MPD1    H1 3255   2.910   2.973  15.217  0.2760  1.3100 -0.0092
  214MPD1    H2 3256   2.943   2.791  14.842 -0.6533 -0.9001  1.2838
  214MPD1    H3 3257   2.838   2.822  15.063  1.3945  0.3173  1.0602
  214MPD1     N 3258   3.103   3.150  15.198  0.1002  0.6989 -0.1353
  214MPD1    H5 3259   3.037   3.155  15.275  2.7681  0.2688  2.1770
  214MPD1    N1 3260   3.150   2.928  14.755 -0.0685  0.3997  0.3244
  214MPD1    H6 3261   3.078   2.947  14.686  2.4146  2.2072 -1.8076
  214MPD1    H7 3262   3.223   2.996  14.731  0.8121 -0.4744  0.5181
  215MPD1     C 3263   4.107   3.948  10.977 -0.2323 -0.1954  0.6224
  215MPD1    C1 3264   4.140   3.967  11.108 -0.4053  0.8755 -0.3137
  215MPD1    C2 3265   4.041   4.007  11.194  0.0124 -0.0052  0.0927
  215MPD1    C3 3266   3.905   3.999  11.158 -0.7050 -0.8218 -0.8479
  215MPD1    C4 3267   3.872   3.951  11.033  0.6170 -0.5789 -0.6609
  215MPD1    C5 3268   3.979   3.941  10.943  0.4476  0.9925 -0.4467
  215MPD1     H 3269   4.072   4.036  11.294  1.1207 -0.6711 -0.0549
  215MPD1    H1 3270   3.773   3.948  10.990  0.8130  2.0499 -1.2651
  215MPD1    H2 3271   4.186   3.922  10.908 -0.6932 -1.7888  0.7013
  215MPD1    H3 3272   3.946   3.917  10.843  1.9643 -0.8649 -0.5071
  215MPD1     N 3273   3.808   4.069  11.239 -0.1865  0.2057  0.0459
  215MPD1    H5 3274   3.846   4.111  11.323 -0.9772 -1.9876  1.5038
  215MPD1    N1 3275   4.277   3.976  11.136 -0.9460  0.3902 -0.0778
  215MPD1    H6 3276   4.306   3.946  11.229  0.0625 -1.8813 -1.1145
  215MPD1    H7 3277   4.336   3.930  11.068 -0.4093  2.7450 -1.1913
  216MPD1     C 3278   0.809   2.139  17.448 -0.1301  0.3765 -0.6172
  216MPD1    C1 3279   0.924   2.112  17.518 -0.3710 -0.4229  0.3238
  216MPD1    C2 3280   0.936   2.005  17.600 -0.0718  0.0635  0.4017
  216MPD1    C3 3281   0.840   1.903  17.584  0.0016  0.0597  0.4222
  216MPD1    C4 3282   0.722   1.940  17.531 -0.1041  0.2390  0.2298
  216MPD1    C5 3283   0.709   2.051  17.457 -0.0156 -0.6627 -0.7944
  216MPD1     H 3284   1.028   1.979  17.651 -0.7428  0.1750  1.6509
  216MPD1    H1 3285   0.639   1.871  17.532 -0.7946  1.0777  0.4096
  216MPD1    H2 3286   0.792   2.236  17.404  1.0503  0.4894 -0.8314
  216MPD1    H3 3287   0.621   2.067  17.394 -0.0321  0.5731 -0.4662
  216MPD1     N 3288   0.873   1.774  17.621 -0.2372 -0.2284 -0.0741
  216MPD1    H5 3289   0.963   1.752  17.663 -0.0520 -1.9850 -1.4175
  216MPD1    N1 3290   1.016   2.215  17.520  0.6338 -0.4453 -0.1093
  216MPD1    H6 3291   1.005   2.267  17.432  0.1408  2.0140  1.4103
  216MPD1    H7 3292   1.109   2.188  17.551  0.1823  0.5611  2.0458
  217MPD1     C 3293   0.944   2.632   8.193 -0.2902 -0.3048 -0.0012
  217MPD1    C1 3294   0.828   2.709   8.207 -0.2462 -0.9190  0.7278
  217MPD1    C2 3295   0.843   2.835   8.265 -0.3954 -0.4864  0.4502
  217MPD1    C3 3296   0.959   2.885   8.320 -0.6849  0.2268  0.2684
  217MPD1    C4 3297   1.073   2.803   8.308 -0.0640 -0.3347  0.4802
  217MPD1    C5 3298   1.065   2.678   8.244  0.2347  0.3454  0.0361
  217MPD1     H 3299   0.756   2.899   8.265  1.3125  1.8495  1.4319
  217MPD1    H1 3300   1.165   2.826   8.360 -1.7191 -0.0984  3.3070
  217MPD1    H2 3301   0.940   2.537   8.140  1.3708 -0.8353  0.8082
  217MPD1    H3 3302   1.157   2.622   8.246 -0.1531 -0.2516  0.7261
  217MPD1     N 3303   0.970   3.002   8.393 -0.1094  0.2250  0.5515
  217MPD1    H5 3304   1.061   3.028   8.429  1.0545 -1.7743 -0.9384
  217MPD1    N1 3305   0.713   2.665   8.143  0.6438 -0.3435 -0.0257
  217MPD1    H6 3306   0.713   2.563   8.146  1.0576 -0.3623 -0.7501
  217MPD1    H7 3307   0.633   2.711   8.186  1.0042  1.4160 -1.2644
  218MPD1     C 3308   2.425   0.104  13.365 -0.1294  0.5154 -0.7642
  218MPD1    C1 3309   2.552   0.064  13.394  0.4807  0.2287  0.3648
  218MPD1    C2 3310   2.633   0.015  13.294 -0.4469  0.2948  0.6774
  218MPD1    C3 3311   2.598   0.017  13.160  0.1439 -0.1969 -0.3685
  218MPD1    C4 3312   2.468   0.060  13.135 -0.9124 -0.0475  0.3167
  218MPD1    C5 3313   2.394   0.111  13.235  0.2032 -0.5477  0.1632
  218MPD1     H 3314   2.727   4.688  13.318  0.6413  1.5399 -1.0944
  218MPD1    H1 3315   2.429   0.068  13.034 -0.2681 -1.0693 -0.0134
  218MPD1    H2 3316   2.357   0.157  13.431  3.6460  1.9345  1.9350
  218MPD1    H3 3317   2.295   0.149  13.215  0.8667  1.0665 -0.0712
  218MPD1     N 3318   2.682   4.659  13.074 -0.2870  0.5603  0.0886
  218MPD1    H5 3319   2.765   4.626  13.121 -0.2954 -2.1190 -1.7864
  218MPD1    N1 3320   2.590   0.041  13.521 -0.0843  0.3060 -0.5762
  218MPD1    H6 3321   2.548   0.084  13.603 -1.9766  1.4142 -2.1394
  218MPD1    H7 3322   2.691   0.050  13.532 -0.6424  0.2289  4.8028
  219MPD1     C 3323   3.394   4.699  12.343  0.4485 -0.3496 -0.3111
  219MPD1    C1 3324   3.265   0.017  12.330  0.5341 -0.4451 -0.3227
  219MPD1    C2 3325   3.178   4.696  12.432 -0.3620  0.6169  1.1559
  219MPD1    C3 3326   3.220   4.606  12.528  0.8215  0.5746  0.1670
  219MPD1    C4 3327   3.353   4.563  12.534  0.1809  0.4547 -0.1548
  219MPD1    C5 3328   3.439   4.620  12.448  0.1491  0.0954 -0.1355
  219MPD1     H 3329   3.082   0.024  12.438 -0.8736 -0.4247  1.4958
  219MPD1    H1 3330   3.392   4.493  12.607 -1.3355 -0.0066  0.2134
  219MPD1    H2 3331   3.463   0.021  12.272  2.4189 -0.2181  1.6557
  219MPD1    H3 3332   3.541   4.583  12.458 -0.8283 -1.9825  2.1472
  219MPD1     N 3333   3.133   4.551  12.616  0.5646  0.3325 -0.1108
  219MPD1    H5 3334   3.182   4.493  12.684 -0.2735 -0.4986 -0.2036
  219MPD1    N1 3335   3.236   0.106  12.224  0.3974  0.5419 -0.0364
  219MPD1    H6 3336   3.135   0.113  12.215  0.3507 -0.4453 -0.2831
  219MPD1    H7 3337   3.280   0.083  12.135 -1.1291  1.0499 -0.9081
  220MPD1     C 3338   3.279   3.585  10.895  0.4420  0.4091 -0.2151
  220MPD1    C1 3339   3.229   3.673  10.981 -0.2280  0.6204 -0.2341
  220MPD1    C2 3340   3.125   3.754  10.936  0.0296 -0.0874  0.5315
  220MPD1    C3 3341   3.084   3.749  10.804  0.2608 -0.6439  0.0521
  220MPD1    C4 3342   3.152   3.673  10.710  0.2011  0.1960  0.1742
  220MPD1    C5 3343   3.247   3.584  10.761 -1.4869  0.2657 -0.8283
  220MPD1     H 3344   3.066   3.808  11.009 -0.3491  0.3021 -0.0576
  220MPD1    H1 3345   3.126   3.677  10.605 -0.7863 -2.1614  0.3181
  220MPD1    H2 3346   3.359   3.516  10.920  0.7610  1.5261  1.8423
  220MPD1    H3 3347   3.292   3.518  10.688 -1.3893  0.1421 -0.6548
  220MPD1     N 3348   2.988   3.848  10.764  0.2452  0.8360  0.1745
  220MPD1    H5 3349   2.958   3.905  10.843 -0.4175  0.4476  0.1978
  220MPD1    N1 3350   3.272   3.672  11.110  0.6292  0.1406 -0.1742
  220MPD1    H6 3351   3.243   3.756  11.159 -1.2393 -0.2327 -0.6702
  220MPD1    H7 3352   3.370   3.651  11.128  1.5724  2.4139 -2.5399
  221MPD1     C 3353   0.663   3.502  17.204  1.3965  0.0568 -0.5138
  221MPD1    C1 3354   0.583   3.450  17.114 -0.1687  0.3131  0.5930
  221MPD1    C2 3355   0.634   3.406  16.998  0.6028  1.0541  0.0374
  221MPD1    C3 3356   0.772   3.397  16.972 -0.4606  0.4678  0.3141
  221MPD1    C4 3357   0.852   3.462  17.055 -0.0862  0.1699  0.1001
  221MPD1    C5 3358   0.800   3.503  17.179  0.4639  0.5272 -0.4208
  221MPD1     H 3359   0.561   3.371  16.926  3.2880 -4.1851 -0.0750
  221MPD1    H1 3360   0.959   3.452  17.049  0.0022  0.1296  1.5864
  221MPD1    H2 3361   0.627   3.542  17.298 -2.4535  1.5797 -2.6288
  221MPD1    H3 3362   0.854   3.548  17.262 -1.3775  3.4077 -0.7699
  221MPD1     N 3363   0.829   3.340  16.856 -0.0858  0.4650  0.5456
  221MPD1    H5 3364   0.926   3.357  16.832 -0.2185  0.7911  0.2308
  221MPD1    N1 3365   0.444   3.457  17.121 -0.3870 -0.8120 -0.2278
  221MPD1    H6 3366   0.410   3.465  17.216 -3.0168 -0.1941 -1.1909
  221MPD1    H7 3367   0.387   3.392  17.066 -1.9391  1.6446 -1.5213
  222MPD1     C 3368   0.683   2.471  17.069 -0.5937  0.0897 -0.2170
  222MPD1    C1 3369   0.642   2.367  17.154 -0.2121 -1.0617  0.1957
  222MPD1    C2 3370   0.530   2.384  17.226 -0.6658  0.4379 -0.2508
  222MPD1    C3 3371   0.444   2.485  17.206  0.2576 -0.0970  0.5148
  222MPD1    C4 3372   0.470   2.567  17.100  0.2096  0.3945  0.3893
  222MPD1    C5 3373   0.592   2.562  17.037  0.4892 -0.8416 -0.4818
  222MPD1     H 3374   0.510   2.313  17.305 -0.6040  0.6456 -0.0507
  222MPD1    H1 3375   0.405   2.643  17.058 -0.8658  0.9846  3.1308
  222MPD1    H2 3376   0.781   2.464  17.023  1.2237  0.6127  3.5244
  222MPD1    H3 3377   0.619   2.636  16.963  0.1772 -1.2788 -1.0331
  222MPD1     N 3378   0.322   2.501  17.276  0.0321  0.0146  0.1405
  222MPD1    H5 3379   0.277   2.591  17.263  1.8168  0.7596 -0.8679
  222MPD1    N1 3380   0.740   2.268  17.176  0.4283  0.5513  0.5164
  222MPD1    H6 3381   0.709   2.172  17.193  1.6428  0.0053 -0.3227
  222MPD1    H7 3382   0.789   2.261  17.087 -0.5362 -0.8860  0.0890
  223MPD1     C 3383   4.486   2.226   0.499  0.7200 -0.2956 -0.1231
  223MPD1    C1 3384   4.532   2.353   0.507  0.1129 -0.8186 -0.0707
  223MPD1    C2 3385   4.599   2.418   0.399  0.7799 -0.0461  0.0333
  223MPD1    C3 3386   4.624   2.344   0.287 -0.5084 -0.6333  0.4949
  223MPD1    C4 3387   4.575   2.216   0.276  0.1350 -0.6333  0.5000
  223MPD1    C5 3388   4.509   2.154   0.382  0.0930 -1.1114 -0.3980
  223MPD1     H 3389   4.633   2.520   0.414 -0.0303  0.1880  0.2728
  223MPD1    H1 3390   4.580   2.152   0.189 -0.8631  0.2533 -0.2051
  223MPD1    H2 3391   4.422   2.183   0.575 -0.4096  1.3794 -0.1234
  223MPD1    H3 3392   4.457   2.061   0.361 -1.0363 -0.0141 -2.5710
  223MPD1     N 3393   4.677   2.418   0.181  0.3102  0.8850  0.2052
  223MPD1    H5 3394   4.699   2.516   0.199 -0.2885  1.1434 -0.4737
  223MPD1    N1 3395   4.513   2.426   0.628 -0.6463  0.1270  0.3034
  223MPD1    H6 3396   4.423   2.406   0.671 -0.3701 -0.2801  0.6865
  223MPD1    H7 3397   4.514   2.528   0.620  0.6096  0.0380 -0.5768
  224MPD1     C 3398   0.122   4.084   8.962 -0.4130  0.4049 -0.1566
  224MPD1    C1 3399   0.247   4.070   8.908  0.1740 -1.1136 -0.4963
  224MPD1    C2 3400   0.346   4.055   9.004 -0.0426  0.4241 -0.2693
  224MPD1    C3 3401   0.328   4.060   9.141  0.3387  0.2042  0.1864
  224MPD1    C4 3402   0.202   4.089   9.181  0.0642 -1.0696  0.3782
  224MPD1    C5 3403   0.098   4.091   9.096  0.5096  0.1623 -0.2004
  224MPD1     H 3404   0.448   4.039   8.972 -0.6239 -0.0731 -1.8354
  224MPD1    H1 3405   0.175   4.105   9.285 -0.7136  0.5483 -0.0722
  224MPD1    H2 3406   0.034   4.099   8.901  0.2463 -1.2718 -1.5170
  224MPD1    H3 3407   4.719   4.112   9.131  0.0679 -1.5169 -0.4774
  224MPD1     N 3408   0.425   4.061   9.240  0.9135 -0.0302  0.4055
  224MPD1    H5 3409   0.391   4.072   9.335  1.3623 -0.7104  0.6432
  224MPD1    N1 3410   0.265   4.051   8.771 -0.4250  0.2564 -0.1213
  224MPD1    H6 3411   0.353   4.087   8.737 -0.4344  0.2318 -0.1717
  224MPD1    H7 3412   0.187   4.086   8.715  0.2516  2.7954  0.5356
  225MPD1     C 3413   2.750   1.045  12.908 -0.6215  0.2493  0.2516
  225MPD1    C1 3414   2.685   0.934  12.937  0.3170 -0.1008  0.4483
  225MPD1    C2 3415   2.605   0.875  12.841  0.1211  0.3108  0.0099
  225MPD1    C3 3416   2.609   0.925  12.716  0.2576  0.6466  0.7052
  225MPD1    C4 3417   2.655   1.047  12.693  0.0771  0.0060  0.5915
  225MPD1    C5 3418   2.732   1.111  12.791 -0.2344 -0.0056  0.2731
  225MPD1     H 3419   2.550   0.783  12.860  1.0380 -0.1172  0.5637
  225MPD1    H1 3420   2.640   1.101  12.600  1.4969 -1.4422 -0.4661
  225MPD1    H2 3421   2.822   1.082  12.981 -1.0266  0.4641  0.5419
  225MPD1    H3 3422   2.781   1.204  12.764  0.6585 -1.1395 -2.0471
  225MPD1     N 3423   2.535   0.866  12.609 -0.0698 -0.5097 -0.1646
  225MPD1    H5 3424   2.502   0.933  12.541 -1.3753  0.1743  1.1503
  225MPD1    N1 3425   2.726   0.861  13.052  0.4375  0.5721  0.5857
  225MPD1    H6 3426   2.749   0.931  13.122  0.2869  1.6155 -0.4004
  225MPD1    H7 3427   2.645   0.810  13.087 -1.3527  2.2237 -1.1381
  226MPD1     C 3428   0.096   0.148   9.954 -0.2952 -0.2114  0.4878
  226MPD1    C1 3429   0.124   0.031   9.880 -0.2836 -0.1067  0.1100
  226MPD1    C2 3430   0.244   0.021   9.812  0.0054  0.2019  0.1927
  226MPD1    C3 3431   0.335   0.118   9.821  0.2118 -0.7765 -0.3491
  226MPD1    C4 3432   0.304   0.237   9.882  0.3552  0.4745 -0.2817
  226MPD1    C5 3433   0.185   0.251   9.949  0.1014  0.0405  0.8984
  226MPD1     H 3434   0.270   4.655   9.753  2.8459  1.3504 -0.2501
  226MPD1    H1 3435   0.365   0.326   9.887 -1.0444  1.5014 -1.2963
  226MPD1    H2 3436   0.004   0.157  10.010 -1.0059 -0.0814 -0.7167
  226MPD1    H3 3437   0.163   0.341  10.006 -1.8651  0.5149 -0.6543
  226MPD1     N 3438   0.450   0.106   9.741  0.3309 -0.0012 -0.0252
  226MPD1    H5 3439   0.456   0.027   9.677 -1.4474 -1.3891  1.5408
  226MPD1    N1 3440   0.026   4.660   9.853 -0.0065 -0.0674  0.1498
  226MPD1    H6 3441   0.050   4.568   9.816  0.0372  0.2970 -0.7188
  226MPD1    H7 3442   4.697   4.637   9.939 -0.3733 -0.5119 -0.1854
  227MPD1     C 3443   0.487   4.358   9.014  0.2844 -0.6111  0.3463
  227MPD1    C1 3444   0.400   4.424   9.099 -1.1365  1.0979  0.0371
  227MPD1    C2 3445   0.448   4.509   9.200 -0.9577  0.0312 -1.2465
  227MPD1    C3 3446   0.585   4.523   9.228  0.2330  0.1074  0.5287
  227MPD1    C4 3447   0.669   4.448   9.145  0.4813 -0.8359  0.3386
  227MPD1    C5 3448   0.622   4.370   9.041 -0.8413  0.0713 -0.4718
  227MPD1     H 3449   0.384   4.563   9.268 -1.2437  1.5464 -2.6967
  227MPD1    H1 3450   0.776   4.457   9.157  0.6321  0.1623 -1.8198
  227MPD1    H2 3451   0.447   4.287   8.942  1.1308 -1.0779  0.3427
  227MPD1    H3 3452   0.693   4.314   8.981 -1.2621 -2.0199  1.0008
  227MPD1     N 3453   0.617   4.611   9.331  0.0801 -0.2862  0.0948
  227MPD1    H5 3454   0.537   4.658   9.374 -0.6195 -0.5683 -0.9175
  227MPD1    N1 3455   0.262   4.394   9.073 -0.3494 -0.4309  0.4031
  227MPD1    H6 3456   0.206   4.379   9.157 -1.2519 -0.0839 -0.1467
  227MPD1    H7 3457   0.257   4.304   9.026 -0.4408  0.5215 -1.3797
  228MPD1     C 3458   4.550   3.084  12.719 -0.1320 -0.7788 -0.1081
  228MPD1    C1 3459   4.442   3.114  12.648  0.1092 -0.0260 -0.1781
  228MPD1    C2 3460   4.312   3.094  12.692  0.4190 -0.0698 -0.2810
  228MPD1    C3 3461   4.297   3.063  12.824  0.7422  0.1192  0.0954
  228MPD1    C4 3462   4.412   3.030  12.897 -0.0498 -0.6422 -0.3239
  228MPD1    C5 3463   4.537   3.044  12.849  0.1716 -0.3216 -0.8030
  228MPD1     H 3464   4.223   3.113  12.634 -0.9136  0.8495  2.0608
  228MPD1    H1 3465   4.402   2.997  13.000  0.2236 -0.5507 -0.2685
  228MPD1    H2 3466   4.646   3.109  12.676  0.1241 -0.4989  0.6167
  228MPD1    H3 3467   4.627   3.008  12.898  0.0749  1.4050  0.6458
  228MPD1     N 3468   4.164   3.040  12.865 -0.7549 -0.2840 -0.7165
  228MPD1    H5 3469   4.095   3.086  12.806 -1.2442 -0.2575 -0.1302
  228MPD1    N1 3470   4.466   3.160  12.519 -0.1590  0.2708  0.3438
  228MPD1    H6 3471   4.548   3.220  12.528 -0.0896  0.3948 -1.0385
  228MPD1    H7 3472   4.387   3.221  12.498  0.5265  0.8595 -0.4979
  229MPD1     C 3473   3.608   1.849  14.353 -0.1449 -0.2260 -0.0844
  229MPD1    C1 3474   3.715   1.757  14.343 -0.3270 -0.1053  0.7133
  229MPD1    C2 3475   3.782   1.725  14.458 -0.3251  0.1059 -0.4558
  229MPD1    C3 3476   3.749   1.781  14.579 -0.2412  0.0375 -0.3985
  229MPD1    C4 3477   3.658   1.884  14.581 -0.2096  0.3120  0.0161
  229MPD1    C5 3478   3.582   1.915  14.473  0.6624  0.1926  0.2871
  229MPD1     H 3479   3.845   1.637  14.461 -1.2294 -0.5285 -0.2569
  229MPD1    H1 3480   3.638   1.937  14.673 -1.7337 -0.3122  0.0504
  229MPD1    H2 3481   3.558   1.876  14.261  1.3873  1.6937 -0.3515
  229MPD1    H3 3482   3.507   1.992  14.486  1.4105  1.2566 -1.7490
  229MPD1     N 3483   3.821   1.750  14.699 -0.1076  0.3259  0.0428
  229MPD1    H5 3484   3.781   1.803  14.776 -0.8892  0.3970 -0.4138
  229MPD1    N1 3485   3.760   1.714  14.218 -0.4061 -0.0006 -0.5569
  229MPD1    H6 3486   3.824   1.635  14.223  0.1875  0.3933 -1.9489
  229MPD1    H7 3487   3.684   1.688  14.155  0.1954 -1.0704 -0.8410
  230MPD1     C 3488   4.082   2.105  15.532 -0.3397  0.4224 -0.1099
  230MPD1    C1 3489   4.181   2.002  15.534 -1.3289 -0.2293  0.5968
  230MPD1    C2 3490   4.155   1.899  15.450 -0.6553 -0.5236 -0.1022
  230MPD1    C3 3491   4.056   1.898  15.352 -0.5673  0.1768 -0.4023
  230MPD1    C4 3492   3.972   2.008  15.343 -0.2896  0.1104  0.6997
  230MPD1    C5 3493   3.988   2.105  15.436 -0.0847  0.7583  0.3847
  230MPD1     H 3494   4.213   1.808  15.448 -0.2519 -0.2804  0.4086
  230MPD1    H1 3495   3.896   2.017  15.266 -1.1710  3.3276  1.9584
  230MPD1    H2 3496   4.091   2.189  15.600 -1.1529  0.1374  0.3489
  230MPD1    H3 3497   3.919   2.189  15.429 -0.9641 -0.0414 -0.5062
  230MPD1     N 3498   4.047   1.793  15.266 -0.5285  0.5125  0.2835
  230MPD1    H5 3499   4.107   1.714  15.288 -1.1265 -0.2143 -0.6837
  230MPD1    N1 3500   4.285   1.999  15.631  0.0361  0.1156 -0.0960
  230MPD1    H6 3501   4.363   1.947  15.592 -0.1303  0.0690 -0.3652
  230MPD1    H7 3502   4.317   2.093  15.652  0.5176  0.3901 -2.0283
  231MPD1     C 3503   2.239   3.697  15.841 -0.2663  0.4922  1.0357
  231MPD1    C1 3504   2.231   3.674  15.707  0.2269 -0.1300 -0.2179
  231MPD1    C2 3505   2.337   3.672  15.623 -0.4131  0.4573  0.9449
  231MPD1    C3 3506   2.454   3.716  15.677  0.2358  0.6073 -0.6563
  231MPD1    C4 3507   2.461   3.741  15.812  0.1245  0.0226  0.3407
  231MPD1    C5 3508   2.359   3.729  15.900 -0.0357 -0.1345  0.0830
  231MPD1     H 3509   2.326   3.643  15.519 -2.5058  1.5195  0.8768
  231MPD1    H1 3510   2.556   3.763  15.861 -0.4328 -0.2976  1.5546
  231MPD1    H2 3511   2.150   3.680  15.901 -0.5516  1.6069  0.9347
  231MPD1    H3 3512   2.378   3.724  16.007  0.5599 -0.0635 -0.0200
  231MPD1     N 3513   2.566   3.716  15.591 -0.5733 -0.5204 -0.8596
  231MPD1    H5 3514   2.558   3.690  15.493  3.4990 -0.4391 -1.2150
  231MPD1    N1 3515   2.112   3.613  15.665  0.0581  0.7143 -0.2771
  231MPD1    H6 3516   2.040   3.676  15.701 -1.6033 -0.6465 -1.2188
  231MPD1    H7 3517   2.099   3.617  15.564 -1.1215 -1.7177 -0.2109
  232MPD1     C 3518   4.416   1.710   1.053 -0.1226 -0.2792  0.3601
  232MPD1    C1 3519   4.469   1.591   1.013  0.2568  0.1094 -0.5613
  232MPD1    C2 3520   4.421   1.537   0.892  0.2671 -0.4524  0.8037
  232MPD1    C3 3521   4.313   1.598   0.831 -0.2324 -0.5069 -0.3489
  232MPD1    C4 3522   4.270   1.725   0.866 -0.3594  0.1096  0.7262
  232MPD1    C5 3523   4.321   1.781   0.979 -1.3032 -0.2322 -0.5278
  232MPD1     H 3524   4.472   1.449   0.853 -1.1847 -0.6741 -0.6242
  232MPD1    H1 3525   4.200   1.779   0.804  0.9729  0.4918 -0.4433
  232MPD1    H2 3526   4.449   1.751   1.147 -1.5042 -1.3781  1.3230
  232MPD1    H3 3527   4.274   1.875   1.005  1.7545  0.8938  0.9811
  232MPD1     N 3528   4.265   1.538   0.711 -0.0621 -0.4020  0.0724
  232MPD1    H5 3529   4.298   1.444   0.691 -1.1242 -1.3323  2.6767
  232MPD1    N1 3530   4.590   1.547   1.071  0.3481  0.6023 -0.2976
  232MPD1    H6 3531   4.602   1.587   1.164 -1.3296  1.0136 -0.2664
  232MPD1    H7 3532   4.609   1.447   1.061 -0.3188  0.5301 -0.7925
  233MPD1     C 3533   1.799   4.166   2.962  0.2648 -0.3429 -0.2412
  233MPD1    C1 3534   1.736   4.136   2.837  1.2134 -0.4067 -0.0619
  233MPD1    C2 3535   1.798   4.182   2.724  0.4495  0.0263 -0.2366
  233MPD1    C3 3536   1.926   4.236   2.732  0.3061  0.2104  0.1224
  233MPD1    C4 3537   1.987   4.254   2.853 -1.3286  1.1446 -0.9017
  233MPD1    C5 3538   1.923   4.218   2.969 -0.7780 -0.0140  0.2481
  233MPD1     H 3539   1.750   4.179   2.627 -0.9885  0.9995  0.4658
  233MPD1    H1 3540   2.086   4.299   2.855 -0.5964 -0.3629 -3.0195
  233MPD1    H2 3541   1.748   4.150   3.056  0.3801  0.1999 -0.0903
  233MPD1    H3 3542   1.970   4.239   3.064 -2.2173  3.6121  0.1645
  233MPD1     N 3543   2.000   4.281   2.622  0.4752  0.2091  0.5558
  233MPD1    H5 3544   2.095   4.313   2.640  0.6220  0.5186 -0.8166
  233MPD1    N1 3545   1.616   4.078   2.833  0.4464 -0.1609 -0.4577
  233MPD1    H6 3546   1.605   4.033   2.743 -1.5633  1.5200 -1.0537
  233MPD1    H7 3547   1.604   4.016   2.914 -1.9733  1.2210  0.2278
  234MPD1     C 3548   2.418   3.311   9.321  0.2733 -0.0934 -0.2181
  234MPD1    C1 3549   2.326   3.242   9.243 -0.2766 -0.4574  0.4304
  234MPD1    C2 3550   2.198   3.289   9.234  0.1092 -0.1827 -0.7842
  234MPD1    C3 3551   2.152   3.395   9.299 -0.3125  0.0473  0.1214
  234MPD1    C4 3552   2.235   3.449   9.401 -0.4373 -0.0823  0.1084
  234MPD1    C5 3553   2.367   3.410   9.405  0.0682  0.4787  0.4854
  234MPD1     H 3554   2.134   3.243   9.160  0.3497  1.9923 -2.3339
  234MPD1    H1 3555   2.208   3.532   9.466  1.8582  1.2481 -0.6400
  234MPD1    H2 3556   2.522   3.280   9.325 -0.0639 -1.2748 -0.6389
  234MPD1    H3 3557   2.436   3.463   9.469  0.4529  2.6550 -1.7252
  234MPD1     N 3558   2.014   3.424   9.293  0.0286 -0.5118  0.3578
  234MPD1    H5 3559   1.952   3.364   9.239  0.6966 -0.1069 -0.8733
  234MPD1    N1 3560   2.368   3.147   9.150  0.2344  0.8738 -0.5585
  234MPD1    H6 3561   2.293   3.079   9.140  0.6124  0.4703 -0.6037
  234MPD1    H7 3562   2.453   3.097   9.172  0.8120  2.0170 -0.1989
  235MPD1     C 3563   3.014   0.028  10.657 -0.3591 -0.1105  0.1340
  235MPD1    C1 3564   2.978   0.120  10.565  0.6132 -0.6365  0.3906
  235MPD1    C2 3565   3.043   0.245  10.547 -0.6986  0.0791  0.4983
  235MPD1    C3 3566   3.138   0.286  10.637  0.2451  0.0926 -0.2309
  235MPD1    C4 3567   3.166   0.195  10.739  0.0517 -0.5013 -0.0246
  235MPD1    C5 3568   3.101   0.072  10.751 -0.8778 -1.3247 -0.4782
  235MPD1     H 3569   3.025   0.294  10.452  0.8524 -0.8630 -0.2845
  235MPD1    H1 3570   3.238   0.217  10.816  0.9795 -1.8213 -0.4964
  235MPD1    H2 3571   2.981   4.646  10.665 -2.0186  0.3325 -0.8655
  235MPD1    H3 3572   3.145   0.011  10.829  0.3359 -0.0425 -0.1462
  235MPD1     N 3573   3.204   0.409  10.623 -0.6703 -0.0034  0.2817
  235MPD1    H5 3574   3.178   0.471  10.547  2.5568  1.4591  0.3810
  235MPD1    N1 3575   2.880   0.082  10.470  0.2345 -0.1165 -0.3512
  235MPD1    H6 3576   2.826   0.157  10.427  2.2590  0.2427 -2.2586
  235MPD1    H7 3577   2.815   0.020  10.518  1.4648 -0.4979  0.8135
  236MPD1     C 3578   3.131   2.397  10.452  0.9850  0.0722  0.1583
  236MPD1    C1 3579   3.086   2.275  10.499  0.2724 -0.7325 -0.0156
  236MPD1    C2 3580   3.144   2.232  10.612 -0.3997  0.1904  0.0952
  236MPD1    C3 3581   3.226   2.311  10.696 -0.0262  0.2867  0.2860
  236MPD1    C4 3582   3.264   2.436  10.650  0.0077  0.8513 -0.2992
  236MPD1    C5 3583   3.224   2.470  10.523  0.3514 -0.5343  0.8812
  236MPD1     H 3584   3.110   2.132  10.639 -1.7663  0.0870 -1.9467
  236MPD1    H1 3585   3.324   2.511  10.701 -1.1008  0.3723  1.7114
  236MPD1    H2 3586   3.100   2.436  10.356 -0.5735 -1.2781  0.1034
  236MPD1    H3 3587   3.254   2.567  10.486 -2.0802 -0.9140 -2.0915
  236MPD1     N 3588   3.272   2.267  10.823 -0.5090 -0.5094 -0.2309
  236MPD1    H5 3589   3.338   2.321  10.879  0.2474 -1.1758 -0.4816
  236MPD1    N1 3590   3.002   2.203  10.419 -0.2442 -0.8029 -0.7640
  236MPD1    H6 3591   2.943   2.139  10.472  0.2741 -0.3652  0.3470
  236MPD1    H7 3592   2.945   2.260  10.356 -2.3054  0.0798  1.9006
  237MPD1     C 3593   2.789   4.640  15.832  0.2009 -0.2413  0.7190
  237MPD1    C1 3594   2.726   4.617  15.714  0.3897  0.0460 -0.2356
  237MPD1    C2 3595   2.591   4.653  15.708 -0.1631  0.0984  0.2265
  237MPD1    C3 3596   2.520   4.713  15.809 -0.1394  0.2058 -0.1001
  237MPD1    C4 3597   2.591   0.006  15.926  0.0853 -0.0074 -0.4469
  237MPD1    C5 3598   2.724   4.698  15.932  0.0983  1.1399  0.6006
  237MPD1     H 3599   2.540   4.636  15.614 -0.0138 -0.9234  0.3353
  237MPD1    H1 3600   2.547   0.066  16.005  1.5513 -1.9904  1.8680
  237MPD1    H2 3601   2.885   4.595  15.856  2.1634  2.0592 -2.5931
  237MPD1    H3 3602   2.764   4.711  16.032 -0.8791 -0.6839  1.2335
  237MPD1     N 3603   2.378   0.018  15.800  0.0963 -0.2281 -0.0344
  237MPD1    H5 3604   2.326   0.061  15.876  0.3181  1.6430 -0.9587
  237MPD1    N1 3605   2.789   4.558  15.601 -0.0017  0.6802 -0.4340
  237MPD1    H6 3606   2.862   4.492  15.624 -0.0859  1.1660  1.2552
  237MPD1    H7 3607   2.720   4.539  15.529 -0.3024 -0.6003  0.1976
  238MPD1     C 3608   0.094   3.697  15.125  0.0070  0.0632  0.1013
  238MPD1    C1 3609   0.080   3.688  14.988  0.4338 -0.2848 -0.1289
  238MPD1    C2 3610   4.717   3.595  14.931  0.4111  0.3090 -0.4108
  238MPD1    C3 3611   4.643   3.508  15.012 -0.1303  0.2363  0.3948
  238MPD1    C4 3612   4.674   3.505  15.151  0.3289  0.0940  0.4539
  238MPD1    C5 3613   0.041   3.597  15.201  0.8374  0.3110 -0.0557
  238MPD1     H 3614   4.699   3.588  14.824 -0.1438 -2.5291 -0.1424
  238MPD1    H1 3615   4.624   3.447  15.229 -1.2434  0.7678 -0.0467
  238MPD1    H2 3616   0.160   3.772  15.165  1.8416 -0.3812 -2.1001
  238MPD1    H3 3617   0.051   3.591  15.309 -0.1163 -0.6584 -0.0216
  238MPD1     N 3618   4.552   3.407  14.972  0.8667 -0.8007  0.0343
  238MPD1    H5 3619   4.528   3.337  15.042  1.7194  1.5177  2.6595
  238MPD1    N1 3620   0.128   3.792  14.910 -0.4865 -0.1187  0.0211
  238MPD1    H6 3621   0.119   3.766  14.812  2.1074  1.6019 -0.6677
  238MPD1    H7 3622   0.227   3.806  14.928  0.0642 -3.6578 -0.3419
  239MPD1     C 3623   4.478   4.438  15.249 -0.0076 -0.3784  0.5989
  239MPD1    C1 3624   4.349   4.420  15.199 -0.2951 -0.6088  0.5697
  239MPD1    C2 3625   4.332   4.417  15.062  0.6032 -0.3741  0.1889
  239MPD1    C3 3626   4.438   4.453  14.980 -0.2960 -0.3281 -0.2921
  239MPD1    C4 3627   4.560   4.481  15.030 -0.0347 -0.0662 -0.3135
  239MPD1    C5 3628   4.578   4.474  15.171  0.1535  0.1013  0.5060
  239MPD1     H 3629   4.239   4.380  15.020 -0.1934 -0.2436  1.8395
  239MPD1    H1 3630   4.642   4.508  14.965  2.2090  1.6266  3.2369
  239MPD1    H2 3631   4.504   4.448  15.354  0.8708  1.0781  0.2400
  239MPD1    H3 3632   4.673   4.505  15.213  0.4947 -1.2791  0.7378
  239MPD1     N 3633   4.427   4.455  14.839 -0.1159 -0.6125 -0.3612
  239MPD1    H5 3634   4.502   4.503  14.789  0.6943 -0.4080  1.0637
  239MPD1    N1 3635   4.254   4.362  15.284  0.1479  0.5234 -0.0237
  239MPD1    H6 3636   4.158   4.382  15.257  0.2560  0.0422 -0.7846
  239MPD1    H7 3637   4.255   4.392  15.381  2.3655  1.9361 -0.4767
  240MPD1     C 3638   3.194   4.624  13.898 -0.2440 -0.3867 -0.0681
  240MPD1    C1 3639   3.143   4.536  13.996 -0.5031  0.4040  0.3773
  240MPD1    C2 3640   3.223   4.425  14.031 -0.7165  1.4297 -0.3355
  240MPD1    C3 3641   3.349   4.411  13.985  0.5883  0.9203  0.1903
  240MPD1    C4 3642   3.397   4.494  13.887  0.2447  0.4487 -0.3583
  240MPD1    C5 3643   3.315   4.592  13.846 -0.1825 -0.0763  0.4435
  240MPD1     H 3644   3.178   4.355  14.101 -0.1267 -0.1533 -1.5416
  240MPD1    H1 3645   3.500   4.490  13.852  0.0548  0.2897 -0.8798
  240MPD1    H2 3646   3.129   4.702  13.860  1.1149  1.3609  1.2041
  240MPD1    H3 3647   3.360   4.654  13.769  0.4210 -2.9789 -1.5409
  240MPD1     N 3648   3.431   4.312  14.038 -0.4136 -0.4161  0.7487
  240MPD1    H5 3649   3.386   4.268  14.118  0.5936  0.4124  1.7698
  240MPD1    N1 3650   3.010   4.552  14.032  0.6152  0.2222  0.3510
  240MPD1    H6 3651   2.999   4.648  14.065  2.0452 -0.3393  2.4398
  240MPD1    H7 3652   2.974   4.495  14.108  0.1455  0.3446  0.2234
  241MPD1     C 3653   4.370   3.834  14.289 -0.7567 -0.9103 -0.0636
  241MPD1    C1 3654   4.325   3.868  14.159 -0.3913 -0.2224 -0.4494
  241MPD1    C2 3655   4.198   3.909  14.142  0.5582  0.7188  0.1085
  241MPD1    C3 3656   4.107   3.907  14.243  0.3308  0.1548 -0.0094
  241MPD1    C4 3657   4.152   3.882  14.374  0.0452 -0.0720 -0.6942
  241MPD1    C5 3658   4.280   3.840  14.388  0.4089  0.1927  0.0040
  241MPD1     H 3659   4.160   3.936  14.044 -0.7964 -0.3099  0.3440
  241MPD1    H1 3660   4.091   3.878  14.463  0.8263  1.5904 -0.0918
  241MPD1    H2 3661   4.467   3.789  14.308  0.6024  1.6115 -1.0276
  241MPD1    H3 3662   4.318   3.812  14.486  0.6573  1.7735  0.3603
  241MPD1     N 3663   3.972   3.937  14.234 -0.4652 -0.4568  0.4356
  241MPD1    H5 3664   3.913   3.920  14.315 -0.3134 -2.5952  0.1096
  241MPD1    N1 3665   4.418   3.876  14.053 -0.4899 -0.1075  0.6077
  241MPD1    H6 3666   4.376   3.869  13.961 -0.3249  1.1866  0.4290
  241MPD1    H7 3667   4.488   3.802  14.062  0.8502  1.1037  0.2707
  242MPD1     C 3668   3.346   2.349  15.908  0.0399 -1.3599  0.2224
  242MPD1    C1 3669   3.304   2.465  15.850  0.2400 -0.2280  0.0853
  242MPD1    C2 3670   3.372   2.499  15.735 -0.0798 -0.2975 -0.2834
  242MPD1    C3 3671   3.451   2.405  15.672 -0.5961  0.1152  0.6271
  242MPD1    C4 3672   3.488   2.283  15.730  0.3369  0.1454 -0.0187
  242MPD1    C5 3673   3.437   2.260  15.856  0.2783  0.0774  0.4704
  242MPD1     H 3674   3.348   2.592  15.685  3.1484  1.0623  0.6665
  242MPD1    H1 3675   3.551   2.206  15.686  1.2568  0.3494  0.9447
  242MPD1    H2 3676   3.292   2.314  15.996  1.9246 -1.8076  1.1854
  242MPD1    H3 3677   3.452   2.164  15.905  0.7657 -0.1611 -0.1311
  242MPD1     N 3678   3.503   2.424  15.543 -0.0327 -0.4148  0.0005
  242MPD1    H5 3679   3.569   2.356  15.507  0.3184 -0.2858  0.4060
  242MPD1    N1 3680   3.233   2.562  15.925 -0.5131 -0.3515  0.8061
  242MPD1    H6 3681   3.159   2.514  15.977  1.2166 -1.3062  2.3914
  242MPD1    H7 3682   3.193   2.639  15.872 -0.9210 -0.4728  0.9306
  243MPD1     C 3683   4.220   0.908   0.267  0.3147 -0.3389 -0.2578
  243MPD1    C1 3684   4.316   0.895   0.358 -0.7581  0.9708  0.5271
  243MPD1    C2 3685   4.436   0.830   0.323 -0.4704  0.6251  0.8275
  243MPD1    C3 3686   4.440   0.771   0.194 -0.4126 -0.3379 -0.2679
  243MPD1    C4 3687   4.327   0.763   0.117 -0.3552  0.1079  0.4656
  243MPD1    C5 3688   4.217   0.836   0.150 -0.4103 -0.4042  0.4954
  243MPD1     H 3689   4.526   0.819   0.382 -0.0239  2.2784  0.4531
  243MPD1    H1 3690   4.325   0.707   0.024 -3.4167  1.2168 -0.1339
  243MPD1    H2 3691   4.135   0.972   0.289  0.6854  0.0105  0.1575
  243MPD1    H3 3692   4.129   0.847   0.087 -0.8837 -3.0763  0.6989
  243MPD1     N 3693   4.569   0.716   0.164  0.1505 -0.2753 -0.1173
  243MPD1    H5 3694   4.646   0.721   0.230  2.6047  0.8993 -3.0786
  243MPD1    N1 3695   4.310   0.972   0.479  0.0532  0.2718 -0.3841
  243MPD1    H6 3696   4.212   0.982   0.504  0.0070  0.4133 -0.6240
  243MPD1    H7 3697   4.350   0.920   0.557 -0.9171  0.4084  0.1959
  244MPD1     C 3698   0.482   0.563   0.668 -0.6966  0.1827  0.3855
  244MPD1    C1 3699   0.388   0.653   0.655 -0.4270 -0.4862 -0.0404
  244MPD1    C2 3700   0.330   0.652   0.531  0.0888 -0.1423 -0.2567
  244MPD1    C3 3701   0.344   0.545   0.437  0.0182 -0.5266  0.1109
  244MPD1    C4 3702   0.422   0.438   0.471  0.3176  0.0982 -1.0168
  244MPD1    C5 3703   0.499   0.457   0.579  0.3130  0.7431  0.1711
  244MPD1     H 3704   0.272   0.740   0.507 -2.5587 -1.4682  1.2521
  244MPD1    H1 3705   0.440   0.355   0.404  0.6064 -0.0825 -0.7119
  244MPD1    H2 3706   0.548   0.566   0.754  0.2559  2.3619 -0.4359
  244MPD1    H3 3707   0.567   0.377   0.607  1.0032  1.7173  1.2631
  244MPD1     N 3708   0.263   0.549   0.320 -0.1311  0.7296 -0.7014
  244MPD1    H5 3709   0.195   0.622   0.300 -0.7770  0.2501 -0.2711
  244MPD1    N1 3710   0.377   0.761   0.744 -0.5222  0.2831  0.0176
  244MPD1    H6 3711   0.388   0.741   0.843  3.0063 -0.4792 -0.5510
  244MPD1    H7 3712   0.289   0.812   0.738  0.3193  1.8496  0.9689
  245MPD1     C 3713   1.946   1.534  13.346  0.2168  0.0497  0.3061
  245MPD1    C1 3714   2.080   1.535  13.344 -0.3242  0.5072  0.6747
  245MPD1    C2 3715   2.143   1.640  13.399 -0.0376 -0.3103  0.3550
  245MPD1    C3 3716   2.072   1.747  13.446 -0.4092  1.0873  0.7531
  245MPD1    C4 3717   1.932   1.752  13.433  0.3570  0.2303  0.0620
  245MPD1    C5 3718   1.875   1.642  13.381 -0.9544  0.7590 -0.0680
  245MPD1     H 3719   2.248   1.624  13.417 -0.1849  0.7641  2.2327
  245MPD1    H1 3720   1.868   1.831  13.469  0.9026  1.1208 -0.9336
  245MPD1    H2 3721   1.889   1.447  13.316  0.1126  0.6463 -1.2443
  245MPD1    H3 3722   1.768   1.635  13.363 -0.6423  1.7331 -2.3568
  245MPD1     N 3723   2.153   1.855  13.495 -0.5773  0.2683  0.1032
  245MPD1    H5 3724   2.254   1.851  13.491 -0.3388  3.5151  3.1823
  245MPD1    N1 3725   2.148   1.419  13.312 -0.0612 -0.5050 -0.1460
  245MPD1    H6 3726   2.121   1.382  13.222 -1.4473 -0.6035  0.3092
  245MPD1    H7 3727   2.244   1.450  13.304 -0.3397 -0.1229 -1.8956
  246MPD1     C 3728   1.986   0.418   9.119  0.0933 -0.5922  0.0035
  246MPD1    C1 3729   1.893   0.509   9.155 -0.4329 -0.2234  0.4603
  246MPD1    C2 3730   1.942   0.627   9.197 -0.0311 -0.3736  0.6561
  246MPD1    C3 3731   2.082   0.654   9.191 -0.0241  0.1476  0.2374
  246MPD1    C4 3732   2.169   0.556   9.150 -0.3259 -0.1883  0.5716
  246MPD1    C5 3733   2.117   0.442   9.111 -0.5030  0.4920  0.6897
  246MPD1     H 3734   1.872   0.707   9.218  0.7972  0.6514 -0.4902
  246MPD1    H1 3735   2.273   0.553   9.181 -0.3914  0.2951  0.8283
  246MPD1    H2 3736   1.953   0.319   9.091  0.4460 -0.5954 -0.4088
  246MPD1    H3 3737   2.186   0.359   9.103 -0.8089  0.3019  0.0735
  246MPD1     N 3738   2.126   0.773   9.246  0.0608 -0.0216 -0.9633
  246MPD1    H5 3739   2.052   0.836   9.277 -0.0035 -0.5224 -0.0792
  246MPD1    N1 3740   1.762   0.479   9.143 -0.1683 -0.6032 -0.2359
  246MPD1    H6 3741   1.747   0.380   9.160 -0.0584 -0.3817  1.1896
  246MPD1    H7 3742   1.706   0.534   9.208 -0.1003  0.2623 -0.9041
  247MPD1     C 3743   1.804   0.937  16.914  0.3561  0.0424 -0.3465
  247MPD1    C1 3744   1.855   0.907  16.792  0.5103 -0.3798  0.0626
  247MPD1    C2 3745   1.869   1.003  16.700  0.1844 -0.1401  0.1301
  247MPD1    C3 3746   1.797   1.117  16.713  0.0388  0.6234 -0.1236
  247MPD1    C4 3747   1.739   1.151  16.831  0.6006 -0.0833 -0.2663
  247MPD1    C5 3748   1.758   1.060  16.937  0.1075  0.8427 -0.4423
  247MPD1     H 3749   1.927   0.975  16.613 -0.9508 -1.5694 -0.1677
  247MPD1    H1 3750   1.694   1.248  16.851  0.6171 -0.1246 -0.0329
  247MPD1    H2 3751   1.821   0.865  16.993  0.1210  3.1771  2.5463
  247MPD1    H3 3752   1.730   1.100  17.033  2.3135  1.8255 -0.2003
  247MPD1     N 3753   1.780   1.205  16.603  0.0933 -0.5904 -0.1919
  247MPD1    H5 3754   1.723   1.287  16.621 -0.9463 -1.0148 -1.5028
  247MPD1    N1 3755   1.924   0.785  16.770  0.2430 -0.5488  0.2689
  247MPD1    H6 3756   1.918   0.751  16.674 -0.3525  0.6641 -0.1320
  247MPD1    H7 3757   1.870   0.723  16.829 -0.2190  1.2759  1.7540
  248MPD1     C 3758   3.254   0.431   0.037 -0.4153  0.6064  0.8580
  248MPD1    C1 3759   3.278   0.379   0.158  0.7212  0.2680  0.1125
  248MPD1    C2 3760   3.187   0.402   0.259 -0.0236 -0.0413 -0.2868
  248MPD1    C3 3761   3.077   0.487   0.242 -0.5426  0.3928  1.5121
  248MPD1    C4 3762   3.056   0.547   0.122 -0.3319 -0.5282 -0.4637
  248MPD1    C5 3763   3.147   0.517   0.021 -0.0231 -0.3179 -0.6461
  248MPD1     H 3764   3.193   0.341   0.349  0.3354  1.2076  0.5280
  248MPD1    H1 3765   2.968   0.608   0.108 -0.0579 -0.4354 -1.7459
  248MPD1    H2 3766   3.327   0.413  17.646 -0.9813 -1.0428  0.7190
  248MPD1    H3 3767   3.139   0.560  17.609  1.5651 -0.9093 -1.0234
  248MPD1     N 3768   3.002   0.519   0.360  0.0738  0.5110  0.7527
  248MPD1    H5 3769   3.043   0.499   0.451 -0.5658 -0.0269  0.9298
  248MPD1    N1 3770   3.368   0.269   0.168 -0.4950  0.1465  0.7180
  248MPD1    H6 3771   3.411   0.262   0.260 -0.4438  0.2608  0.7038
  248MPD1    H7 3772   3.440   0.268   0.097 -0.9921  1.5133  0.1836
  249MPD1     C 3773   3.603   3.704   9.621  0.1286 -0.3917  0.5065
  249MPD1    C1 3774   3.616   3.687   9.761 -0.8491  0.5422 -0.1747
  249MPD1    C2 3775   3.653   3.790   9.838 -1.0263 -0.4926  0.3470
  249MPD1    C3 3776   3.690   3.914   9.781  0.0951 -0.3065 -0.1076
  249MPD1    C4 3777   3.682   3.925   9.641  0.5181  0.0677 -0.1895
  249MPD1    C5 3778   3.641   3.821   9.561  0.2364  1.0929 -0.4248
  249MPD1     H 3779   3.651   3.767   9.944 -0.5148  0.0708  0.4838
  249MPD1    H1 3780   3.724   4.010   9.588 -1.7891  1.0899 -0.3826
  249MPD1    H2 3781   3.578   3.619   9.559 -1.3898 -0.9446  1.9034
  249MPD1    H3 3782   3.643   3.827   9.453 -0.2695  0.3544 -0.4686
  249MPD1     N 3783   3.736   4.019   9.867  0.5665 -0.3807 -0.0443
  249MPD1    H5 3784   3.772   3.994   9.958  1.3425 -0.4624 -0.3679
  249MPD1    N1 3785   3.564   3.567   9.817 -0.0607 -0.3453 -0.2350
  249MPD1    H6 3786   3.569   3.489   9.752 -0.7141 -1.2345  0.7758
  249MPD1    H7 3787   3.587   3.525   9.908 -1.6979 -2.0886 -0.6150
  250MPD2     C 3788   0.321   0.175  13.362 -0.1072 -1.3767 -0.3816
  250MPD2    C1 3789   0.327   0.218  13.232  0.6561 -0.5163 -0.4619
  250MPD2    C2 3790   0.234   0.161  13.147 -0.4592  0.8667 -0.2732
  250MPD2    C3 3791   0.137   0.072  13.196  0.0329 -0.1098 -0.2698
  250MPD2    C4 3792   0.130   0.036  13.328 -0.2292  0.4756  0.6085
  250MPD2    C5 3793   0.227   0.083  13.412  0.2438  0.3573  0.3059
  250MPD2     H 3794   0.229   0.184  13.041  1.3968  1.5616 -0.2097
  250MPD2    H1 3795   0.051   4.695  13.369 -0.4066  0.3951  0.1495
  250MPD2    H2 3796   0.389   0.223  13.431  0.1846 -1.5485 -0.5488
  250MPD2    H3 3797   0.218   0.058  13.517  0.7808  0.1000  0.2894
  250MPD2     N 3798   0.043   0.009  13.108 -0.0905  0.3963  0.1942
  250MPD2    H5 3799   4.702   4.663  13.151  1.1587 -1.7254 -1.2955
  250MPD2    N1 3800   0.422   0.318  13.196  0.7799  0.0069  0.2369
  250MPD2    H7 3801   0.478   0.350  13.274  0.6482  1.3064 -0.2067
  251TMC3    C1 3802   0.583   0.424  13.065  0.8232 -0.1718 -0.1042
  251TMC3    C2 3803   0.584   0.526  13.157 -0.8539 -0.9944  0.0493
  251TMC3    C3 3804   0.704   0.584  13.191 -0.4997 -0.2277 -0.9276
  251TMC3    C4 3805   0.700   0.381  13.009 -0.0719  0.6668 -0.1668
  251TMC3    C5 3806   0.817   0.433  13.055  0.1569  0.7106 -0.5253
  251TMC3    C6 3807   0.830   0.536  13.144 -0.7266  0.0099 -0.2749
  251TMC3     C 3808   0.469   0.341  13.066 -0.1920  0.3921 -0.4233
  251TMC3     O 3809   0.438   0.286  12.962  0.6735 -0.1706  0.1066
  251TMC3     H 3810   0.499   0.583  13.193 -0.9831 -1.5488  0.6319
  251TMC3    H1 3811   0.691   0.291  12.950  0.3278 -1.6670  3.3831
  251TMC3    H2 3812   0.926   0.562  13.186  0.7347  0.0970 -3.6732
  251TMC3    C7 3813   0.944   0.361  13.011  0.6984 -0.3252  0.5835
  251TMC3    C8 3814   0.708   0.681  13.296  1.1602  0.1099 -0.4380
  251TMC3    O1 3815   0.933   0.250  12.958 -0.3425 -0.3656 -0.1410
  251TMC3    O2 3816   0.639   0.665  13.398  0.0263 -0.5071  0.0549
  252TMC3    C1 3817   1.117   0.685   9.699  0.6103 -0.3722 -0.1662
  252TMC3    C2 3818   1.239   0.663   9.645 -0.6980 -0.0235  0.0271
  252TMC3    C3 3819   1.346   0.706   9.713  0.2911 -0.7052 -0.1859
  252TMC3    C4 3820   1.093   0.758   9.814  0.2341  1.0007  0.1233
  252TMC3    C5 3821   1.212   0.798   9.880 -0.7581 -0.9458 -0.0319
  252TMC3    C6 3822   1.338   0.768   9.836 -0.2804  0.6201 -0.3266
  252TMC3     C 3823   1.001   0.616   9.648  0.2422 -0.4256  0.5798
  252TMC3     O 3824   0.895   0.642   9.702 -0.8561 -0.8151  0.2215
  252TMC3     H 3825   1.253   0.612   9.550 -1.1036 -2.0772  1.0773
  252TMC3    H1 3826   0.994   0.771   9.857 -1.5458 -2.5077 -2.8645
  252TMC3    H2 3827   1.420   0.819   9.884  0.1101  1.2689 -1.6802
  252TMC3    C7 3828   1.207   0.846  10.017  0.2118 -0.7065  0.2486
  252TMC3    C8 3829   1.478   0.684   9.661 -0.4813 -0.7461  0.5422
  252TMC3    O1 3830   1.303   0.906  10.062 -0.2385  0.7198  0.7782
  252TMC3    O2 3831   1.498   0.595   9.576 -0.0717  0.9345 -0.2853
  253MPD2     C 3832   1.946   0.435  15.481  0.8533 -0.6359  0.2394
  253MPD2    C1 3833   1.827   0.383  15.521  0.2932 -0.2748 -0.3480
  253MPD2    C2 3834   1.808   0.356  15.657 -0.0394  0.6957 -0.4367
  253MPD2    C3 3835   1.915   0.364  15.745 -0.7143  0.4639  0.5508
  253MPD2    C4 3836   2.042   0.405  15.694  0.3624  1.0719 -0.1693
  253MPD2    C5 3837   2.054   0.443  15.564  0.3921 -0.2170  0.5802
  253MPD2     H 3838   1.709   0.321  15.684  0.0075  2.0139  1.4157
  253MPD2    H1 3839   2.128   0.413  15.760 -0.0695  0.5951  0.4537
  253MPD2    H2 3840   1.964   0.469  15.379  0.5577 -0.5257  0.2224
  253MPD2    H3 3841   2.149   0.475  15.521 -1.8396  2.4124 -2.3606
  253MPD2     N 3842   1.911   0.333  15.884  0.5227 -0.4460 -0.2434
  253MPD2    H5 3843   1.992   0.336  15.945 -1.3442 -1.8635  2.2967
  253MPD2    N1 3844   1.717   0.364  15.439  0.0348 -0.3055  0.1610
  253MPD2    H7 3845   1.631   0.348  15.490  1.4309 -1.3634  2.1671
  254TMC3    C1 3846   1.802   0.305  16.088 -0.0626 -0.0436 -0.3773
  254TMC3    C2 3847   1.683   0.309  16.156  0.2869  0.5783 -0.1905
  254TMC3    C3 3848   1.689   0.335  16.289  0.4868  0.1470 -0.1643
  254TMC3    C4 3849   1.919   0.311  16.160  0.4350 -0.4081 -0.4042
  254TMC3    C5 3850   1.923   0.335  16.295 -0.2791  0.1231  0.4888
  254TMC3    C6 3851   1.802   0.351  16.363  0.1925 -0.0305  0.2357
  254TMC3     C 3852   1.789   0.307  15.943 -0.4057  0.1899 -0.1336
  254TMC3     O 3853   1.682   0.285  15.891  0.7132  0.3919  0.0571
  254TMC3     H 3854   1.590   0.282  16.107 -0.1272  1.2858  0.1981
  254TMC3    H1 3855   2.014   0.286  16.114  0.8931  2.1181 -0.8296
  254TMC3    H2 3856   1.809   0.362  16.471 -0.4619 -0.5819  0.3393
  254TMC3    C7 3857   2.039   0.302  16.368 -0.2773  0.4100 -0.1328
  254TMC3    C8 3858   1.568   0.344  16.362 -0.3193  0.1775 -0.5572
  254TMC3    O1 3859   2.017   0.259  16.483  0.1472 -0.9434  0.0210
  254TMC3    O2 3860   1.570   0.322  16.485  0.1950  0.3013 -0.0342
  255MPD2     C 3861   0.028   2.761  10.428 -0.0403  0.0633 -0.0368
  255MPD2    C1 3862   0.140   2.849  10.432  0.5705  0.2818 -0.3884
  255MPD2    C2 3863   0.266   2.801  10.467  0.4064 -0.2581 -0.0743
  255MPD2    C3 3864   0.277   2.668  10.506  0.7494 -0.0762 -0.0903
  255MPD2    C4 3865   0.168   2.578  10.490 -0.3329 -0.1204 -0.0619
  255MPD2    C5 3866   0.049   2.629  10.460 -0.3038 -0.1362 -0.1539
  255MPD2     H 3867   0.355   2.863  10.463 -0.3767  0.9246  0.9181
  255MPD2    H1 3868   0.173   2.470  10.501  0.1712 -0.1510 -0.6040
  255MPD2    H2 3869   4.652   2.801  10.401 -0.2523 -0.6776 -0.3736
  255MPD2    H3 3870   4.692   2.556  10.446  1.4038 -1.9683 -0.2550
  255MPD2     N 3871   0.408   2.624  10.544 -0.0235 -0.4964  0.6526
  255MPD2    H5 3872   0.490   2.682  10.530  1.5697 -2.7680  0.6042
  255MPD2    N1 3873   0.111   2.982  10.397  0.7359 -0.0658  0.1727
  255MPD2    H7 3874   0.018   3.016  10.377  2.1271  2.9077 -1.2781
  256TMC3    C1 3875   0.152   3.211  10.335 -0.5400 -0.5440  0.0636
  256TMC3    C2 3876   0.251   3.258  10.248 -0.0318 -0.8939 -0.8719
  256TMC3    C3 3877   0.215   3.279  10.121 -0.0974  0.5631 -0.1370
  256TMC3    C4 3878   0.021   3.204  10.295 -0.8215  0.8051  0.0108
  256TMC3    C5 3879   4.711   3.230  10.167  0.1330  0.5163  0.1928
  256TMC3    C6 3880   0.088   3.258  10.078  0.1535 -0.3811  0.7151
  256TMC3     C 3881   0.205   3.085  10.384  0.1617  0.0051  0.0330
  256TMC3     O 3882   0.327   3.072  10.392  0.5251  0.7396 -0.4788
  256TMC3     H 3883   0.352   3.274  10.284 -0.7944 -0.7069  1.2214
  256TMC3    H1 3884   4.673   3.177  10.374  1.2559 -0.0199  1.5381
  256TMC3    H2 3885   0.055   3.280   9.977  1.0984  0.3240  0.5622
  256TMC3    C7 3886   4.616   3.140  10.107  0.0855  0.1488 -0.5564
  256TMC3    C8 3887   0.315   3.292  10.020 -0.1174  0.1113 -0.0177
  256TMC3    O1 3888   4.650   3.087  10.002  0.1074  0.5768  0.1761
  256TMC3    O2 3889   0.427   3.246  10.043  0.0231  0.5770  0.0511
  257MPD2     C 3890   4.234   0.482  13.428 -0.6168 -0.0586  0.6131
  257MPD2    C1 3891   4.211   0.376  13.351  0.6732 -0.1834 -0.0791
  257MPD2    C2 3892   4.205   0.247  13.403  0.1400  0.0025  0.6347
  257MPD2    C3 3893   4.222   0.226  13.538 -1.2287 -0.8449 -0.3746
  257MPD2    C4 3894   4.236   0.341  13.617 -0.4188 -0.7546 -0.7314
  257MPD2    C5 3895   4.250   0.461  13.559 -0.0317  0.0256 -0.5280
  257MPD2     H 3896   4.187   0.166  13.334  0.8432 -0.5950  1.1536
  257MPD2    H1 3897   4.246   0.334  13.725 -0.7590 -3.5896 -0.8820
  257MPD2    H2 3898   4.228   0.586  13.398 -2.8569 -0.4643 -0.3621
  257MPD2    H3 3899   4.260   0.553  13.615 -0.2078 -1.1435  1.4144
  257MPD2     N 3900   4.213   0.099  13.591 -0.5174  0.1304 -0.0316
  257MPD2    H5 3901   4.169   0.032  13.529 -0.1208 -2.4873  2.5275
  257MPD2    N1 3902   4.183   0.412  13.217  0.2679  0.3634  0.1368
  257MPD2    H7 3903   4.168   0.512  13.207  0.4052  0.7905  4.2259
  258TMC3    C1 3904   4.224   4.639  13.718  0.5022  0.4748  0.6808
  258TMC3    C2 3905   4.240   4.559  13.609  0.4785 -0.1497 -0.1500
  258TMC3    C3 3906   4.223   4.423  13.628 -0.0672  0.1361 -0.2868
  258TMC3    C4 3907   4.217   4.581  13.841  0.0885 -0.1323 -0.4403
  258TMC3    C5 3908   4.190   4.446  13.851  0.5540 -0.2142 -0.2242
  258TMC3    C6 3909   4.181   4.356  13.744 -0.1654  0.2257  0.2240
  258TMC3     C 3910   4.247   0.059  13.715  0.0129 -0.4039 -0.7829
  258TMC3     O 3911   4.325   0.108  13.796 -0.7841 -0.0034  0.6662
  258TMC3     H 3912   4.272   4.594  13.512 -0.1392  2.5603  0.6218
  258TMC3    H1 3913   4.229   4.641  13.930 -0.3215 -1.3623  0.4373
  258TMC3    H2 3914   4.184   4.248  13.756 -0.6035  0.5303  3.0837
  258TMC3    C7 3915   4.153   4.392  13.980  1.0636 -0.7256  0.3895
  258TMC3    C8 3916   4.236   4.348  13.512  0.1134  0.9496  0.6102
  258TMC3    O1 3917   4.058   4.453  14.032  0.2354  0.5433 -0.4458
  258TMC3    O2 3918   4.313   4.390  13.423  0.1374  0.4395 -0.3400
  259MPD2     C 3919   3.561   1.895   1.315 -0.3414  0.3194 -0.0637
  259MPD2    C1 3920   3.485   1.781   1.307  0.4946 -0.0284  0.1692
  259MPD2    C2 3921   3.459   1.720   1.184  0.7959 -0.5124 -0.1581
  259MPD2    C3 3922   3.484   1.789   1.068  0.9024 -0.3117 -0.3149
  259MPD2    C4 3923   3.554   1.909   1.076  0.1960  0.1688 -1.0769
  259MPD2    C5 3924   3.594   1.964   1.200  0.0832 -0.5519 -0.0425
  259MPD2     H 3925   3.404   1.629   1.165  2.8204 -1.8203  0.2126
  259MPD2    H1 3926   3.582   1.963   0.986 -1.0281  0.9889 -0.9759
  259MPD2    H2 3927   3.590   1.932   1.413  1.3695 -1.2225  0.0184
  259MPD2    H3 3928   3.630   2.066   1.213 -1.3005  0.0256 -0.7525
  259MPD2     N 3929   3.433   1.748   0.941 -0.1823  0.1924  0.2878
  259MPD2    H5 3930   3.403   1.651   0.938  1.6403 -0.4183  1.8515
  259MPD2    N1 3931   3.441   1.727   1.430 -0.1514  0.4259 -0.6648
  259MPD2    H7 3932   3.458   1.783   1.513  1.9030  0.8424 -1.3709
  260TMC3    C1 3933   3.349   1.763   0.723  0.0619 -0.1807  0.9826
  260TMC3    C2 3934   3.283   1.846   0.634  0.3385 -0.7377 -0.6001
  260TMC3    C3 3935   3.256   1.794   0.509 -0.8980  0.6962  0.0570
  260TMC3    C4 3936   3.372   1.626   0.700 -0.5493  0.0823  0.0942
  260TMC3    C5 3937   3.324   1.579   0.583 -0.8091 -0.0574  0.2767
  260TMC3    C6 3938   3.271   1.655   0.478 -0.0152 -0.4581  0.2786
  260TMC3     C 3939   3.412   1.832   0.832 -0.6897  0.0983 -0.6005
  260TMC3     O 3940   3.427   1.950   0.820 -0.3474  0.2015  0.1604
  260TMC3     H 3941   3.293   1.954   0.643 -0.9908 -0.5273 -1.5352
  260TMC3    H1 3942   3.419   1.567   0.777 -0.6897  2.4662  2.0325
  260TMC3    H2 3943   3.240   1.612   0.384  0.0507  0.6147 -0.2421
  260TMC3    C7 3944   3.380   1.457   0.535 -0.0366  0.0243  0.0059
  260TMC3    C8 3945   3.326   1.876   0.410 -0.0463  0.1805 -0.3764
  260TMC3    O1 3946   3.405   1.462   0.413 -0.1264 -0.0359 -0.5235
  260TMC3    O2 3947   3.315   1.998   0.420 -0.0266 -0.2476  0.6009
  261MPD2     C 3948   4.466   4.541  12.299  0.6624 -0.1003 -0.0275
  261MPD2    C1 3949   4.542   4.633  12.375  0.0754 -0.3425  0.0441
  261MPD2    C2 3950   4.613   0.002  12.298 -0.5631 -0.1671  0.4275
  261MPD2    C3 3951   4.602   0.006  12.157 -0.9441 -0.1261  0.3175
  261MPD2    C4 3952   4.529   4.632  12.091  0.2187 -0.6323  0.9214
  261MPD2    C5 3953   4.461   4.543  12.164  0.6280 -0.4556  0.3468
  261MPD2     H 3954   4.671   0.078  12.350 -1.2634  2.0198 -1.9700
  261MPD2    H1 3955   4.509   4.630  11.984 -0.8369 -0.2573  1.1034
  261MPD2    H2 3956   4.408   4.461  12.343  0.4111 -0.6358 -1.3277
  261MPD2    H3 3957   4.407   4.464  12.114  2.8029 -1.2955 -0.7001
  261MPD2     N 3958   4.676   0.103  12.083  0.6633 -0.0793 -0.3102
  261MPD2    H5 3959   0.014   0.170  12.130  0.0242  0.6557 -0.5567
  261MPD2    N1 3960   4.555   4.631  12.515  0.1402  0.4740  0.1457
  261MPD2    H7 3961   4.616   4.701  12.556 -0.0605  1.5859 -1.4905
  262TMC3    C1 3962   0.075   0.196  11.895  0.8560  0.6300  0.3764
  262TMC3    C2 3963   0.061   0.321  11.954  0.2876 -0.0248  0.0162
  262TMC3    C3 3964   0.135   0.419  11.900  0.2424 -0.0123  0.3550
  262TMC3    C4 3965   0.145   0.172  11.785 -0.7668 -0.0782  0.3723
  262TMC3    C5 3966   0.202   0.285  11.721  1.1990 -0.9919 -0.7137
  262TMC3    C6 3967   0.200   0.413  11.778  0.0499  0.2988  0.0359
  262TMC3     C 3968   4.709   0.094  11.948 -0.3989 -0.4185  0.0371
  262TMC3     O 3969   4.682   0.003  11.871 -0.2168  0.3433 -0.3338
  262TMC3     H 3970   0.005   0.340  12.045  0.9222 -1.3390  0.6725
  262TMC3    H1 3971   0.153   0.075  11.737 -0.5986 -1.2597  2.8033
  262TMC3    H2 3972   0.259   0.496  11.740  0.1901  0.9474  1.6402
  262TMC3    C7 3973   0.237   0.271  11.582 -0.3520  0.2543  0.0337
  262TMC3    C8 3974   0.129   0.553  11.958 -0.2875  0.2957 -0.1226
  262TMC3    O1 3975   0.205   0.170  11.522  0.5149  0.2558  0.0022
  262TMC3    O2 3976   0.224   0.621  11.930  0.0351  0.2960  0.1182
  263MPD2     C 3977   1.114   4.185  11.501  1.0435  0.1837 -0.4531
  263MPD2    C1 3978   1.222   4.254  11.465 -0.8032 -0.0987 -0.2207
  263MPD2    C2 3979   1.207   4.329  11.343  0.0332 -0.5213 -0.3661
  263MPD2    C3 3980   1.089   4.320  11.271 -0.1788 -0.2066  0.2364
  263MPD2    C4 3981   0.981   4.242  11.313  0.3232 -0.6141  0.2869
  263MPD2    C5 3982   0.997   4.177  11.431  0.1646  0.0273  0.2679
  263MPD2     H 3983   1.297   4.379  11.309  0.8357 -0.1023  2.3434
  263MPD2    H1 3984   0.891   4.231  11.254  0.8843 -0.9663 -0.4997
  263MPD2    H2 3985   1.113   4.128  11.593  0.8290  1.2268  0.1977
  263MPD2    H3 3986   0.918   4.113  11.468  1.1379 -1.4983 -0.3212
  263MPD2     N 3987   1.087   4.398  11.150  0.2728  0.4386 -0.2501
  263MPD2    H5 3988   1.169   4.450  11.122 -0.2886  1.1028 -0.6510
  263MPD2    N1 3989   1.341   4.247  11.548 -0.2509 -0.9306 -0.6208
  263MPD2    H7 3990   1.326   4.194  11.633  1.2718 -0.6194 -0.1451
  264TMC3    C1 3991   1.042   4.490  10.951  0.1255 -0.4262  0.7764
  264TMC3    C2 3992   1.080   4.608  10.996  0.1518 -0.2716  0.5118
  264TMC3    C3 3993   1.180   4.679  10.929  0.2874  0.0408  0.1034
  264TMC3    C4 3994   1.087   4.434  10.831  0.5074  0.3144  0.0744
  264TMC3    C5 3995   1.181   4.506  10.764  0.1610  0.2578 -0.3099
  264TMC3    C6 3996   1.230   4.637  10.811 -0.2508  0.1383  0.0997
  264TMC3     C 3997   0.992   4.403  11.052  0.0080  0.2943 -0.2287
  264TMC3     O 3998   0.879   4.354  11.046 -0.0815  0.6856  0.1135
  264TMC3     H 3999   1.040   4.641  11.091  1.6330  2.0985  0.2970
  264TMC3    H1 4000   1.043   4.341  10.796  0.8185 -0.0579  0.6720
  264TMC3    H2 4001   1.314   4.687  10.765 -0.1798 -2.0880 -2.1913
  264TMC3    C7 4002   1.229   4.455  10.638 -0.1323  0.0093 -0.8606
  264TMC3    C8 4003   1.202   0.098  10.953 -0.0953  0.6218  0.2516
  264TMC3    O1 4004   1.221   4.333  10.618 -0.0131 -0.3994 -0.0011
  264TMC3    O2 4005   1.250   0.156  10.855  0.0662 -0.3592  0.0656
  265MPD2     C 4006   3.202   4.581  15.803  0.5451  1.2322  0.1170
  265MPD2    C1 4007   3.173   4.680  15.716  0.8596  0.0863  0.5720
  265MPD2    C2 4008   3.184   4.663  15.576 -0.4653 -0.3117  0.0439
  265MPD2    C3 4009   3.220   4.546  15.524 -0.2402  0.5650  0.2311
  265MPD2    C4 4010   3.230   4.442  15.607  0.4049  1.1337  0.8649
  265MPD2    C5 4011   3.228   4.461  15.745  0.0350 -0.4909 -0.8628
  265MPD2     H 4012   3.158   0.025  15.512  0.8326 -0.5178 -0.7449
  265MPD2    H1 4013   3.257   4.345  15.567  0.7185  2.1019 -1.2452
  265MPD2    H2 4014   3.201   4.605  15.909 -1.1698 -2.6871  1.0026
  265MPD2    H3 4015   3.246   4.376  15.810 -1.0060  0.9734  1.3381
  265MPD2     N 4016   3.239   4.528  15.386 -0.1508  0.2022 -0.2881
  265MPD2    H5 4017   3.288   4.444  15.357  0.2398  0.2469  0.2562
  265MPD2    N1 4018   3.133   0.090  15.749  0.6091  0.3267  0.1629
  265MPD2    H7 4019   3.129   0.161  15.677 -2.1621 -0.4896 -0.4886
  266TMC3    C1 4020   3.100   0.265  15.890 -0.7723  0.2261 -0.9200
  266TMC3    C2 4021   3.130   0.322  16.007 -0.1106  0.2509 -0.6173
  266TMC3    C3 4022   3.098   0.450  16.031 -0.6265  0.9216 -0.4649
  266TMC3    C4 4023   3.018   0.327  15.797 -0.2795 -0.7241  0.0923
  266TMC3    C5 4024   2.980   0.459  15.822 -0.9258  0.0011 -0.3964
  266TMC3    C6 4025   3.017   0.520  15.942 -0.1196 -0.1169  0.1759
  266TMC3     C 4026   3.116   0.125  15.880  0.2267 -0.6178 -0.0576
  266TMC3     O 4027   3.087   0.058  15.978  0.2215 -0.0450  0.3032
  266TMC3     H 4028   3.199   0.274  16.075 -0.7513 -0.7010 -0.6370
  266TMC3    H1 4029   2.990   0.281  15.704  2.0892 -2.8917  0.4648
  266TMC3    H2 4030   2.986   0.623  15.956  2.0621  0.7677 -1.5611
  266TMC3    C7 4031   2.903   0.530  15.722  0.1138 -0.7621  0.0065
  266TMC3    C8 4032   3.146   0.518  16.149  0.5472 -1.0939  0.2210
  266TMC3    O1 4033   2.879   0.478  15.616  0.6249  0.6584 -0.4183
  266TMC3    O2 4034   3.198   0.447  16.233  0.1823  0.1044  0.3344
  267MPD2     C 4035   1.502   1.111   0.227  0.7371  0.0091 -0.5487
  267MPD2    C1 4036   1.519   1.217   0.143 -0.2693  0.0453 -0.7661
  267MPD2    C2 4037   1.414   1.256   0.066 -0.0417 -0.6604  0.0725
  267MPD2    C3 4038   1.292   1.191   0.076 -0.4491 -0.0657  0.2233
  267MPD2    C4 4039   1.278   1.088   0.167  0.0926  0.2081  0.1134
  267MPD2    C5 4040   1.385   1.050   0.246  0.5467 -0.3259  0.1089
  267MPD2     H 4041   1.417   1.345   0.005  0.0088 -1.1104 -0.5839
  267MPD2    H1 4042   1.177   1.052   0.179  0.2189 -1.1364 -2.8531
  267MPD2    H2 4043   1.581   1.084   0.296  2.0890  3.3694 -0.7340
  267MPD2    H3 4044   1.384   0.968   0.317 -0.5034  0.0066  0.4685
  267MPD2     N 4045   1.181   1.237   0.014  0.2519  0.1150  0.1935
  267MPD2    H5 4046   1.104   1.172   0.024 -0.1287  0.4828 -0.3808
  267MPD2    N1 4047   1.629   1.297   0.163 -0.2322 -0.7637  0.3811
  267MPD2    H7 4048   1.689   1.275   0.241 -0.7850 -0.9884  0.7464
  268TMC3    C1 4049   1.746   1.499   0.125 -0.3409 -0.1256  0.0241
  268TMC3    C2 4050   1.697   1.620   0.074 -0.5934  0.2214  0.1510
  268TMC3    C3 4051   1.705   1.729   0.155  0.7056  0.0327 -0.2432
  268TMC3    C4 4052   1.782   1.486   0.257  0.2319 -0.2461 -0.4130
  268TMC3    C5 4053   1.791   1.605   0.333  0.4350 -0.1573 -0.3943
  268TMC3    C6 4054   1.755   1.724   0.280 -0.1101 -0.5975 -0.2681
  268TMC3     C 4055   1.667   1.390   0.070 -0.6291  0.3335 -0.2487
  268TMC3     O 4056   1.627   1.407  17.642 -0.0023 -0.2316  0.2194
  268TMC3     H 4057   1.669   1.632  17.657  0.0428 -0.3237 -0.0818
  268TMC3    H1 4058   1.830   1.399   0.302 -0.7051 -1.1647 -1.1727
  268TMC3    H2 4059   1.770   1.818   0.332  0.8310  0.0897 -1.8041
  268TMC3    C7 4060   1.787   1.574   0.471  0.6147  0.5732 -0.1004
  268TMC3    C8 4061   1.643   1.850   0.113 -0.4271 -0.5604  0.7678
  268TMC3    O1 4062   1.826   1.469   0.521  0.8553  0.4025 -0.5493
  268TMC3    O2 4063   1.683   1.951   0.166  0.0295 -0.2786 -0.3249
  269MPD2     C 4064   0.761   0.371  15.756 -0.5973 -0.1338  0.7369
  269MPD2    C1 4065   0.655   0.422  15.825  0.3748  0.6098  0.3234
  269MPD2    C2 4066   0.619   0.557  15.794 -0.0685  0.3430 -0.3344
  269MPD2    C3 4067   0.689   0.636  15.708  0.1349 -0.2658  0.9615
  269MPD2    C4 4068   0.802   0.584  15.646 -0.2155  0.5207  0.0140
  269MPD2    C5 4069   0.832   0.448  15.673 -0.6754 -0.8510 -0.4469
  269MPD2     H 4070   0.524   0.597  15.827  0.1717 -0.1097  0.8813
  269MPD2    H1 4071   0.871   0.635  15.580  0.1375  1.3800  1.0331
  269MPD2    H2 4072   0.782   0.265  15.766  0.3585  0.0009  0.0702
  269MPD2    H3 4073   0.927   0.417  15.632 -1.2323 -1.4225 -1.3142
  269MPD2     N 4074   0.646   0.773  15.688 -0.1663 -0.5127  0.6570
  269MPD2    H5 4075   0.587   0.811  15.761  0.4118 -0.6347  1.1812
  269MPD2    N1 4076   0.599   0.349  15.921  0.1482 -0.1306 -0.3688
  269MPD2    H7 4077   0.637   0.256  15.934 -2.4099 -1.0050  0.8281
  270TMC3    C1 4078   0.419   0.264  16.049  0.4993  0.1464  0.4189
  270TMC3    C2 4079   0.292   0.253  16.011 -1.0007 -0.3176  0.1689
  270TMC3    C3 4080   0.228   0.133  16.026  0.1281  0.5210  0.7041
  270TMC3    C4 4081   0.498   0.163  16.105  0.9922  0.4120 -0.3496
  270TMC3    C5 4082   0.425   0.047  16.124  0.0123  0.2401 -0.6383
  270TMC3    C6 4083   0.294   0.027  16.076 -0.2067  0.0648 -0.3620
  270TMC3     C 4084   0.482   0.381  15.986  0.5185  0.3969 -0.1471
  270TMC3     O 4085   0.410   0.482  15.969  0.0244  0.0438  0.0383
  270TMC3     H 4086   0.236   0.336  15.969 -0.1624 -0.2647 -0.8566
  270TMC3    H1 4087   0.602   0.170  16.133  1.4008  0.4241 -1.8821
  270TMC3    H2 4088   0.258   4.647  16.060  0.7681 -0.5245  1.2228
  270TMC3    C7 4089   0.509   4.656  16.152  0.3088  0.6657  0.6823
  270TMC3    C8 4090   0.149   0.116  15.907  0.5471  0.1940  0.4257
  270TMC3    O1 4091   0.627   4.668  16.118 -0.0468  0.2331 -0.4446
  270TMC3    O2 4092   0.046   0.181  15.896  0.6672 -0.0839 -1.1061
  271MPD2     C 4093   0.097   0.164  14.069 -0.3769 -0.8926 -0.2752
  271MPD2    C1 4094   0.008   0.142  14.167  0.2832 -0.3643  0.6058
  271MPD2    C2 4095   4.607   0.201  14.157 -1.0298 -0.1004 -0.1290
  271MPD2    C3 4096   4.575   0.276  14.045  0.4269  0.6274  0.1745
  271MPD2    C4 4097   4.673   0.322  13.960 -0.3255 -0.4070 -0.5051
  271MPD2    C5 4098   0.072   0.258  13.971 -0.6395 -1.0072  0.7880
  271MPD2     H 4099   4.543   0.186  14.244 -0.0284 -0.5214  0.5359
  271MPD2    H1 4100   4.646   0.388  13.878  2.3549 -2.4778 -3.0240
  271MPD2    H2 4101   0.193   0.113  14.064  0.6473  1.0106 -0.2473
  271MPD2    H3 4102   0.156   0.290  13.910 -1.2062  0.1993  0.6424
  271MPD2     N 4103   4.446   0.325  14.034  0.6071 -0.4157 -0.0402
  271MPD2    H5 4104   4.436   0.395  13.961 -0.0444  0.0281  0.4837
  271MPD2    N1 4105   0.035   0.058  14.280 -0.0236 -1.0842 -0.1966
  271MPD2    H7 4106   4.688   0.070  14.354  0.4478 -1.9382  0.3781
  272TMC3    C1 4107   0.127   4.594  14.411  0.9538 -0.0850  0.4696
  272TMC3    C2 4108   0.227   4.502  14.419  0.3049  0.1972 -0.0456
  272TMC3    C3 4109   0.280   4.470  14.546 -0.6468 -0.2162  0.1773
  272TMC3    C4 4110   0.074   4.644  14.520 -0.0115  0.0158  0.1035
  272TMC3    C5 4111   0.123   4.604  14.640  0.6320  0.4164 -0.2584
  272TMC3    C6 4112   0.224   4.519  14.663  0.8957 -0.4445 -0.0504
  272TMC3     C 4113   0.130   4.678  14.287 -0.4727 -0.9184  0.1803
  272TMC3     O 4114   0.215   4.647  14.207 -0.2563  0.1369  1.2926
  272TMC3     H 4115   0.270   4.454  14.331 -0.1472 -0.2331 -0.0313
  272TMC3    H1 4116   4.711   4.712  14.516  0.4830  0.4912 -1.9494
  272TMC3    H2 4117   0.255   4.490  14.763  0.3844 -0.5408  0.0797
  272TMC3    C7 4118   0.037   4.634  14.750  0.4092  0.0897 -0.3892
  272TMC3    C8 4119   0.412   4.424  14.542  0.0343  0.1933 -0.4180
  272TMC3    O1 4120   4.641   4.622  14.720 -0.1988  0.0250  0.3201
  272TMC3    O2 4121   0.469   4.429  14.435 -0.7609 -0.0479 -0.5603
  273MPD2     C 4122   1.732   3.226  11.998  0.2624 -0.2839  0.3478
  273MPD2    C1 4123   1.806   3.308  11.916 -0.0564  0.6429  0.0136
  273MPD2    C2 4124   1.769   3.307  11.781 -0.9417  0.3040  1.4142
  273MPD2    C3 4125   1.684   3.211  11.733  0.3642 -0.4469  0.3578
  273MPD2    C4 4126   1.615   3.132  11.817 -0.0510  0.2395  0.8579
  273MPD2    C5 4127   1.641   3.139  11.948 -0.4102  0.1831  0.0858
  273MPD2     H 4128   1.820   3.383  11.722 -0.1428 -0.6646  0.8514
  273MPD2    H1 4129   1.539   3.068  11.774  2.8157  0.2844 -4.1925
  273MPD2    H2 4130   1.734   3.228  12.107 -0.8344  0.8893  0.3467
  273MPD2    H3 4131   1.569   3.087  12.010 -0.8271  0.3959 -0.2170
  273MPD2     N 4132   1.656   3.205  11.593  0.3448 -0.0769  0.1887
  273MPD2    H5 4133   1.571   3.158  11.562  1.4912  0.0904 -3.1654
  273MPD2    N1 4134   1.899   3.387  11.983  0.3583  0.5491  0.5951
  273MPD2    H7 4135   1.921   3.363  12.079 -0.1102  0.3839  0.6578
  274TMC3    C1 4136   1.688   3.248  11.359 -0.3671 -0.3727 -0.3250
  274TMC3    C2 4137   1.552   3.227  11.346  0.2418 -0.2752 -0.4542
  274TMC3    C3 4138   1.500   3.255  11.226 -0.1782  0.1803  0.4798
  274TMC3    C4 4139   1.768   3.308  11.265 -0.2572  0.2225  0.7781
  274TMC3    C5 4140   1.702   3.345  11.153  0.3146  0.8912 -0.0188
  274TMC3    C6 4141   1.576   3.308  11.126  0.1934  0.1505 -0.3793
  274TMC3     C 4142   1.745   3.252  11.498  0.2382  0.1310  0.8637
  274TMC3     O 4143   1.858   3.291  11.512 -0.1960  0.6509 -0.1452
  274TMC3     H 4144   1.487   3.188  11.423  0.1698  0.3267 -0.2137
  274TMC3    H1 4145   1.872   3.334  11.283  0.1224 -0.8500  0.1328
  274TMC3    H2 4146   1.537   3.363  11.041  1.8202  2.6148  0.5057
  274TMC3    C7 4147   1.746   3.473  11.100 -0.0601  0.6863 -0.4777
  274TMC3    C8 4148   1.362   3.229  11.207 -0.0516  0.2226  0.4729
  274TMC3    O1 4149   1.759   3.489  10.977  0.2393  0.7173 -0.0664
  274TMC3    O2 4150   1.294   3.199  11.302  0.8126  0.2297  0.2420
  275MPD2     C 4151   1.582   0.890  14.323  0.1295  0.0332 -0.5011
  275MPD2    C1 4152   1.548   0.899  14.454  0.1953  0.2429 -0.6388
  275MPD2    C2 4153   1.464   0.810  14.516 -0.0144 -0.6165  0.3408
  275MPD2    C3 4154   1.408   0.715  14.432  0.3532  0.1529  0.2380
  275MPD2    C4 4155   1.434   0.703  14.297 -0.0036 -0.0553 -0.1767
  275MPD2    C5 4156   1.522   0.793  14.244 -0.6041 -0.4221 -0.2001
  275MPD2     H 4157   1.433   0.819  14.619  1.7147 -0.9225  0.8855
  275MPD2    H1 4158   1.394   0.616  14.247 -0.6077  0.3420 -0.3824
  275MPD2    H2 4159   1.635   0.967  14.268  0.5859 -0.7027 -1.0896
  275MPD2    H3 4160   1.537   0.782  14.137 -1.3044  2.4678 -0.5950
  275MPD2     N 4161   1.298   0.638  14.482 -0.0386 -0.0127  0.3516
  275MPD2    H5 4162   1.213   0.621  14.429 -1.3151  1.7517  1.8211
  275MPD2    N1 4163   1.599   1.002  14.538  0.2459  0.3074 -0.3095
  275MPD2    H7 4164   1.567   1.001  14.635  0.5153 -1.1267 -0.2354
  276TMC3    C1 4165   1.673   1.211  14.603  0.2613  0.5114  1.1335
  276TMC3    C2 4166   1.549   1.221  14.655 -0.3908 -0.0418  0.5889
  276TMC3    C3 4167   1.543   1.250  14.786 -0.4328  0.3306 -0.3411
  276TMC3    C4 4168   1.784   1.224  14.673  0.0553 -0.0250  0.3724
  276TMC3    C5 4169   1.779   1.248  14.811 -0.0783 -0.5236 -0.6853
  276TMC3    C6 4170   1.655   1.258  14.866 -0.4145  0.0248  0.0364
  276TMC3     C 4171   1.685   1.105  14.502  0.1215  0.3020 -0.6889
  276TMC3     O 4172   1.764   1.110  14.405  0.4751 -0.5830 -0.5861
  276TMC3     H 4173   1.455   1.196  14.606  0.6159 -0.1762 -1.2867
  276TMC3    H1 4174   1.877   1.202  14.622  0.2796 -1.7190  1.5077
  276TMC3    H2 4175   1.649   1.258  14.974  0.6280  0.0068  0.0959
  276TMC3    C7 4176   1.892   1.281  14.893 -0.0744  0.3671  0.8038
  276TMC3    C8 4177   1.429   1.190  14.853 -0.2183  0.0490 -1.2962
  276TMC3    O1 4178   1.874   1.281  15.012 -0.2870  0.5895 -0.2336
  276TMC3    O2 4179   1.316   1.239  14.833 -0.1554 -0.0664 -0.4107
  277MPD2     C 4180   3.316   4.676  13.366 -0.2432  0.3455 -0.7270
  277MPD2    C1 4181   3.191   4.714  13.408 -0.0806  0.2098 -0.1847
  277MPD2    C2 4182   3.124   4.616  13.485 -0.2408  0.0058 -0.1186
  277MPD2    C3 4183   3.191   4.506  13.534  0.9721 -0.4079 -0.1742
  277MPD2    C4 4184   3.323   4.480  13.494  0.1721 -0.2551  0.1479
  277MPD2    C5 4185   3.376   4.558  13.405  0.1466  0.5287  0.1848
  277MPD2     H 4186   3.020   4.641  13.500  0.4866  2.3074  1.2468
  277MPD2    H1 4187   3.385   4.398  13.526  1.4244  1.0142  0.9953
  277MPD2    H2 4188   3.375   0.023  13.306  2.7765 -1.8268 -0.2179
  277MPD2    H3 4189   3.477   4.550  13.365 -0.3074 -1.9582 -0.4486
  277MPD2     N 4190   3.116   4.419  13.611  0.2126  0.5061  0.1495
  277MPD2    H5 4191   3.018   4.444  13.611 -0.0925 -0.6644 -0.1726
  277MPD2    N1 4192   3.128   0.117  13.365 -0.2762  0.0922  0.1845
  277MPD2    H7 4193   3.182   0.166  13.294 -1.2225  1.6975  0.5636
  278TMC3    C1 4194   3.045   4.263  13.756  0.5562  0.0252  0.1194
  278TMC3    C2 4195   3.043   4.130  13.779 -0.8868  0.6616  0.5130
  278TMC3    C3 4196   2.927   4.067  13.829  0.1253 -0.6157 -0.4319
  278TMC3    C4 4197   2.937   4.344  13.792  0.0501 -0.2236  0.5397
  278TMC3    C5 4198   2.829   4.285  13.841 -0.0866  0.1076 -1.0609
  278TMC3    C6 4199   2.818   4.146  13.854 -0.7833  0.5915 -0.8104
  278TMC3     C 4200   3.158   4.315  13.684 -0.0325 -0.8671  0.5941
  278TMC3     O 4201   3.261   4.255  13.682  0.6784  0.5147  0.2344
  278TMC3     H 4202   3.131   4.079  13.743 -1.0765  0.9949 -0.4447
  278TMC3    H1 4203   2.934   4.452  13.782 -1.2812 -0.2952  0.1339
  278TMC3    H2 4204   2.736   4.100  13.909 -1.6800  1.4089 -1.4462
  278TMC3    C7 4205   2.721   4.374  13.898 -0.2975 -0.2309 -0.2130
  278TMC3    C8 4206   2.904   3.930  13.796 -0.0111 -0.1940  0.2086
  278TMC3    O1 4207   2.737   4.496  13.899 -0.0922  0.3485  0.1795
  278TMC3    O2 4208   3.008   3.862  13.799  0.8474 -0.8093 -0.0630
  279MPD2     C 4209   2.891   0.044   0.683  0.2641  0.4408 -0.6011
  279MPD2    C1 4210   2.810   0.150   0.718  0.3957 -0.4059 -0.6758
  279MPD2    C2 4211   2.757   0.216   0.610  0.4610  0.8098 -0.2718
  279MPD2    C3 4212   2.771   0.176   0.474 -0.2441  0.2871  0.0655
  279MPD2    C4 4213   2.845   0.060   0.450 -0.0522 -0.3155 -1.1835
  279MPD2    C5 4214   2.911   0.002   0.553  0.0073 -0.5229 -0.0506
  279MPD2     H 4215   2.695   0.303   0.628  1.4671  1.4807 -0.0164
  279MPD2    H1 4216   2.866   0.016   0.354  0.1720 -2.7554 -0.0185
  279MPD2    H2 4217   2.946   4.713   0.761  2.1216 -0.7407 -2.6955
  279MPD2    H3 4218   2.973   4.637   0.531 -0.2477 -1.4001  2.7330
  279MPD2     N 4219   2.716   0.236   0.361  0.4033  0.6147  0.0428
  279MPD2    H5 4220   2.739   0.202   0.268 -1.3083 -0.4273  0.0069
  279MPD2    N1 4221   2.803   0.192   0.851  0.5544  0.2019 -0.0286
  279MPD2    H7 4222   2.877   0.156   0.911  0.2680 -2.5296 -1.3592
  280TMC3    C1 4223   2.581   0.296   0.873 -0.3314  0.8057  0.2969
  280TMC3    C2 4224   2.525   0.185   0.829 -0.0614 -0.3551  0.0304
  280TMC3    C3 4225   2.405   0.193   0.770  0.2553 -0.5874 -0.4603
  280TMC3    C4 4226   2.521   0.418   0.884  0.1079  0.2540  0.1942
  280TMC3    C5 4227   2.402   0.429   0.821 -0.0046  0.4001  0.3815
  280TMC3    C6 4228   2.339   0.317   0.762 -0.0868  0.8026  0.1776
  280TMC3     C 4229   2.714   0.279   0.919 -0.5534  1.2784 -0.1751
  280TMC3     O 4230   2.726   0.332   1.028 -0.0867 -0.1715  0.2398
  280TMC3     H 4231   2.577   0.092   0.851 -1.2381 -1.1459 -0.5239
  280TMC3    H1 4232   2.579   0.509   0.900  1.5718 -0.6549  0.1126
  280TMC3    H2 4233   2.237   0.317   0.725  0.1578  1.1751 -0.4896
  280TMC3    C7 4234   2.371   0.563   0.774  0.5834 -0.0074 -0.2388
  280TMC3    C8 4235   2.379   0.095   0.670  0.3638  0.6133  1.1808
  280TMC3    O1 4236   2.419   0.651   0.844  0.2101 -0.5697  0.8816
  280TMC3    O2 4237   2.294   0.126   0.591  0.1431  0.4241 -0.1708
  281TMC3    C1 4238   0.988   0.013  13.276 -0.0723 -0.1448 -0.0568
  281TMC3    C2 4239   1.117   0.018  13.242  0.2848  0.1605 -0.2953
  281TMC3    C3 4240   1.148   4.674  13.128  0.3295 -0.0072 -0.5700
  281TMC3    C4 4241   0.890   4.658  13.216  0.2132  0.4217 -0.4648
  281TMC3    C5 4242   0.931   4.585  13.112  0.1548  0.4371  0.0759
  281TMC3    C6 4243   1.059   4.596  13.062 -0.4680 -0.3666  0.3165
  281TMC3     C 4244   0.932   0.124  13.351 -0.1454 -0.2652  0.2849
  281TMC3     O 4245   0.825   0.112  13.409  0.2515 -0.5810 -0.4125
  281TMC3     H 4246   1.195   0.074  13.292 -0.4457 -0.1378  1.1519
  281TMC3    H1 4247   0.790   4.654  13.257  0.5782 -3.7315  0.0782
  281TMC3    H2 4248   1.096   4.519  12.995  2.1666  0.7357  0.4726
  281TMC3    C7 4249   0.850   4.475  13.075 -0.2175 -0.5873  0.0018
  281TMC3    C8 4250   1.289   4.666  13.090 -0.5007 -0.2502  0.5995
  281TMC3    O1 4251   0.892   4.417  12.978  0.2407  0.1495  0.2645
  281TMC3    O2 4252   1.330   4.551  13.074  0.2425 -0.4586 -0.0576
  282MPD2     C 4253   3.055   1.742  15.123 -0.2658 -0.0219 -0.9773
  282MPD2    C1 4254   2.971   1.857  15.135  0.0379  0.3841  0.3452
  282MPD2    C2 4255   2.923   1.911  15.017  0.0025  0.6906 -0.1246
  282MPD2    C3 4256   2.936   1.850  14.896  0.1784  0.5138  0.4034
  282MPD2    C4 4257   3.011   1.732  14.887 -0.7777  0.2351  0.3289
  282MPD2    C5 4258   3.068   1.680  15.001  0.1809  0.4556  0.4388
  282MPD2     H 4259   2.852   1.991  15.035 -1.6459 -1.2565  2.0049
  282MPD2    H1 4260   3.026   1.673  14.797 -0.8461 -2.2502  1.9611
  282MPD2    H2 4261   3.100   1.688  15.206 -3.5064 -0.2329  0.6288
  282MPD2    H3 4262   3.123   1.588  14.986 -1.2177 -0.5598  1.4567
  282MPD2     N 4263   2.875   1.907  14.787 -0.2124  0.0723 -0.1332
  282MPD2    H5 4264   2.814   1.987  14.800 -0.0742  0.2949 -0.8685
  282MPD2    N1 4265   2.944   1.920  15.262  0.2867 -0.3646  0.0625
  282MPD2    H7 4266   2.884   2.001  15.266  2.0359  1.0938 -3.2176
  283TMC3    C1 4267   2.904   1.926  15.496 -0.3800  0.2411 -0.6462
  283TMC3    C2 4268   2.934   2.052  15.547  0.9953  0.5644 -1.3033
  283TMC3    C3 4269   2.914   2.064  15.682  0.2651  0.6007  0.1021
  283TMC3    C4 4270   2.891   1.823  15.582  0.3981  0.3954  0.0532
  283TMC3    C5 4271   2.872   1.836  15.713  0.1535 -0.3327  0.2969
  283TMC3    C6 4272   2.880   1.965  15.762 -0.0026 -0.0860 -0.1675
  283TMC3     C 4273   2.977   1.867  15.385  0.5278 -0.0247 -0.3259
  283TMC3     O 4274   3.029   1.761  15.415 -0.2055  0.5946  0.0970
  283TMC3     H 4275   2.951   2.133  15.476  3.4376 -1.2569 -2.8015
  283TMC3    H1 4276   2.852   1.734  15.533 -0.8281  1.2792 -0.5905
  283TMC3    H2 4277   2.848   1.979  15.864 -0.3703 -0.6358 -0.2104
  283TMC3    C7 4278   2.790   1.740  15.786 -0.1187  0.4147 -0.9213
  283TMC3    C8 4279   2.911   2.202  15.733  0.4730  0.7145 -0.6515
  283TMC3    O1 4280   2.752   1.780  15.896  0.1184 -0.2745  0.1074
  283TMC3    O2 4281   2.858   2.218  15.843 -0.9291  0.8504  0.5066
  284MPD2     C 4282   1.450   1.390  11.697 -0.3860 -0.3130  0.0670
  284MPD2    C1 4283   1.552   1.318  11.641 -0.2613 -0.1831  0.0745
  284MPD2    C2 4284   1.563   1.180  11.663  0.2906 -0.3462 -0.2081
  284MPD2    C3 4285   1.469   1.121  11.738 -0.3689 -0.6161 -0.0025
  284MPD2    C4 4286   1.362   1.190  11.790 -0.3873  0.4072 -0.0457
  284MPD2    C5 4287   1.353   1.325  11.770  0.1648  0.3280 -0.4670
  284MPD2     H 4288   1.651   1.126  11.629  0.2569 -0.8646  0.5279
  284MPD2    H1 4289   1.292   1.142  11.857 -0.1222 -0.1667 -0.1867
  284MPD2    H2 4290   1.446   1.498  11.691 -0.5916 -0.5169 -3.7146
  284MPD2    H3 4291   1.272   1.376  11.820 -0.1096 -0.1179 -0.4553
  284MPD2     N 4292   1.478   0.981  11.764  0.0427  0.7771 -0.1448
  284MPD2    H5 4293   1.569   0.945  11.735 -0.2390 -1.7671  2.0844
  284MPD2    N1 4294   1.653   1.383  11.566 -0.0553  0.2162  0.4117
  284MPD2    H7 4295   1.715   1.313  11.525 -3.2695 -2.4248  0.0441
  285TMC3    C1 4296   1.797   1.541  11.479  0.0903  0.0171 -0.0763
  285TMC3    C2 4297   1.873   1.440  11.423 -0.5799  0.0751 -0.4058
  285TMC3    C3 4298   1.998   1.464  11.391 -0.0760  0.1569  0.4128
  285TMC3    C4 4299   1.845   1.668  11.483 -0.4309  0.1281 -0.1834
  285TMC3    C5 4300   1.974   1.691  11.435 -0.7244 -0.1393  0.2981
  285TMC3    C6 4301   2.053   1.588  11.395 -0.4262 -0.0915 -0.6068
  285TMC3     C 4302   1.670   1.517  11.544 -0.1519  0.1911  0.2645
  285TMC3     O 4303   1.609   1.617  11.582  0.0014 -0.5702  0.4124
  285TMC3     H 4304   1.816   1.350  11.402  0.2646 -0.1922 -1.5672
  285TMC3    H1 4305   1.794   1.755  11.523  0.4473 -0.2483  1.7179
  285TMC3    H2 4306   2.156   1.594  11.362  0.1414 -3.8766  0.4581
  285TMC3    C7 4307   2.012   1.820  11.401  0.4956 -0.3236 -0.2898
  285TMC3    C8 4308   2.085   1.353  11.353  0.3234  0.0822  0.0869
  285TMC3    O1 4309   2.131   1.841  11.396 -0.0242 -0.1817  0.2509
  285TMC3    O2 4310   2.190   1.339  11.416 -0.2726  0.3152 -0.2847
  286MPD2     C 4311   1.958   0.055   2.018 -0.1392 -0.3935  0.0646
  286MPD2    C1 4312   1.926   0.017   1.886  0.6198 -0.1392 -0.0707
  286MPD2    C2 4313   2.007   4.644   1.832  0.4750  0.2257 -0.1794
  286MPD2    C3 4314   2.107   4.582   1.901 -0.2328 -0.1540 -0.8518
  286MPD2    C4 4315   2.130   4.609   2.030 -0.3188 -0.0592 -0.3139
  286MPD2    C5 4316   2.058   4.712   2.085  0.5874 -0.3519 -0.1101
  286MPD2     H 4317   1.973   4.615   1.733 -0.1799  1.6425 -0.3614
  286MPD2    H1 4318   2.208   4.558   2.085 -0.7822  2.3439  2.5994
  286MPD2    H2 4319   1.894   0.128   2.065  1.6591  0.7904  0.6898
  286MPD2    H3 4320   2.071   0.027   2.186  0.1176  3.4148 -1.4013
  286MPD2     N 4321   2.188   4.486   1.838 -0.0725  0.4685 -0.2043
  286MPD2    H5 4322   2.279   4.462   1.876 -0.4553 -1.3395 -0.4164
  286MPD2    N1 4323   1.830   0.089   1.803 -0.5796 -0.3985  0.5263
  286MPD2    H7 4324   1.839   0.075   1.703  0.8287  2.9476  0.1752
  287TMC3    C1 4325   2.271   4.335   1.666 -0.3945 -0.0236 -0.3684
  287TMC3    C2 4326   2.271   4.305   1.535 -0.8338  0.2535  0.7539
  287TMC3    C3 4327   2.385   4.249   1.484 -0.2101  0.2245  0.5521
  287TMC3    C4 4328   2.388   4.313   1.737 -0.1387 -0.5394 -0.2580
  287TMC3    C5 4329   2.496   4.248   1.677 -0.2146 -0.1120  0.3541
  287TMC3    C6 4330   2.496   4.214   1.551  0.1544 -0.0626  0.2592
  287TMC3     C 4331   2.159   4.420   1.720 -0.4102 -0.6030 -0.2976
  287TMC3     O 4332   2.060   4.425   1.648  0.3309  0.7745 -0.6780
  287TMC3     H 4333   2.197   4.343   1.467  0.5020  0.0069 -0.8359
  287TMC3    H1 4334   2.382   4.327   1.845 -1.5629 -1.5359 -0.1984
  287TMC3    H2 4335   2.578   4.172   1.493 -1.4462  0.0334 -2.0830
  287TMC3    C7 4336   2.618   4.223   1.755  0.0660  0.4956  0.4333
  287TMC3    C8 4337   2.375   4.221   1.348 -0.0611  0.2848 -0.3869
  287TMC3    O1 4338   2.631   4.288   1.859  0.5716 -0.5070 -0.1335
  287TMC3    O2 4339   2.276   4.160   1.310  0.5510 -0.4662  0.3264
  288TMC3    C1 4340   3.214   4.571  14.516 -0.8942 -0.5319 -0.1233
  288TMC3    C2 4341   3.184   4.561  14.649 -0.1518  0.5901 -0.0000
  288TMC3    C3 4342   3.089   4.470  14.695 -0.0127 -0.3743  0.4398
  288TMC3    C4 4343   3.142   4.497  14.434  0.4892  0.4443 -0.4211
  288TMC3    C5 4344   3.052   4.409  14.476  0.3460 -0.9582  0.2915
  288TMC3    C6 4345   3.016   4.388  14.606 -0.4404  0.7497  0.5464
  288TMC3     C 4346   3.356   4.547  14.498 -0.0127  0.0475 -0.0386
  288TMC3     O 4347   3.421   4.505  14.597 -0.5011  0.1341  0.0835
  288TMC3     H 4348   3.244   4.623  14.715 -0.6681  2.7857 -1.6065
  288TMC3    H1 4349   3.158   4.499  14.327  1.6915 -2.5084 -0.3008
  288TMC3    H2 4350   2.937   4.321  14.636  0.8768  0.3520  3.1059
  288TMC3    C7 4351   2.989   4.338  14.368  0.3198  0.0135  0.3204
  288TMC3    C8 4352   3.052   4.486  14.834 -0.4120  0.4524 -1.0787
  288TMC3    O1 4353   2.945   4.404  14.274 -0.0533 -0.5633 -0.0137
  288TMC3    O2 4354   3.079   4.588  14.891 -0.0122  0.1675 -0.1067
  289MPD2     C 4355   3.568   3.648  14.550  1.0769  0.2340 -0.7615
  289MPD2    C1 4356   3.488   3.740  14.490 -0.0522  0.2195 -0.1651
  289MPD2    C2 4357   3.346   3.727  14.500  0.0247 -0.2256  0.4257
  289MPD2    C3 4358   3.294   3.634  14.587 -0.4427  0.1790  0.4055
  289MPD2    C4 4359   3.381   3.538  14.631  0.0119 -0.8526 -0.6202
  289MPD2    C5 4360   3.514   3.548  14.614  0.2251  0.0772  0.6340
  289MPD2     H 4361   3.284   3.798  14.445 -0.9613 -0.8898  0.6864
  289MPD2    H1 4362   3.342   3.455  14.690  0.4793 -0.5543  0.1040
  289MPD2    H2 4363   3.677   3.652  14.551  1.0563  0.3879  1.2917
  289MPD2    H3 4364   3.579   3.474  14.659  0.4758  0.3642  0.7494
  289MPD2     N 4365   3.151   3.623  14.611  0.2055  0.4468  0.0519
  289MPD2    H5 4366   3.115   3.530  14.630  1.4590  0.0845  0.6484
  289MPD2    N1 4367   3.547   3.850  14.425  0.3604  0.2503  0.2022
  289MPD2    H7 4368   3.648   3.850  14.430  0.4714 -0.4962 -1.9361
  290TMC3    C1 4369   2.926   3.698  14.595 -0.3949  0.4502 -1.2463
  290TMC3    C2 4370   2.839   3.806  14.593  0.6187 -0.5822 -0.1658
  290TMC3    C3 4371   2.709   3.778  14.553 -0.0959  0.1602 -0.0690
  290TMC3    C4 4372   2.895   3.566  14.568  0.7538 -0.4901 -0.2639
  290TMC3    C5 4373   2.763   3.545  14.535  0.5145  0.1698 -0.3065
  290TMC3    C6 4374   2.669   3.649  14.527  0.6432 -0.4258  0.5968
  290TMC3     C 4375   3.066   3.730  14.586  0.2212 -0.7535 -0.0497
  290TMC3     O 4376   3.087   3.849  14.590 -0.0557  0.0348 -0.0530
  290TMC3     H 4377   2.872   3.909  14.602  1.5689 -0.5626 -4.1107
  290TMC3    H1 4378   2.975   3.493  14.567  1.1129 -0.0775 -1.6568
  290TMC3    H2 4379   2.567   3.625  14.501 -0.1336  2.1894  1.2668
  290TMC3    C7 4380   2.704   3.411  14.538  0.1009  0.6854 -0.0262
  290TMC3    C8 4381   2.618   3.886  14.524 -0.4540 -0.9890 -0.4396
  290TMC3    O1 4382   2.579   3.408  14.525  0.3616  0.0582  0.2725
  290TMC3    O2 4383   2.519   3.835  14.477 -0.4307  0.2107 -0.4225
  291MPD2     C 4384   2.790   3.255   1.102 -0.0587 -0.5785  0.0714
  291MPD2    C1 4385   2.754   3.197   0.986 -0.1062 -0.4978 -0.6313
  291MPD2    C2 4386   2.813   3.237   0.871 -0.4384  0.8107 -0.2621
  291MPD2    C3 4387   2.922   3.333   0.873 -0.1195  1.0323  0.3425
  291MPD2    C4 4388   2.956   3.390   0.992 -0.4280 -0.1829  0.3564
  291MPD2    C5 4389   2.890   3.349   1.104 -0.7728 -0.4605 -0.4250
  291MPD2     H 4390   2.782   3.180   0.784  1.9276 -1.3762  0.3296
  291MPD2    H1 4391   3.041   3.455   1.010 -0.0480 -0.9673  1.3819
  291MPD2    H2 4392   2.746   3.229   1.198 -0.7692 -0.2916 -0.1763
  291MPD2    H3 4393   2.921   3.391   1.199 -0.2758 -1.6512 -0.0566
  291MPD2     N 4394   3.001   3.366   0.757  0.8786  0.0351 -0.1998
  291MPD2    H5 4395   3.066   3.443   0.769 -1.4244  1.6656  1.9733
  291MPD2    N1 4396   2.650   3.099   0.980  0.0575 -0.1569 -0.5448
  291MPD2    H7 4397   2.621   3.080   0.884  0.5273 -2.7706 -0.1780
  292TMC3    C1 4398   2.483   2.952   1.053  0.4871  0.6742 -0.2684
  292TMC3    C2 4399   2.374   2.954   1.140 -0.5494  0.1286 -0.0678
  292TMC3    C3 4400   2.254   2.911   1.098 -0.5333 -0.0569  0.2554
  292TMC3    C4 4401   2.470   2.894   0.933  0.2794  0.8998  0.2892
  292TMC3    C5 4402   2.342   2.856   0.890 -1.0434  0.3538  0.1039
  292TMC3    C6 4403   2.230   2.875   0.970 -0.1487 -1.1505 -0.2801
  292TMC3     C 4404   2.590   3.041   1.086  0.0535 -0.4782 -0.3027
  292TMC3     O 4405   2.598   3.054   1.209  0.4415 -0.4722  0.1771
  292TMC3     H 4406   2.380   2.998   1.239  1.0113 -2.2670  0.9030
  292TMC3    H1 4407   2.556   2.883   0.867  1.2273 -1.7264  1.9712
  292TMC3    H2 4408   2.135   2.832   0.940 -0.6198 -0.5972  0.4467
  292TMC3    C7 4409   2.331   2.830   0.749  0.4748 -0.3718  0.2386
  292TMC3    C8 4410   2.138   2.956   1.171  0.0319 -0.3056  0.4119
  292TMC3    O1 4411   2.434   2.798   0.694  0.2960 -0.1864 -0.7372
  292TMC3    O2 4412   2.153   3.035   1.265  0.5804 -0.0207  0.3638
  293MPD2     C 4413   4.428   0.290  12.736  0.4104 -0.0765 -0.6226
  293MPD2    C1 4414   4.346   0.197  12.795  0.1585 -0.2055 -0.1451
  293MPD2    C2 4415   4.356   0.183  12.937  0.6544 -0.1355 -0.3178
  293MPD2    C3 4416   4.455   0.241  13.007  0.6578  0.3873  0.4115
  293MPD2    C4 4417   4.539   0.332  12.940  0.4383  0.6076 -0.3930
  293MPD2    C5 4418   4.528   0.350  12.809  0.2036  0.3474 -0.1870
  293MPD2     H 4419   4.292   0.110  12.985 -1.0712  1.7357  0.2291
  293MPD2    H1 4420   4.619   0.390  12.986 -0.8962  1.8787  0.3152
  293MPD2    H2 4421   4.431   0.315  12.630  0.5086  1.2966 -0.2906
  293MPD2    H3 4422   4.594   0.419  12.758  1.2372 -2.6530 -2.9444
  293MPD2     N 4423   4.471   0.214  13.144  0.3771  0.8538 -0.6501
  293MPD2    H5 4424   4.402   0.156  13.191 -1.0942  3.9232  0.9199
  293MPD2    N1 4425   4.273   0.114  12.709 -0.4714  0.2010  0.2113
  293MPD2    H7 4426   4.290   0.128  12.609 -0.7529 -0.7600  0.0341
  294TMC3    C1 4427   4.122   4.672  12.623  0.1747  0.4730 -0.7191
  294TMC3    C2 4428   3.993   4.627  12.637 -0.2404  0.2787  0.4646
  294TMC3    C3 4429   3.935   4.576  12.524  0.1201  0.3092  0.5228
  294TMC3    C4 4430   4.173   4.689  12.499 -0.3380  0.0383 -0.0863
  294TMC3    C5 4431   4.102   4.656  12.390  0.0470  0.2786 -0.3815
  294TMC3    C6 4432   3.988   4.582  12.396 -0.0491  0.3011  0.0443
  294TMC3     C 4433   4.175   0.022  12.739  0.6425  0.8933 -0.3200
  294TMC3     O 4434   4.133   4.714  12.850 -0.2104  0.0604 -0.6819
  294TMC3     H 4435   3.942   4.628  12.733 -2.5012  1.4354 -0.7819
  294TMC3    H1 4436   4.273   0.007  12.481  0.1842 -1.3115 -0.1393
  294TMC3    H2 4437   3.931   4.536  12.316  0.4445 -2.3758  1.2093
  294TMC3    C7 4438   4.117   0.030  12.277 -0.9452 -0.0086 -0.6621
  294TMC3    C8 4439   3.821   4.499  12.553  0.0643  0.7238 -0.7411
  294TMC3    O1 4440   4.172   0.137  12.305  0.2035 -0.3515  0.0078
  294TMC3    O2 4441   3.761   4.537  12.655 -0.4919  0.0808 -0.3970
  295MPD2     C 4442   0.138   3.300   0.848  0.1213 -0.0698 -0.6762
  295MPD2    C1 4443   0.167   3.434   0.819 -0.0126 -0.8089 -0.2387
  295MPD2    C2 4444   0.142   3.526   0.914 -0.0828  0.2556 -0.3293
  295MPD2    C3 4445   0.077   3.496   1.031 -0.0412  0.5251 -0.0320
  295MPD2    C4 4446   0.037   3.368   1.053 -0.0295  0.2064 -0.5111
  295MPD2    C5 4447   0.075   3.266   0.965  0.4462 -0.4687 -0.3922
  295MPD2     H 4448   0.173   3.629   0.899 -0.0175  0.0225 -1.7822
  295MPD2    H1 4449   4.707   3.345   1.146 -1.1291  2.9885 -0.4059
  295MPD2    H2 4450   0.170   3.211   0.795 -0.7116  0.5311 -2.1795
  295MPD2    H3 4451   0.084   3.165   1.004 -1.1288  0.4517  2.3412
  295MPD2     N 4452   0.050   3.595   1.131  0.2042  0.1814 -0.0528
  295MPD2    H5 4453   0.017   3.565   1.222 -3.2868  1.6567 -0.8288
  295MPD2    N1 4454   0.228   3.472   0.695 -0.2848 -0.1905  0.0153
  295MPD2    H7 4455   0.223   3.571   0.674  1.1620 -0.4037 -1.3077
  296TMC3    C1 4456   0.044   3.806   1.242 -0.6631  0.2090  0.0066
  296TMC3    C2 4457   0.091   3.933   1.247  0.0959  0.3697  0.5727
  296TMC3    C3 4458   0.061   4.018   1.342 -0.5065 -0.6086 -0.5719
  296TMC3    C4 4459   4.685   3.758   1.344 -0.0810 -0.1431  0.0004
  296TMC3    C5 4460   4.661   3.848   1.441 -0.5036 -0.5509 -0.3825
  296TMC3    C6 4461   4.700   3.979   1.446  0.0844 -0.4141  0.8160
  296TMC3     C 4462   0.066   3.732   1.120 -0.2508  0.2289 -0.4691
  296TMC3     O 4463   0.114   3.791   1.024  0.3122 -0.2935  0.6738
  296TMC3     H 4464   0.141   3.974   1.160  0.1605 -0.9037  0.0062
  296TMC3    H1 4465   4.649   3.656   1.345  0.0297 -0.1604  2.1726
  296TMC3    H2 4466   4.689   4.031   1.540  1.8723  0.5923  0.4656
  296TMC3    C7 4467   4.610   3.789   1.568 -0.0571 -0.0658  0.1560
  296TMC3    C8 4468   0.146   4.146   1.356 -0.3245 -0.7762  0.6541
  296TMC3    O1 4469   4.537   3.690   1.555  0.3600  0.1948 -0.7260
  296TMC3    O2 4470   0.257   4.147   1.301  0.4771 -0.3681  0.0300
  297MPD2     C 4471   2.112   0.682  16.479 -0.1076 -0.6710  0.2828
  297MPD2    C1 4472   2.063   0.798  16.431  0.7275  0.5696 -0.0168
  297MPD2    C2 4473   2.150   0.900  16.401  1.0012  0.1121  0.1913
  297MPD2    C3 4474   2.279   0.899  16.438 -0.1889  0.1429 -0.3815
  297MPD2    C4 4475   2.328   0.787  16.498  0.0256 -0.3337  0.2156
  297MPD2    C5 4476   2.244   0.680  16.518 -0.2921 -0.0991  0.5444
  297MPD2     H 4477   2.116   0.998  16.370 -0.3076 -0.2717  0.4225
  297MPD2    H1 4478   2.427   0.795  16.541 -0.8303  1.0366  1.9194
  297MPD2    H2 4479   2.049   0.597  16.501 -1.4660  0.2988  0.0998
  297MPD2    H3 4480   2.271   0.598  16.583 -0.6230 -0.4637  0.2185
  297MPD2     N 4481   2.357   1.010  16.399 -0.5565 -0.3432 -0.1199
  297MPD2    H5 4482   2.308   1.091  16.361 -0.3933  0.1954  0.8172
  297MPD2    N1 4483   1.924   0.815  16.394 -0.0973  0.5094 -0.0655
  297MPD2    H7 4484   1.900   0.910  16.368 -0.6355  0.4057  0.0448
  298TMC3    C1 4485   1.693   0.778  16.364 -0.5176  0.0501  0.3917
  298TMC3    C2 4486   1.695   0.860  16.252  0.3439  0.1246 -0.7379
  298TMC3    C3 4487   1.573   0.900  16.212  0.6838  0.0540  0.2136
  298TMC3    C4 4488   1.582   0.738  16.429 -0.2725 -0.0640 -0.1638
  298TMC3    C5 4489   1.463   0.780  16.378  0.0007  0.4859  0.3866
  298TMC3    C6 4490   1.458   0.872  16.278 -0.2091  0.3875  0.2401
  298TMC3     C 4491   1.818   0.733  16.422  0.0482 -0.3737 -0.6931
  298TMC3     O 4492   1.819   0.631  16.486  0.1716 -0.1753 -0.1208
  298TMC3     H 4493   1.785   0.901  16.208  1.2733 -0.4731  0.5882
  298TMC3    H1 4494   1.578   0.654  16.497 -0.1178  0.4138  0.4359
  298TMC3    H2 4495   1.364   0.921  16.255  0.3593  1.6113  0.5319
  298TMC3    C7 4496   1.358   0.801  16.476  0.0400  0.2090  0.1969
  298TMC3    C8 4497   1.570   0.998  16.111  0.3522 -0.3292  0.9841
  298TMC3    O1 4498   1.391   0.790  16.594  0.1192  0.0946 -0.4214
  298TMC3    O2 4499   1.680   1.058  16.084 -0.3062 -0.0069  0.4644
  299MPD2     C 4500   2.453   0.130  10.664 -0.6057  0.2166  0.0651
  299MPD2    C1 4501   2.528   0.242  10.649 -0.0280 -0.0337  0.0995
  299MPD2    C2 4502   2.508   0.312  10.534 -0.2315  0.3816 -0.1368
  299MPD2    C3 4503   2.404   0.285  10.446 -0.5545 -0.1676 -0.3296
  299MPD2    C4 4504   2.317   0.183  10.480 -0.2131  0.3248  0.1067
  299MPD2    C5 4505   2.344   0.106  10.591 -0.0895 -0.8247 -0.1748
  299MPD2     H 4506   2.570   0.396  10.504  1.0807 -1.0417 -1.3532
  299MPD2    H1 4507   2.229   0.154  10.423 -0.0528 -1.5169  0.8066
  299MPD2    H2 4508   2.469   0.068  10.751  3.2225  1.7719  0.4661
  299MPD2    H3 4509   2.270   0.031  10.617 -0.8801  0.5663  1.5763
  299MPD2     N 4510   2.372   0.359  10.326  0.3950 -0.0939  0.0753
  299MPD2    H5 4511   2.290   0.317  10.285 -0.4445  0.2479  1.4165
  299MPD2    N1 4512   2.641   0.265  10.736  0.7899 -0.2915 -0.5148
  299MPD2    H7 4513   2.642   0.217  10.826 -0.5921  0.3009 -0.1830
  300TMC3    C1 4514   2.401   0.495  10.131  0.4412 -0.0658 -0.2032
  300TMC3    C2 4515   2.486   0.567  10.064 -0.2917 -0.2829 -0.3045
  300TMC3    C3 4516   2.444   0.660   9.978 -0.6419  0.1615  0.0129
  300TMC3    C4 4517   2.267   0.504  10.119 -0.3849  1.0059  0.2180
  300TMC3    C5 4518   2.228   0.587  10.021 -0.3433  0.1657  0.6658
  300TMC3    C6 4519   2.318   0.670   9.948  0.4601  0.3232  0.5316
  300TMC3     C 4520   2.457   0.446  10.260  0.2961  0.1396  0.2592
  300TMC3     O 4521   2.566   0.491  10.298  0.2248  0.3362  0.2693
  300TMC3     H 4522   2.592   0.551  10.080 -0.7051  0.0198  2.6955
  300TMC3    H1 4523   2.201   0.430  10.161  1.4421 -0.9055 -0.2769
  300TMC3    H2 4524   2.269   0.742   9.884 -1.9951 -0.8338  1.0801
  300TMC3    C7 4525   2.092   0.617  10.020 -0.4670 -0.2411 -0.0788
  300TMC3    C8 4526   2.527   0.778   9.952  0.4616 -0.5173  0.7712
  300TMC3    O1 4527   2.056   0.697   9.936 -0.1503 -0.2355 -0.2554
  300TMC3    O2 4528   2.501   0.844   9.855 -0.1968  0.1205 -0.3861
  301MPD2     C 4529   0.212   1.616   2.020  0.2059 -0.9003  0.8441
  301MPD2    C1 4530   0.092   1.558   1.982 -0.2204  0.5884  0.0497
  301MPD2    C2 4531   0.085   1.430   1.931 -0.4989  0.2515 -1.1318
  301MPD2    C3 4532   0.199   1.354   1.913  0.1791 -0.4160 -0.0095
  301MPD2    C4 4533   0.321   1.414   1.950  0.6936 -0.0523 -0.2247
  301MPD2    C5 4534   0.324   1.539   2.001  0.7490  0.2719  0.4224
  301MPD2     H 4535   4.706   1.391   1.914  0.0950 -0.4944 -2.9053
  301MPD2    H1 4536   0.407   1.349   1.959 -1.1397 -2.4437  0.1096
  301MPD2    H2 4537   0.204   1.710   2.072  0.6190 -0.2790 -0.2085
  301MPD2    H3 4538   0.416   1.592   2.023  0.3500  1.3584 -0.5428
  301MPD2     N 4539   0.200   1.221   1.866  0.1570  0.7042 -0.3778
  301MPD2    H5 4540   0.291   1.193   1.832 -0.2610 -3.0842  1.6137
  301MPD2    N1 4541   4.689   1.631   1.977  0.1494 -0.4002 -0.5628
  301MPD2    H7 4542   4.609   1.572   1.953 -0.7366 -0.1366  1.7886
  302TMC3    C1 4543   0.122   1.007   1.796  0.7490  0.0722  0.1557
  302TMC3    C2 4544   0.248   0.950   1.797  0.0337 -0.8307  0.4534
  302TMC3    C3 4545   0.269   0.822   1.745  0.3296  0.4628 -0.6225
  302TMC3    C4 4546   0.019   0.929   1.760  0.4686 -0.1464  0.4895
  302TMC3    C5 4547   0.048   0.809   1.699  0.5303  0.2126  0.0585
  302TMC3    C6 4548   0.170   0.760   1.676 -0.1180 -0.0597 -0.1291
  302TMC3     C 4549   0.092   1.137   1.855 -0.6782  0.3829 -0.2108
  302TMC3     O 4550   4.697   1.157   1.894 -0.1186 -0.0278  0.5371
  302TMC3     H 4551   0.328   1.016   1.829  0.9410 -1.6001 -0.2073
  302TMC3    H1 4552   4.637   0.961   1.768  0.6789  0.4707  0.7331
  302TMC3    H2 4553   0.192   0.666   1.626  1.0936 -0.1204  0.5192
  302TMC3    C7 4554   4.662   0.772   1.608  0.7380  0.6225  1.0047
  302TMC3    C8 4555   0.407   0.767   1.738 -0.6536 -0.4972 -0.0817
  302TMC3    O1 4556   4.669   0.649   1.583 -0.2757  0.1390  0.5611
  302TMC3    O2 4557   0.424   0.676   1.656 -0.0620 -0.6738  0.4247
  303MPD2     C 4558   0.342   4.191  10.960 -0.0385  0.4743  0.3684
  303MPD2    C1 4559   0.227   4.134  10.904  0.6933  1.0886  0.4010
  303MPD2    C2 4560   0.136   4.215  10.839  0.0086 -0.3028 -0.3001
  303MPD2    C3 4561   0.158   4.351  10.835 -0.0132 -0.2697  0.2974
  303MPD2    C4 4562   0.273   4.403  10.896  0.2827  0.4187 -0.2061
  303MPD2    C5 4563   0.363   4.321  10.950 -0.2695  0.1658 -0.0936
  303MPD2     H 4564   0.047   4.171  10.795  0.8831 -2.3074 -0.0544
  303MPD2    H1 4565   0.303   4.507  10.891 -1.0311  0.7229 -1.7509
  303MPD2    H2 4566   0.415   4.135  11.017 -0.8136 -2.5031 -1.5558
  303MPD2    H3 4567   0.448   4.373  10.993 -1.2608  0.5828  1.3740
  303MPD2     N 4568   0.069   4.435  10.755 -0.3159 -0.1291 -0.0674
  303MPD2    H5 4569   0.101   4.530  10.741 -0.4530  0.0502  0.8843
  303MPD2    N1 4570   0.213   3.992  10.926 -1.0171 -0.4219 -0.4660
  303MPD2    H7 4571   0.294   3.943  10.962 -1.8606  0.1525  2.2447
  304TMC3    C1 4572   0.098   3.792  10.968  0.3260  0.1389  0.3112
  304TMC3    C2 4573   4.698   3.757  11.023  0.4386  0.4351  1.1083
  304TMC3    C3 4574   4.639   3.643  10.978 -0.3030 -0.4508  0.5821
  304TMC3    C4 4575   0.159   3.720  10.867 -0.4564  0.0611 -0.3854
  304TMC3    C5 4576   0.106   3.595  10.833  0.6809 -0.1334 -0.8014
  304TMC3    C6 4577   4.709   3.557  10.892  0.0278 -0.2457 -1.1376
  304TMC3     C 4578   0.094   3.926  10.922  0.4742  0.0421  0.1740
  304TMC3     O 4579   4.704   3.973  10.898  0.4384  0.6880 -0.4225
  304TMC3     H 4580   4.644   3.832  11.081 -0.3964  0.3464  0.4518
  304TMC3    H1 4581   0.244   3.758  10.812  0.6675  1.3533  2.2651
  304TMC3    H2 4582   4.654   3.469  10.859  0.6424 -0.8979 -0.4244
  304TMC3    C7 4583   0.086   3.582  10.691 -0.2027 -0.7089 -1.1111
  304TMC3    C8 4584   4.495   3.658  10.942 -0.2142  0.1991  1.1825
  304TMC3    O1 4585   4.696   3.558  10.649  0.1395 -0.3325 -0.2465
  304TMC3    O2 4586   4.415   3.712  11.021  0.3707  0.0229 -0.1920
  305MPD2     C 4587   3.321   2.077  13.948 -0.1974 -0.4949  0.4808
  305MPD2    C1 4588   3.279   1.951  13.978 -0.1351  0.2427  0.1608
  305MPD2    C2 4589   3.243   1.870  13.872 -0.1303 -0.4607  0.8390
  305MPD2    C3 4590   3.254   1.918  13.738  0.6245  0.1399 -0.3998
  305MPD2    C4 4591   3.313   2.036  13.709  0.7986 -0.1687  0.9522
  305MPD2    C5 4592   3.334   2.117  13.816 -0.1143  0.0327 -0.2009
  305MPD2     H 4593   3.192   1.778  13.896  3.3628 -2.5371  0.4040
  305MPD2    H1 4594   3.330   2.070  13.607 -1.7443  0.6211  0.8078
  305MPD2    H2 4595   3.348   2.149  14.024  3.4310 -1.5028  0.1279
  305MPD2    H3 4596   3.371   2.219  13.803  1.1822  0.0127  3.3714
  305MPD2     N 4597   3.222   1.839  13.625  0.5913 -0.3849 -0.5910
  305MPD2    H5 4598   3.234   1.882  13.533 -2.0800 -0.8259 -1.1551
  305MPD2    N1 4599   3.270   1.924  14.116 -0.1512  0.1616  0.1474
  305MPD2    H7 4600   3.302   1.999  14.177 -0.1614 -1.5448  2.2489
  306TMC3    C1 4601   3.219   1.818  14.313 -0.7556  0.0074  0.6242
  306TMC3    C2 4602   3.268   1.718  14.395 -0.2713 -0.4000  0.1137
  306TMC3    C3 4603   3.278   1.754  14.528 -0.3892 -0.4070  0.3071
  306TMC3    C4 4604   3.183   1.940  14.365  0.0657  0.3419 -0.1194
  306TMC3    C5 4605   3.195   1.966  14.496 -0.2139  0.4751  0.5093
  306TMC3    C6 4606   3.236   1.873  14.578  0.3905 -0.1394  1.0084
  306TMC3     C 4607   3.240   1.800  14.169 -0.4640  0.1937 -0.0778
  306TMC3     O 4608   3.226   1.689  14.114  0.5759  0.0118 -0.2210
  306TMC3     H 4609   3.301   1.619  14.363 -3.1868 -1.3817  0.1979
  306TMC3    H1 4610   3.148   2.015  14.295  0.1552  1.7418  1.3249
  306TMC3    H2 4611   3.221   1.888  14.685  0.1257  0.1143  0.9372
  306TMC3    C7 4612   3.155   2.098  14.535 -0.6547  0.1484 -0.4748
  306TMC3    C8 4613   3.370   1.668  14.608 -0.3884  0.3797  0.5064
  306TMC3    O1 4614   3.090   2.168  14.457 -0.0257 -0.2234  0.1082
  306TMC3    O2 4615   3.416   1.575  14.550 -0.2205  0.0900  0.2244
  307MPD2     C 4616   1.363   0.185   0.791 -0.2350 -0.1432 -0.1840
  307MPD2    C1 4617   1.252   0.241   0.848 -0.4493 -0.0648 -0.0825
  307MPD2    C2 4618   1.156   0.152   0.890  0.4774 -0.2498 -0.0033
  307MPD2    C3 4619   1.166   0.013   0.880 -0.7664  0.2075  0.1422
  307MPD2    C4 4620   1.281   4.685   0.832 -0.5383 -0.2059 -0.6269
  307MPD2    C5 4621   1.380   0.051   0.786 -0.3582 -0.5311 -0.3950
  307MPD2     H 4622   1.062   0.190   0.930 -0.1523 -1.0918 -0.6704
  307MPD2    H1 4623   1.307   4.580   0.837  0.8720  0.1190 -0.9473
  307MPD2    H2 4624   1.445   0.247   0.756  1.4083 -2.0723  0.2348
  307MPD2    H3 4625   1.465   0.017   0.728  1.3933  0.6245  1.4769
  307MPD2     N 4626   1.073   4.652   0.950 -0.4781 -0.3571 -0.0574
  307MPD2    H5 4627   1.004   4.704   1.004  0.7035  0.5113  0.6059
  307MPD2    N1 4628   1.222   0.381   0.863 -0.1495  0.3615  0.4593
  307MPD2    H7 4629   1.136   0.409   0.909  0.8242 -0.4503  2.7950
  308TMC3    C1 4630   0.731   4.414   0.963  0.2660  0.1335  0.0146
  308TMC3    C2 4631   0.694   4.466   1.084  0.2069  0.4311 -0.3138
  308TMC3    C3 4632   0.787   4.523   1.164 -0.3925  0.3700  0.3352
  308TMC3    C4 4633   0.859   4.412   0.916  0.1412 -0.4835  0.3262
  308TMC3    C5 4634   0.953   4.457   1.009 -0.2029  0.6655  0.1519
  308TMC3    C6 4635   0.917   4.507   1.133  0.2058  0.1823 -0.2664
  308TMC3     C 4636   0.631   4.366   0.868 -0.5082 -0.2507  0.1389
  308TMC3     O 4637   0.656   4.268   0.797  0.4093  0.1740 -0.2432
  308TMC3     H 4638   0.593   4.448   1.118  0.3201  1.7358  0.7509
  308TMC3    H1 4639   0.888   4.379   0.817 -1.2887 -2.1452  0.4731
  308TMC3    H2 4640   0.985   4.566   1.193  0.8272 -1.0726  0.2631
  308TMC3    C7 4641   1.066   4.514   0.935  0.1480 -0.1234 -0.2159
  308TMC3    C8 4642   0.753   4.572   1.288 -0.2852  0.3796 -0.1043
  308TMC3    O1 4643   1.129   4.419   0.885 -0.2683 -0.1311 -0.0314
  308TMC3    O2 4644   0.824   4.556   1.388 -0.3136  0.0046 -0.0079
  309MPD2     C 4645   0.033   0.348  17.271 -0.2830 -0.2127 -0.1155
  309MPD2    C1 4646   4.653   0.381  17.181  0.3897  0.6850  0.0307
  309MPD2    C2 4647   4.526   0.406  17.234  0.2855  0.4093  0.2782
  309MPD2    C3 4648   4.505   0.401  17.370 -0.1869  0.6532 -0.2765
  309MPD2    C4 4649   4.603   0.369  17.456  0.0806  0.0266  0.4555
  309MPD2    C5 4650   0.006   0.347  17.403 -0.3689 -0.1139  0.4240
  309MPD2     H 4651   4.442   0.408  17.166 -0.0798  1.4288  0.7502
  309MPD2    H1 4652   4.584   0.370  17.563  0.7690 -1.4027  0.5882
  309MPD2    H2 4653   0.135   0.319  17.248 -0.2145 -2.4160  2.9611
  309MPD2    H3 4654   0.091   0.312  17.460  0.3129  1.6877  0.5123
  309MPD2     N 4655   4.379   0.428  17.440 -0.2331 -0.1412 -0.3803
  309MPD2    H5 4656   4.376   0.424  17.541 -0.6927  0.1223 -0.3838
  309MPD2    N1 4657   4.679   0.375  17.039  1.0064  0.7581  0.5233
  309MPD2    H7 4658   4.603   0.412  16.983  1.6932  3.5945  1.4508
  310TMC3    C1 4659   0.091   0.342  16.837  0.2189 -0.9738  0.0369
  310TMC3    C2 4660   4.720   0.400  16.762  0.0171 -0.6781 -0.5155
  310TMC3    C3 4661   0.040   0.444  16.638  0.6565  0.0689 -0.2869
  310TMC3    C4 4662   0.217   0.318  16.795 -0.8498  0.0490  0.2976
  310TMC3    C5 4663   0.252   0.363  16.669 -0.4911 -0.0458 -0.7521
  310TMC3    C6 4664   0.164   0.416  16.585 -0.2608 -0.7198 -0.0195
  310TMC3     C 4665   0.078   0.332  16.980  0.1307  0.3847 -0.0754
  310TMC3     O 4666   0.186   0.302  17.034  0.3271  0.1861  0.5708
  310TMC3     H 4667   4.616   0.408  16.790 -0.3131 -2.0886 -1.3510
  310TMC3    H1 4668   0.286   0.260  16.854  0.4845  1.6628  0.3173
  310TMC3    H2 4669   0.182   0.446  16.482  0.9261  0.2997  0.4841
  310TMC3    C7 4670   0.369   0.292  16.619 -0.3203  0.4451  0.1072
  310TMC3    C8 4671   4.667   0.516  16.541  0.0192  0.3654 -0.0705
  310TMC3    O1 4672   0.423   0.209  16.689 -0.6282 -0.1442  0.0584
  310TMC3    O2 4673   4.686   0.513  16.424  0.1106  0.4257  0.2983
  311MPD2     C 4674   2.073   1.442  12.938  0.0688  0.1103 -0.9225
  311MPD2    C1 4675   2.090   1.571  12.989  0.2703  0.0916  0.2704
  311MPD2    C2 4676   1.980   1.640  13.034 -0.0413 -0.2925 -0.4723
  311MPD2    C3 4677   1.852   1.582  13.035  0.1006  0.0741 -0.2689
  311MPD2    C4 4678   1.835   1.452  12.990  0.5258 -0.5650 -0.5474
  311MPD2    C5 4679   1.944   1.388  12.948  0.6616  0.7233  0.0619
  311MPD2     H 4680   1.985   1.744  13.063  2.8203 -0.2707 -1.1259
  311MPD2    H1 4681   1.747   1.397  13.022 -0.6608  0.5638 -1.8724
  311MPD2    H2 4682   2.158   1.380  12.909  0.3520  0.2999 -0.4923
  311MPD2    H3 4683   1.937   1.286  12.912 -0.7642  0.9774 -0.4017
  311MPD2     N 4684   1.747   1.665  13.073  0.0966 -0.4632 -0.0681
  311MPD2    H5 4685   1.778   1.754  13.111  0.4019 -0.1961 -0.9476
  311MPD2    N1 4686   2.213   1.634  13.005  0.7094 -0.7666  0.0185
  311MPD2    H7 4687   2.209   1.723  13.052  0.2220  1.0658 -3.5076
  312TMC3    C1 4688   1.523   1.751  13.108  0.4176 -0.0183 -0.1954
  312TMC3    C2 4689   1.391   1.743  13.060 -0.2567 -0.4403 -0.2848
  312TMC3    C3 4690   1.327   1.862  13.031  0.0345 -0.0281 -0.4014
  312TMC3    C4 4691   1.573   1.870  13.148  0.2496 -0.0144  0.1587
  312TMC3    C5 4692   1.498   1.984  13.125 -0.0832  0.3904  0.5284
  312TMC3    C6 4693   1.382   1.980  13.054 -0.2674 -0.4787  1.1545
  312TMC3     C 4694   1.612   1.635  13.070 -0.7092  0.1204  0.0380
  312TMC3     O 4695   1.545   1.539  13.026  0.8317 -0.2475 -0.6096
  312TMC3     H 4696   1.349   1.646  13.034 -0.0990 -0.4871 -0.3692
  312TMC3    H1 4697   1.671   1.887  13.190 -0.0378  0.9181  0.4452
  312TMC3    H2 4698   1.338   2.077  13.035 -2.5178 -1.2989  2.2448
  312TMC3    C7 4699   1.575   2.103  13.140 -0.8537 -0.0388 -0.1163
  312TMC3    C8 4700   1.212   1.856  12.941 -0.5855 -0.8010 -0.2146
  312TMC3    O1 4701   1.575   2.174  13.041 -0.0455  0.2649  0.4073
  312TMC3    O2 4702   1.168   1.745  12.921 -0.6475  0.9395  0.0362
  313MPD2     C 4703   1.439   0.985  10.943 -0.0376  0.3000 -0.3894
  313MPD2    C1 4704   1.473   0.982  10.810 -0.1428  0.1349  0.0466
  313MPD2    C2 4705   1.401   0.904  10.721  0.4829 -0.5309 -0.1550
  313MPD2    C3 4706   1.300   0.823  10.764  0.0229  0.5007  0.1776
  313MPD2    C4 4707   1.262   0.830  10.897  0.0704  0.2457 -0.2145
  313MPD2    C5 4708   1.343   0.902  10.989 -0.6164  0.1189 -0.2614
  313MPD2     H 4709   1.415   0.908  10.613  0.3335 -2.1819 -0.2287
  313MPD2    H1 4710   1.174   0.776  10.931 -0.1938  0.6024 -0.3307
  313MPD2    H2 4711   1.491   1.039  11.021 -0.6758  1.0482 -0.4921
  313MPD2    H3 4712   1.309   0.897  11.092  0.2147 -2.3268 -0.0929
  313MPD2     N 4713   1.233   0.728  10.673  0.2046  0.4734 -0.0607
  313MPD2    H5 4714   1.144   0.688  10.699  0.8043 -1.1130 -0.4040
  313MPD2    N1 4715   1.572   1.066  10.757  0.0987 -0.4636  0.2676
  313MPD2    H7 4716   1.583   1.057  10.657 -0.5863 -1.8459  0.3132
  314TMC3    C1 4717   1.757   1.203  10.736  0.3221  0.5092  0.3035
  314TMC3    C2 4718   1.887   1.246  10.772 -0.0873 -0.1549  0.2456
  314TMC3    C3 4719   1.961   1.329  10.694  0.6833 -0.5093 -0.1020
  314TMC3    C4 4720   1.710   1.245  10.613 -0.0682 -0.0707  0.1209
  314TMC3    C5 4721   1.794   1.328  10.538 -0.5820  0.4716 -0.1856
  314TMC3    C6 4722   1.914   1.374  10.578  0.4230 -0.6518  0.2967
  314TMC3     C 4723   1.669   1.135  10.825 -0.0902 -0.1419  0.4774
  314TMC3     O 4724   1.676   1.149  10.951 -0.2071  0.5772  0.1430
  314TMC3     H 4725   1.922   1.214  10.869 -0.3156  0.6682  0.5973
  314TMC3    H1 4726   1.608   1.223  10.583 -1.0178  1.9812  1.8281
  314TMC3    H2 4727   1.959   1.458  10.528  1.9522  0.0938  2.9012
  314TMC3    C7 4728   1.748   1.388  10.410 -0.4448  0.4247  0.0058
  314TMC3    C8 4729   2.042   1.415  10.775  0.5168 -0.5518  0.1620
  314TMC3    O1 4730   1.633   1.414  10.399 -0.5644 -0.3586  0.6687
  314TMC3    O2 4731   2.022   1.534  10.748  0.3579  1.0477 -0.1821
  315MPD2     C 4732   1.477   0.119   0.471  1.4300 -0.0243 -0.3464
  315MPD2    C1 4733   1.612   0.133   0.440 -0.0849  0.2195  0.0985
  315MPD2    C2 4734   1.654   0.252   0.383 -0.6130  0.2927 -0.2456
  315MPD2    C3 4735   1.565   0.358   0.361 -0.3016 -0.5873 -0.0675
  315MPD2    C4 4736   1.434   0.339   0.390  0.2685 -0.1754 -0.2259
  315MPD2    C5 4737   1.393   0.226   0.445 -0.1003  0.1641 -0.2658
  315MPD2     H 4738   1.761   0.252   0.367 -0.5461 -0.2425  0.2004
  315MPD2    H1 4739   1.366   0.419   0.365  0.3415 -0.2483 -0.6637
  315MPD2    H2 4740   1.426   0.028   0.500  0.7364  0.6024  0.3823
  315MPD2    H3 4741   1.290   0.194   0.450 -0.0322  0.5863  3.8250
  315MPD2     N 4742   1.612   0.478   0.309  0.1583  0.2924  0.2347
  315MPD2    H5 4743   1.711   0.482   0.287  0.5069  0.7430  1.9132
  315MPD2    N1 4744   1.706   0.031   0.454 -0.6472  0.1721 -0.2888
  315MPD2    H7 4745   1.794   0.040   0.404  0.7197  0.9477  2.2568
  316TMC3    C1 4746   1.626   0.711   0.231 -0.5111  0.2468  1.1321
  316TMC3    C2 4747   1.737   0.751   0.298 -0.0075  0.2347 -0.0057
  316TMC3    C3 4748   1.810   0.844   0.239 -0.0335 -0.1617  0.2834
  316TMC3    C4 4749   1.576   0.766   0.122  0.0947 -0.0987 -0.2338
  316TMC3    C5 4750   1.656   0.864   0.062 -0.6394 -0.5874 -0.7697
  316TMC3    C6 4751   1.774   0.895   0.119 -0.7708 -0.3269  0.3779
  316TMC3     C 4752   1.540   0.601   0.284  0.4964 -0.3813  0.0003
  316TMC3     O 4753   1.418   0.625   0.282 -0.1949  0.0785  0.4377
  316TMC3     H 4754   1.757   0.715   0.398 -0.7737  1.1694  0.4885
  316TMC3    H1 4755   1.491   0.723   0.069  0.6015  2.2162 -2.9191
  316TMC3    H2 4756   1.826   0.980   0.076 -0.8614 -1.3179 -1.6722
  316TMC3    C7 4757   1.655   0.866  17.607 -0.0784  0.1130  0.2828
  316TMC3    C8 4758   1.931   0.896   0.298  0.3571 -1.1497  0.0594
  316TMC3    O1 4759   1.768   0.889  17.562 -0.3477 -0.3985  0.8926
  316TMC3    O2 4760   1.969   1.008   0.265  0.4920  1.2294 -0.0312
  317MPD2     C 4761   3.063   3.742  13.190  0.0851 -0.7482  0.3961
  317MPD2    C1 4762   3.155   3.681  13.113 -0.0366  0.1122  0.1770
  317MPD2    C2 4763   3.251   3.607  13.179  0.2377 -0.4391  0.0763
  317MPD2    C3 4764   3.245   3.595  13.320  0.1668  0.3771 -0.1864
  317MPD2    C4 4765   3.131   3.640  13.392  0.4859  0.3641 -0.1619
  317MPD2    C5 4766   3.045   3.719  13.320 -0.6773  0.0435  0.5749
  317MPD2     H 4767   3.330   3.556  13.125  0.0569 -0.2278 -0.3837
  317MPD2    H1 4768   3.109   3.610  13.494  1.3972  2.5941  0.7033
  317MPD2    H2 4769   2.975   3.793  13.152  1.0247  0.7900  0.3005
  317MPD2    H3 4770   2.959   3.761  13.371 -0.2232  1.6626  0.0334
  317MPD2     N 4771   3.356   3.532  13.387 -0.2039  0.0709  0.3020
  317MPD2    H5 4772   3.424   3.491  13.325 -0.3104 -0.8239  0.7801
  317MPD2    N1 4773   3.141   3.657  12.977  0.1586 -0.1325  0.0895
  317MPD2    H7 4774   3.211   3.591  12.946 -0.3249  0.1985 -1.6815
  318TMC3    C1 4775   3.462   3.384  13.540 -0.3321  0.4523  0.6163
  318TMC3    C2 4776   3.463   3.280  13.453  0.1693 -0.2407  0.0795
  318TMC3    C3 4777   3.512   3.165  13.498 -0.4933 -0.0495 -0.7939
  318TMC3    C4 4778   3.521   3.389  13.659  0.4768  0.1894  0.9253
  318TMC3    C5 4779   3.572   3.270  13.703 -0.1183 -0.4145 -0.0174
  318TMC3    C6 4780   3.556   3.159  13.630  0.0781 -0.2073 -0.2127
  318TMC3     C 4781   3.367   3.492  13.519 -0.0242  0.8965  0.2738
  318TMC3     O 4782   3.335   3.556  13.623 -0.9927  0.5370 -0.1833
  318TMC3     H 4783   3.417   3.286  13.355 -1.9129 -0.0045  1.0793
  318TMC3    H1 4784   3.527   3.479  13.718  0.3799  1.3013 -0.7706
  318TMC3    H2 4785   3.591   3.067  13.674  2.0186  0.3740 -0.5515
  318TMC3    C7 4786   3.680   3.280  13.802 -0.1389 -0.0656  0.1644
  318TMC3    C8 4787   3.459   3.041  13.436 -0.6242  0.2860 -0.5382
  318TMC3    O1 4788   3.690   3.393  13.845 -0.3786  0.1109 -0.0843
  318TMC3    O2 4789   3.499   2.934  13.479  0.3755 -0.1031  0.3014
  319MPD2     C 4790   3.805   0.334  17.081  0.0210  0.3509 -0.0715
  319MPD2    C1 4791   3.792   0.195  17.081 -0.6195  0.1990 -0.0076
  319MPD2    C2 4792   3.704   0.129  17.001 -0.1938 -0.1017 -0.2561
  319MPD2    C3 4793   3.626   0.209  16.922 -0.4904 -0.0097 -0.1566
  319MPD2    C4 4794   3.635   0.346  16.917  0.5012 -0.4116  0.5044
  319MPD2    C5 4795   3.730   0.412  16.993  0.0116  0.5093 -0.5466
  319MPD2     H 4796   3.706   0.021  17.003 -0.6084 -0.1150 -0.4980
  319MPD2    H1 4797   3.577   0.408  16.849  1.2610 -0.0896  0.1442
  319MPD2    H2 4798   3.874   0.393  17.140 -0.5408 -0.4013  1.3270
  319MPD2    H3 4799   3.728   0.520  16.993 -0.4401  0.5023 -1.0584
  319MPD2     N 4800   3.531   0.155  16.838 -0.7368 -0.2532 -0.2710
  319MPD2    H5 4801   3.491   0.212  16.765  0.2241 -0.7418 -1.1815
  319MPD2    N1 4802   3.888   0.124  17.161 -0.1468 -0.1931  0.3965
  319MPD2    H7 4803   3.960   0.181  17.205  0.3807  0.2958 -1.1149
  320TMC3    C1 4804   3.423   0.004  16.695 -0.0798  0.0955  0.0544
  320TMC3    C2 4805   3.425   0.095  16.595 -0.1439 -0.0349  0.0815
  320TMC3    C3 4806   3.377   0.064  16.470 -0.3310  0.1235  0.1192
  320TMC3    C4 4807   3.373   4.601  16.675 -1.0542 -0.0617  0.6426
  320TMC3    C5 4808   3.337   4.564  16.542  0.3730  0.4535  0.4753
  320TMC3    C6 4809   3.327   4.657  16.442 -0.1046 -0.1847  0.6527
  320TMC3     C 4810   3.499   0.025  16.821 -0.1480  0.0627  0.5024
  320TMC3     O 4811   3.536   4.650  16.882  0.1707 -0.7287 -0.2810
  320TMC3     H 4812   3.487   0.184  16.602  0.4863 -0.4781  0.1724
  320TMC3    H1 4813   3.350   4.541  16.762 -2.0578 -0.3351  0.1884
  320TMC3    H2 4814   3.277   4.630  16.349 -0.3042 -1.5838  1.1638
  320TMC3    C7 4815   3.377   4.427  16.497 -0.4156 -0.3008 -0.0849
  320TMC3    C8 4816   3.427   0.152  16.364  0.6827 -0.1997 -0.6169
  320TMC3    O1 4817   3.410   4.413  16.380  0.5244 -0.1380 -0.3043
  320TMC3    O2 4818   3.459   0.268  16.392  0.2463  0.0503  0.1577
  321TMC3    C1 4819   3.995   4.677  17.287  0.4534 -0.4156  0.3648
  321TMC3    C2 4820   4.032   4.542  17.285 -0.6151 -0.6378 -0.2465
  321TMC3    C3 4821   4.091   4.506  17.399 -0.0809 -0.6821 -0.1832
  321TMC3    C4 4822   4.009   0.045  17.388 -0.2114 -0.2850  0.4501
  321TMC3    C5 4823   4.054   4.716  17.503 -0.0828 -0.0213  0.1730
  321TMC3    C6 4824   4.094   4.585  17.512  0.0836 -0.9461  0.6660
  321TMC3     C 4825   3.908   4.710  17.170  0.5378 -0.4979  0.2499
  321TMC3     O 4826   3.836   4.619  17.132  0.5861 -0.3157 -0.3482
  321TMC3     H 4827   4.009   4.464  17.213 -0.7346  1.0233 -2.0143
  321TMC3    H1 4828   3.995   0.152  17.384  0.8500 -0.1718 -0.0091
  321TMC3    H2 4829   4.142   4.545  17.600  1.6124 -2.5237 -0.8696
  321TMC3    C7 4830   4.131   0.077  17.598 -0.2717 -0.7701 -0.1540
  321TMC3    C8 4831   4.204   4.416  17.392 -0.2909 -0.1426 -0.4842
  321TMC3    O1 4832   4.082   0.176  17.648  0.1592 -0.2474  0.2717
  321TMC3    O2 4833   4.253   4.375  17.499 -0.3946  0.0564  0.2703
  322MPD2     C 4834   3.249   1.272  13.468  0.2164  1.3841 -0.3763
  322MPD2    C1 4835   3.193   1.222  13.586  0.1416  0.5396 -0.7160
  322MPD2    C2 4836   3.131   1.096  13.575  0.3172  0.1267 -0.4230
  322MPD2    C3 4837   3.111   1.034  13.457 -0.3390 -0.0050  0.6172
  322MPD2    C4 4838   3.162   1.090  13.340  0.1678 -0.1325 -0.4079
  322MPD2    C5 4839   3.228   1.212  13.347 -0.5367  0.0203 -0.5486
  322MPD2     H 4840   3.103   1.037  13.662  0.0474  0.2490 -0.4281
  322MPD2    H1 4841   3.146   1.040  13.245 -2.9765  1.3393 -0.6371
  322MPD2    H2 4842   3.315   1.358  13.463  0.5944  0.9671 -2.4883
  322MPD2    H3 4843   3.276   1.250  13.258  1.3977 -1.3093 -0.0713
  322MPD2     N 4844   3.068   0.900  13.461 -0.0953  0.3694  0.5054
  322MPD2    H5 4845   3.022   0.864  13.544 -0.1284 -0.8509 -0.0376
  322MPD2    N1 4846   3.216   1.289  13.711 -0.2151 -0.3095  0.2684
  322MPD2    H7 4847   3.261   1.380  13.705 -1.3452  0.2979  1.0988
  323TMC3    C1 4848   3.267   1.303  13.945  0.0626  0.7021 -0.0665
  323TMC3    C2 4849   3.334   1.420  13.923  0.3924 -0.0405 -0.4480
  323TMC3    C3 4850   3.405   1.468  14.026 -0.1647 -1.1111  0.8442
  323TMC3    C4 4851   3.275   1.223  14.063 -0.5047  0.4114 -0.2124
  323TMC3    C5 4852   3.363   1.272  14.157 -0.3225 -0.6223  0.2845
  323TMC3    C6 4853   3.417   1.393  14.140 -0.2717  0.5682  0.3916
  323TMC3     C 4854   3.182   1.252  13.841  0.2574 -0.6735  0.2070
  323TMC3     O 4855   3.120   1.156  13.876 -0.0294  0.0760  0.0665
  323TMC3     H 4856   3.333   1.472  13.827 -2.7738  0.2311 -0.2574
  323TMC3    H1 4857   3.250   1.117  14.071 -1.9542  0.8030  0.4916
  323TMC3    H2 4858   3.461   1.445  14.225 -2.6402 -1.0745  2.6197
  323TMC3    C7 4859   3.456   1.173  14.202  0.6496 -0.6692 -0.2979
  323TMC3    C8 4860   3.536   1.526  13.997  0.1547 -0.5172 -0.1511
  323TMC3    O1 4861   3.418   1.058  14.223 -0.2459  0.4551 -0.5374
  323TMC3    O2 4862   3.628   1.474  14.054 -0.2422 -0.2297  0.2396
  324MPD2     C 4863   0.169   1.820  14.312 -0.4025  0.3825  0.7783
  324MPD2    C1 4864   0.204   1.952  14.278 -0.5682 -0.7445 -0.2040
  324MPD2    C2 4865   0.098   2.035  14.245 -0.4494 -0.0070  0.0242
  324MPD2    C3 4866   4.690   1.996  14.262 -0.5037 -0.4038  0.4407
  324MPD2    C4 4867   4.663   1.866  14.294  0.3508  0.5353 -0.4977
  324MPD2    C5 4868   0.041   1.778  14.319 -0.3001 -0.4754  0.4234
  324MPD2     H 4869   0.114   2.138  14.215 -1.3126 -0.0297 -0.5020
  324MPD2    H1 4870   4.564   1.823  14.288  0.1678  1.0311 -1.0739
  324MPD2    H2 4871   0.246   1.743  14.321 -0.1389  0.4556 -0.8711
  324MPD2    H3 4872   0.023   1.674  14.341 -1.8487 -0.3590 -0.3327
  324MPD2     N 4873   4.584   2.076  14.227 -0.0079 -0.0450  0.2864
  324MPD2    H5 4874   4.495   2.029  14.223 -0.3664  0.5466  1.2579
  324MPD2    N1 4875   0.336   2.004  14.260  0.6956 -0.1194 -0.1334
  324MPD2    H7 4876   0.346   2.104  14.241  0.6114 -0.7175 -3.1880
  325TMC3    C1 4877   4.468   2.253  14.117 -0.3321 -0.2672 -0.2601
  325TMC3    C2 4878   4.362   2.174  14.091  0.8321  0.1911  0.1575
  325TMC3    C3 4879   4.231   2.215  14.102 -0.1711 -0.4260  0.3076
  325TMC3    C4 4880   4.444   2.387  14.132  0.4195  0.7445  0.0983
  325TMC3    C5 4881   4.314   2.430  14.153  0.2474  0.3633 -0.2376
  325TMC3    C6 4882   4.205   2.345  14.137  0.2345  0.3766 -0.0953
  325TMC3     C 4883   4.588   2.202  14.170 -1.0892  0.4145  0.0361
  325TMC3     O 4884   4.675   2.282  14.142  0.6392  0.4478  0.1252
  325TMC3     H 4885   4.381   2.068  14.075 -0.6443 -0.1653  0.8463
  325TMC3    H1 4886   4.527   2.455  14.146  1.5705 -0.8457  1.0145
  325TMC3    H2 4887   4.101   2.377  14.134 -0.4995 -1.7918  2.8395
  325TMC3    C7 4888   4.298   2.576  14.166  0.1383  0.1207 -0.2873
  325TMC3    C8 4889   4.135   2.152  14.006  0.8562  0.2232  0.4376
  325TMC3    O1 4890   4.381   2.658  14.127 -0.0361  0.2520 -0.0707
  325TMC3    O2 4891   4.178   2.088  13.912 -0.3371 -0.2094  0.6341
  326MPD2     C 4892   0.873   3.719  11.596  0.0140 -0.7600  0.0052
  326MPD2    C1 4893   0.888   3.617  11.502 -0.0335  0.7164  0.1041
  326MPD2    C2 4894   1.009   3.610  11.432  0.0085 -0.2664 -0.8069
  326MPD2    C3 4895   1.105   3.707  11.446 -0.4539 -0.4773 -0.9734
  326MPD2    C4 4896   1.091   3.806  11.535 -0.4917  0.7423 -0.0604
  326MPD2    C5 4897   0.972   3.813  11.608  0.5458  1.1600 -0.2528
  326MPD2     H 4898   1.012   3.531  11.358 -1.3420 -0.5085 -0.6052
  326MPD2    H1 4899   1.161   3.884  11.561  1.4550 -0.4790 -1.5907
  326MPD2    H2 4900   0.783   3.731  11.655  0.3879 -0.1365  0.4448
  326MPD2    H3 4901   0.961   3.886  11.687 -1.3268  0.5198  0.0668
  326MPD2     N 4902   1.230   3.710  11.373 -0.1751 -0.2056  0.1958
  326MPD2    H5 4903   1.287   3.792  11.390  0.9876 -0.9873  0.1572
  326MPD2    N1 4904   0.774   3.536  11.485  0.0516  0.1913  0.0275
  326MPD2    H7 4905   0.688   3.552  11.537  0.1210  0.4901  0.0442
  327TMC3    C1 4906   0.648   3.380  11.362  0.0498  0.3057 -0.1721
  327TMC3    C2 4907   0.580   3.481  11.307  0.2876 -0.8771 -0.1123
  327TMC3    C3 4908   0.527   3.469  11.185  0.0815 -0.4375  0.3399
  327TMC3    C4 4909   0.669   3.265  11.298 -0.2804  0.6584 -0.3620
  327TMC3    C5 4910   0.632   3.265  11.170 -0.0114  0.2376 -0.0390
  327TMC3    C6 4911   0.541   3.354  11.117  0.0075 -0.0993 -0.4249
  327TMC3     C 4912   0.777   3.421  11.413 -0.2401  0.3057  0.2819
  327TMC3     O 4913   0.872   3.352  11.376 -0.1640  0.2751  0.0872
  327TMC3     H 4914   0.570   3.570  11.367 -1.1164 -0.1363 -1.4497
  327TMC3    H1 4915   0.728   3.185  11.341  1.4041  0.7569 -2.4466
  327TMC3    H2 4916   0.521   3.356  11.010  2.5878 -0.6435 -0.9150
  327TMC3    C7 4917   0.720   3.219  11.073 -0.4604  0.5565 -0.2542
  327TMC3    C8 4918   0.524   3.587  11.094 -0.4673 -0.6172  1.0669
  327TMC3    O1 4919   0.679   3.208  10.958 -0.8096 -0.5554 -0.3322
  327TMC3    O2 4920   0.478   3.569  10.981 -0.3271  0.3461 -0.2943
  328MPD2     C 4921   3.788   3.025   0.094 -0.1262 -0.0564 -0.4930
  328MPD2    C1 4922   3.759   3.000  17.647  0.0340  0.8323  0.6590
  328MPD2    C2 4923   3.813   3.082  17.551  0.0388 -0.2176  0.1075
  328MPD2    C3 4924   3.880   3.203  17.586  0.0359  0.4775 -0.8988
  328MPD2    C4 4925   3.912   3.219   0.032  0.1125  0.2534  0.2270
  328MPD2    C5 4926   3.870   3.131   0.124  0.4229 -0.9515 -0.4330
  328MPD2     H 4927   3.781   3.062  17.450 -0.8055  1.2869  0.0874
  328MPD2    H1 4928   3.962   3.310   0.064  0.1088  0.6345 -0.8803
  328MPD2    H2 4929   3.748   2.960   0.171 -0.3183  0.1929 -0.3832
  328MPD2    H3 4930   3.898   3.155   0.226 -1.0931 -2.4476  0.3352
  328MPD2     N 4931   3.896   3.315  17.497 -0.7808  0.5021 -0.6029
  328MPD2    H5 4932   3.950   3.391  17.537 -0.4781 -1.1074  2.0870
  328MPD2    N1 4933   3.677   2.887  17.618 -0.1306  0.6705 -0.4492
  328MPD2    H7 4934   3.641   2.851   0.019  3.7125 -0.3124  0.7068
  329TMC3    C1 4935   3.543   2.750  17.478 -0.1770  0.4284  0.6752
  329TMC3    C2 4936   3.420   2.794  17.518 -0.1110 -0.4871  0.0103
  329TMC3    C3 4937   3.314   2.740  17.456 -0.5405 -0.0672  0.1202
  329TMC3    C4 4938   3.560   2.662  17.374  0.0306 -0.1080  0.1719
  329TMC3    C5 4939   3.449   2.613  17.316 -0.0779 -0.4770 -0.2827
  329TMC3    C6 4940   3.327   2.660  17.352  0.1575  0.2532 -0.1005
  329TMC3     C 4941   3.650   2.841  17.490 -0.2747  0.3470  0.1370
  329TMC3     O 4942   3.722   2.858  17.392  0.0759  0.0022  0.1348
  329TMC3     H 4943   3.419   2.889  17.570  1.3995 -0.1387 -0.5859
  329TMC3    H1 4944   3.662   2.639  17.347 -0.0532 -0.9752  0.6039
  329TMC3    H2 4945   3.243   2.609  17.306 -0.0634 -0.8703  1.5271
  329TMC3    C7 4946   3.449   2.480  17.269  0.5948 -0.0877  0.2661
  329TMC3    C8 4947   3.188   2.812  17.462 -0.3210 -0.4392  0.8438
  329TMC3    O1 4948   3.365   2.446  17.183  0.0869  0.5423  0.6025
  329TMC3    O2 4949   3.134   2.820  17.351 -0.1227 -0.0875  0.2702
  330TMC3    C1 4950   2.025   2.961  10.030 -0.2203 -0.1647 -0.5348
  330TMC3    C2 4951   2.052   2.840   9.967 -0.1938 -0.8558  0.1761
  330TMC3    C3 4952   2.112   2.743  10.044  0.9040 -0.1761 -0.0441
  330TMC3    C4 4953   2.060   2.977  10.165 -0.1858 -0.5039 -0.4500
  330TMC3    C5 4954   2.112   2.871  10.229 -0.0222  0.0759 -0.5341
  330TMC3    C6 4955   2.143   2.745  10.172  0.6842  0.5124  0.3312
  330TMC3     C 4956   1.960   3.069   9.956  0.2537  0.6311 -0.6531
  330TMC3     O 4957   1.974   3.181  10.004  0.1590 -0.0539 -0.0643
  330TMC3     H 4958   2.030   2.819   9.863  0.8859  2.8342 -0.7690
  330TMC3    H1 4959   2.051   3.074  10.211  2.2915  0.3097 -1.6437
  330TMC3    H2 4960   2.182   2.657  10.222  1.6010  0.7075 -0.0385
  330TMC3    C7 4961   2.142   2.887  10.368 -0.3615  0.1199 -0.0323
  330TMC3    C8 4962   2.128   2.619   9.972  0.0542  0.0108 -1.1651
  330TMC3    O1 4963   2.085   2.967  10.440  0.3464  0.6703  0.1978
  330TMC3    O2 4964   2.188   2.625   9.870 -0.0800  0.1469 -0.3476
  331MPD2     C 4965   3.693   1.854  12.583 -0.2522  0.1307 -0.0468
  331MPD2    C1 4966   3.816   1.889  12.539 -0.2191  0.5506 -0.0837
  331MPD2    C2 4967   3.913   1.798  12.507  0.8712 -1.4861 -0.3861
  331MPD2    C3 4968   3.888   1.665  12.532  0.0758 -0.4988  0.0267
  331MPD2    C4 4969   3.768   1.628  12.580  0.1973 -0.3284  0.0652
  331MPD2    C5 4970   3.676   1.716  12.612  0.1738  0.0292 -0.4596
  331MPD2     H 4971   4.015   1.818  12.477  0.7344 -1.5219 -0.8899
  331MPD2    H1 4972   3.738   1.525  12.590 -0.0642 -0.1587  1.0758
  331MPD2    H2 4973   3.607   1.914  12.610 -0.9765 -1.1019  0.3924
  331MPD2    H3 4974   3.595   1.676  12.672  1.0573 -1.0991 -0.0445
  331MPD2     N 4975   3.994   1.576  12.516  0.2277 -0.7678 -0.2802
  331MPD2    H5 4976   4.079   1.615  12.476  0.3398 -1.4104 -0.6779
  331MPD2    N1 4977   3.850   2.023  12.517  0.1189 -0.0158  0.8181
  331MPD2    H7 4978   3.942   2.034  12.475  0.1304  0.1135  0.8770
  332TMC3    C1 4979   4.105   1.386  12.458  0.1402  0.1701  0.7099
  332TMC3    C2 4980   4.142   1.452  12.343  0.3418 -0.0180 -0.6583
  332TMC3    C3 4981   4.270   1.429  12.299  0.2155  0.3012  0.2724
  332TMC3    C4 4982   4.198   1.331  12.547 -0.3866 -0.1192  0.2024
  332TMC3    C5 4983   4.329   1.329  12.508  0.1039 -0.4236 -0.0735
  332TMC3    C6 4984   4.373   1.374  12.378  0.2020  0.7792 -0.4486
  332TMC3     C 4985   3.992   1.437  12.526  0.3688  1.0349  0.6672
  332TMC3     O 4986   3.900   1.364  12.574 -0.3108 -0.2191 -0.3028
  332TMC3     H 4987   4.065   1.494  12.279  0.2359  2.0927  0.8530
  332TMC3    H1 4988   4.175   1.299  12.648  2.2716 -1.3977  0.4110
  332TMC3    H2 4989   4.473   1.370  12.337 -0.2723  0.1462 -1.5215
  332TMC3    C7 4990   4.424   1.283  12.606  0.4081 -0.3458 -0.1264
  332TMC3    C8 4991   4.300   1.496  12.174 -0.2110  0.7572 -0.1314
  332TMC3    O1 4992   4.384   1.217  12.697  0.1990  0.2803 -0.1909
  332TMC3    O2 4993   4.206   1.520  12.098 -0.0782 -0.6127 -0.1928
  333MPD2     C 4994   4.538   1.856  11.294  0.4259  0.0329  0.3739
  333MPD2    C1 4995   4.608   1.759  11.219  0.2567 -0.0893 -1.0852
  333MPD2    C2 4996   4.593   1.629  11.251 -0.2054  0.4724  0.1974
  333MPD2    C3 4997   4.513   1.588  11.358 -0.0015  0.1861  0.5103
  333MPD2    C4 4998   4.438   1.681  11.426 -0.6297 -0.2636  0.3882
  333MPD2    C5 4999   4.458   1.819  11.398 -0.3399  1.0306  0.1881
  333MPD2     H 5000   4.650   1.559  11.190 -0.9022 -0.5183  0.6933
  333MPD2    H1 5001   4.371   1.655  11.506 -1.2479 -1.9920 -0.6902
  333MPD2    H2 5002   4.551   1.964  11.288  2.8141 -0.3268 -0.9533
  333MPD2    H3 5003   4.426   1.897  11.466 -0.6518 -0.8677  2.2142
  333MPD2     N 5004   4.514   1.453  11.387 -0.2769  0.8432  0.3938
  333MPD2    H5 5005   4.577   1.390  11.338  0.8259  1.8640  0.5143
  333MPD2    N1 5006   4.672   1.806  11.104 -0.3050 -0.5983 -0.0848
  333MPD2    H7 5007   4.683   1.907  11.109  2.2525 -0.7539 -2.4895
  334TMC3    C1 5008   0.114   1.817  10.937  0.7287  0.4169  0.3218
  334TMC3    C2 5009   0.238   1.759  10.917  0.0487 -1.1093  0.1679
  334TMC3    C3 5010   0.342   1.845  10.895  0.3885 -0.3735  0.2732
  334TMC3    C4 5011   0.086   1.946  10.922 -0.2839 -0.3285 -0.8946
  334TMC3    C5 5012   0.192   2.028  10.882 -0.0181 -0.1197  0.3281
  334TMC3    C6 5013   0.322   1.982  10.877 -0.0686 -0.9599  0.0532
  334TMC3     C 5014   0.025   1.732  11.005  0.7912 -0.4683  0.0890
  334TMC3     O 5015   0.012   1.613  10.981  0.3401  0.5767  0.1650
  334TMC3     H 5016   0.262   1.653  10.918  2.3154 -0.5799  0.8779
  334TMC3    H1 5017   4.705   1.984  10.922 -0.4319 -0.7289  0.7808
  334TMC3    H2 5018   0.405   2.048  10.853  0.1975 -1.7033 -1.0710
  334TMC3    C7 5019   0.157   2.163  10.854 -0.4394 -0.1287 -0.1076
  334TMC3    C8 5020   0.476   1.791  10.877  0.0486 -0.2745  0.2359
  334TMC3    O1 5021   0.256   2.234  10.860  0.1199  0.5164  0.4558
  334TMC3    O2 5022   0.483   1.669  10.878 -0.2379 -0.0017  0.5358
  335TMC3    C1 5023   4.669   3.547  17.687  0.2844 -0.2717 -0.8795
  335TMC3    C2 5024   4.602   3.449  17.612  0.7999 -0.2187  0.9318
  335TMC3    C3 5025   4.642   3.438  17.484  0.5169 -0.7871  0.5366
  335TMC3    C4 5026   0.052   3.622  17.644 -0.0673 -0.5700  0.4781
  335TMC3    C5 5027   0.097   3.601  17.520  0.0276 -0.1596  0.2590
  335TMC3    C6 5028   0.032   3.505  17.444 -0.2771  0.4489  0.1158
  335TMC3     C 5029   4.639   3.535   0.148 -0.0587 -0.0733 -0.0763
  335TMC3     O 5030   4.588   3.428   0.183 -0.5742  0.6355 -0.0118
  335TMC3     H 5031   4.518   3.400  17.659 -0.3022 -0.1229 -0.9792
  335TMC3    H1 5032   0.102   3.697   0.017 -1.1231  0.4774  0.0596
  335TMC3    H2 5033   0.047   3.518  17.337 -0.4659 -1.1558 -0.1144
  335TMC3    C7 5034   0.222   3.647  17.471 -0.0828  0.7614 -0.7168
  335TMC3    C8 5035   4.559   3.372  17.386  0.4024 -0.0443 -0.0049
  335TMC3    O1 5036   0.248   3.590  17.366  0.1531  0.5200  0.2735
  335TMC3    O2 5037   4.583   3.404  17.269 -0.6510 -0.5517  0.1291
  336MPD2     C 5038   3.879   1.343  16.067  0.5930 -0.0537  0.4713
  336MPD2    C1 5039   3.844   1.242  15.983  0.0674  0.0091  0.1097
  336MPD2    C2 5040   3.867   1.111  16.018  0.4841  0.6101 -1.0557
  336MPD2    C3 5041   3.918   1.081  16.144 -0.2109 -0.5889  0.3477
  336MPD2    C4 5042   3.966   1.183  16.223 -0.3615  0.3897  0.1960
  336MPD2    C5 5043   3.938   1.311  16.191  0.0010  0.1896  1.0859
  336MPD2     H 5044   3.839   1.028  15.954 -2.3856  0.4601  0.3860
  336MPD2    H1 5045   4.006   1.171  16.323  0.2526  1.2529  0.0520
  336MPD2    H2 5046   3.871   1.448  16.043  2.1199 -0.1253 -0.3270
  336MPD2    H3 5047   3.974   1.380  16.267 -1.7612 -0.2295  2.3127
  336MPD2     N 5048   3.948   0.950  16.193  0.2208  0.0132 -0.2597
  336MPD2    H5 5049   3.996   0.950  16.282 -0.5042  1.8359  0.1359
  336MPD2    N1 5050   3.780   1.267  15.860 -0.2057  0.0014  0.4743
  336MPD2    H7 5051   3.775   1.186  15.799 -1.4414  0.8494 -0.5507
  337TMC3    C1 5052   3.685   1.389  15.680 -0.5061 -0.9356 -0.2879
  337TMC3    C2 5053   3.596   1.286  15.655 -0.1532 -0.1457 -0.1995
  337TMC3    C3 5054   3.510   1.310  15.546  0.2380  0.1893  1.2302
  337TMC3    C4 5055   3.710   1.496  15.595  0.3691 -0.1540  0.5890
  337TMC3    C5 5056   3.614   1.519  15.499 -0.3387  0.6192  0.3603
  337TMC3    C6 5057   3.506   1.426  15.477 -0.7028 -0.5444  0.9481
  337TMC3     C 5058   3.750   1.390  15.810  0.1686  0.5731  0.0855
  337TMC3     O 5059   3.765   1.501  15.857  0.8048  0.4202  0.7652
  337TMC3     H 5060   3.605   1.190  15.702  0.4671  0.3939  0.7788
  337TMC3    H1 5061   3.796   1.557  15.620  0.7901  0.4370 -2.3933
  337TMC3    H2 5062   3.446   1.443  15.389  0.1777  2.7468  0.9783
  337TMC3    C7 5063   3.623   1.640  15.430  1.4304 -0.4556 -0.9569
  337TMC3    C8 5064   3.405   1.218  15.531 -0.3757  0.1731  0.0529
  337TMC3    O1 5065   3.733   1.688  15.415 -0.5426  0.4443  0.3396
  337TMC3    O2 5066   3.420   1.102  15.568 -0.0144  0.2540 -0.3518
  338MPD2     C 5067   4.515   0.319   1.298  0.7207  0.0190 -0.0516
  338MPD2    C1 5068   4.433   0.354   1.190  0.7627  0.2126  0.0085
  338MPD2    C2 5069   4.322   0.435   1.220  0.5416 -0.0077 -0.5270
  338MPD2    C3 5070   4.305   0.494   1.351  0.0031  0.3937  0.2510
  338MPD2    C4 5071   4.396   0.458   1.448  0.4045 -0.2727 -0.5515
  338MPD2    C5 5072   4.500   0.370   1.422  0.6195  0.6865  0.3191
  338MPD2     H 5073   4.251   0.456   1.140  0.2438 -0.1285 -0.2968
  338MPD2    H1 5074   4.380   0.492   1.550 -3.3562  1.3282 -1.6654
  338MPD2    H2 5075   4.584   0.237   1.281  0.7306 -0.4626  2.3126
  338MPD2    H3 5076   4.562   0.338   1.504 -0.6832  1.5700  1.6486
  338MPD2     N 5077   4.215   0.595   1.362 -0.4800  0.4489 -0.4790
  338MPD2    H5 5078   4.163   0.629   1.281 -1.1921  2.9866  1.0406
  338MPD2    N1 5079   4.457   0.293   1.060 -0.4257 -0.2000  0.2099
  338MPD2    H7 5080   4.386   0.308   0.988 -0.2272 -2.9343 -0.5489
  339TMC3    C1 5081   4.120   0.792   1.449  0.1076 -0.8510 -0.0086
  339TMC3    C2 5082   4.080   0.868   1.558 -0.1865  0.0547  0.5911
  339TMC3    C3 5083   3.996   0.976   1.535 -0.6733 -0.7547 -0.0235
  339TMC3    C4 5084   4.078   0.824   1.324 -0.2055  0.3302 -0.0890
  339TMC3    C5 5085   3.988   0.923   1.311  0.0490  1.0423  0.2427
  339TMC3    C6 5086   3.949   1.006   1.412 -0.1979  0.3381  0.5609
  339TMC3     C 5087   4.193   0.664   1.475 -0.0821  0.3185 -0.8404
  339TMC3     O 5088   4.217   0.634   1.591 -0.5912  0.4327  0.0855
  339TMC3     H 5089   4.132   0.854   1.652 -1.9081 -0.0157  1.5422
  339TMC3    H1 5090   4.138   0.797   1.238 -0.4174 -0.5296  0.0384
  339TMC3    H2 5091   3.882   1.090   1.392 -0.0056  0.3697  0.0420
  339TMC3    C7 5092   3.981   0.970   1.178 -0.7670 -0.8190  0.2672
  339TMC3    C8 5093   3.951   1.049   1.659 -0.6169  0.4042 -0.2497
  339TMC3    O1 5094   3.955   1.090   1.167  0.1706 -0.0583 -0.7546
  339TMC3    O2 5095   3.899   1.158   1.652  0.0363 -0.1172 -0.0895
  340MPD2     C 5096   4.292   2.755  10.236 -0.5207 -0.1979 -0.4551
  340MPD2    C1 5097   4.369   2.769  10.122  0.6030  0.2997 -0.4684
  340MPD2    C2 5098   4.448   2.883  10.107 -0.4880  0.2113  0.1784
  340MPD2    C3 5099   4.436   2.986  10.197 -0.7941 -0.0922 -0.3570
  340MPD2    C4 5100   4.362   2.973  10.309 -0.2955  0.3976 -0.2240
  340MPD2    C5 5101   4.284   2.861  10.328  0.6904 -0.1256 -0.4113
  340MPD2     H 5102   4.507   2.892  10.017  1.9908 -0.5206  1.7136
  340MPD2    H1 5103   4.364   3.055  10.380 -0.0336 -0.0765  0.3128
  340MPD2    H2 5104   4.235   2.665  10.256 -0.8139  0.3113  0.9476
  340MPD2    H3 5105   4.222   2.841  10.415  0.4702  1.5564 -0.1922
  340MPD2     N 5106   4.516   3.103  10.198 -0.0996  0.1146  0.4874
  340MPD2    H5 5107   4.490   3.173  10.267 -3.3447 -1.4003  0.7982
  340MPD2    N1 5108   4.346   2.655  10.036 -0.8745 -0.6477 -0.0736
  340MPD2    H7 5109   4.298   2.572  10.068 -1.9899 -0.7595 -2.0371
  341TMC3    C1 5110   4.384   2.525   9.849  0.0418  0.1671 -0.4116
  341TMC3    C2 5111   4.257   2.462   9.850 -0.3901 -0.6281  0.7632
  341TMC3    C3 5112   4.243   2.349   9.770 -0.6407 -0.4970  0.8610
  341TMC3    C4 5113   4.474   2.492   9.754  0.7702  0.5740 -0.1146
  341TMC3    C5 5114   4.448   2.390   9.670 -0.7967  0.6935  0.0053
  341TMC3    C6 5115   4.336   2.309   9.675  0.3776 -0.2400 -0.0135
  341TMC3     C 5116   4.403   2.648   9.913 -0.1234 -0.4288  0.0950
  341TMC3     O 5117   4.482   2.726   9.860  0.0568  0.1123  0.6125
  341TMC3     H 5118   4.185   2.501   9.921  3.7826  1.3633  3.8940
  341TMC3    H1 5119   4.563   2.550   9.734  0.3383  1.1651 -0.3323
  341TMC3    H2 5120   4.323   2.219   9.616 -0.4269 -1.0968  1.4770
  341TMC3    C7 5121   4.569   2.312   9.647  0.5132  0.2753 -0.1248
  341TMC3    C8 5122   4.141   2.257   9.809 -0.6259  0.1810  0.8242
  341TMC3    O1 5123   4.671   2.324   9.721  0.2917  0.4968 -0.1468
  341TMC3    O2 5124   4.084   2.280   9.916 -0.2083  0.7488  0.1971
  342MPD2     C 5125   2.054   1.935  17.214 -0.2449 -0.0402 -0.0435
  342MPD2    C1 5126   2.156   1.895  17.293 -0.3354 -0.2610  1.1626
  342MPD2    C2 5127   2.205   1.993  17.381 -0.7313 -0.2234  0.1467
  342MPD2    C3 5128   2.155   2.123  17.384 -1.0137 -0.0123  0.1387
  342MPD2    C4 5129   2.058   2.164  17.288 -0.4303  0.2214  0.1810
  342MPD2    C5 5130   2.009   2.067  17.207  0.4323 -0.7152  0.2798
  342MPD2     H 5131   2.273   1.952  17.455 -2.2154 -1.9778  0.5634
  342MPD2    H1 5132   2.009   2.260  17.289 -1.9637 -0.5345 -1.6367
  342MPD2    H2 5133   2.006   1.860  17.151 -3.0784  0.7806  1.1317
  342MPD2    H3 5134   1.928   2.094  17.139 -0.2027  0.6651  1.6021
  342MPD2     N 5135   2.208   2.225  17.463 -0.3376 -0.2001  0.8641
  342MPD2    H5 5136   2.187   2.319  17.430  0.8515 -1.0032 -2.1543
  342MPD2    N1 5137   2.222   1.771  17.288 -0.7249 -0.7936 -0.1014
  342MPD2    H7 5138   2.291   1.749  17.359 -0.2016  1.6194  0.1532
  343TMC3    C1 5139   2.298   1.565  17.199 -0.5141 -0.1384 -0.4189
  343TMC3    C2 5140   2.345   1.507  17.086 -0.1853 -0.0106  0.2261
  343TMC3    C3 5141   2.418   1.394  17.095 -0.0384  0.2567  0.2599
  343TMC3    C4 5142   2.309   1.506  17.322 -0.4391 -0.2058 -0.1282
  343TMC3    C5 5143   2.370   1.388  17.315 -0.5278 -0.0770 -0.2476
  343TMC3    C6 5144   2.435   1.331  17.211  0.3754 -0.0297  0.0918
  343TMC3     C 5145   2.216   1.686  17.179 -0.0296  0.4343  0.1060
  343TMC3     O 5146   2.179   1.713  17.065 -0.0016  0.1830 -0.0358
  343TMC3     H 5147   2.310   1.551  16.994  0.4844 -0.5995 -0.3110
  343TMC3    H1 5148   2.256   1.533  17.413 -0.1144  1.2265 -0.3764
  343TMC3    H2 5149   2.503   1.247  17.226 -0.8258 -1.5222 -2.7551
  343TMC3    C7 5150   2.353   1.286  17.423  0.1751  0.4898 -0.7184
  343TMC3    C8 5151   2.480   1.347  16.970 -0.4053 -0.0910 -0.4974
  343TMC3    O1 5152   2.348   1.168  17.392 -0.3962 -0.0502 -0.1241
  343TMC3    O2 5153   2.439   1.377  16.860  0.3286 -0.4124  0.4145
  344MPD2     C 5154   3.437   0.645  11.028  0.2869  0.5025  0.2886
  344MPD2    C1 5155   3.326   0.683  10.945  0.0015  0.7919 -0.6930
  344MPD2    C2 5156   3.331   0.809  10.887 -0.0141 -0.6611 -0.0873
  344MPD2    C3 5157   3.454   0.882  10.897 -0.1184 -0.1501 -0.2450
  344MPD2    C4 5158   3.567   0.826  10.949 -0.1146 -0.6969 -0.4430
  344MPD2    C5 5159   3.561   0.705  11.018 -0.3462  0.3984  0.8281
  344MPD2     H 5160   3.249   0.848  10.827  1.9163  1.9913 -1.0618
  344MPD2    H1 5161   3.659   0.883  10.947  0.0345 -0.9099  0.4389
  344MPD2    H2 5162   3.412   0.565  11.096  0.2626  1.3249  1.2415
  344MPD2    H3 5163   3.646   0.666  11.072 -2.3500 -2.8633  1.6529
  344MPD2     N 5164   3.475   1.005  10.836  0.0942 -0.6222  0.3026
  344MPD2    H5 5165   3.562   1.055  10.849  1.0087 -1.1950 -3.7809
  344MPD2    N1 5166   3.207   0.606  10.960  0.6198  0.4288  0.5457
  344MPD2    H7 5167   3.210   0.521  11.015  1.0187  1.8471  2.7794
  345TMC3    C1 5168   3.438   1.224  10.755 -0.2658  0.5523  1.2228
  345TMC3    C2 5169   3.561   1.256  10.816 -0.2509  1.1109  0.2890
  345TMC3    C3 5170   3.621   1.374  10.776 -0.2772 -0.7969  0.4172
  345TMC3    C4 5171   3.372   1.316  10.669 -0.0141 -0.1347 -0.0719
  345TMC3    C5 5172   3.438   1.433  10.648  0.0853  0.1710 -0.0917
  345TMC3    C6 5173   3.560   1.467  10.700  0.2199  0.7797 -0.6466
  345TMC3     C 5174   3.380   1.085  10.779  0.3768  0.3408 -0.5546
  345TMC3     O 5175   3.265   1.065  10.742 -0.2325 -0.5814  0.0330
  345TMC3     H 5176   3.619   1.191  10.880  0.3739  2.1774  0.7981
  345TMC3    H1 5177   3.277   1.290  10.624  0.6323 -0.4548 -1.2405
  345TMC3    H2 5178   3.615   1.554  10.665 -1.2802  1.3777 -1.5317
  345TMC3    C7 5179   3.383   1.537  10.561  0.8420 -0.0103 -0.2375
  345TMC3    C8 5180   3.762   1.402  10.813 -0.4200 -0.6997  0.2312
  345TMC3    O1 5181   3.457   1.631  10.526  0.6691  0.1595  0.1962
  345TMC3    O2 5182   3.812   1.515  10.788  0.3087 -0.5958  0.6886
  346MPD2     C 5183   2.860   2.619  14.008 -0.5143  0.1837  0.1949
  346MPD2    C1 5184   2.987   2.597  13.956 -0.2700  0.0474  0.0970
  346MPD2    C2 5185   3.094   2.680  13.994  0.2272 -0.1636  0.5871
  346MPD2    C3 5186   3.080   2.766  14.103 -0.1304  0.3442  0.0547
  346MPD2    C4 5187   2.951   2.796  14.146 -0.8148 -0.1249 -0.0641
  346MPD2    C5 5188   2.846   2.719  14.103  0.1467  0.1007  0.8143
  346MPD2     H 5189   3.193   2.649  13.962 -0.4975 -0.4203 -1.3824
  346MPD2    H1 5190   2.918   2.872  14.215  1.5663  1.3879 -0.5774
  346MPD2    H2 5191   2.768   2.579  13.966  0.6179 -2.7733  0.5259
  346MPD2    H3 5192   2.750   2.737  14.149  0.0444  2.1470 -0.2167
  346MPD2     N 5193   3.194   2.833  14.150 -0.2014  0.6421 -0.1143
  346MPD2    H5 5194   3.276   2.808  14.097 -0.3542 -0.0246 -0.0298
  346MPD2    N1 5195   3.021   2.504  13.851 -0.0422 -0.0114 -0.1872
  346MPD2    H7 5196   3.117   2.506  13.820  0.6102 -2.1851  1.6720
  347TMC3    C1 5197   3.344   2.940  14.300 -0.0777 -0.1170 -0.4281
  347TMC3    C2 5198   3.451   2.862  14.272 -0.0032 -0.5683  0.8637
  347TMC3    C3 5199   3.572   2.880  14.338  0.4789 -0.2024 -0.0168
  347TMC3    C4 5200   3.351   3.029  14.404  0.5106 -0.3337 -0.2303
  347TMC3    C5 5201   3.462   3.040  14.478  0.0915 -0.1836  0.1074
  347TMC3    C6 5202   3.576   2.964  14.449  0.4441  0.3799 -0.1831
  347TMC3     C 5203   3.207   2.904  14.263 -0.0662  0.0810  0.1568
  347TMC3     O 5204   3.125   2.933  14.347  0.4971 -0.5812 -0.3057
  347TMC3     H 5205   3.444   2.786  14.195  1.8678 -0.0562  0.1949
  347TMC3    H1 5206   3.265   3.091  14.425  0.8452 -0.1667  0.6671
  347TMC3    H2 5207   3.666   2.959  14.509 -0.2745 -0.3709  0.8306
  347TMC3    C7 5208   3.462   3.123  14.598  0.5526  0.3272  0.1437
  347TMC3    C8 5209   3.695   2.821  14.290  0.7535 -0.2049 -0.2820
  347TMC3    O1 5210   3.355   3.153  14.645  0.1137  0.1713  0.4695
  347TMC3    O2 5211   3.690   2.716  14.235  0.0741  0.2209 -0.2617
  348MPD2     C 5212   1.896   2.073  12.118 -0.8067  0.4272 -0.2650
  348MPD2    C1 5213   1.962   2.194  12.165  0.0462 -0.1475 -0.4471
  348MPD2    C2 5214   1.932   2.317  12.097 -0.3504  0.1587  0.2450
  348MPD2    C3 5215   1.837   2.330  12.002 -0.0109 -0.3018 -0.9011
  348MPD2    C4 5216   1.771   2.210  11.966 -0.1820  0.2461  0.0097
  348MPD2    C5 5217   1.799   2.089  12.020 -0.5898 -0.3466 -0.1247
  348MPD2     H 5218   1.976   2.410  12.131  2.7294 -0.3567 -2.3829
  348MPD2    H1 5219   1.696   2.202  11.888  1.1061 -4.3752 -0.7754
  348MPD2    H2 5220   1.917   1.974  12.159 -3.1387  0.6552  1.4809
  348MPD2    H3 5221   1.738   2.007  11.984  1.7161 -2.2018  0.2285
  348MPD2     N 5222   1.805   2.459  11.950 -0.2200  0.3755 -0.5278
  348MPD2    H5 5223   1.844   2.540  11.998  1.0845 -0.0846 -0.8123
  348MPD2    N1 5224   2.078   2.186  12.250  0.7133 -0.0848  0.1321
  348MPD2    H7 5225   2.136   2.269  12.250 -1.2412  1.3192  1.6956
  349TMC3    C1 5226   2.239   2.106  12.392 -0.0557 -0.4430  1.0200
  349TMC3    C2 5227   2.266   2.019  12.491 -0.3181  0.9660  0.1630
  349TMC3    C3 5228   2.394   1.984  12.516 -0.1619 -0.0778 -0.5022
  349TMC3    C4 5229   2.337   2.179  12.327 -0.5778 -0.7913  0.6185
  349TMC3    C5 5230   2.467   2.148  12.363  0.6569  0.0393  0.2688
  349TMC3    C6 5231   2.501   2.043  12.448  0.0061  0.0081 -0.0992
  349TMC3     C 5232   2.120   2.072  12.324  0.1085  0.8322 -0.6967
  349TMC3     O 5233   2.078   1.958  12.336  0.0876 -0.1641 -0.1174
  349TMC3     H 5234   2.177   1.975  12.536  1.4792 -0.0744  2.7252
  349TMC3    H1 5235   2.306   2.251  12.252 -0.4269  0.0132  1.3342
  349TMC3    H2 5236   2.601   2.001  12.452 -0.3645 -0.8647 -0.2555
  349TMC3    C7 5237   2.570   2.214  12.287 -0.0009  0.5936  0.2030
  349TMC3    C8 5238   2.405   1.844  12.554 -0.3628 -0.3482  0.8260
  349TMC3    O1 5239   2.686   2.217  12.331 -0.4562 -0.5906 -0.9175
  349TMC3    O2 5240   2.387   1.811  12.672  0.0395  0.1958 -0.2325
  350MPD2     C 5241   0.377   0.282  10.548 -0.3099  0.9698  0.0221
  350MPD2    C1 5242   0.444   0.231  10.440  0.0169  0.1127  0.6240
  350MPD2    C2 5243   0.572   0.274  10.402 -0.2446 -0.5456 -0.0832
  350MPD2    C3 5244   0.629   0.373  10.473  0.5841 -0.2303  0.3972
  350MPD2    C4 5245   0.562   0.425  10.584  0.1962  0.3127 -0.2744
  350MPD2    C5 5246   0.444   0.374  10.626 -0.1495 -0.4480  0.0581
  350MPD2     H 5247   0.623   0.225  10.319 -0.6822 -0.9204 -0.1283
  350MPD2    H1 5248   0.603   0.509  10.639  3.0392 -1.0970 -0.2750
  350MPD2    H2 5249   0.278   0.259  10.586  0.2357  1.1488  1.5399
  350MPD2    H3 5250   0.400   0.424  10.712  1.3182  3.4149 -1.4202
  350MPD2     N 5251   0.763   0.412  10.438  0.1345 -0.9459  0.4362
  350MPD2    H5 5252   0.799   0.367  10.355 -1.9035 -1.4151 -0.2081
  350MPD2    N1 5253   0.378   0.145  10.349 -0.8325  0.2887  0.3820
  350MPD2    H7 5254   0.429   0.116  10.266 -0.4462 -0.4448  0.8722
  351TMC3    C1 5255   0.212   4.715  10.275  0.0248 -0.7847  1.0120
  351TMC3    C2 5256   0.304   4.696  10.174 -0.5760 -0.0065 -0.5929
  351TMC3    C3 5257   0.304   4.573  10.109 -0.3077 -0.6960 -0.0793
  351TMC3    C4 5258   0.126   4.621  10.322 -0.6831 -0.3302  0.8279
  351TMC3    C5 5259   0.139   4.497  10.266  0.7415 -0.5838  0.6150
  351TMC3    C6 5260   0.228   4.471  10.165 -0.1793 -0.0085 -0.0154
  351TMC3     C 5261   0.251   0.101  10.370 -0.3328  0.0337  0.4561
  351TMC3     O 5262   0.186   0.099  10.474 -0.0961  0.1256 -0.4140
  351TMC3     H 5263   0.367   0.052  10.131  1.9942 -0.9143  1.4875
  351TMC3    H1 5264   0.057   4.640  10.403 -1.8954  0.9211 -0.5108
  351TMC3    H2 5265   0.213   4.377  10.114 -0.6692  0.0390  0.0461
  351TMC3    C7 5266   0.066   4.391  10.319 -0.3766  0.0621 -0.3113
  351TMC3    C8 5267   0.416   4.528  10.027 -0.1287 -0.3407  0.8459
  351TMC3    O1 5268   4.690   4.419  10.383 -0.4940 -0.1920  0.1790
  351TMC3    O2 5269   0.405   4.418   9.971  0.2254 -0.0820 -0.4398
  352MPD2     C 5270   4.470   2.552   1.889 -0.3704 -0.3819 -0.3428
  352MPD2    C1 5271   4.379   2.462   1.826 -0.3644 -0.0886  0.0966
  352MPD2    C2 5272   4.355   2.339   1.889 -0.9371 -0.2269 -0.3606
  352MPD2    C3 5273   4.423   2.304   2.002 -0.6679  0.0090  0.0249
  352MPD2    C4 5274   4.514   2.384   2.052  0.9512  0.0293 -0.9214
  352MPD2    C5 5275   4.531   2.507   2.001 -0.0804  0.5821 -0.6180
  352MPD2     H 5276   4.296   2.265   1.836 -2.0676  0.4827 -0.1109
  352MPD2    H1 5277   4.578   2.347   2.131 -1.3051 -0.4599  0.6899
  352MPD2    H2 5278   4.497   2.648   1.848 -0.0202 -0.0565  0.6464
  352MPD2    H3 5279   4.610   2.570   2.040  1.2518 -1.8273  0.5834
  352MPD2     N 5280   4.414   2.179   2.074  0.5894  0.9039  0.3067
  352MPD2    H5 5281   4.474   2.174   2.156  0.8011  1.0230  0.1588
  352MPD2    N1 5282   4.317   2.504   1.707  0.3463  0.1764 -0.0514
  352MPD2    H7 5283   4.347   2.595   1.674  0.9754  0.1687  0.4954
  353TMC3    C1 5284   4.354   1.949   2.081  0.8019  0.1150 -0.7542
  353TMC3    C2 5285   4.488   1.916   2.071  0.0169 -0.4030  1.1237
  353TMC3    C3 5286   4.527   1.793   2.019  0.9411  0.1065 -0.1517
  353TMC3    C4 5287   4.258   1.858   2.035  0.5457 -0.4890  0.0714
  353TMC3    C5 5288   4.309   1.737   1.987  0.1427 -0.5369  0.1675
  353TMC3    C6 5289   4.433   1.696   1.987 -0.0174 -0.6195  0.0374
  353TMC3     C 5290   4.326   2.082   2.033 -0.1018 -0.9456 -0.3642
  353TMC3     O 5291   4.244   2.075   1.943 -0.1119 -0.2465  0.3644
  353TMC3     H 5292   4.560   1.997   2.074 -0.3761  0.0082 -0.5128
  353TMC3    H1 5293   4.153   1.878   2.052  0.8746 -1.1112  2.9051
  353TMC3    H2 5294   4.450   1.590   1.971 -1.9972 -1.4440  3.2387
  353TMC3    C7 5295   4.234   1.682   1.876  1.1050  0.3305 -0.1753
  353TMC3    C8 5296   4.669   1.754   2.030 -0.4093 -0.3768  0.9772
  353TMC3    O1 5297   4.270   1.576   1.825  0.4399  0.0535  0.4845
  353TMC3    O2 5298   0.022   1.826   2.094 -0.5563 -0.1321  0.0997
  354TMC3    C1 5299   1.083   3.575  13.543 -0.4970  0.5531 -0.4744
  354TMC3    C2 5300   1.207   3.629  13.529  0.0081 -0.4174 -0.6546
  354TMC3    C3 5301   1.263   3.627  13.408 -0.4263  0.0675 -0.6585
  354TMC3    C4 5302   1.016   3.508  13.443  0.5466  0.3080 -0.5914
  354TMC3    C5 5303   1.080   3.513  13.319  0.2315 -0.1257  0.4767
  354TMC3    C6 5304   1.202   3.568  13.300 -0.2522 -0.0113  0.3328
  354TMC3     C 5305   1.028   3.566  13.676  0.7435 -0.8751  0.8136
  354TMC3     O 5306   1.081   3.633  13.766  0.3765 -0.1926  0.2976
  354TMC3     H 5307   1.253   3.683  13.611 -0.4709 -0.8037 -0.1394
  354TMC3    H1 5308   0.908   3.509  13.446  0.5891 -2.3638  0.8771
  354TMC3    H2 5309   1.257   3.567  13.207 -1.2675  1.2712 -0.2653
  354TMC3    C7 5310   1.003   3.498  13.197  0.1967  0.1743  0.6044
  354TMC3    C8 5311   1.349   3.743  13.380  0.0614  0.0243 -0.2704
  354TMC3    O1 5312   0.883   3.511  13.198  0.2270  0.0667  0.6650
  354TMC3    O2 5313   1.425   3.779  13.470  0.4431  0.3001  0.3687
  355MPD2     C 5314   1.173   4.481  11.715 -0.1905  0.0706 -0.1008
  355MPD2    C1 5315   1.276   4.568  11.743  0.6277 -0.0206 -0.4495
  355MPD2    C2 5316   1.331   4.563  11.863  0.1966 -0.7434  0.2470
  355MPD2    C3 5317   1.292   4.471  11.961 -0.5394 -0.1419 -0.5288
  355MPD2    C4 5318   1.200   4.376  11.926 -0.4512  0.1405 -0.4126
  355MPD2    C5 5319   1.133   4.396  11.811  0.8322  0.0444  0.0283
  355MPD2     H 5320   1.426   4.615  11.870 -1.0808  1.5918  0.1622
  355MPD2    H1 5321   1.170   4.299  11.996  1.3399 -0.0888  0.0852
  355MPD2    H2 5322   1.134   4.479  11.614  1.0827 -1.6790 -0.5512
  355MPD2    H3 5323   1.064   4.317  11.784  1.1804 -0.2708  0.0618
  355MPD2     N 5324   1.375   4.449  12.075 -0.0605 -0.0211 -0.5530
  355MPD2    H5 5325   1.365   4.367  12.134 -1.5889  0.8709  0.3892
  355MPD2    N1 5326   1.347   4.634  11.646  0.0471 -0.0635 -0.1833
  355MPD2    H7 5327   1.435   4.670  11.681 -1.5863  2.5141  1.2707
  356TMC3    C1 5328   1.571   4.486  12.187  0.0228  0.1940 -0.1115
  356TMC3    C2 5329   1.655   4.456  12.084  0.1397  0.1543 -0.0762
  356TMC3    C3 5330   1.788   4.494  12.091 -0.3815 -0.3916  0.0895
  356TMC3    C4 5331   1.619   4.562  12.293 -0.0957  0.3295  0.3369
  356TMC3    C5 5332   1.756   4.594  12.291  0.6151 -0.0124  0.0829
  356TMC3    C6 5333   1.844   4.567  12.196 -0.0981 -0.2590  0.8030
  356TMC3     C 5334   1.456   4.545  12.119 -0.6210 -0.2376  0.1428
  356TMC3     O 5335   1.478   4.660  12.082  0.2551 -0.4342  0.6974
  356TMC3     H 5336   1.620   4.405  11.995 -1.0028  0.3679  0.2501
  356TMC3    H1 5337   1.549   4.595  12.369  1.1429  1.7409  0.8551
  356TMC3    H2 5338   1.950   4.589  12.205 -0.2860  0.2193  1.7560
  356TMC3    C7 5339   1.799   4.671  12.406 -0.1104  0.9075  0.5091
  356TMC3    C8 5340   1.865   4.492  11.963  0.0485  0.1150 -0.3607
  356TMC3    O1 5341   1.736   4.656  12.510 -0.5137  0.2148 -0.0606
  356TMC3    O2 5342   1.835   4.406  11.882 -0.9682 -0.1570  0.0021
  357MPD2     C 5343   1.898   4.035   1.615 -0.3654  0.3224  0.8275
  357MPD2    C1 5344   2.028   4.023   1.667  0.7430 -0.2711  0.0742
  357MPD2    C2 5345   2.060   4.083   1.791 -0.6434 -0.0753 -0.7762
  357MPD2    C3 5346   1.974   4.150   1.872 -0.4198 -0.1539 -0.1809
  357MPD2    C4 5347   1.845   4.153   1.825 -0.9620  0.8568 -0.5487
  357MPD2    C5 5348   1.806   4.095   1.704 -0.2404  0.5783 -0.3324
  357MPD2     H 5349   2.164   4.071   1.818 -0.3111 -1.8309 -2.8498
  357MPD2    H1 5350   1.779   4.208   1.891 -0.3568 -1.5234  2.0399
  357MPD2    H2 5351   1.863   3.982   1.527  0.8320 -1.1400  1.2319
  357MPD2    H3 5352   1.701   4.097   1.678 -0.3835  1.8497  0.3303
  357MPD2     N 5353   2.008   4.228   1.992 -0.0403 -0.3009  0.2164
  357MPD2    H5 5354   1.931   4.270   2.043  0.8419  0.6513  0.7748
  357MPD2    N1 5355   2.123   3.945   1.594  0.4183 -0.6664 -0.5837
  357MPD2    H7 5356   2.088   3.897   1.512 -0.6768 -0.1308 -0.4311
  358TMC3    C1 5357   2.315   3.831   1.521  0.0036 -0.1890  0.8126
  358TMC3    C2 5358   2.240   3.777   1.421  0.6419  0.2663  0.1621
  358TMC3    C3 5359   2.303   3.728   1.306 -0.4511 -0.4824  0.0792
  358TMC3    C4 5360   2.446   3.843   1.510 -0.2767  0.4303 -0.3268
  358TMC3    C5 5361   2.506   3.796   1.397 -0.4701 -0.0222  0.3224
  358TMC3    C6 5362   2.438   3.745   1.288  0.2186 -0.3746  0.7713
  358TMC3     C 5363   2.258   3.929   1.619 -0.0917  0.5272  0.0014
  358TMC3     O 5364   2.328   3.992   1.691  0.0540  0.3234 -0.0559
  358TMC3     H 5365   2.134   3.757   1.433  0.8821 -0.1822  1.5207
  358TMC3    H1 5366   2.502   3.865   1.600 -2.0629 -0.5481  1.0178
  358TMC3    H2 5367   2.480   3.719   1.191  0.1199  2.1804  0.0221
  358TMC3    C7 5368   2.632   3.860   1.363  0.0393 -0.2230  0.3233
  358TMC3    C8 5369   2.226   3.676   1.192  0.5202 -0.1671  0.1592
  358TMC3    O1 5370   2.670   3.960   1.427 -0.0512  0.2999 -0.0416
  358TMC3    O2 5371   2.264   3.716   1.086  0.0793  0.0920 -0.4301
  359MPD2     C 5372   2.217   3.393  12.628  0.1376 -0.2289  0.3552
  359MPD2    C1 5373   2.093   3.405  12.567  0.0995 -0.5193  0.6890
  359MPD2    C2 5374   1.974   3.351  12.616 -0.4722 -0.4631 -0.4186
  359MPD2    C3 5375   1.969   3.304  12.746 -0.2135 -0.2707  0.2648
  359MPD2    C4 5376   2.093   3.304  12.813  0.1798 -0.0059 -0.5488
  359MPD2    C5 5377   2.210   3.346  12.753  0.2837  0.9400  0.1052
  359MPD2     H 5378   1.890   3.355  12.549 -1.2110 -0.8348  0.4836
  359MPD2    H1 5379   2.103   3.279  12.918  0.4113 -2.3475 -1.1288
  359MPD2    H2 5380   2.316   3.422  12.593 -0.0747 -1.0234 -0.8939
  359MPD2    H3 5381   2.304   3.342  12.807  1.0006 -0.0206 -1.2133
  359MPD2     N 5382   1.852   3.262  12.819 -0.1212 -0.1635 -0.3631
  359MPD2    H5 5383   1.870   3.237  12.916 -1.9563 -2.0776 -0.5267
  359MPD2    N1 5384   2.081   3.468  12.440  0.0999 -0.7511 -0.0142
  359MPD2    H7 5385   1.989   3.476  12.396 -0.1295  0.2739  0.6576
  360TMC3    C1 5386   2.143   3.580  12.237  0.5576  0.0366  0.7034
  360TMC3    C2 5387   2.214   3.686  12.189 -0.4843 -0.2269 -0.3594
  360TMC3    C3 5388   2.223   3.707  12.060  0.0457  0.4995  0.2753
  360TMC3    C4 5389   2.072   3.507  12.150  0.1922 -1.0299 -0.5865
  360TMC3    C5 5390   2.070   3.537  12.019  0.4033  0.2186 -0.4682
  360TMC3    C6 5391   2.142   3.646  11.973  0.1758  0.1890  0.3733
  360TMC3     C 5392   2.184   3.528  12.368 -0.0325  0.0578  0.5222
  360TMC3     O 5393   2.302   3.548  12.402 -0.1665 -0.4125  0.0106
  360TMC3     H 5394   2.296   3.719  12.252 -1.3746  0.9288  0.2146
  360TMC3    H1 5395   2.026   3.414  12.180  1.7514 -2.1502 -1.6601
  360TMC3    H2 5396   2.139   3.670  11.867 -0.0901  0.3283  0.4121
  360TMC3    C7 5397   1.969   3.483  11.929  0.6266 -0.0875  0.1133
  360TMC3    C8 5398   2.348   3.771  12.018  0.0110  0.2825  0.6578
  360TMC3    O1 5399   1.954   3.528  11.824  0.2361  0.1529 -0.7911
  360TMC3    O2 5400   2.410   3.853  12.084  0.4425  0.0884 -0.4622
  361MPD2     C 5401   3.115   1.854  17.089 -0.0222 -0.3343  0.4782
  361MPD2    C1 5402   3.159   1.932  17.194 -0.4907 -0.2908  0.4041
  361MPD2    C2 5403   3.241   1.888  17.298  0.3101  0.4027  0.0458
  361MPD2    C3 5404   3.290   1.758  17.294  0.0488  0.8575  0.6030
  361MPD2    C4 5405   3.235   1.674  17.197  0.1657 -0.0589 -0.8734
  361MPD2    C5 5406   3.154   1.719  17.096  0.0766 -1.1724 -0.0318
  361MPD2     H 5407   3.274   1.961  17.371  2.7608 -0.0453 -0.6065
  361MPD2    H1 5408   3.267   1.571  17.188  2.5415  0.7471 -1.7165
  361MPD2    H2 5409   3.050   1.888  17.009  0.1722 -1.7415 -0.3003
  361MPD2    H3 5410   3.129   1.649  17.018  1.0677 -2.0194  0.4100
  361MPD2     N 5411   3.372   1.701  17.387  0.2360  0.5322 -0.2937
  361MPD2    H5 5412   3.387   1.601  17.380  1.1504  0.9154 -3.7890
  361MPD2    N1 5413   3.114   2.064  17.222  0.2144  0.7199 -0.4987
  361MPD2    H7 5414   3.158   2.099  17.307  1.3777  0.7937 -1.1317
  362TMC3    C1 5415   2.993   2.269  17.200  0.8737  0.6195 -0.3844
  362TMC3    C2 5416   3.044   2.307  17.320 -0.0892 -0.2261 -0.3153
  362TMC3    C3 5417   3.028   2.431  17.361 -0.1097  0.2801  0.6307
  362TMC3    C4 5418   2.942   2.358  17.111  0.1160  0.6176  0.0184
  362TMC3    C5 5419   2.940   2.490  17.149  0.1664 -0.2276  0.6058
  362TMC3    C6 5420   2.977   2.527  17.279  0.0824  0.3020  0.7132
  362TMC3     C 5421   3.025   2.134  17.145 -0.5368  0.1075  0.4227
  362TMC3     O 5422   2.964   2.104  17.038  0.1946 -0.1185  0.2714
  362TMC3     H 5423   3.077   2.238  17.398  1.1953  2.2320  1.3013
  362TMC3    H1 5424   2.893   2.325  17.019 -0.0099  0.1730  0.2438
  362TMC3    H2 5425   3.003   2.629  17.304  1.8404 -0.1848  0.8079
  362TMC3    C7 5426   2.918   2.599  17.044 -1.3015 -0.8425 -0.7890
  362TMC3    C8 5427   3.048   2.460  17.505  0.2254  0.3953 -0.2738
  362TMC3    O1 5428   2.941   2.714  17.077 -0.1013 -0.1445  0.1211
  362TMC3    O2 5429   3.130   2.388  17.557 -0.2953 -0.6311  0.0365
  363TMC3    C1 5430   1.588   4.097   9.469  0.3192  0.6616  0.1570
  363TMC3    C2 5431   1.678   4.060   9.570  0.7602  0.3430  0.1267
  363TMC3    C3 5432   1.656   4.111   9.694  0.1077  0.1122  0.8080
  363TMC3    C4 5433   1.482   4.186   9.499 -0.0855  0.7424  0.0743
  363TMC3    C5 5434   1.478   4.245   9.623 -0.9378 -0.1634  0.5533
  363TMC3    C6 5435   1.571   4.214   9.723 -0.2570 -0.4421  0.2734
  363TMC3     C 5436   1.608   4.053   9.329  1.0518 -0.1915  0.7255
  363TMC3     O 5437   1.513   4.062   9.255  0.3588 -0.4279  0.4205
  363TMC3     H 5438   1.729   3.966   9.553 -1.6509 -1.3739  2.5305
  363TMC3    H1 5439   1.411   4.206   9.420  0.6285  0.6641 -0.5994
  363TMC3    H2 5440   1.573   4.257   9.823  1.2508  1.8638 -0.7344
  363TMC3    C7 5441   1.393   4.368   9.630 -0.5013  0.3462 -0.1989
  363TMC3    C8 5442   1.717   4.043   9.816 -0.2167  0.2315 -0.3143
  363TMC3    O1 5443   1.308   4.381   9.541  0.4253 -0.4393  0.3056
  363TMC3    O2 5444   1.688   4.074   9.930  0.4349  0.1339 -0.0474
  364MPD2     C 5445   0.728   4.034  10.948 -0.5031 -0.2083  0.0105
  364MPD2    C1 5446   0.628   3.962  10.890  0.3233 -0.2989 -0.2765
  364MPD2    C2 5447   0.574   3.859  10.956 -0.1799  0.0002  0.2227
  364MPD2    C3 5448   0.628   3.814  11.077 -0.3797  0.4861 -0.0466
  364MPD2    C4 5449   0.720   3.896  11.139 -0.7608 -0.0589  0.7604
  364MPD2    C5 5450   0.769   4.010  11.076  0.0786 -0.4050 -0.4500
  364MPD2     H 5451   0.495   3.797  10.914 -0.5494 -0.3676  1.4592
  364MPD2    H1 5452   0.745   3.886  11.244  1.6889  1.5261  0.3263
  364MPD2    H2 5453   0.752   4.124  10.892 -0.4397  0.3361  0.9016
  364MPD2    H3 5454   0.828   4.080  11.134  0.8588  0.2070 -1.9735
  364MPD2     N 5455   0.593   3.692  11.147 -0.5903  0.7483 -1.0496
  364MPD2    H5 5456   0.623   3.677  11.242 -0.2248  0.9501 -1.1342
  364MPD2    N1 5457   0.572   4.004  10.765  0.4557 -0.4371 -0.5567
  364MPD2    H7 5458   0.624   4.082  10.724  1.9660 -0.6137  1.0189
  365TMC3    C1 5459   0.467   4.026  10.561  0.1701  0.9115 -0.3260
  365TMC3    C2 5460   0.484   3.990  10.433 -0.4331  0.8500  0.6774
  365TMC3    C3 5461   0.468   4.083  10.334  0.7671 -0.5341 -0.3912
  365TMC3    C4 5462   0.453   4.157  10.590  0.4267  0.4966 -0.4634
  365TMC3    C5 5463   0.450   4.249  10.492 -0.6102  0.1885  0.0434
  365TMC3    C6 5464   0.468   4.215  10.360 -1.1969 -0.6848 -0.1962
  365TMC3     C 5465   0.488   3.944  10.677 -0.0776  0.7423  0.2720
  365TMC3     O 5466   0.426   3.842  10.681  0.0450  0.6926 -0.1375
  365TMC3     H 5467   0.489   3.883  10.413 -1.2303  1.0744 -0.7421
  365TMC3    H1 5468   0.424   4.184  10.691  1.0203  0.0443 -0.1744
  365TMC3    H2 5469   0.457   4.300  10.294 -0.4156 -0.3072  0.1648
  365TMC3    C7 5470   0.460   4.391  10.524  0.3003 -0.4545  0.0646
  365TMC3    C8 5471   0.455   4.049  10.193 -0.1345 -0.0651 -0.0849
  365TMC3    O1 5472   0.406   4.464  10.446  0.4845  0.0135  0.5380
  365TMC3    O2 5473   0.394   4.133  10.131 -0.1398 -0.3993  0.5658
  366MPD2     C 5474   3.395   0.532  15.156 -0.3424 -0.2414  0.1067
  366MPD2    C1 5475   3.521   0.539  15.101  0.1859  0.2044  0.2610
  366MPD2    C2 5476   3.609   0.433  15.107  0.2190  0.8250 -0.6100
  366MPD2    C3 5477   3.561   0.315  15.162 -0.1709 -0.3137  0.3537
  366MPD2    C4 5478   3.433   0.301  15.213 -0.3206 -0.2600 -0.4300
  366MPD2    C5 5479   3.349   0.416  15.207 -0.8809 -0.1170 -0.6346
  366MPD2     H 5480   3.709   0.446  15.066  0.4209 -0.1279 -0.4112
  366MPD2    H1 5481   3.382   0.208  15.234 -1.2330  0.3429  0.0037
  366MPD2    H2 5482   3.322   0.612  15.160 -0.9455 -0.6928 -1.9457
  366MPD2    H3 5483   3.248   0.418  15.246  0.6989 -1.0966  3.5421
  366MPD2     N 5484   3.651   0.210  15.165  0.0185  0.0943  0.4290
  366MPD2    H5 5485   3.743   0.223  15.124 -1.7179  1.8781 -2.8029
  366MPD2    N1 5486   3.566   0.662  15.037  0.4300 -0.2551  0.0483
  366MPD2    H7 5487   3.667   0.657  15.024  0.5352 -0.9536  1.0356
  367TMC3    C1 5488   3.573   0.889  14.997 -0.8728 -0.3167 -0.3135
  367TMC3    C2 5489   3.661   0.912  15.095  1.1193 -0.4422 -0.0029
  367TMC3    C3 5490   3.675   1.037  15.150  0.7241 -0.1615  0.3492
  367TMC3    C4 5491   3.502   0.990  14.937  0.0832  0.1006  0.0614
  367TMC3    C5 5492   3.529   1.121  14.981  0.4442 -0.3871 -0.3223
  367TMC3    C6 5493   3.607   1.142  15.097 -0.6218  0.4470  0.2030
  367TMC3     C 5494   3.497   0.775  15.015 -0.6189  0.1028  0.2521
  367TMC3     O 5495   3.375   0.802  15.024  0.4982 -0.0296  0.0232
  367TMC3     H 5496   3.711   0.828  15.142 -0.0832 -2.2466 -1.9873
  367TMC3    H1 5497   3.424   0.974  14.863 -2.5827  1.5936  2.5530
  367TMC3    H2 5498   3.610   1.243  15.136  1.4792  0.2103  0.7017
  367TMC3    C7 5499   3.427   1.215  14.954 -0.4499 -0.3823 -1.0783
  367TMC3    C8 5500   3.739   1.060  15.281  0.1584 -0.5158 -0.3214
  367TMC3    O1 5501   3.386   1.294  15.039  0.6083 -0.3855  0.3390
  367TMC3    O2 5502   3.766   0.960  15.345  0.1942 -0.5039 -0.2760
  368MPD2     C 5503   0.145   2.298  12.907 -0.4890  0.2218  0.5840
  368MPD2    C1 5504   0.223   2.329  13.020 -0.7421  0.1689 -0.2923
  368MPD2    C2 5505   0.364   2.322  13.005  0.8179  0.4723 -0.2014
  368MPD2    C3 5506   0.424   2.292  12.880 -0.1761  0.5161  0.0398
  368MPD2    C4 5507   0.342   2.269  12.765 -0.3461  0.2947  0.6220
  368MPD2    C5 5508   0.201   2.263  12.786 -0.4121 -0.1994 -0.2206
  368MPD2     H 5509   0.422   2.340  13.095  0.5944  1.0785 -0.1836
  368MPD2    H1 5510   0.375   2.242  12.665 -2.8352  0.8599 -0.3460
  368MPD2    H2 5511   0.037   2.299  12.913 -0.4067  1.2814  1.9123
  368MPD2    H3 5512   0.131   2.245  12.705 -0.0294 -0.1435 -0.5606
  368MPD2     N 5513   0.565   2.304  12.858  0.1779  0.5135  0.3640
  368MPD2    H5 5514   0.598   2.305  12.762 -3.4283 -0.5429 -0.8634
  368MPD2    N1 5515   0.157   2.354  13.142  0.0116 -0.1541 -0.2066
  368MPD2    H7 5516   0.055   2.351  13.144 -0.0172 -0.1395 -1.9332
  369TMC3    C1 5517   0.134   2.484  13.342  0.1310 -0.7701  0.3927
  369TMC3    C2 5518   0.200   2.598  13.371 -0.3691 -0.0141 -0.5071
  369TMC3    C3 5519   0.142   2.721  13.342  0.4541 -0.3024  0.3141
  369TMC3    C4 5520   4.719   2.491  13.301 -0.6630  0.0578  0.3360
  369TMC3    C5 5521   4.657   2.611  13.315 -0.5833 -0.3995  0.3581
  369TMC3    C6 5522   0.006   2.733  13.327 -0.4141  0.1498  0.3779
  369TMC3     C 5523   0.224   2.406  13.256  0.3888  0.1480 -0.0364
  369TMC3     O 5524   0.344   2.423  13.280 -0.0694 -0.8591 -0.2084
  369TMC3     H 5525   0.300   2.591  13.414 -1.1304 -0.8786  1.1217
  369TMC3    H1 5526   4.661   2.399  13.297  2.3056 -1.7975  0.3437
  369TMC3    H2 5527   4.681   2.830  13.311  1.5004  1.3446  2.0033
  369TMC3    C7 5528   4.507   2.606  13.303  0.2546 -0.8123  0.2705
  369TMC3    C8 5529   0.210   2.794  13.237 -0.2328 -0.1881 -0.3374
  369TMC3    O1 5530   4.466   2.509  13.243  0.0404  0.1034  0.2191
  369TMC3    O2 5531   0.165   2.899  13.191 -0.5559 -0.3713 -0.7069
  370TMC3    C1 5532   4.359   2.929  16.410  0.1282  0.3533 -0.3693
  370TMC3    C2 5533   4.313   2.870  16.524  0.0602  0.0548  0.5743
  370TMC3    C3 5534   4.234   2.760  16.511  0.1528  0.4919  0.5796
  370TMC3    C4 5535   4.323   2.888  16.284  0.5509  0.5713 -0.1037
  370TMC3    C5 5536   4.257   2.767  16.272  0.1625  0.4261 -0.6056
  370TMC3    C6 5537   4.214   2.706  16.384  0.1223 -0.1194  0.3427
  370TMC3     C 5538   4.485   2.999  16.434 -0.7517 -0.7305  0.2937
  370TMC3     O 5539   4.536   2.993  16.544 -0.0937  0.0159 -0.2302
  370TMC3     H 5540   4.341   2.924  16.614  0.2394  0.0930  0.4955
  370TMC3    H1 5541   4.364   2.938  16.197  1.2147  1.0566  0.4877
  370TMC3    H2 5542   4.162   2.610  16.384  1.2340 -0.7253  1.2154
  370TMC3    C7 5543   4.269   2.703  16.141  0.0976  0.6762 -0.1861
  370TMC3    C8 5544   4.239   2.667  16.622  0.0309  0.2664  0.6026
  370TMC3    O1 5545   4.299   2.776  16.049  0.2868  0.1932  0.8797
  370TMC3    O2 5546   4.238   2.549  16.599  0.4163 -0.2818  0.4360
  371TMC3    C1 5547   0.648   0.996  15.596  0.9013  0.4168  0.1009
  371TMC3    C2 5548   0.512   1.009  15.601 -0.3056 -0.7996  0.4415
  371TMC3    C3 5549   0.462   1.132  15.578  0.4438  0.1864  0.3941
  371TMC3    C4 5550   0.723   1.096  15.542 -0.4508  0.7617 -0.2107
  371TMC3    C5 5551   0.664   1.210  15.497  1.0590 -0.5496 -0.3784
  371TMC3    C6 5552   0.535   1.236  15.532 -0.2520 -0.7308 -0.1366
  371TMC3     C 5553   0.704   0.862  15.600  0.6861 -0.0496 -0.4620
  371TMC3     O 5554   0.806   0.846  15.534 -0.1405  0.3835 -0.0168
  371TMC3     H 5555   0.446   0.931  15.637 -2.3905  1.3127  1.2322
  371TMC3    H1 5556   0.828   1.072  15.540 -0.1917  1.9764 -0.8936
  371TMC3    H2 5557   0.490   1.331  15.507 -0.6646 -1.6910 -3.0173
  371TMC3    C7 5558   0.740   1.312  15.434  0.0079 -0.5868  0.1129
  371TMC3    C8 5559   0.323   1.151  15.609  0.7643 -0.0398  0.7002
  371TMC3    O1 5560   0.683   1.423  15.449 -0.5555 -0.1327 -0.4929
  371TMC3    O2 5561   0.253   1.048  15.604 -0.2103 -0.3664  0.4855
  372MPD2     C 5562   0.918   2.334  13.478  0.2681  0.0935 -0.0002
  372MPD2    C1 5563   0.957   2.299  13.605 -0.2261 -0.3969  0.1564
  372MPD2    C2 5564   0.934   2.167  13.642  0.3521  0.1381 -0.7480
  372MPD2    C3 5565   0.861   2.081  13.564  0.4197 -0.1600  0.2547
  372MPD2    C4 5566   0.817   2.112  13.442 -0.4784 -0.3642  0.3799
  372MPD2    C5 5567   0.852   2.238  13.395  0.0649 -0.2826  0.1701
  372MPD2     H 5568   0.970   2.146  13.742  0.2191 -1.1739 -0.9760
  372MPD2    H1 5569   0.765   2.044  13.375  0.9194  0.0730 -1.1713
  372MPD2    H2 5570   0.922   2.436  13.444  1.6336 -0.6858 -2.1517
  372MPD2    H3 5571   0.818   2.272  13.298  2.1246 -0.0953 -0.4915
  372MPD2     N 5572   0.848   1.953  13.616  0.1253  0.2379  0.7619
  372MPD2    H5 5573   0.907   1.933  13.696  0.8382 -0.0391  0.1728
  372MPD2    N1 5574   1.016   2.385  13.694 -0.0413 -0.3761 -0.2069
  372MPD2    H7 5575   1.026   2.349  13.789  2.9725 -1.5324 -0.9869
  373TMC3    C1 5576   0.762   1.742  13.645  0.2453  0.1994 -0.2209
  373TMC3    C2 5577   0.642   1.673  13.647  0.4148 -0.1561 -0.4283
  373TMC3    C3 5578   0.651   1.538  13.615 -0.7732 -0.6134 -0.4638
  373TMC3    C4 5579   0.885   1.677  13.637  0.6308 -0.1085  0.6331
  373TMC3    C5 5580   0.889   1.542  13.602 -0.9139  0.1797  0.2363
  373TMC3    C6 5581   0.772   1.481  13.579 -0.2490 -0.7232  0.2446
  373TMC3     C 5582   0.753   1.864  13.568 -0.1139 -0.5373  0.0922
  373TMC3     O 5583   0.656   1.884  13.497 -0.6750  0.0537  0.1114
  373TMC3     H 5584   0.548   1.725  13.636  0.5419  0.3589  0.9103
  373TMC3    H1 5585   0.978   1.733  13.624  0.7545 -1.4263 -4.3003
  373TMC3    H2 5586   0.787   1.377  13.552 -0.4557 -0.6617 -0.1063
  373TMC3    C7 5587   1.012   1.466  13.595  0.8044  0.1803  0.8941
  373TMC3    C8 5588   0.530   1.450  13.587  0.6762  0.2184 -0.3984
  373TMC3    O1 5589   1.016   1.376  13.513 -0.2367 -0.3966 -0.3541
  373TMC3    O2 5590   0.538   1.357  13.512 -0.2056 -0.1756 -0.0567
  374TMC3    C1 5591   1.021   2.595  10.126  0.1646 -0.0257  0.2249
  374TMC3    C2 5592   1.141   2.660  10.085  0.0789  0.2373  0.6069
  374TMC3    C3 5593   1.124   2.767   9.998  1.4658  0.5908  0.1873
  374TMC3    C4 5594   0.899   2.647  10.089 -0.4307 -0.0286  0.6268
  374TMC3    C5 5595   0.891   2.735   9.983  0.1698  0.9059 -0.1853
  374TMC3    C6 5596   1.005   2.805   9.942 -0.2082 -0.2748 -0.4387
  374TMC3     C 5597   1.027   2.472  10.197  0.2576  0.3570  0.2591
  374TMC3     O 5598   0.941   2.444  10.275  0.1935  0.3907  0.3418
  374TMC3     H 5599   1.235   2.613  10.111  1.9101  2.7508 -1.5090
  374TMC3    H1 5600   0.809   2.594  10.116  0.8352 -2.0587  0.8808
  374TMC3    H2 5601   0.999   2.891   9.877  0.7461 -1.0091 -1.4938
  374TMC3    C7 5602   0.761   2.778   9.938 -0.5735  0.2684 -0.3363
  374TMC3    C8 5603   1.234   2.867   9.995  0.4598  0.1762 -0.6052
  374TMC3    O1 5604   0.665   2.763  10.013 -0.6255 -0.5574  0.1611
  374TMC3    O2 5605   1.225   2.958   9.909 -0.1201  0.1273  0.0152
  375MPD2     C 5606   1.366   3.751  16.946 -0.2914 -0.3216  1.2340
  375MPD2    C1 5607   1.251   3.705  16.876  1.0251 -0.3782 -0.3212
  375MPD2    C2 5608   1.243   3.575  16.842 -0.1951 -0.0843 -0.1443
  375MPD2    C3 5609   1.341   3.483  16.882  0.2516  0.0418  0.2128
  375MPD2    C4 5610   1.454   3.537  16.951 -0.2243  0.1963  0.2025
  375MPD2    C5 5611   1.459   3.665  16.994  0.1307 -0.6098 -0.6473
  375MPD2     H 5612   1.159   3.539  16.783 -0.7757  0.0466  0.6055
  375MPD2    H1 5613   1.524   3.465  16.993 -0.8985  0.5428  1.9077
  375MPD2    H2 5614   1.363   3.856  16.972 -2.0990  0.2702 -1.3648
  375MPD2    H3 5615   1.541   3.705  17.052 -0.9537  0.6414  0.0131
  375MPD2     N 5616   1.335   3.343  16.869  0.0482  0.2122 -0.1773
  375MPD2    H5 5617   1.419   3.292  16.894  0.1227 -0.8443 -2.5175
  375MPD2    N1 5618   1.134   3.778  16.860 -0.2323  0.2664 -0.4300
  375MPD2    H7 5619   1.057   3.730  16.814  0.4034 -1.2706  0.1278
  376TMC3    C1 5620   1.253   3.129  16.827  0.1172 -0.0121  0.7507
  376TMC3    C2 5621   1.385   3.081  16.830 -0.3731 -0.7180 -0.5051
  376TMC3    C3 5622   1.420   2.962  16.772  0.6254 -0.0064  1.1145
  376TMC3    C4 5623   1.162   3.054  16.757 -0.0640 -0.1840  0.1934
  376TMC3    C5 5624   1.195   2.929  16.707  0.3201  0.2889  0.5655
  376TMC3    C6 5625   1.325   2.877  16.719  0.1803 -0.5132  0.8263
  376TMC3     C 5626   1.220   3.271  16.832 -0.6276  0.6803  0.6548
  376TMC3     O 5627   1.107   3.306  16.823  0.4737  0.1472  0.5172
  376TMC3     H 5628   1.468   3.141  16.863 -1.4568  1.3228 -1.4563
  376TMC3    H1 5629   1.059   3.089  16.751  0.5690  1.4045 -1.3738
  376TMC3    H2 5630   1.355   2.784  16.672 -0.4885  0.0199 -0.6738
  376TMC3    C7 5631   1.131   2.909  16.582  0.1716  0.0559 -0.0174
  376TMC3    C8 5632   1.546   2.961  16.708 -0.1412 -0.3299 -0.1296
  376TMC3    O1 5633   1.096   3.005  16.516  0.1023  0.1238  0.5122
  376TMC3    O2 5634   1.584   3.073  16.668  0.0455  0.6370  0.2707
  377MPD2     C 5635   3.625   2.824  12.266  0.7532  0.1257 -0.0755
  377MPD2    C1 5636   3.683   2.803  12.385 -0.6009 -0.2899  0.5835
  377MPD2    C2 5637   3.604   2.765  12.493  0.4988  0.6077  0.0023
  377MPD2    C3 5638   3.467   2.764  12.485 -0.3744  0.4368  0.2590
  377MPD2    C4 5639   3.407   2.803  12.368  0.9170 -0.1923  0.0512
  377MPD2    C5 5640   3.489   2.822  12.256  0.3918 -0.2503  0.2199
  377MPD2     H 5641   3.653   2.752  12.589 -1.3235  2.1695  1.1406
  377MPD2    H1 5642   3.300   2.809  12.358  0.9658 -0.4459 -0.6740
  377MPD2    H2 5643   3.681   2.838  12.174  0.1462 -0.0703 -0.4743
  377MPD2    H3 5644   3.445   2.828  12.157  1.0488 -2.5591 -0.1907
  377MPD2     N 5645   3.386   2.737  12.601  0.5122 -0.4644  0.1873
  377MPD2    H5 5646   3.286   2.742  12.585  1.2856  0.0302 -4.2937
  377MPD2    N1 5647   3.828   2.819  12.392 -0.0969 -0.1263 -0.0557
  377MPD2    H7 5648   3.879   2.837  12.307 -0.5103  0.6170 -0.1425
  378TMC3    C1 5649   4.219   2.915  12.361  0.3319  0.3961  0.5015
  378TMC3    C2 5650   4.089   2.893  12.373  0.1434  0.4075 -0.7952
  378TMC3    C3 5651   4.056   2.808  12.473  0.1977 -0.4691 -0.2172
  378TMC3    C4 5652   4.310   2.863  12.446  0.4841  0.4546  0.2187
  378TMC3    C5 5653   4.264   2.775  12.543 -0.1548  0.5621 -0.4020
  378TMC3    C6 5654   4.137   2.752  12.564  0.5050  0.0405  0.8074
  378TMC3     C 5655   4.268   2.977  12.242 -0.4307 -0.6941  0.3635
  378TMC3     O 5656   4.195   2.964  12.141 -0.1275 -0.1124 -0.0069
  378TMC3     H 5657   4.015   2.933  12.304 -0.1928  0.3575 -0.4673
  378TMC3    H1 5658   4.414   2.892  12.440  1.3272 -2.6477 -0.0600
  378TMC3    H2 5659   4.098   2.698  12.650 -0.7424  0.5363  0.5511
  378TMC3    C7 5660   4.353   2.733  12.637  0.1983  0.4790  0.0315
  378TMC3    C8 5661   3.912   2.815  12.501 -0.1593 -0.2117 -0.8915
  378TMC3    O1 5662   4.313   2.709  12.750  0.3830 -0.4313  0.1554
  378TMC3    O2 5663   3.883   2.783  12.616  0.5297  0.7951 -0.0224
  379MPD2     C 5664   4.308   0.888  16.477  0.6821  0.9197 -0.2683
  379MPD2    C1 5665   4.381   0.824  16.379 -0.5595 -1.2113 -0.1305
  379MPD2    C2 5666   4.475   0.725  16.421  0.5375 -0.2317 -0.0536
  379MPD2    C3 5667   4.481   0.688  16.551  0.0175  0.0541 -0.8125
  379MPD2    C4 5668   4.393   0.742  16.642 -1.2270  0.2975  0.3465
  379MPD2    C5 5669   4.320   0.849  16.607 -0.2005 -0.1341 -0.6972
  379MPD2     H 5670   4.534   0.670  16.349  1.4590  1.0696 -0.2773
  379MPD2    H1 5671   4.399   0.707  16.745  1.2403 -0.2316  0.0412
  379MPD2    H2 5672   4.233   0.962  16.455 -2.2954 -1.5351  1.5583
  379MPD2    H3 5673   4.253   0.891  16.681 -0.4563 -0.9561 -0.4635
  379MPD2     N 5674   4.572   0.593  16.604  0.7214 -0.9033  0.3697
  379MPD2    H5 5675   4.571   0.581  16.704  2.7029  3.1349  0.8824
  379MPD2    N1 5676   4.368   0.847  16.238 -0.4685 -0.1436  1.0142
  379MPD2    H7 5677   4.429   0.786  16.185 -1.0527  0.9639 -0.9428
  380TMC3    C1 5678   4.303   0.947  16.026  0.1309  0.4672  0.2706
  380TMC3    C2 5679   4.352   0.842  15.949  0.2130  0.0726 -0.8406
  380TMC3    C3 5680   4.331   0.852  15.813  0.3689 -0.2206 -0.5438
  380TMC3    C4 5681   4.250   1.057  15.967 -0.5032 -0.4197 -0.4685
  380TMC3    C5 5682   4.224   1.052  15.837  0.1907  0.6389  0.0396
  380TMC3    C6 5683   4.257   0.949  15.757 -0.5070 -0.5521 -0.1356
  380TMC3     C 5684   4.292   0.949  16.174 -0.5602 -0.7030  0.3981
  380TMC3     O 5685   4.249   1.054  16.227 -0.4989 -0.0262  0.0759
  380TMC3     H 5686   4.400   0.762  16.004  2.4687  2.1797  0.1933
  380TMC3    H1 5687   4.206   1.136  16.026  1.3776  1.5085 -1.6319
  380TMC3    H2 5688   4.228   0.943  15.652 -3.1799  1.5713  0.5019
  380TMC3    C7 5689   4.171   1.168  15.774 -0.4586  0.2842  0.8532
  380TMC3    C8 5690   4.421   0.795  15.710 -0.3911 -0.5136 -0.7726
  380TMC3    O1 5691   4.225   1.275  15.789 -0.0353 -0.0971 -0.1354
  380TMC3    O2 5692   4.399   0.817  15.594 -0.9208 -0.0429  0.5546
  381TMC3    C1 5693   4.200   1.940  16.423 -0.8443  0.0718  0.1229
  381TMC3    C2 5694   4.289   2.039  16.385 -0.3944  0.2021 -0.2502
  381TMC3    C3 5695   4.334   2.130  16.480 -0.9395  0.1508 -0.6382
  381TMC3    C4 5696   4.150   1.936  16.549  0.0169 -0.1231  0.5410
  381TMC3    C5 5697   4.199   2.022  16.641  0.9311 -0.3248  0.3045
  381TMC3    C6 5698   4.281   2.126  16.608 -0.1104 -0.3578  0.1206
  381TMC3     C 5699   4.184   1.820  16.342 -0.1289  0.0884 -0.0011
  381TMC3     O 5700   4.135   1.724  16.394  0.2304  0.3186 -0.5088
  381TMC3     H 5701   4.322   2.044  16.282  0.0921  1.5556 -0.0233
  381TMC3    H1 5702   4.075   1.861  16.570  0.9590 -1.1799  0.1481
  381TMC3    H2 5703   4.324   2.184  16.688 -0.3925 -0.9010  0.6694
  381TMC3    C7 5704   4.163   2.002  16.779  0.2130  0.2235 -0.0477
  381TMC3    C8 5705   4.434   2.226  16.423  0.0822  0.7778  0.6885
  381TMC3    O1 5706   4.122   1.894  16.813  0.2988  0.0248  0.7128
  381TMC3    O2 5707   4.489   2.185  16.323  0.1725  0.0358  0.0149
  382MPD2     C 5708   3.996   4.187   0.427 -0.7250  0.7305 -0.6681
  382MPD2    C1 5709   3.878   4.182   0.358  0.5231 -0.7163 -0.6040
  382MPD2    C2 5710   3.816   4.057   0.332  0.3890 -0.0729  0.0100
  382MPD2    C3 5711   3.870   3.941   0.386  0.1770  0.6561  1.1742
  382MPD2    C4 5712   3.984   3.950   0.463 -0.1957  0.0689 -0.0553
  382MPD2    C5 5713   4.051   4.070   0.478 -0.2580  0.3709 -0.1524
  382MPD2     H 5714   3.726   4.055   0.271  2.0022  2.8264 -2.4818
  382MPD2    H1 5715   4.020   3.853   0.494 -1.1555 -0.7084 -1.4030
  382MPD2    H2 5716   4.051   4.280   0.437 -0.7555  0.8377 -1.4986
  382MPD2    H3 5717   4.135   4.086   0.545 -0.7728  1.9989  0.1010
  382MPD2     N 5718   3.815   3.814   0.362 -0.2474 -0.0600  0.0277
  382MPD2    H5 5719   3.852   3.730   0.404  1.6182  1.2452  1.0327
  382MPD2    N1 5720   3.815   4.298   0.301  0.3089  0.3387  0.1782
  382MPD2    H7 5721   3.721   4.285   0.265 -0.0608  2.2833  0.4312
  383TMC3    C1 5722   3.690   3.649   0.233 -0.6870 -0.5527  0.6969
  383TMC3    C2 5723   3.630   3.624   0.114 -0.9718  0.1624 -0.3695
  383TMC3    C3 5724   3.617   3.495   0.081  0.4857  0.6411 -0.0871
  383TMC3    C4 5725   3.740   3.555   0.319  0.3104  0.1106  0.5778
  383TMC3    C5 5726   3.722   3.425   0.279 -0.3204  0.0949 -0.1042
  383TMC3    C6 5727   3.660   3.394   0.164 -0.1327  0.1895 -0.1804
  383TMC3     C 5728   3.728   3.790   0.253 -0.0817 -0.2904 -0.8696
  383TMC3     O 5729   3.684   3.864   0.165 -0.1363  0.3364  0.0291
  383TMC3     H 5730   3.606   3.691   0.032  1.0379  0.2177 -0.9205
  383TMC3    H1 5731   3.769   3.579   0.420 -0.1649  0.6634  0.5827
  383TMC3    H2 5732   3.627   3.292   0.145 -1.1823  0.3167  0.9493
  383TMC3    C7 5733   3.695   3.325   0.386 -0.0915  0.6734 -0.4044
  383TMC3    C8 5734   3.534   3.472  17.651 -0.9079  0.8661 -0.6309
  383TMC3    O1 5735   3.624   3.231   0.360  0.3230 -0.1386 -0.2636
  383TMC3    O2 5736   3.455   3.561  17.623  0.0457 -0.1457 -0.0562
  384MPD2     C 5737   0.512   1.003  12.052  0.2105  0.2124 -0.6367
  384MPD2    C1 5738   0.531   0.950  12.176  0.5616  0.0748  0.5492
  384MPD2    C2 5739   0.623   0.846  12.191 -1.4048 -0.5553 -0.0750
  384MPD2    C3 5740   0.697   0.804  12.080  0.5133  0.1365 -0.0716
  384MPD2    C4 5741   0.679   0.864  11.953 -0.0703 -0.0066  0.4968
  384MPD2    C5 5742   0.591   0.966  11.944 -0.2321 -0.0139 -0.2634
  384MPD2     H 5743   0.631   0.807  12.292  0.6382  1.5424  0.5539
  384MPD2    H1 5744   0.731   0.836  11.863 -3.6607 -1.3481 -1.1494
  384MPD2    H2 5745   0.433   1.075  12.042  0.2083  0.5271  1.4999
  384MPD2    H3 5746   0.572   1.003  11.844 -0.5705  2.0139  0.5627
  384MPD2     N 5747   0.797   0.712  12.106  0.3593 -0.1508 -0.3639
  384MPD2    H5 5748   0.804   0.692  12.205  1.1046 -0.6231 -0.5117
  384MPD2    N1 5749   0.456   0.988  12.294  0.1927 -0.2665  0.2061
  384MPD2    H7 5750   0.488   0.945  12.381  0.2838 -1.1490 -0.2613
  385TMC3    C1 5751   0.969   0.562  12.089  0.3021 -0.2137  0.5726
  385TMC3    C2 5752   0.921   0.433  12.068 -0.5496 -0.2325 -0.3612
  385TMC3    C3 5753   0.939   0.338  12.171  0.1735 -0.3850  0.4259
  385TMC3    C4 5754   1.015   0.602  12.210  0.4503  0.5059  0.2590
  385TMC3    C5 5755   1.013   0.504  12.311 -0.0186  0.5010 -0.0162
  385TMC3    C6 5756   0.985   0.376  12.291 -0.6914  0.2879  0.2222
  385TMC3     C 5757   0.891   0.662  12.017  0.3035 -0.7838  0.1607
  385TMC3     O 5758   0.893   0.661  11.898 -0.0599 -0.5433 -0.0400
  385TMC3     H 5759   0.861   0.409  11.981 -3.3647 -0.4189  1.6422
  385TMC3    H1 5760   1.049   0.701  12.238  1.8368  0.1380 -0.0979
  385TMC3    H2 5761   1.011   0.302  12.366 -0.6394 -0.5516 -0.6235
  385TMC3    C7 5762   0.916   0.570  12.406  0.0017  0.0759  0.3838
  385TMC3    C8 5763   0.857   0.215  12.175 -0.1982 -0.4350  0.2103
  385TMC3    O1 5764   0.877   0.680  12.378 -0.4961 -0.0123 -0.0681
  385TMC3    O2 5765   0.816   0.171  12.280 -0.1695  0.0138  0.2564
  386TMC3    C1 5766   0.967   2.820  11.720  0.4596 -0.5888 -0.3852
  386TMC3    C2 5767   0.947   2.811  11.584 -0.5121  0.0955  0.1767
  386TMC3    C3 5768   0.823   2.763  11.550 -0.0490  0.4941  0.7164
  386TMC3    C4 5769   0.882   2.773  11.816  0.8022 -0.0065  0.3643
  386TMC3    C5 5770   0.762   2.727  11.776 -0.0821 -0.3873  0.1521
  386TMC3    C6 5771   0.730   2.721  11.646  0.2033 -0.2137  0.1877
  386TMC3     C 5772   1.108   2.835  11.759 -0.0097  0.1971 -0.2032
  386TMC3     O 5773   1.180   2.893  11.682  0.1981  0.1625 -0.5372
  386TMC3     H 5774   1.020   2.847  11.512  1.2419 -3.0876  0.3412
  386TMC3    H1 5775   0.897   2.793  11.921  1.1543 -1.1572  0.5355
  386TMC3    H2 5776   0.635   2.684  11.609  0.3532 -0.8545  0.4478
  386TMC3    C7 5777   0.652   2.776  11.870  0.4668 -0.4721 -0.4489
  386TMC3    C8 5778   0.774   2.761  11.414 -0.6553 -0.2250  0.1360
  386TMC3    O1 5779   0.676   2.787  11.988  0.2174  0.7094  0.2342
  386TMC3    O2 5780   0.662   2.714  11.394 -0.0262 -0.2411  0.1929
  387MPD2     C 5781   3.525   2.644   9.579  0.1774  0.1668  0.0975
  387MPD2    C1 5782   3.514   2.687   9.708 -0.5352 -0.0412  0.5702
  387MPD2    C2 5783   3.429   2.623   9.791 -0.3707 -0.2227 -0.3552
  387MPD2    C3 5784   3.375   2.507   9.753  1.0093  0.6406  0.3069
  387MPD2    C4 5785   3.391   2.458   9.626 -0.1681 -0.0293  0.1749
  387MPD2    C5 5786   3.457   2.538   9.530  0.3986 -0.3131 -0.4710
  387MPD2     H 5787   3.417   2.657   9.894 -1.3943 -0.6175 -0.3424
  387MPD2    H1 5788   3.351   2.364   9.590 -0.7036  0.6632 -1.0166
  387MPD2    H2 5789   3.587   2.704   9.513 -0.5465  0.7197 -0.0862
  387MPD2    H3 5790   3.463   2.501   9.428  0.1485 -1.5482 -0.0372
  387MPD2     N 5791   3.311   2.433   9.850 -0.0205 -1.0586  0.0939
  387MPD2    H5 5792   3.276   2.478   9.934 -0.0874  0.5772 -0.8053
  387MPD2    N1 5793   3.579   2.799   9.763 -0.6638  0.7123 -0.3358
  387MPD2    H7 5794   3.544   2.825   9.854 -1.2563  0.6282 -0.5326
  388TMC3    C1 5795   3.724   2.971   9.786 -0.4265 -0.2223  0.0213
  388TMC3    C2 5796   3.757   3.101   9.745 -0.3645  0.1569  0.4372
  388TMC3    C3 5797   3.774   3.197   9.846 -0.3137 -0.8038 -0.8330
  388TMC3    C4 5798   3.712   2.942   9.918 -0.3532  0.7336  0.8070
  388TMC3    C5 5799   3.710   3.040  10.010 -0.9834 -0.4651 -0.2076
  388TMC3    C6 5800   3.739   3.168   9.978 -0.2492 -0.1521  0.4832
  388TMC3     C 5801   3.671   2.877   9.695 -0.2905  0.7379 -0.7792
  388TMC3     O 5802   3.715   2.868   9.581 -0.1225  0.3830 -0.9301
  388TMC3     H 5803   3.774   3.120   9.640 -0.4803 -0.5614  0.2891
  388TMC3    H1 5804   3.714   2.840   9.952  1.2056  0.3182 -0.4957
  388TMC3    H2 5805   3.763   3.237  10.059  0.0197  1.8979 -1.3445
  388TMC3    C7 5806   3.691   3.009  10.150  0.0744  0.4297  0.0370
  388TMC3    C8 5807   3.851   3.311   9.816 -0.4497  0.2840 -0.2868
  388TMC3    O1 5808   3.731   3.076  10.242 -0.1342  0.4378  0.7144
  388TMC3    O2 5809   3.911   3.316   9.706 -0.1150 -0.2151 -0.2158
  389MPD2     C 5810   2.967   0.770  11.193  0.1167  0.1279 -0.3689
  389MPD2    C1 5811   2.876   0.789  11.091  0.0185 -1.3870 -0.1365
  389MPD2    C2 5812   2.767   0.709  11.076  0.0815  0.0249  0.0028
  389MPD2    C3 5813   2.759   0.604  11.171 -1.0349  0.0914  0.7563
  389MPD2    C4 5814   2.861   0.567  11.250  0.4823  0.2756 -0.1567
  389MPD2    C5 5815   2.968   0.652  11.258  0.0871 -0.1618  0.3207
  389MPD2     H 5816   2.688   0.731  11.005 -1.7949 -1.4784  1.6203
  389MPD2    H1 5817   2.859   0.475  11.308  0.8750  0.4763  0.1756
  389MPD2    H2 5818   3.049   0.835  11.222 -0.8667  0.8184  0.8737
  389MPD2    H3 5819   3.048   0.624  11.325  0.0877  2.1180  1.2853
  389MPD2     N 5820   2.649   0.513  11.175 -0.1375  0.9598 -0.1338
  389MPD2    H5 5821   2.646   0.439  11.244 -1.3074  0.0615 -1.1338
  389MPD2    N1 5822   2.895   0.898  11.004  0.2291  0.1874  0.2548
  389MPD2    H7 5823   2.983   0.948  11.015 -0.2708  1.1022  0.0462
  390TMC3    C1 5824   2.426   0.457  11.157  0.4472 -0.0490  0.4242
  390TMC3    C2 5825   2.438   0.475  11.294 -0.0894  0.0932  0.2803
  390TMC3    C3 5826   2.338   0.540  11.365 -0.3766  0.3312 -0.1491
  390TMC3    C4 5827   2.317   0.500  11.094 -0.2753  0.1204 -0.0731
  390TMC3    C5 5828   2.217   0.573  11.165  0.0389  0.6489 -0.1323
  390TMC3    C6 5829   2.236   0.605  11.301 -0.5404 -0.3374  0.2591
  390TMC3     C 5830   2.537   0.508  11.090 -0.0820 -0.0498  0.0681
  390TMC3     O 5831   2.537   0.554  10.974  0.2042 -0.8583 -0.1748
  390TMC3     H 5832   2.504   0.414  11.354  1.0661  0.5663 -0.5116
  390TMC3    H1 5833   2.305   0.479  10.988  0.4870  2.1759 -0.5706
  390TMC3    H2 5834   2.162   0.658  11.361 -0.8909  0.0121 -0.4816
  390TMC3    C7 5835   2.079   0.546  11.127  0.5642 -0.5334  0.3556
  390TMC3    C8 5836   2.278   0.455  11.468 -0.3882 -0.2892  0.4697
  390TMC3    O1 5837   2.070   0.461  11.037 -0.0932 -1.4506  0.4392
  390TMC3    O2 5838   2.275   0.335  11.444 -0.2807  0.1550 -0.1177
  391MPD2     C 5839   1.440   2.451  11.288  0.2279  0.0437 -0.7214
  391MPD2    C1 5840   1.492   2.576  11.323 -0.1976 -0.2418  0.1523
  391MPD2    C2 5841   1.554   2.649  11.223 -0.3738  1.0467 -0.4383
  391MPD2    C3 5842   1.565   2.596  11.090  0.0764 -0.1543  0.1466
  391MPD2    C4 5843   1.501   2.482  11.059 -0.6357  0.3785 -0.4296
  391MPD2    C5 5844   1.441   2.414  11.156  0.0145 -0.5979  0.1911
  391MPD2     H 5845   1.603   2.742  11.251 -1.9386  1.2704  1.6295
  391MPD2    H1 5846   1.485   2.446  10.958  0.0604  0.1592 -0.4624
  391MPD2    H2 5847   1.383   2.398  11.364 -0.0186  2.3528  0.7263
  391MPD2    H3 5848   1.388   2.323  11.129 -0.4033 -1.0676  2.5326
  391MPD2     N 5849   1.644   2.669  10.995 -0.2224  0.2270 -0.2560
  391MPD2    H5 5850   1.668   2.767  11.007  1.4827 -0.1736 -0.3629
  391MPD2    N1 5851   1.500   2.614  11.455 -0.3562 -0.0833  0.1204
  391MPD2    H7 5852   1.467   2.554  11.530 -0.3310  1.4010  1.3044
  392TMC3    C1 5853   1.756   2.696  10.803  0.4322  0.4517  0.8379
  392TMC3    C2 5854   1.730   2.688  10.667  0.3193 -0.6980  0.1856
  392TMC3    C3 5855   1.761   2.800  10.589 -0.3193  0.4502  0.5185
  392TMC3    C4 5856   1.824   2.803  10.859  0.9818  0.0533  0.2118
  392TMC3    C5 5857   1.866   2.905  10.776 -0.3811 -0.0695  0.1874
  392TMC3    C6 5858   1.837   2.902  10.644  0.0536 -0.4376 -0.2593
  392TMC3     C 5859   1.681   2.612  10.876 -0.6034 -0.4754  0.8142
  392TMC3     O 5860   1.647   2.504  10.824 -0.0218 -0.0828 -0.3481
  392TMC3     H 5861   1.661   2.612  10.631  0.9452 -1.0445 -0.3068
  392TMC3    H1 5862   1.863   2.796  10.960 -1.6562  1.1397  1.3075
  392TMC3    H2 5863   1.858   2.995  10.592  0.0184 -0.8114 -0.9431
  392TMC3    C7 5864   1.946   3.014  10.831 -0.1241  0.0612 -0.0894
  392TMC3    C8 5865   1.666   2.824  10.478  0.7659  0.1897 -0.1923
  392TMC3    O1 5866   1.909   3.050  10.939  0.0951 -0.0437  0.4595
  392TMC3    O2 5867   1.573   2.744  10.471 -0.4575  0.1151  0.0556
  393TMC3    C1 5868   0.855   0.526  11.057  0.2466  0.3683  1.2591
  393TMC3    C2 5869   0.818   0.501  11.188  0.4153 -0.2268 -0.1976
  393TMC3    C3 5870   0.794   0.371  11.226  0.1860  0.7103  0.0189
  393TMC3    C4 5871   0.853   0.426  10.962 -0.0950 -0.0826 -0.2288
  393TMC3    C5 5872   0.835   0.294  11.005 -0.0913 -0.1148 -0.5163
  393TMC3    C6 5873   0.812   0.264  11.141  0.4500 -0.3422  0.0247
  393TMC3     C 5874   0.859   0.660  11.008 -0.8810 -0.5074  0.1771
  393TMC3     O 5875   0.802   0.672  10.902  0.0332 -0.5128 -0.0130
  393TMC3     H 5876   0.801   0.586  11.253 -2.9923 -0.9664 -0.1186
  393TMC3    H1 5877   0.844   0.451  10.857  1.5937  0.1452 -0.3185
  393TMC3    H2 5878   0.792   0.164  11.176 -0.6092 -0.6083 -1.3644
  393TMC3    C7 5879   0.873   0.183  10.915  0.2529  0.4052 -0.5442
  393TMC3    C8 5880   0.755   0.345  11.369 -0.1738 -0.0482  0.8318
  393TMC3    O1 5881   0.869   0.067  10.950  0.4345  0.0024  0.0269
  393TMC3    O2 5882   0.773   0.230  11.409  1.0123 -0.5256  0.1551
  394TMC3    C1 5883   2.889   1.026  10.807  0.1465  0.7004 -0.2356
  394TMC3    C2 5884   2.863   1.031  10.670  0.0309 -0.4666 -0.4214
  394TMC3    C3 5885   2.915   1.138  10.605 -0.3269 -0.9388  0.2740
  394TMC3    C4 5886   2.956   1.124  10.870 -0.5171 -0.3661 -0.0172
  394TMC3    C5 5887   3.007   1.229  10.799  0.0910  0.6340 -0.4001
  394TMC3    C6 5888   2.978   1.237  10.668  0.0146 -0.7221 -0.0608
  394TMC3     C 5889   2.838   0.912  10.882 -0.3456 -0.8707  0.0631
  394TMC3     O 5890   2.737   0.861  10.830 -0.0498  0.4317  0.1461
  394TMC3     H 5891   2.790   0.962  10.629 -0.9388  1.1049 -1.3332
  394TMC3    H1 5892   2.956   1.137  10.978 -1.2064  3.0824 -0.4609
  394TMC3    H2 5893   3.016   1.325  10.617  1.1835 -0.8115  0.6779
  394TMC3    C7 5894   3.083   1.343  10.853  0.3582  0.3054 -0.1234
  394TMC3    C8 5895   2.878   1.157  10.464  0.1311  0.5748 -0.3044
  394TMC3    O1 5896   3.067   1.450  10.796 -0.5316  0.0798  0.0208
  394TMC3    O2 5897   2.866   1.272  10.428  0.7707 -0.1704 -0.8202
  395TMC3    C1 5898   2.305   2.789  15.334  0.2260 -0.2294  0.5960
  395TMC3    C2 5899   2.308   2.702  15.225 -1.0358  0.1522  0.0618
  395TMC3    C3 5900   2.330   2.760  15.102 -0.1461 -0.4131 -0.0454
  395TMC3    C4 5901   2.317   2.923  15.324  0.1591  0.0353  1.0421
  395TMC3    C5 5902   2.354   2.973  15.199  0.0328  0.5371 -0.6197
  395TMC3    C6 5903   2.339   2.899  15.086  0.0826  0.3635 -0.5394
  395TMC3     C 5904   2.296   2.730  15.468  0.0446  0.0191  0.3196
  395TMC3     O 5905   2.308   2.604  15.463  0.0769 -0.4121 -0.3727
  395TMC3     H 5906   2.310   2.595  15.240  1.2798  0.1837 -0.1156
  395TMC3    H1 5907   2.331   2.982  15.413  2.2380 -0.4263  1.0259
  395TMC3    H2 5908   2.348   2.938  14.985 -2.3110  0.4158 -0.7470
  395TMC3    C7 5909   2.417   3.100  15.190  0.1875 -0.3810 -0.3213
  395TMC3    C8 5910   2.278   2.692  14.984  0.5752  0.5412 -0.1879
  395TMC3    O1 5911   2.388   3.188  15.272 -0.0900 -0.6323  0.5057
  395TMC3    O2 5912   2.239   2.755  14.887 -0.3103  0.5805  0.0583
  396MPD2     C 5913   2.019   4.085  17.303  0.0356  0.3115 -1.0672
  396MPD2    C1 5914   2.157   4.071  17.316 -0.7660  0.6355  1.0180
  396MPD2    C2 5915   2.251   4.145  17.241  0.2184 -0.1528  0.5943
  396MPD2    C3 5916   2.194   4.242  17.156  0.1593 -0.1035  0.1883
  396MPD2    C4 5917   2.059   4.244  17.136 -0.0850 -0.7689 -0.2315
  396MPD2    C5 5918   1.976   4.178  17.214 -0.2495  0.3125  0.2073
  396MPD2     H 5919   2.357   4.142  17.261 -0.0200  1.7871  2.1452
  396MPD2    H1 5920   2.010   4.320  17.076  0.1195  0.2477  0.9012
  396MPD2    H2 5921   1.948   4.026  17.360  0.9610 -0.2537 -0.5063
  396MPD2    H3 5922   1.871   4.195  17.195 -0.9768 -0.5680  3.4987
  396MPD2     N 5923   2.288   4.321  17.082 -0.3893  0.0388  0.1775
  396MPD2    H5 5924   2.385   4.300  17.105 -0.9553 -1.4290  1.2253
  396MPD2    N1 5925   2.212   3.965  17.394  0.2884  0.4437 -0.4134
  396MPD2    H7 5926   2.313   3.960  17.407  0.0359 -1.3910  0.9844
  397TMC3    C1 5927   2.205   3.747  17.484 -0.0282 -0.3603 -0.1151
  397TMC3    C2 5928   2.231   3.681  17.366  0.0401  0.3643 -0.0866
  397TMC3    C3 5929   2.168   3.564  17.339 -0.4895  0.1890  0.5252
  397TMC3    C4 5930   2.136   3.676  17.586  0.8987 -0.6306 -0.9298
  397TMC3    C5 5931   2.092   3.550  17.560 -0.0922 -0.5471  0.6409
  397TMC3    C6 5932   2.091   3.508  17.433 -0.3918 -0.2148  0.2761
  397TMC3     C 5933   2.136   3.876  17.469 -0.2837 -0.2265  0.0865
  397TMC3     O 5934   2.020   3.891  17.512  0.2491 -0.0401 -0.0842
  397TMC3     H 5935   2.263   3.747  17.285  0.5128 -0.2269 -0.3825
  397TMC3    H1 5936   2.127   3.724  17.683 -1.1328  0.4814 -1.6649
  397TMC3    H2 5937   2.076   3.404  17.407  1.0474 -0.2147 -0.5715
  397TMC3    C7 5938   2.061   3.458  17.668 -0.4136 -0.0392 -0.1819
  397TMC3    C8 5939   2.133   3.543  17.202  0.1041  0.0926 -0.7115
  397TMC3    O1 5940   1.977   3.375  17.638 -0.1727 -0.2741 -0.2803
  397TMC3    O2 5941   2.022   3.500  17.182 -0.6343 -0.3353 -0.3027
  398MPD2     C 5942   4.638   0.547   0.602  0.0514  0.6969  0.0959
  398MPD2    C1 5943   4.717   0.451   0.654 -0.8418  0.0429 -0.2498
  398MPD2    C2 5944   0.057   0.467   0.776  0.1179  0.2177 -0.1803
  398MPD2    C3 5945   0.025   0.580   0.849 -0.1331  0.4689  0.1786
  398MPD2    C4 5946   4.671   0.682   0.791 -0.0345  0.1866 -0.1222
  398MPD2    C5 5947   4.613   0.665   0.664  0.0768 -0.0059  0.7464
  398MPD2     H 5948   0.134   0.404   0.819 -1.1394 -0.3104  1.3014
  398MPD2    H1 5949   4.639   0.768   0.848  1.0341  2.7441 -3.4560
  398MPD2    H2 5950   4.603   0.536   0.500  0.2157 -0.6950  0.1931
  398MPD2    H3 5951   4.554   0.741   0.613 -1.8719 -2.1895 -0.2531
  398MPD2     N 5952   0.079   0.571   0.981  0.6699  0.0490 -0.2204
  398MPD2    H5 5953   0.139   0.496   1.013  0.7547  0.3031  0.2214
  398MPD2    N1 5954   0.042   0.339   0.583  0.5848  0.4403 -0.5168
  398MPD2    H7 5955   0.108   0.290   0.642 -0.4562  0.3575  0.5802
  399TMC3    C1 5956   0.084   0.175   0.426 -0.5090 -0.4594  0.3903
  399TMC3    C2 5957   0.202   0.157   0.485 -0.7125  0.5780  0.2022
  399TMC3    C3 5958   0.255   0.035   0.479  0.0888 -0.3010 -0.4400
  399TMC3    C4 5959   0.004   0.072   0.375 -0.3370  0.5479 -0.0494
  399TMC3    C5 5960   0.062   4.672   0.376  0.2780 -0.3884 -0.6397
  399TMC3    C6 5961   0.193   4.648   0.420  0.7217 -0.2563 -0.0509
  399TMC3     C 5962   0.015   0.298   0.452  0.6142  0.9020 -0.9344
  399TMC3     O 5963   4.650   0.332   0.373  0.2738  0.4132  0.4447
  399TMC3     H 5964   0.263   0.243   0.510 -0.9493  0.3028  1.7288
  399TMC3    H1 5965   4.631   0.092   0.324 -2.9356 -1.4158  3.9591
  399TMC3    H2 5966   0.239   4.550   0.425  1.8217  0.3014  0.9611
  399TMC3    C7 5967   4.716   4.558   0.320  0.3510 -0.1644  0.6137
  399TMC3    C8 5968   0.387   0.019   0.531  0.0521 -0.6482  0.2431
  399TMC3    O1 5969   0.053   4.452   0.336 -0.0202  0.4080  0.0004
  399TMC3    O2 5970   0.424   0.114   0.604 -0.0763  0.1690 -0.0163
  400TMC3    C1 5971   3.831   3.458  17.323 -0.8012  0.0799  0.2000
  400TMC3    C2 5972   3.708   3.474  17.270 -1.0580  0.2447 -0.0173
  400TMC3    C3 5973   3.651   3.596  17.286 -0.3317  0.6230  0.8602
  400TMC3    C4 5974   3.907   3.558  17.386 -0.2571  0.3310 -0.0177
  400TMC3    C5 5975   3.844   3.675  17.407 -0.6416 -0.5341  0.2210
  400TMC3    C6 5976   3.716   3.699  17.344 -0.7212  0.5348 -1.2942
  400TMC3     C 5977   3.848   3.319  17.372  0.1495  0.3813 -0.0064
  400TMC3     O 5978   3.786   3.229  17.316  0.5148 -0.0844 -0.8891
  400TMC3     H 5979   3.653   3.391  17.226  2.1188 -0.9914 -1.6247
  400TMC3    H1 5980   4.011   3.548  17.415 -0.3112  3.1531  1.1512
  400TMC3    H2 5981   3.659   3.784  17.380  1.1573  1.9892 -1.7672
  400TMC3    C7 5982   3.915   3.785  17.459  0.2269  0.0151 -0.4737
  400TMC3    C8 5983   3.519   3.637  17.251  0.4075 -0.4432  0.4583
  400TMC3    O1 5984   4.019   3.773  17.515  0.1634  0.6301  0.1119
  400TMC3    O2 5985   3.468   3.712  17.331 -0.1332 -0.4618 -0.3345
  401MPD2     C 5986   1.672   2.143   0.608  0.1540 -0.6330  0.5439
  401MPD2    C1 5987   1.703   2.130   0.741  0.2362  0.3596 -0.2692
  401MPD2    C2 5988   1.792   2.029   0.783 -0.5306 -0.6451 -0.6755
  401MPD2    C3 5989   1.860   1.948   0.694  0.3494  0.4277  0.3091
  401MPD2    C4 5990   1.823   1.964   0.565 -0.2641 -0.0301 -0.1295
  401MPD2    C5 5991   1.738   2.055   0.518  0.1536 -0.5214 -0.2930
  401MPD2     H 5992   1.823   2.023   0.886  0.8669  1.3007 -0.9756
  401MPD2    H1 5993   1.865   1.904   0.486 -0.2246 -1.5836  1.0772
  401MPD2    H2 5994   1.607   2.222   0.574  0.0875 -0.6125  0.7214
  401MPD2    H3 5995   1.718   2.064   0.412  0.2803 -0.5196 -0.3162
  401MPD2     N 5996   1.952   1.855   0.741  0.2283 -0.4406  0.2925
  401MPD2    H5 5997   1.974   1.840   0.839  0.0517 -3.1603 -0.0794
  401MPD2    N1 5998   1.652   2.216   0.841 -0.5555 -0.2075 -0.0775
  401MPD2    H7 5999   1.679   2.207   0.938 -1.0944 -1.9637 -0.0940
  402TMC3    C1 6000   2.081   1.650   0.723  0.2151  0.1976 -0.0395
  402TMC3    C2 6001   2.066   1.620   0.852 -0.0064 -0.1790 -0.0456
  402TMC3    C3 6002   2.158   1.534   0.915 -0.3812  0.2885 -0.6352
  402TMC3    C4 6003   2.180   1.597   0.643  0.0592  0.3216 -0.1652
  402TMC3    C5 6004   2.264   1.507   0.708  0.5494 -0.2757  0.3584
  402TMC3    C6 6005   2.264   1.480   0.844 -0.2813  0.3071  0.8701
  402TMC3     C 6006   2.008   1.758   0.663 -0.2966 -0.3359  0.1199
  402TMC3     O 6007   2.031   1.773   0.544 -0.1352 -0.2828  0.0670
  402TMC3     H 6008   1.973   1.657   0.895 -1.5273 -1.9541 -1.7637
  402TMC3    H1 6009   2.201   1.626   0.541 -0.9425  1.8417  0.0776
  402TMC3    H2 6010   2.350   1.425   0.882 -0.3056 -0.5937 -0.3896
  402TMC3    C7 6011   2.386   1.482   0.627 -0.1611 -0.4944  0.1741
  402TMC3    C8 6012   2.152   1.502   1.056 -0.4293 -1.1373  0.0448
  402TMC3    O1 6013   2.426   1.576   0.558  0.5302  0.6095 -0.1898
  402TMC3    O2 6014   2.241   1.425   1.090  0.4481  0.1389  0.2338
  403MPD2     C 6015   4.705   0.765  13.680 -0.6739  0.4896  0.9405
  403MPD2    C1 6016   0.046   0.641  13.678 -0.1891 -0.1133  0.1631
  403MPD2    C2 6017   0.169   0.624  13.734 -0.7843 -0.1380 -0.2390
  403MPD2    C3 6018   0.220   0.724  13.813  0.5701 -0.8028 -1.0001
  403MPD2    C4 6019   0.156   0.847  13.818 -0.1062  0.0093  0.1791
  403MPD2    C5 6020   0.045   0.869  13.746 -0.4755  0.7689 -0.8318
  403MPD2     H 6021   0.218   0.528  13.735 -1.2281 -0.3614 -0.3478
  403MPD2    H1 6022   0.196   0.934  13.869  1.0197  0.4615 -1.4800
  403MPD2    H2 6023   4.612   0.777  13.627 -0.5226  2.0730  1.0597
  403MPD2    H3 6024   4.721   0.967  13.749 -1.0154  0.4721  0.6657
  403MPD2     N 6025   0.339   0.705  13.888 -0.0659  0.1120  0.2805
  403MPD2    H5 6026   0.377   0.611  13.877 -1.5726 -0.3862 -0.7423
  403MPD2    N1 6027   4.708   0.530  13.611  0.2194 -0.5255  0.0989
  403MPD2    H7 6028   4.625   0.551  13.556 -0.4098 -0.7667  0.9670
  404TMC3    C1 6029   4.661   0.309  13.562  0.5300 -0.1439 -0.9158
  404TMC3    C2 6030   4.653   0.186  13.615 -0.0525 -0.4225  0.2432
  404TMC3    C3 6031   4.596   0.085  13.549 -0.3565  0.3569  0.5807
  404TMC3    C4 6032   4.616   0.335  13.436 -0.2998  0.5194 -0.4710
  404TMC3    C5 6033   4.559   0.235  13.366 -0.8049  0.4439  0.1242
  404TMC3    C6 6034   4.550   0.103  13.417  0.0636 -0.3475  0.6023
  404TMC3     C 6035   0.030   0.401  13.616 -0.7981  0.2409 -0.2219
  404TMC3     O 6036   0.126   0.344  13.668 -0.2505  0.3783  0.2801
  404TMC3     H 6037   4.704   0.173  13.710  0.1442  0.2017  0.2245
  404TMC3    H1 6038   4.616   0.433  13.389  1.1947  0.7194 -0.0488
  404TMC3    H2 6039   4.506   0.022  13.359  0.5076 -0.1547 -0.0111
  404TMC3    C7 6040   4.567   0.267  13.222  0.7853  0.1553 -0.3811
  404TMC3    C8 6041   4.593   4.674  13.626  0.6852 -0.2583  0.1407
  404TMC3    O1 6042   4.662   0.339  13.194  0.5359 -0.5066  0.0484
  404TMC3    O2 6043   4.635   4.573  13.574 -0.2461 -0.2517  0.1392
  405MPD2     C 6044   0.477   1.048  14.919  0.0551 -1.0279 -0.2473
  405MPD2    C1 6045   0.453   0.951  14.831  0.3743 -0.1588  0.3913
  405MPD2    C2 6046   0.412   0.989  14.707 -0.2916 -0.0243 -0.6335
  405MPD2    C3 6047   0.401   1.120  14.660  1.3028  0.7423 -0.8623
  405MPD2    C4 6048   0.435   1.221  14.751 -0.1295 -0.0333  0.0789
  405MPD2    C5 6049   0.476   1.187  14.881  0.6685  0.0279 -0.1496
  405MPD2     H 6050   0.385   0.910  14.638  1.4980 -2.9997  2.0861
  405MPD2    H1 6051   0.440   1.326  14.725 -0.3511  0.2031  0.9789
  405MPD2    H2 6052   0.512   1.031  15.020  1.3230  1.7788 -0.2129
  405MPD2    H3 6053   0.509   1.263  14.951  1.1911 -0.5092  0.1896
  405MPD2     N 6054   0.366   1.149  14.527 -0.2360  0.0563 -0.6375
  405MPD2    H5 6055   0.347   1.066  14.472 -0.4456 -0.4521  0.1932
  405MPD2    N1 6056   0.466   0.819  14.873 -0.1344  0.5365 -0.1065
  405MPD2    H7 6057   0.485   0.799  14.971 -2.5853  0.0938  0.2822
  406TMC3    C1 6058   0.047   1.297  14.235  0.1191  0.0079 -0.0188
  406TMC3    C2 6059   0.059   1.190  14.149 -0.0288 -0.4792 -0.8949
  406TMC3    C3 6060   0.170   1.115  14.174  0.1675 -0.3204 -0.0373
  406TMC3    C4 6061   0.134   1.341  14.340 -0.2794  0.3492  0.4293
  406TMC3    C5 6062   0.243   1.263  14.358  0.2569  0.7219 -0.9207
  406TMC3    C6 6063   0.260   1.149  14.278 -0.1041 -0.0267 -0.4685
  406TMC3     C 6064   4.658   1.381  14.198  0.7652  0.0608 -0.2956
  406TMC3     O 6065   4.657   1.443  14.093  0.5222 -0.0672 -0.9075
  406TMC3     H 6066   4.705   1.187  14.072 -0.8083  0.7207 -0.1954
  406TMC3    H1 6067   0.116   1.426  14.404  1.7156  1.3064 -0.2745
  406TMC3    H2 6068   0.355   1.098  14.272 -2.3254 -4.0337 -2.0333
  406TMC3    C7 6069   0.326   1.275  14.478  0.3392 -0.1324 -0.2610
  406TMC3    C8 6070   0.152   0.973  14.132  0.2216  1.2770 -0.3837
  406TMC3    O1 6071   0.314   1.380  14.539 -0.0512  0.0903  0.0517
  406TMC3    O2 6072   0.047   0.957  14.066  0.1119 -0.3090  0.0174
  407MPD2     C 6073   2.624   1.974   9.828  0.3296  0.1656 -0.2774
  407MPD2    C1 6074   2.746   1.992   9.892 -1.0197 -0.3585  0.4529
  407MPD2    C2 6075   2.765   2.110   9.961  0.7386 -0.9395  0.0992
  407MPD2    C3 6076   2.671   2.207   9.969  0.1797 -0.2936  0.3478
  407MPD2    C4 6077   2.551   2.199   9.894 -0.3467 -0.0304  0.4685
  407MPD2    C5 6078   2.532   2.081   9.830  0.1894 -0.0941  0.2499
  407MPD2     H 6079   2.854   2.107  10.022  1.8024  0.8341 -1.3852
  407MPD2    H1 6080   2.474   2.275   9.884  2.2510  2.4194 -0.9334
  407MPD2    H2 6081   2.601   1.884   9.772 -0.5510 -0.0051  0.3657
  407MPD2    H3 6082   2.440   2.066   9.775 -0.5745  1.9881  0.9741
  407MPD2     N 6083   2.687   2.336  10.038  0.2120 -0.9067 -0.3419
  407MPD2    H5 6084   2.621   2.410  10.015  1.4835  0.1232 -0.6493
  407MPD2    N1 6085   2.848   1.893   9.912  0.6856  0.0514  0.5995
  407MPD2    H7 6086   2.924   1.906   9.979 -0.8857  0.3172  2.3361
  408TMC3    C1 6087   2.945   1.686   9.894 -0.2905 -0.7589 -0.2709
  408TMC3    C2 6088   3.074   1.732   9.921 -0.7686 -0.6402 -0.1991
  408TMC3    C3 6089   3.169   1.631   9.944  0.7639  0.2588  0.6119
  408TMC3    C4 6090   2.930   1.556   9.873 -0.0197 -0.2757  0.0798
  408TMC3    C5 6091   3.027   1.454   9.892 -0.6165 -0.5144 -0.2069
  408TMC3    C6 6092   3.144   1.492   9.937 -0.6470  0.0627  0.7304
  408TMC3     C 6093   2.839   1.771   9.848  0.1565  0.1797  0.5816
  408TMC3     O 6094   2.746   1.730   9.778  0.4416 -0.2236 -0.4188
  408TMC3     H 6095   3.101   1.837   9.926 -0.2159 -0.7636 -0.6164
  408TMC3    H1 6096   2.825   1.532   9.855 -0.2310 -0.3969  1.4834
  408TMC3    H2 6097   3.230   1.428   9.956 -0.0971  0.2967 -1.0078
  408TMC3    C7 6098   3.006   1.317   9.859  0.1995 -0.5689 -0.5206
  408TMC3    C8 6099   3.284   1.674  10.013 -0.2444  0.3979 -0.1730
  408TMC3    O1 6100   3.078   1.243   9.920 -0.3827 -0.1790  0.1524
  408TMC3    O2 6101   3.339   1.600  10.097 -0.2480  0.0642  0.2073
  409MPD2     C 6102   2.206   3.148  17.452 -0.0660 -0.2185 -0.0044
  409MPD2    C1 6103   2.287   3.206  17.549  0.1445 -0.1582 -0.1932
  409MPD2    C2 6104   2.383   3.293  17.507  0.3390 -0.7348  0.4327
  409MPD2    C3 6105   2.414   3.306  17.367 -0.8418  0.0599 -0.2619
  409MPD2    C4 6106   2.327   3.252  17.272  0.4946 -0.3212 -0.0033
  409MPD2    C5 6107   2.222   3.179  17.317 -0.6752  0.0704  0.7562
  409MPD2     H 6108   2.457   3.334  17.576  2.0987 -3.3748  0.1416
  409MPD2    H1 6109   2.342   3.274  17.167  1.9702 -2.6184 -0.2667
  409MPD2    H2 6110   2.128   3.075  17.471  0.3469 -0.3343  1.2441
  409MPD2    H3 6111   2.155   3.139  17.242  1.2034  0.2173 -0.9937
  409MPD2     N 6112   2.528   3.381  17.323 -0.4053  0.2546 -0.9189
  409MPD2    H5 6113   2.557   3.370  17.226 -0.2052 -0.1847 -0.8072
  409MPD2    N1 6114   2.292   3.167   0.002 -0.4663  0.1120 -0.0407
  409MPD2    H7 6115   2.361   3.218   0.056 -1.5614  0.4960  0.9970
  410TMC3    C1 6116   2.734   3.510  17.326 -0.1004 -0.4904 -0.4130
  410TMC3    C2 6117   2.861   3.508  17.378  0.5844  0.0512  0.4710
  410TMC3    C3 6118   2.965   3.477  17.294 -0.2446  0.0316 -0.0413
  410TMC3    C4 6119   2.718   3.507  17.191 -0.4765  0.8952 -0.3775
  410TMC3    C5 6120   2.829   3.479  17.109  0.5872 -0.5476 -0.2337
  410TMC3    C6 6121   2.951   3.453  17.161 -0.0875  0.1536  0.9018
  410TMC3     C 6122   2.621   3.451  17.399 -0.2465 -0.4071 -0.1846
  410TMC3     O 6123   2.633   3.466  17.522 -0.3942  0.1991 -0.1050
  410TMC3     H 6124   2.868   3.506  17.486 -2.9080  0.4009  0.6877
  410TMC3    H1 6125   2.622   3.516  17.141 -0.0621  0.5925 -1.2208
  410TMC3    H2 6126   3.031   3.442  17.089 -0.2206  1.4839  0.5544
  410TMC3    C7 6127   2.808   3.482  16.965  0.3943  0.7631  0.8776
  410TMC3    C8 6128   3.089   3.448  17.356  0.2602 -0.0078 -0.1771
  410TMC3    O1 6129   2.875   3.403  16.898 -0.2172 -0.1053 -0.0603
  410TMC3    O2 6130   3.118   3.512  17.455 -0.3083  0.1883 -0.3620
  411MPD2     C 6131   2.639   3.872  14.910  0.1979 -0.7690 -0.1099
  411MPD2    C1 6132   2.513   3.906  14.878 -0.3341 -0.5995  0.2241
  411MPD2    C2 6133   2.418   3.811  14.855 -0.0955 -0.6037  1.0544
  411MPD2    C3 6134   2.458   3.677  14.864 -0.7821  0.3441  0.3089
  411MPD2    C4 6135   2.586   3.639  14.898  0.2478 -0.5009  0.3356
  411MPD2    C5 6136   2.675   3.736  14.918 -0.0575 -0.6477 -0.1242
  411MPD2     H 6137   2.313   3.833  14.843  0.1314  0.8404  1.6988
  411MPD2    H1 6138   2.619   3.537  14.908  0.0387 -0.6169 -0.1468
  411MPD2    H2 6139   2.720   3.939  14.934 -0.1597 -0.4624  0.2431
  411MPD2    H3 6140   2.778   3.723  14.950  0.9533  1.0799 -2.6184
  411MPD2     N 6141   2.377   3.574  14.826  0.1342  0.2998 -0.3691
  411MPD2    H5 6142   2.413   3.479  14.815 -0.3019 -0.1852  2.4489
  411MPD2    N1 6143   2.469   4.039  14.876 -0.0502  0.0540 -0.7179
  411MPD2    H7 6144   2.368   4.051  14.878 -0.0116  0.3018 -0.3335
  412TMC3    C1 6145   2.188   3.465  14.741 -0.9336  1.2069  0.0237
  412TMC3    C2 6146   2.056   3.423  14.759 -0.1980  0.1119  0.6887
  412TMC3    C3 6147   2.000   3.339  14.672 -0.1384 -0.1232 -0.0396
  412TMC3    C4 6148   2.273   3.410  14.641 -0.1790  0.1885 -0.0058
  412TMC3    C5 6149   2.209   3.323  14.558 -0.0209  0.1222 -0.0143
  412TMC3    C6 6150   2.076   3.283  14.572 -0.3754  0.2122  0.3869
  412TMC3     C 6151   2.241   3.584  14.800 -0.0961  0.2456  0.2255
  412TMC3     O 6152   2.161   3.669  14.838 -0.4057 -0.5548 -0.4503
  412TMC3     H 6153   1.985   3.486  14.811 -1.7600 -1.5653  0.5655
  412TMC3    H1 6154   2.376   3.442  14.631  0.7255 -3.1226 -1.3506
  412TMC3    H2 6155   2.036   3.206  14.507 -1.7036  1.2372 -0.0212
  412TMC3    C7 6156   2.224   3.351  14.418 -0.6390 -0.3058  0.0924
  412TMC3    C8 6157   1.877   3.394  14.623 -0.6751 -0.1203 -0.1178
  412TMC3    O1 6158   2.127   3.338  14.343 -0.2394 -0.6884  0.3157
  412TMC3    O2 6159   1.785   3.417  14.703  0.2760  0.0126 -0.2286
  413MPD2     C 6160   4.127   2.577  15.459  0.3167  0.3685  0.4314
  413MPD2    C1 6161   4.057   2.492  15.383 -0.1240  0.1779 -0.6345
  413MPD2    C2 6162   4.125   2.378  15.341 -0.1323 -0.3959  0.1762
  413MPD2    C3 6163   4.261   2.349  15.367 -0.0224 -0.5138  0.0302
  413MPD2    C4 6164   4.333   2.442  15.438  0.5803 -0.0287 -0.0192
  413MPD2    C5 6165   4.257   2.551  15.481  0.5817  0.5050 -0.0123
  413MPD2     H 6166   4.062   2.309  15.287 -0.3915 -0.4436  0.5402
  413MPD2    H1 6167   4.440   2.444  15.461  0.9710 -0.8732 -1.7967
  413MPD2    H2 6168   4.082   2.669  15.494  2.1957  1.2058  0.6162
  413MPD2    H3 6169   4.321   2.628  15.523 -0.4518  1.1162  0.4566
  413MPD2     N 6170   4.315   2.252  15.283 -0.9238  0.2679  0.8726
  413MPD2    H5 6171   4.248   2.213  15.217  2.0835  0.8765 -2.5276
  413MPD2    N1 6172   3.925   2.524  15.345 -0.3591 -0.2009  0.2245
  413MPD2    H7 6173   3.886   2.597  15.404  0.6068  1.1592 -0.8099
  414TMC3    C1 6174   4.448   2.088  15.194  0.2624 -0.1127  0.0121
  414TMC3    C2 6175   4.506   1.968  15.236  0.8063  0.6867 -0.9159
  414TMC3    C3 6176   4.453   1.847  15.191 -0.9870 -0.3640 -0.8673
  414TMC3    C4 6177   4.346   2.086  15.106 -0.0397 -0.2914  0.0217
  414TMC3    C5 6178   4.307   1.965  15.060 -0.7639 -1.2929  0.1126
  414TMC3    C6 6179   4.346   1.844  15.103 -0.4828 -0.2916  0.3598
  414TMC3     C 6180   4.443   2.194  15.294  0.7217 -0.0799 -0.4881
  414TMC3     O 6181   4.521   2.210  15.387 -1.1102 -0.2594  0.5606
  414TMC3     H 6182   4.585   1.980  15.310  0.8754 -0.8235 -0.7429
  414TMC3    H1 6183   4.314   2.172  15.049 -1.8369 -1.8461 -1.3380
  414TMC3    H2 6184   4.306   1.753  15.059 -1.5195  0.5564 -0.4429
  414TMC3    C7 6185   4.209   1.985  14.951  0.1758  0.0841 -1.1548
  414TMC3    C8 6186   4.533   1.729  15.186  0.1402 -0.2015  0.3666
  414TMC3    O1 6187   4.110   2.043  14.986 -0.0023  0.0018 -0.0109
  414TMC3    O2 6188   4.500   1.638  15.109 -0.0210 -0.3659  0.1669
  415TMC3    C1 6189   4.579   4.510  10.668  0.4479  0.4314 -0.9352
  415TMC3    C2 6190   4.618   4.639  10.681  0.2250  0.0161  0.0431
  415TMC3    C3 6191   4.545   0.012  10.616 -0.0913 -0.3414 -0.4720
  415TMC3    C4 6192   4.474   4.469  10.584 -0.8885  0.4234 -0.3242
  415TMC3    C5 6193   4.405   4.571  10.520  0.7864 -0.0763  0.4884
  415TMC3    C6 6194   4.435   4.702  10.543  0.1669 -0.4452  0.2454
  415TMC3     C 6195   4.659   4.401  10.717 -0.5952  0.8010 -1.0506
  415TMC3     O 6196   4.600   4.294  10.718  0.6015 -0.2926  0.5711
  415TMC3     H 6197   4.709   4.648  10.739  0.3560 -2.5453  0.2538
  415TMC3    H1 6198   4.453   4.365  10.562 -0.2971  0.1611  0.3357
  415TMC3    H2 6199   4.374   0.060  10.501  1.1409 -1.9429 -3.9593
  415TMC3    C7 6200   4.340   4.546  10.397 -0.4321 -0.6507 -0.6013
  415TMC3    C8 6201   4.581   0.152  10.614  0.2795  0.2690 -0.0007
  415TMC3    O1 6202   4.278   4.634  10.337  0.0725  0.2561 -0.2848
  415TMC3    O2 6203   4.537   0.220  10.521  0.5168  0.0368  0.9219
  416MPD2     C 6204   1.903   3.948  11.200  0.0167 -0.3901 -0.2974
  416MPD2    C1 6205   1.840   3.901  11.311  0.2608  0.4587  0.4068
  416MPD2    C2 6206   1.798   3.768  11.310  0.5019 -0.0006 -1.1231
  416MPD2    C3 6207   1.815   3.688  11.203  0.1028 -0.3783 -0.8308
  416MPD2    C4 6208   1.896   3.735  11.090 -0.4808 -0.2220  0.1091
  416MPD2    C5 6209   1.931   3.871  11.091 -0.8694 -0.0312  0.4166
  416MPD2     H 6210   1.738   3.731  11.392  0.0757 -0.2550 -1.5470
  416MPD2    H1 6211   1.913   3.672  11.003  0.1842 -0.4420  0.3997
  416MPD2    H2 6212   1.910   4.056  11.201 -0.4838 -0.3591 -0.2237
  416MPD2    H3 6213   1.980   3.914  11.005  1.3947  1.9848  2.6974
  416MPD2     N 6214   1.760   3.562  11.204 -0.7290  0.1963  0.4731
  416MPD2    H5 6215   1.718   3.545  11.295  2.3261  0.1960  1.8683
  416MPD2    N1 6216   1.804   3.998  11.410 -0.4455  0.1492 -0.4194
  416MPD2    H7 6217   1.855   4.084  11.394 -0.8515  0.7373  1.4499
  417TMC3    C1 6218   1.730   4.093  11.616 -0.5808  0.5423 -0.1062
  417TMC3    C2 6219   1.690   4.072  11.748 -0.2445 -0.4092  1.0144
  417TMC3    C3 6220   1.587   4.147  11.806 -1.1530 -0.4606 -0.0119
  417TMC3    C4 6221   1.663   4.192  11.553 -0.2935 -0.4150  0.4411
  417TMC3    C5 6222   1.562   4.261  11.607  1.3066  0.1577  1.4171
  417TMC3    C6 6223   1.517   4.238  11.735  0.3921 -0.2348 -0.0211
  417TMC3     C 6224   1.745   3.973  11.532  0.2028 -0.3470  0.0795
  417TMC3     O 6225   1.693   3.868  11.575 -0.0773 -0.2374 -0.0154
  417TMC3     H 6226   1.716   3.986  11.808  2.8882  0.1141  0.4073
  417TMC3    H1 6227   1.678   4.211  11.447 -0.4416 -2.6216  0.0223
  417TMC3    H2 6228   1.439   4.299  11.779 -0.1182  0.1689 -1.5147
  417TMC3    C7 6229   1.461   4.301  11.511  0.4046 -0.3200  0.3460
  417TMC3    C8 6230   1.556   4.137  11.946 -0.1411 -0.0419  0.0741
  417TMC3    O1 6231   1.499   4.357  11.412 -0.5752 -0.5856  0.0773
  417TMC3    O2 6232   1.438   4.147  11.979 -0.2223 -0.8474  0.7633
  418TMC3    C1 6233   0.299   0.687   1.350  0.1167 -0.3900  0.3425
  418TMC3    C2 6234   0.188   0.721   1.276 -0.6788  0.0961 -0.7203
  418TMC3    C3 6235   0.127   0.622   1.202  0.0323 -0.5023 -0.5480
  418TMC3    C4 6236   0.332   0.560   1.376 -0.3926 -0.1948  0.2680
  418TMC3    C5 6237   0.259   0.459   1.319  0.0286 -0.5304 -0.4149
  418TMC3    C6 6238   0.162   0.491   1.225  0.3870  0.0156  0.1732
  418TMC3     C 6239   0.399   0.787   1.360 -0.2806  0.2636  0.1536
  418TMC3     O 6240   0.359   0.899   1.363  0.1561 -0.4676 -0.2083
  418TMC3     H 6241   0.187   0.824   1.242  1.4901  0.2540 -0.2941
  418TMC3    H1 6242   0.410   0.544   1.448 -0.2728 -1.0158 -0.0448
  418TMC3    H2 6243   0.121   0.404   1.176  1.0039 -0.2944  0.2004
  418TMC3    C7 6244   0.312   0.324   1.320 -0.2758 -0.0742  0.7180
  418TMC3    C8 6245   0.066   0.666   1.078  0.3514 -0.0115 -0.0113
  418TMC3    O1 6246   0.316   0.261   1.217 -0.4288 -0.1632 -0.1422
  418TMC3    O2 6247   0.034   0.784   1.061  0.5141 -0.5278  0.0289
  419MPD2     C 6248   3.795   3.390  12.815  0.2289 -0.0493 -0.1067
  419MPD2    C1 6249   3.730   3.502  12.774 -0.1498 -0.3172 -0.6192
  419MPD2    C2 6250   3.674   3.588  12.873 -0.8920 -0.7017 -0.1872
  419MPD2    C3 6251   3.691   3.567  13.005  0.1197  0.4344  0.3328
  419MPD2    C4 6252   3.743   3.443  13.051 -0.1337  0.7457 -0.1424
  419MPD2    C5 6253   3.796   3.358  12.953 -0.4129  0.1662 -0.2556
  419MPD2     H 6254   3.638   3.686  12.844 -1.7776 -0.6138  1.2107
  419MPD2    H1 6255   3.721   3.410  13.152 -2.0180  1.3333 -0.3712
  419MPD2    H2 6256   3.835   3.316  12.745  1.5663 -0.7058  1.3369
  419MPD2    H3 6257   3.830   3.260  12.982 -2.5764  0.0305  1.8203
  419MPD2     N 6258   3.655   3.669  13.096 -0.2793 -0.2392  0.1054
  419MPD2    H5 6259   3.637   3.763  13.061  0.7136  0.4721  1.4513
  419MPD2    N1 6260   3.721   3.546  12.639  0.6555  0.2805  0.1106
  419MPD2    H7 6261   3.652   3.620  12.632 -0.3259 -0.4708  1.6580
  420TMC3    C1 6262   3.591   3.773  13.311 -1.0194 -0.2252 -0.5752
  420TMC3    C2 6263   3.512   3.861  13.251  1.0347 -0.3894 -0.4565
  420TMC3    C3 6264   3.449   3.940  13.341 -0.1884 -0.3550  0.6611
  420TMC3    C4 6265   3.611   3.774  13.443  0.3956 -0.7772 -0.0351
  420TMC3    C5 6266   3.550   3.862  13.525 -0.3027  0.9444 -0.4692
  420TMC3    C6 6267   3.463   3.956  13.476  0.0634  0.1694  0.4009
  420TMC3     C 6268   3.642   3.657  13.239 -0.1260  0.6662 -0.3187
  420TMC3     O 6269   3.653   3.554  13.302 -0.3052 -0.0122 -0.4186
  420TMC3     H 6270   3.480   3.866  13.148  0.6776 -1.9698 -0.4199
  420TMC3    H1 6271   3.680   3.700  13.482 -0.4479 -2.3389 -1.5153
  420TMC3    H2 6272   3.414   4.029  13.540 -0.6499 -2.3526  2.7317
  420TMC3    C7 6273   3.557   3.826  13.664 -0.6243  0.1721 -0.2572
  420TMC3    C8 6274   3.328   4.006  13.286 -0.4227  0.1409  0.7424
  420TMC3    O1 6275   3.611   3.723  13.700 -0.2629 -0.3461 -0.2008
  420TMC3    O2 6276   3.341   4.062  13.178 -0.1572 -0.5460  0.5549
  421TMC3    C1 6277   0.515   0.748  14.035 -0.1001 -0.1760  0.2860
  421TMC3    C2 6278   0.615   0.834  14.064 -0.2183  0.0788  0.2351
  421TMC3    C3 6279   0.718   0.784  14.147 -0.8169  0.0280 -0.1906
  421TMC3    C4 6280   0.509   0.618  14.084 -0.0270 -0.1390  0.5742
  421TMC3    C5 6281   0.616   0.579  14.159  0.4382  0.1365  0.0644
  421TMC3    C6 6282   0.713   0.660  14.199 -0.0229  0.3391 -0.6132
  421TMC3     C 6283   0.410   0.803  13.945 -0.0116 -0.5638  0.4210
  421TMC3     O 6284   0.404   0.925  13.926 -0.8758 -0.4119 -0.2832
  421TMC3     H 6285   0.624   0.925  14.005 -0.0914  0.6285  1.1049
  421TMC3    H1 6286   0.416   0.561  14.079 -0.6094  0.8199  0.4065
  421TMC3    H2 6287   0.800   0.625  14.254  0.1531  0.4987 -0.7875
  421TMC3    C7 6288   0.622   0.440  14.195  0.2637 -0.9121 -0.1683
  421TMC3    C8 6289   0.837   0.862  14.161  0.9877 -0.7883  0.2290
  421TMC3    O1 6290   0.705   0.409  14.283 -0.5191 -0.3691 -0.1783
  421TMC3    O2 6291   0.868   0.929  14.066 -0.0266 -0.4704  0.0701
  422TMC3    C1 6292   2.645   1.746  12.849 -0.2328  0.3112  0.0290
  422TMC3    C2 6293   2.640   1.868  12.900  0.0284  0.5671  0.7090
  422TMC3    C3 6294   2.539   1.896  12.992 -0.0425 -0.3668 -0.2392
  422TMC3    C4 6295   2.551   1.655  12.879  0.5944 -0.5644  0.1010
  422TMC3    C5 6296   2.447   1.685  12.957  0.4846 -0.0325  0.5494
  422TMC3    C6 6297   2.434   1.805  13.016 -0.7449 -0.0730 -1.0335
  422TMC3     C 6298   2.748   1.727  12.759  0.6949 -0.2922  0.0806
  422TMC3     O 6299   2.802   1.815  12.693 -0.3339 -0.5411 -0.3522
  422TMC3     H 6300   2.715   1.941  12.868  0.0429  0.5705  0.7509
  422TMC3    H1 6301   2.565   1.559  12.831 -2.1436  0.0796 -2.0029
  422TMC3    H2 6302   2.354   1.825  13.087 -1.6320  1.5666 -2.4922
  422TMC3    C7 6303   2.331   1.596  12.940 -0.4026 -0.4598 -0.3636
  422TMC3    C8 6304   2.538   2.027  13.053  0.3058 -0.1815 -0.4818
  422TMC3    O1 6305   2.347   1.505  12.857  0.3178  0.4090  0.2581
  422TMC3    O2 6306   2.637   2.092  13.032 -0.2232  0.7759 -1.0655
  423MPD2     C 6307   4.166   2.178   0.933  0.4437 -0.8784 -0.8706
  423MPD2    C1 6308   4.165   2.314   0.924 -0.2859 -0.0012  0.3213
  423MPD2    C2 6309   4.162   2.365   0.795  0.0696  0.0279 -0.9257
  423MPD2    C3 6310   4.155   2.277   0.683 -0.4245 -0.7076  0.3690
  423MPD2    C4 6311   4.156   2.140   0.699 -0.4201  0.4915  0.1882
  423MPD2    C5 6312   4.159   2.093   0.824 -0.1119  0.4460 -0.1431
  423MPD2     H 6313   4.160   2.473   0.788  2.7738  0.2215  0.8570
  423MPD2    H1 6314   4.162   2.065   0.621 -3.3946 -0.7236  1.0984
  423MPD2    H2 6315   4.160   2.119   1.024 -0.7537  0.7700  0.1202
  423MPD2    H3 6316   4.151   1.986   0.842  1.0926  0.7889  2.3993
  423MPD2     N 6317   4.154   2.318   0.550 -0.1367  0.0473 -0.7796
  423MPD2    H5 6318   4.142   2.240   0.486 -0.8780 -0.3198 -0.1873
  423MPD2    N1 6319   4.181   2.403   1.037 -0.6327  0.4391  0.0357
  423MPD2    H7 6320   4.196   2.500   1.010 -0.9150 -0.6661 -4.0901
  424TMC3    C1 6321   4.201   2.463   1.262  0.0478  0.7569  0.6531
  424TMC3    C2 6322   4.243   2.424   1.387 -0.1898  0.1304 -0.2348
  424TMC3    C3 6323   4.225   2.504   1.496  0.6774  0.1420  0.9717
  424TMC3    C4 6324   4.124   2.576   1.256 -0.1602  1.1401  0.4244
  424TMC3    C5 6325   4.103   2.651   1.368  0.3294 -0.2780 -0.3192
  424TMC3    C6 6326   4.163   2.628   1.488  0.1838 -0.2673  0.8477
  424TMC3     C 6327   4.172   2.363   1.167  0.7586 -0.4452  0.0745
  424TMC3     O 6328   4.147   2.254   1.210  0.9433 -0.2919  0.3164
  424TMC3     H 6329   4.308   2.339   1.405 -0.8663 -0.5294 -0.9030
  424TMC3    H1 6330   4.083   2.598   1.158  0.3792 -2.0718 -0.5537
  424TMC3    H2 6331   4.157   2.682   1.582  0.3067  2.9292 -0.9734
  424TMC3    C7 6332   3.997   2.747   1.360  0.5605  0.4312  0.7345
  424TMC3    C8 6333   4.241   2.434   1.621 -0.9170  0.0004  0.4369
  424TMC3    O1 6334   3.986   2.787   1.245  0.3064 -0.1915  0.1604
  424TMC3    O2 6335   4.213   2.316   1.614 -0.9386 -0.0983 -0.0426
  425MPD2     C 6336   3.098   2.162   0.158 -0.0303 -0.4286  0.8931
  425MPD2    C1 6337   3.014   2.090   0.069 -0.1782  0.3600  0.6550
  425MPD2    C2 6338   2.891   2.142   0.045  0.4568  0.2168  0.7584
  425MPD2    C3 6339   2.841   2.256   0.109  0.2110 -0.6541  0.1018
  425MPD2    C4 6340   2.919   2.316   0.202  0.3258  0.1091 -0.0647
  425MPD2    C5 6341   3.043   2.266   0.228  0.1691  0.1651 -0.4108
  425MPD2     H 6342   2.820   2.101  17.661  0.6669  1.6898 -0.2820
  425MPD2    H1 6343   2.875   2.402   0.253 -1.0810 -1.0968  0.7590
  425MPD2    H2 6344   3.199   2.128   0.179  0.2998  0.9630  1.5076
  425MPD2    H3 6345   3.101   2.319   0.302  1.1465  0.1389 -1.1639
  425MPD2     N 6346   2.711   2.298   0.079 -0.0021  0.8909 -0.8303
  425MPD2    H5 6347   2.653   2.244   0.015  0.9507 -0.8056 -0.2575
  425MPD2    N1 6348   3.062   1.970   0.008 -0.2552  0.4269  0.1884
  425MPD2    H7 6349   3.147   1.930   0.046 -0.5069  1.1145  1.4570
  426TMC3    C1 6350   3.064   1.767  17.571 -0.1658  0.3187 -0.1407
  426TMC3    C2 6351   3.029   1.719  17.450  0.0425 -0.5615  0.2730
  426TMC3    C3 6352   3.030   1.587  17.430  0.0950  0.3365 -0.0430
  426TMC3    C4 6353   3.093   1.683  17.675 -0.0613  0.6442  0.3497
  426TMC3    C5 6354   3.088   1.546  17.655  0.1035 -0.1985  0.5267
  426TMC3    C6 6355   3.059   1.502  17.529 -0.1739  0.4346 -0.6342
  426TMC3     C 6356   3.006   1.903  17.597 -0.0174  1.0449  0.2450
  426TMC3     O 6357   2.914   1.943  17.524 -0.4301  0.1749 -0.1708
  426TMC3     H 6358   3.003   1.786  17.369 -0.1239  0.3510  1.0856
  426TMC3    H1 6359   3.111   1.728   0.085 -2.3002 -2.3106  2.1478
  426TMC3    H2 6360   3.048   1.396  17.507  1.8204 -0.0317  0.6889
  426TMC3    C7 6361   3.073   1.445   0.078  0.2861 -1.0972 -0.4137
  426TMC3    C8 6362   2.967   1.525  17.312 -0.0554  0.2893 -0.0501
  426TMC3    O1 6363   3.089   1.329   0.040  0.5952  0.0966 -0.4798
  426TMC3    O2 6364   3.018   1.427  17.267 -0.1431 -0.0822 -0.3597
  427MPD2     C 6365   1.617   4.025  15.075  0.3585 -0.7533 -0.4345
  427MPD2    C1 6366   1.573   4.005  15.202  0.8391 -0.6840 -0.2050
  427MPD2    C2 6367   1.434   3.998  15.227 -0.0531 -0.7513  0.5374
  427MPD2    C3 6368   1.340   4.011  15.125  0.3747  0.6394 -0.2626
  427MPD2    C4 6369   1.388   4.032  14.997 -0.3688  0.4942  0.0228
  427MPD2    C5 6370   1.527   4.045  14.975  0.4394 -0.4146 -0.0434
  427MPD2     H 6371   1.400   3.985  15.329  1.0017 -3.4799  0.5433
  427MPD2    H1 6372   1.326   4.046  14.909  1.0162  1.1779 -0.8480
  427MPD2    H2 6373   1.722   4.031  15.049  0.2063  1.4175 -0.4979
  427MPD2    H3 6374   1.555   4.051  14.871 -0.9544  0.6129 -0.3631
  427MPD2     N 6375   1.195   4.025  15.143 -0.7409  0.1342 -0.0052
  427MPD2    H5 6376   1.139   4.045  15.061 -0.7368  1.7281  0.3743
  427MPD2    N1 6377   1.653   4.004  15.318  0.7238 -0.0605  0.1099
  427MPD2    H7 6378   1.609   3.978  15.406  1.8727  1.9159  1.2701
  428TMC3    C1 6379   1.850   3.988  15.439  0.7374  0.6527 -0.2336
  428TMC3    C2 6380   1.789   3.915  15.537  0.1117  0.2531 -0.6800
  428TMC3    C3 6381   1.846   3.908  15.661 -0.3195 -0.5413  0.2866
  428TMC3    C4 6382   1.978   4.036  15.462 -0.6415  0.3533  0.3126
  428TMC3    C5 6383   2.029   4.012  15.588  0.2770 -0.2176 -0.4141
  428TMC3    C6 6384   1.968   3.942  15.685 -0.8316 -0.0371 -0.3299
  428TMC3     C 6385   1.789   4.031  15.315  0.4493 -0.8573 -0.6704
  428TMC3     O 6386   1.871   4.071  15.234  0.6379 -0.4825  0.1723
  428TMC3     H 6387   1.692   3.871  15.517  0.0101 -0.1178  0.6585
  428TMC3    H1 6388   2.026   4.102  15.391 -0.9443 -1.0223 -1.1609
  428TMC3    H2 6389   2.022   3.915  15.775 -0.9725 -0.6124 -0.4208
  428TMC3    C7 6390   2.167   4.037  15.617 -0.6949  0.0746 -0.0643
  428TMC3    C8 6391   1.795   3.795  15.742 -0.8570  0.2996 -0.5046
  428TMC3    O1 6392   2.198   4.046  15.735 -0.5694 -0.0687  0.0268
  428TMC3    O2 6393   1.879   3.709  15.766  0.1843  0.3159  0.1041
  429MPD2     C 6394   3.012   4.467   0.239 -0.5527  0.2123  0.2540
  429MPD2    C1 6395   3.007   4.398   0.121 -0.1746  0.2868 -0.0203
  429MPD2    C2 6396   3.083   4.433   0.015 -1.0357  0.6263  0.2545
  429MPD2    C3 6397   3.169   4.539   0.029 -0.0407  0.6811  0.6802
  429MPD2    C4 6398   3.177   4.612   0.149  0.1281  0.1366  0.1675
  429MPD2    C5 6399   3.095   4.574   0.256  0.0090 -0.7526  0.4098
  429MPD2     H 6400   3.084   4.376  17.610 -1.0306 -0.7682  1.1241
  429MPD2    H1 6401   3.259   4.680   0.173  0.9186 -1.4579  2.0133
  429MPD2    H2 6402   2.955   4.432   0.324  0.3865  0.1489  0.8558
  429MPD2    H3 6403   3.113   4.627   0.348 -2.4361 -0.3577  0.6530
  429MPD2     N 6404   3.255   4.558  17.604  0.1254  0.9927  0.3272
  429MPD2    H5 6405   3.245   4.498  17.522 -0.8430  1.1737  0.3092
  429MPD2    N1 6406   2.931   4.280   0.099 -0.2872 -0.3779  0.3908
  429MPD2    H7 6407   2.946   4.233   0.011  1.9968  0.7605  0.1754
  430TMC3    C1 6408   3.416   4.644  17.450  0.4632  0.4544 -0.3395
  430TMC3    C2 6409   3.335   4.653  17.341  0.5601 -0.0297 -0.6163
  430TMC3    C3 6410   3.345   4.566  17.236  0.3456  0.1343  0.5856
  430TMC3    C4 6411   3.508   4.545  17.454  0.0813 -0.0616 -0.3065
  430TMC3    C5 6412   3.530   4.469  17.337  0.2918  1.3576 -0.5199
  430TMC3    C6 6413   3.446   4.478  17.237 -0.3705 -0.0240  0.1946
  430TMC3     C 6414   3.346   4.659  17.579  0.2469 -0.0517  0.3183
  430TMC3     O 6415   3.369   0.037  17.644  0.8336  0.7108 -0.2594
  430TMC3     H 6416   3.251   4.721  17.353  1.1466  0.8888 -1.6561
  430TMC3    H1 6417   3.565   4.526  17.544  0.2146  1.1888 -0.1368
  430TMC3    H2 6418   3.444   4.403  17.158  1.8122  0.2912 -0.1501
  430TMC3    C7 6419   3.625   4.355  17.341 -0.1710 -0.5606  0.0802
  430TMC3    C8 6420   3.240   4.551  17.146 -0.2682  0.2184  0.1819
  430TMC3    O1 6421   3.584   4.263  17.269  0.6906 -0.1283  0.0133
  430TMC3    O2 6422   3.201   4.439  17.126  0.1327  0.3321 -0.0608
  431MPD2     C 6423   3.606   4.308  12.591  0.5581  0.5092 -0.2387
  431MPD2    C1 6424   3.707   4.289  12.501  0.2768  0.0529  0.8422
  431MPD2    C2 6425   3.704   4.176  12.423  0.0170 -0.3447 -0.3622
  431MPD2    C3 6426   3.614   4.074  12.455 -0.5631 -0.5327  0.5732
  431MPD2    C4 6427   3.536   4.087  12.568  0.7930 -0.5520 -0.5098
  431MPD2    C5 6428   3.523   4.208  12.625 -0.4870 -0.4984 -0.1599
  431MPD2     H 6429   3.769   4.165  12.337 -0.5523  0.3284 -0.8876
  431MPD2    H1 6430   3.474   4.011  12.613  2.0003 -0.6900  0.9173
  431MPD2    H2 6431   3.590   4.404  12.638 -1.2864 -0.1065  0.3833
  431MPD2    H3 6432   3.443   4.230  12.694  0.2938  0.7768  0.3303
  431MPD2     N 6433   3.639   3.944  12.401  0.5699  0.0730  0.8630
  431MPD2    H5 6434   3.597   3.867  12.451 -1.8465 -0.4739 -2.0294
  431MPD2    N1 6435   3.807   4.386  12.483 -0.8486  0.0575  0.4199
  431MPD2    H7 6436   3.888   4.364  12.425 -0.5033 -0.0883  0.9528
  432TMC3    C1 6437   3.737   3.768  12.291 -0.4127  0.6999 -0.2706
  432TMC3    C2 6438   3.743   3.709  12.165 -0.1610  0.1837  0.1034
  432TMC3    C3 6439   3.765   3.568  12.167 -0.2294  0.8967  0.6519
  432TMC3    C4 6440   3.737   3.701  12.412  0.2714 -0.0355  0.5460
  432TMC3    C5 6441   3.751   3.566  12.407 -0.1712  0.3649  0.3587
  432TMC3    C6 6442   3.780   3.502  12.292  0.6096 -0.1842 -0.9557
  432TMC3     C 6443   3.714   3.911  12.293 -0.2051 -0.0535 -0.2227
  432TMC3     O 6444   3.746   3.984  12.199  0.5458  0.2179 -0.0221
  432TMC3     H 6445   3.741   3.769  12.075 -1.5685 -1.4809 -0.9691
  432TMC3    H1 6446   3.753   3.746  12.509 -2.9703  3.1124 -0.3841
  432TMC3    H2 6447   3.800   3.396  12.296 -1.3325 -0.4688  1.4946
  432TMC3    C7 6448   3.788   3.490  12.528  0.0746 -0.0807  0.1293
  432TMC3    C8 6449   3.810   3.510  12.043 -0.3247 -0.1619 -0.4834
  432TMC3    O1 6450   3.848   3.379  12.521 -0.5441  0.1828  0.4997
  432TMC3    O2 6451   3.777   3.399  12.006  0.7881  0.6128  0.5672
  433MPD2     C 6452   2.654   3.029  10.742 -0.0990 -0.1824  0.5222
  433MPD2    C1 6453   2.735   2.945  10.819  0.0478  0.6659 -0.0612
  433MPD2    C2 6454   2.779   2.981  10.950  0.3321 -0.7906  0.4759
  433MPD2    C3 6455   2.731   3.095  11.004  0.2837 -0.1844 -0.2972
  433MPD2    C4 6456   2.641   3.174  10.933  0.3847  0.5558 -0.4909
  433MPD2    C5 6457   2.610   3.141  10.803  0.6596 -0.0650 -0.1364
  433MPD2     H 6458   2.840   2.918  11.014  2.1263 -1.8371 -2.3113
  433MPD2    H1 6459   2.592   3.263  10.972  1.1177  0.9615 -0.4927
  433MPD2    H2 6460   2.624   3.006  10.640 -2.3304  1.9709  0.6858
  433MPD2    H3 6461   2.542   3.210  10.753  1.1640  0.2916 -0.3251
  433MPD2     N 6462   2.778   3.114  11.132  0.2115  0.3024  0.8403
  433MPD2    H5 6463   2.846   3.047  11.168  0.5116 -0.2701 -0.7982
  433MPD2    N1 6464   2.772   2.814  10.783 -0.2203 -0.4311 -0.3016
  433MPD2    H7 6465   2.813   2.756  10.856  2.2780 -0.6009 -1.8522
  434TMC3    C1 6466   2.794   2.608  10.675  0.3224  0.3119 -0.4148
  434TMC3    C2 6467   2.872   2.576  10.787  0.2843 -0.5847  0.0303
  434TMC3    C3 6468   2.890   2.445  10.809 -0.4278 -0.0792  0.2489
  434TMC3    C4 6469   2.729   2.517  10.601  0.2303 -0.2890  0.1781
  434TMC3    C5 6470   2.750   2.384  10.635 -0.8373 -0.2462  0.0854
  434TMC3    C6 6471   2.825   2.343  10.741 -0.2830  0.0432 -0.0264
  434TMC3     C 6472   2.737   2.748  10.671 -0.2575 -0.3160  0.6187
  434TMC3     O 6473   2.681   2.789  10.568 -0.2052 -0.1764 -0.5900
  434TMC3     H 6474   2.937   2.649  10.833 -0.4569 -0.4618  0.8835
  434TMC3    H1 6475   2.642   2.541  10.542  0.7350  1.7056  0.2498
  434TMC3    H2 6476   2.863   2.242  10.745 -3.4074 -1.1477 -0.6297
  434TMC3    C7 6477   2.711   2.282  10.538 -0.7075 -0.7270  0.5032
  434TMC3    C8 6478   2.953   2.411  10.937  0.8388 -0.3589  0.3920
  434TMC3    O1 6479   2.675   2.318  10.429  0.6939 -0.3424  0.0040
  434TMC3    O2 6480   3.022   2.496  10.993 -0.1822  0.2281  0.1183
  435MPD2     C 6481   4.344   2.936  15.385 -0.6946  0.4106  0.2366
  435MPD2    C1 6482   4.322   2.927  15.524  0.3381  0.4119 -1.1012
  435MPD2    C2 6483   4.408   2.859  15.609  0.4459 -0.2421  0.0247
  435MPD2    C3 6484   4.521   2.794  15.554  0.9702  0.0652  0.2412
  435MPD2    C4 6485   4.537   2.800  15.423 -0.2460  1.2108 -0.1999
  435MPD2    C5 6486   4.451   2.870  15.341  0.4097  0.2036 -0.2750
  435MPD2     H 6487   4.392   2.847  15.715 -2.3829 -0.8979 -0.4743
  435MPD2    H1 6488   4.622   2.752  15.376 -0.7846 -0.4533  0.5261
  435MPD2    H2 6489   4.299   3.006  15.315 -0.3014  0.0587 -0.3602
  435MPD2    H3 6490   4.481   2.873  15.237  2.5130 -3.0320  0.2282
  435MPD2     N 6491   4.604   2.722  15.644  0.9453  0.1294  0.1244
  435MPD2    H5 6492   4.595   2.748  15.742 -0.1719  1.1017 -0.2344
  435MPD2    N1 6493   4.209   2.983  15.590 -0.1585 -0.0072  0.2467
  435MPD2    H7 6494   4.204   2.988  15.691 -0.1691  0.5101  0.2225
  436TMC3    C1 6495   3.966   3.216  15.822 -0.4627  0.3795 -0.2045
  436TMC3    C2 6496   4.054   3.175  15.726 -0.0906 -0.7054 -0.3387
  436TMC3    C3 6497   4.009   3.109  15.617  0.1599  0.2307 -0.0265
  436TMC3    C4 6498   3.836   3.177  15.812 -0.4725 -0.5661  0.2158
  436TMC3    C5 6499   3.794   3.116  15.702  0.4697 -0.3224 -0.2015
  436TMC3    C6 6500   3.876   3.083  15.597 -0.5712 -0.2092 -0.2858
  436TMC3     C 6501   4.024   3.197  15.958  0.2985 -0.3232 -0.2270
  436TMC3     O 6502   4.137   3.159  15.960 -0.3528  0.2410 -0.1526
  436TMC3     H 6503   4.157   3.206  15.715 -0.7117  0.9159 -1.5505
  436TMC3    H1 6504   3.766   3.184  15.894  0.7127  0.8044  1.0998
  436TMC3    H2 6505   3.834   3.031  15.511 -0.3236 -0.7922 -0.0553
  436TMC3    C7 6506   3.673   3.042  15.694 -0.4073  0.3191 -0.0503
  436TMC3    C8 6507   4.100   3.044  15.530  0.3681 -0.1274 -0.3435
  436TMC3    O1 6508   3.660   2.942  15.624  0.5769 -0.2423  0.9306
  436TMC3    O2 6509   4.069   3.045  15.411  0.3070  0.4274 -0.5754
  437TMC3    C1 6510   3.092   0.451  12.483  0.3729  0.3379 -0.5564
  437TMC3    C2 6511   3.031   0.552  12.416 -0.8444 -0.7498 -0.1952
  437TMC3    C3 6512   3.087   0.580  12.292 -0.5867 -0.2536  0.1876
  437TMC3    C4 6513   3.201   0.382  12.431 -0.0875  0.1981  0.3804
  437TMC3    C5 6514   3.253   0.406  12.310 -0.4982  0.2523 -0.0591
  437TMC3    C6 6515   3.193   0.513  12.243 -0.4633 -0.0710  0.0016
  437TMC3     C 6516   3.015   0.399  12.597 -0.5873  0.1244 -0.9456
  437TMC3     O 6517   2.907   0.451  12.605  0.2972 -0.2159  0.3592
  437TMC3     H 6518   2.934   0.593  12.442  0.4674  1.7509  0.7038
  437TMC3    H1 6519   3.246   0.296  12.478 -0.6806  0.2702  1.0860
  437TMC3    H2 6520   3.238   0.536  12.147  0.0877 -1.1258  0.0108
  437TMC3    C7 6521   3.396   0.389  12.284  0.3318 -0.8426  0.4493
  437TMC3    C8 6522   3.046   0.701  12.232 -0.3370  0.5016 -0.4604
  437TMC3    O1 6523   3.435   0.402  12.168 -0.1734  0.0526 -0.2199
  437TMC3    O2 6524   2.942   0.753  12.270 -0.1098 -0.0702  0.0423
  438MPD2     C 6525   0.683   0.791  17.132 -0.2950 -0.0433 -0.3757
  438MPD2    C1 6526   0.778   0.732  17.217 -0.6212  0.0885 -0.0014
  438MPD2    C2 6527   0.759   0.731  17.352  0.3199  0.2639  0.1707
  438MPD2    C3 6528   0.645   0.775  17.413 -0.6971 -0.0097  0.0566
  438MPD2    C4 6529   0.549   0.827  17.330 -0.2162  0.3600  0.4596
  438MPD2    C5 6530   0.573   0.837  17.190 -0.2482 -0.1829 -0.1426
  438MPD2     H 6531   0.831   0.676  17.411  0.3864  1.0841  0.8533
  438MPD2    H1 6532   0.455   0.870  17.365 -0.3700  1.0416 -0.8079
  438MPD2    H2 6533   0.672   0.794  17.024  2.4596  4.1129 -0.5584
  438MPD2    H3 6534   0.490   0.880  17.135  0.5025  0.9396 -0.3872
  438MPD2     N 6535   0.621   0.776  17.551 -0.3112  0.5751 -0.3755
  438MPD2    H5 6536   0.533   0.811  17.586 -0.0974 -0.9497  1.7208
  438MPD2    N1 6537   0.890   0.662  17.170  0.2959 -0.0565 -0.1181
  438MPD2    H7 6538   0.948   0.616  17.239  0.0956  0.8735  0.6753
  439TMC3    C1 6539   1.063   0.579  17.032 -0.3057 -0.1215 -0.3365
  439TMC3    C2 6540   1.079   0.513  16.912 -0.4540  0.0003 -0.1729
  439TMC3    C3 6541   1.199   0.451  16.897 -1.3389 -0.0339 -0.2942
  439TMC3    C4 6542   1.164   0.604  17.123 -0.0545  0.1995 -0.8091
  439TMC3    C5 6543   1.284   0.544  17.094 -0.7127 -0.0032 -0.5204
  439TMC3    C6 6544   1.300   0.463  16.987  0.4907  0.2014  0.4991
  439TMC3     C 6545   0.931   0.647  17.043 -0.3066 -0.0994  0.7546
  439TMC3     O 6546   0.866   0.661  16.943 -0.0023 -0.1989  0.2774
  439TMC3     H 6547   0.997   0.507  16.842  0.3866 -1.1718 -1.0479
  439TMC3    H1 6548   1.156   0.659  17.216  1.6839 -0.2894 -0.3637
  439TMC3    H2 6549   1.395   0.412  16.973 -0.5002 -0.7052 -2.7057
  439TMC3    C7 6550   1.396   0.540  17.189  0.2573 -0.2167 -0.3133
  439TMC3    C8 6551   1.254   0.441  16.760  0.2966  0.7522 -0.9123
  439TMC3    O1 6552   1.513   0.521  17.151  0.1392  0.1415  0.2827
  439TMC3    O2 6553   1.374   0.415  16.749 -0.0536 -0.5596 -0.3020
  440MPD2     C 6554   4.142   1.112  15.152 -0.2700 -0.4514 -0.5876
  440MPD2    C1 6555   4.217   1.196  15.082  0.3644 -0.3209 -0.5221
  440MPD2    C2 6556   4.347   1.156  15.043 -0.1670 -0.4681  0.2545
  440MPD2    C3 6557   4.401   1.039  15.090 -0.1371 -0.0925  0.2292
  440MPD2    C4 6558   4.322   0.971  15.183 -0.3332  0.1264  0.0465
  440MPD2    C5 6559   4.201   1.009  15.215  0.8250  0.2999  0.5255
  440MPD2     H 6560   4.412   1.222  14.987  2.1864 -2.9287  0.0368
  440MPD2    H1 6561   4.360   0.881  15.231  1.2112 -0.4209 -2.2031
  440MPD2    H2 6562   4.045   1.146  15.185 -0.3698 -0.8969 -0.4253
  440MPD2    H3 6563   4.145   0.954  15.289 -1.1687 -0.3593 -1.4594
  440MPD2     N 6564   4.538   1.002  15.069 -0.2837 -0.3379  0.3378
  440MPD2    H5 6565   4.568   0.923  15.125 -0.8339 -2.0373 -1.7511
  440MPD2    N1 6566   4.162   1.330  15.054  0.5866  0.0693 -0.0779
  440MPD2    H7 6567   4.069   1.346  15.089  1.1497 -0.4776  1.6658
  441TMC3    C1 6568   0.046   1.016  15.023  0.0777 -0.2802 -0.4631
  441TMC3    C2 6569   0.134   1.117  15.030  0.0951  0.4976 -0.6838
  441TMC3    C3 6570   0.220   1.110  15.133 -0.0081  0.0958  0.0916
  441TMC3    C4 6571   0.056   0.901  15.089  0.5675 -0.3189 -0.3055
  441TMC3    C5 6572   0.133   0.895  15.196 -0.2064  0.4568  0.0391
  441TMC3    C6 6573   0.216   1.002  15.226  0.0512 -0.2471  0.0371
  441TMC3     C 6574   4.630   1.062  14.988 -0.5240 -0.1713 -0.3219
  441TMC3     O 6575   4.623   1.166  14.923 -0.2987  0.2698 -0.1386
  441TMC3     H 6576   0.124   1.204  14.966 -1.5497 -0.5096 -1.8040
  441TMC3    H1 6577   0.003   0.814  15.052  2.9520 -2.3035  0.8830
  441TMC3    H2 6578   0.272   0.996  15.319  0.1373  3.5753  0.1948
  441TMC3    C7 6579   0.063   0.821  15.293  0.4120 -0.7776  0.0621
  441TMC3    C8 6580   0.264   1.238  15.183 -0.1363  0.1237  0.9016
  441TMC3    O1 6581   4.663   0.828  15.278 -0.3527  0.1474 -0.1957
  441TMC3    O2 6582   0.369   1.245  15.243 -0.1211  0.3211 -0.0898
  442MPD2     C 6583   2.452   2.012  16.304 -0.5539  0.9119  0.6617
  442MPD2    C1 6584   2.361   1.921  16.361 -0.1332 -0.7268  0.6304
  442MPD2    C2 6585   2.406   1.791  16.362  0.1906 -0.0767 -0.1766
  442MPD2    C3 6586   2.518   1.743  16.299 -0.1047  1.0721 -0.1967
  442MPD2    C4 6587   2.597   1.840  16.237  0.3477  0.4399 -0.3235
  442MPD2    C5 6588   2.561   1.971  16.236 -0.0974  0.2764 -0.0161
  442MPD2     H 6589   2.347   1.715  16.412  0.8798 -0.8951 -0.6052
  442MPD2    H1 6590   2.689   1.811  16.188 -0.7468 -0.5058 -1.8387
  442MPD2    H2 6591   2.442   2.120  16.301 -3.4913  0.6791  2.1224
  442MPD2    H3 6592   2.628   2.045  16.194  0.5118 -2.4495 -3.9118
  442MPD2     N 6593   2.565   1.608  16.298 -0.6030  0.1832 -0.1011
  442MPD2    H5 6594   2.654   1.594  16.251  0.2208  1.8206  0.9687
  442MPD2    N1 6595   2.244   1.957  16.434  0.1308  0.0488 -0.1191
  442MPD2    H7 6596   2.198   1.885  16.488  1.5994  1.3714  2.8884
  443TMC3    C1 6597   2.068   2.112  16.493  0.1047 -0.4240 -0.1889
  443TMC3    C2 6598   1.979   2.191  16.424 -0.2052 -0.0532 -0.3010
  443TMC3    C3 6599   1.854   2.204  16.479  0.8280 -0.1862 -0.3574
  443TMC3    C4 6600   2.040   2.053  16.608  0.5249 -0.0902  0.4214
  443TMC3    C5 6601   1.910   2.080  16.657 -0.4463  0.1939 -0.1216
  443TMC3    C6 6602   1.814   2.148  16.592  0.2544 -0.3616 -0.2349
  443TMC3     C 6603   2.193   2.085  16.419  0.6264  0.5411  0.1079
  443TMC3     O 6604   2.221   2.174  16.343 -0.0444 -0.6258 -0.5420
  443TMC3     H 6605   2.003   2.240  16.330  0.2923 -0.4445 -0.3801
  443TMC3    H1 6606   2.111   2.002  16.673  0.1515  0.8293  1.5596
  443TMC3    H2 6607   1.710   2.143  16.622  0.9256 -2.5292  1.6983
  443TMC3    C7 6608   1.892   2.039  16.795  0.2164  0.1856 -0.5914
  443TMC3    C8 6609   1.756   2.288  16.414  0.4485 -0.2173 -0.6308
  443TMC3    O1 6610   1.974   1.962  16.845  0.3401 -0.3413 -0.3197
  443TMC3    O2 6611   1.698   2.362  16.492 -0.1372  0.9658 -0.8019
  444MPD2     C 6612   2.616   1.147  16.789 -0.6949  0.0059 -0.3200
  444MPD2    C1 6613   2.657   1.181  16.913 -0.3298 -0.2032  0.3620
  444MPD2    C2 6614   2.786   1.134  16.947 -0.4330 -0.2193 -0.8275
  444MPD2    C3 6615   2.867   1.058  16.862  0.3827  0.2258 -0.2849
  444MPD2    C4 6616   2.814   1.017  16.743 -0.0385 -0.2115  0.1044
  444MPD2    C5 6617   2.689   1.067  16.708 -0.2511 -0.2198  0.2269
  444MPD2     H 6618   2.838   1.174  17.034  1.3547 -1.9859 -1.1173
  444MPD2    H1 6619   2.864   0.939  16.687  1.4286  0.5035  0.3936
  444MPD2    H2 6620   2.520   1.180  16.754  0.3232  0.8063 -2.3494
  444MPD2    H3 6621   2.654   1.034  16.611  3.0436 -0.8383 -0.7745
  444MPD2     N 6622   2.986   1.002  16.905 -0.0526  0.5735 -0.3624
  444MPD2    H5 6623   3.010   1.002  17.004 -0.5028 -0.1302 -0.2514
  444MPD2    N1 6624   2.579   1.252  17.005  0.1264  0.2326 -0.2352
  444MPD2    H7 6625   2.620   1.269  17.096  0.6238  0.7275 -0.5486
  445TMC3    C1 6626   3.189   0.895  16.894  0.7301  0.0248  0.3889
  445TMC3    C2 6627   3.167   0.845  17.020  0.2117 -0.3424  0.4001
  445TMC3    C3 6628   3.276   0.778  17.077 -0.3520  1.1003  0.5397
  445TMC3    C4 6629   3.313   0.898  16.832  0.6329  0.1549 -0.1450
  445TMC3    C5 6630   3.414   0.832  16.896  0.9074  0.5169 -0.2749
  445TMC3    C6 6631   3.396   0.765  17.010  0.3426 -0.1201 -0.0822
  445TMC3     C 6632   3.082   0.965  16.820 -1.2259  0.2552  0.5577
  445TMC3     O 6633   3.087   0.985  16.701  0.0698  0.5517 -0.0193
  445TMC3     H 6634   3.072   0.848  17.072  0.6984 -2.4629  1.3991
  445TMC3    H1 6635   3.313   0.948  16.737 -0.5079 -0.1899 -0.3329
  445TMC3    H2 6636   3.458   0.681  17.039 -0.1703 -0.1786  0.8303
  445TMC3    C7 6637   3.530   0.797  16.825 -0.4654 -0.3420  0.0135
  445TMC3    C8 6638   3.262   0.690  17.184  0.7764  0.1849 -0.2787
  445TMC3    O1 6639   3.523   0.775  16.705 -0.0350 -0.2423  0.2909
  445TMC3    O2 6640   3.370   0.667  17.239 -0.1263  0.2439 -0.4482
  446MPD2     C 6641   2.716   2.284  11.486 -0.3907 -0.4290  0.0035
  446MPD2    C1 6642   2.694   2.329  11.353 -0.0210  0.8329 -0.2902
  446MPD2    C2 6643   2.781   2.430  11.305 -0.2834 -0.6637 -0.7363
  446MPD2    C3 6644   2.882   2.481  11.378 -0.5871  0.3170 -0.6048
  446MPD2    C4 6645   2.899   2.432  11.507  0.3039  0.2472  0.1850
  446MPD2    C5 6646   2.827   2.331  11.558 -0.3885  0.7581 -0.5277
  446MPD2     H 6647   2.771   2.453  11.200 -1.8939  0.3443 -0.3621
  446MPD2    H1 6648   2.969   2.472  11.580 -1.4412 -0.1127  2.0366
  446MPD2    H2 6649   2.656   2.201  11.522  0.4820 -2.0598 -2.3148
  446MPD2    H3 6650   2.847   2.289  11.656 -2.5738  1.0668  0.0618
  446MPD2     N 6651   2.979   2.571  11.321  0.3177  0.0424 -0.2170
  446MPD2    H5 6652   2.964   2.578  11.221  0.0531 -2.4648 -0.3570
  446MPD2    N1 6653   2.599   2.271  11.261 -0.1956 -0.3104  0.3546
  446MPD2    H7 6654   2.592   2.320  11.173 -0.7217 -2.6954 -0.9181
  447TMC3    C1 6655   3.169   2.710  11.288  0.8003 -0.0650 -0.2262
  447TMC3    C2 6656   3.127   2.746  11.168 -0.9363 -0.2756 -0.5321
  447TMC3    C3 6657   3.227   2.800  11.085  0.0635  0.1091 -0.3994
  447TMC3    C4 6658   3.291   2.759  11.338  0.1074  0.0079  1.1544
  447TMC3    C5 6659   3.384   2.819  11.260  0.7279 -1.0541  0.1483
  447TMC3    C6 6660   3.353   2.844  11.130 -0.1406 -0.9397  0.0562
  447TMC3     C 6661   3.091   2.627  11.378  0.2151  0.8007  0.1201
  447TMC3     O 6662   3.126   2.616  11.491 -0.4602 -1.3297  0.3926
  447TMC3     H 6663   3.024   2.730  11.136 -1.5295  0.3705  1.0419
  447TMC3    H1 6664   3.306   2.742  11.444  0.6249 -0.6113  0.9816
  447TMC3    H2 6665   3.430   2.880  11.063 -1.1777 -0.0217 -0.6414
  447TMC3    C7 6666   3.515   2.769  11.291  0.6107 -0.1656  0.3282
  447TMC3    C8 6667   3.181   2.812  10.948  0.4502  0.1259 -0.3637
  447TMC3    O1 6668   3.509   2.671  11.365 -0.5802 -0.5259  0.1913
  447TMC3    O2 6669   3.057   2.819  10.930  0.1701  0.6166  0.1478
  448TMC3    C1 6670   0.953   2.025  16.996 -0.0781 -0.2297  0.0656
  448TMC3    C2 6671   0.865   1.930  17.042  0.5016 -0.0855  0.4394
  448TMC3    C3 6672   0.894   1.883  17.168  0.2204 -0.3390 -0.8114
  448TMC3    C4 6673   1.068   2.070  17.059 -0.5782  0.0159  0.1219
  448TMC3    C5 6674   1.087   2.009  17.179 -0.0162  0.3253 -0.4596
  448TMC3    C6 6675   0.998   1.929  17.237  0.8346  1.3784  0.2279
  448TMC3     C 6676   0.904   2.122  16.902  0.8188  0.2953  0.9624
  448TMC3     O 6677   0.919   2.237  16.939  0.8283 -0.0775 -0.2198
  448TMC3     H 6678   0.788   1.891  16.977 -1.3741  0.6876  2.2119
  448TMC3    H1 6679   1.132   2.147  17.020 -1.9572 -0.0069 -2.1723
  448TMC3    H2 6680   1.010   1.872  17.328 -2.3379 -0.5133 -0.5416
  448TMC3    C7 6681   1.189   2.068  17.267  0.2717  0.0710 -0.1700
  448TMC3    C8 6682   0.824   1.756  17.197 -0.4491 -0.2365  0.2006
  448TMC3    O1 6683   1.221   2.182  17.229  0.1089  0.3256  0.5298
  448TMC3    O2 6684   0.890   1.677  17.261 -0.4186 -0.4640  0.2200
  449MPD2     C 6685   2.527   0.430  14.605  0.1643  0.0585 -0.1722
  449MPD2    C1 6686   2.466   0.411  14.485 -0.4239  0.6865 -0.1265
  449MPD2    C2 6687   2.413   0.287  14.456  0.2347 -0.0361 -0.3783
  449MPD2    C3 6688   2.393   0.190  14.553 -0.4094  0.0358 -0.1917
  449MPD2    C4 6689   2.468   0.205  14.669 -0.4103  0.6267 -0.4485
  449MPD2    C5 6690   2.522   0.327  14.695 -0.9564  0.1819  0.1701
  449MPD2     H 6691   2.357   0.275  14.364 -1.5984  0.8599  0.6170
  449MPD2    H1 6692   2.483   0.114  14.727  1.3105  0.3696 -1.3029
  449MPD2    H2 6693   2.571   0.526  14.632  1.6538 -0.5259 -0.5150
  449MPD2    H3 6694   2.583   0.342  14.783  0.1634 -1.8284 -0.2719
  449MPD2     N 6695   2.323   0.070  14.520  0.5023 -0.4896 -0.2397
  449MPD2    H5 6696   2.296   0.059  14.422  0.9064  0.1851 -0.4220
  449MPD2    N1 6697   2.442   0.507  14.376 -0.3329  0.2363 -0.6778
  449MPD2    H7 6698   2.401   0.466  14.293 -1.2962  0.5146 -0.3384
  450TMC3    C1 6699   2.415   0.692  14.242 -1.0035  0.8453 -0.5219
  450TMC3    C2 6700   2.505   0.728  14.145  0.2161  0.0255  0.4302
  450TMC3    C3 6701   2.469   0.698  14.019  0.2893  0.5877  0.1260
  450TMC3    C4 6702   2.296   0.637  14.214 -0.2676  0.0496  0.4044
  450TMC3    C5 6703   2.267   0.604  14.083 -0.4828  0.3103 -0.0585
  450TMC3    C6 6704   2.351   0.635  13.983  0.1111  0.2162  0.1986
  450TMC3     C 6705   2.468   0.644  14.368 -0.0072 -0.0425  0.9109
  450TMC3     O 6706   2.505   0.722  14.454 -0.0623 -0.1140 -0.1110
  450TMC3     H 6707   2.595   0.784  14.168  0.6808 -0.4694 -0.1947
  450TMC3    H1 6708   2.213   0.636  14.283 -3.3021 -0.8817 -3.2304
  450TMC3    H2 6709   2.321   0.620  13.879  0.6743  0.7438 -0.0363
  450TMC3    C7 6710   2.222   0.471  14.089 -1.1809  0.9879  0.6243
  450TMC3    C8 6711   2.530   0.787  13.921  0.3763  0.1672 -0.0454
  450TMC3    O1 6712   2.243   0.409  14.191 -0.3217 -0.1630  0.3241
  450TMC3    O2 6713   2.581   0.893  13.963  0.3015  0.1900  0.2225
  451MPD2     C 6714   4.241   0.098   1.293  0.3720 -0.1063 -0.3905
  451MPD2    C1 6715   4.187   0.064   1.417  0.6221  0.3511 -0.0759
  451MPD2    C2 6716   4.223   4.666   1.481 -0.3136  0.4428  0.4520
  451MPD2    C3 6717   4.303   4.572   1.418  0.1019 -0.4986 -0.2709
  451MPD2    C4 6718   4.363   4.606   1.298  0.1808 -0.1061  0.2008
  451MPD2    C5 6719   4.323   0.002   1.233  0.1864  1.0556  0.1771
  451MPD2     H 6720   4.169   4.636   1.570 -0.9014  3.0517  0.9707
  451MPD2    H1 6721   4.428   4.542   1.239  0.8912 -0.8218  1.7563
  451MPD2    H2 6722   4.216   0.192   1.245 -2.7475 -0.8279 -0.2051
  451MPD2    H3 6723   4.355   0.036   1.135 -1.6948  0.6072 -0.5980
  451MPD2     N 6724   4.319   4.440   1.463 -0.3772 -0.8870  0.1044
  451MPD2    H5 6725   4.382   4.384   1.405 -0.3206 -0.2537 -0.4515
  451MPD2    N1 6726   4.102   0.158   1.475 -0.4919 -0.2845 -0.3633
  451MPD2    H7 6727   4.088   0.243   1.422  1.0078 -0.1737 -0.5751
  452TMC3    C1 6728   4.265   4.245   1.588  0.4759  0.0630  0.0158
  452TMC3    C2 6729   4.279   4.200   1.709  0.4705 -0.1812 -0.2497
  452TMC3    C3 6730   4.316   4.070   1.717  0.0257 -0.1465  0.1691
  452TMC3    C4 6731   4.273   4.177   1.468 -0.3381  0.1045  0.6871
  452TMC3    C5 6732   4.310   4.045   1.477 -0.6172 -0.0828  0.5433
  452TMC3    C6 6733   4.332   3.991   1.605 -0.0736 -0.0612 -0.5524
  452TMC3     C 6734   4.255   4.386   1.575  0.4102  0.6537  1.3058
  452TMC3     O 6735   4.187   4.435   1.665 -0.2798  0.1209  0.2423
  452TMC3     H 6736   4.273   4.265   1.796  0.0645 -0.3513 -0.1527
  452TMC3    H1 6737   4.235   4.223   1.377  1.0828 -1.0583 -0.4853
  452TMC3    H2 6738   4.370   3.891   1.620 -0.0089  0.2067  1.1627
  452TMC3    C7 6739   4.327   3.977   1.355  0.4952 -0.3253 -0.2874
  452TMC3    C8 6740   4.352   4.014   1.849  0.8757  0.2886  0.1654
  452TMC3    O1 6741   4.298   4.043   1.259 -0.2505 -0.0391  0.3126
  452TMC3    O2 6742   4.322   3.899   1.871  0.0378 -0.3990 -0.0663
  453TMC3    C1 6743   0.155   1.503  12.117 -0.1528  0.3837  0.3863
  453TMC3    C2 6744   0.106   1.387  12.174 -0.5215 -0.5509  0.3887
  453TMC3    C3 6745   0.035   1.307  12.097 -0.5285  0.1999 -0.2948
  453TMC3    C4 6746   0.133   1.534  11.986 -0.2946 -0.1781  0.4188
  453TMC3    C5 6747   0.066   1.445  11.905  0.1921 -1.3794 -0.2709
  453TMC3    C6 6748   0.015   1.330  11.963 -0.0733 -0.0622 -0.2302
  453TMC3     C 6749   0.276   1.567  12.159  0.4256  0.0652 -0.0698
  453TMC3     O 6750   0.304   1.681  12.131 -0.3628  0.1267  0.1443
  453TMC3     H 6751   0.124   1.356  12.277 -0.8257  2.6085  1.3997
  453TMC3    H1 6752   0.168   1.630  11.951  0.2297 -0.4534  0.1832
  453TMC3    H2 6753   4.669   1.269  11.903  5.0889 -2.6312 -3.3387
  453TMC3    C7 6754   0.065   1.450  11.761  0.1620 -0.1387  0.6405
  453TMC3    C8 6755   4.686   1.188  12.154  0.0027  0.2675 -0.4864
  453TMC3    O1 6756   0.008   1.364  11.696 -0.2078  0.0294 -0.0901
  453TMC3    O2 6757   4.640   1.191  12.268  0.4388  0.0479  0.7004
  454MPD2     C 6758   3.671   0.976  16.426  0.4510  0.1558 -0.2319
  454MPD2    C1 6759   3.605   1.054  16.334  0.5545  0.4740  0.8293
  454MPD2    C2 6760   3.534   1.159  16.379  0.0426 -0.0866 -0.2700
  454MPD2    C3 6761   3.530   1.193  16.518  0.5225  0.0463  0.3728
  454MPD2    C4 6762   3.607   1.125  16.605  0.6960  0.7768 -0.0597
  454MPD2    C5 6763   3.677   1.020  16.561  0.7537  0.1558  0.3781
  454MPD2     H 6764   3.474   1.212  16.306 -0.2213  0.5557  0.4101
  454MPD2    H1 6765   3.596   1.147  16.711  1.0272  0.0367  0.1326
  454MPD2    H2 6766   3.719   0.886  16.388  1.7337  1.4732 -1.7418
  454MPD2    H3 6767   3.729   0.959  16.633 -0.0660 -0.7370  0.2090
  454MPD2     N 6768   3.440   1.288  16.569  0.5753 -0.1210  0.5081
  454MPD2    H5 6769   3.422   1.273  16.668  0.0394 -1.1124  0.2545
  454MPD2    N1 6770   3.586   1.015  16.198  0.0858 -0.3313  0.0135
  454MPD2    H7 6771   3.553   1.088  16.134  0.4300 -0.1909 -0.0036
  455TMC3    C1 6772   3.226   1.368  16.526 -0.0682  0.4528 -0.3533
  455TMC3    C2 6773   3.172   1.387  16.647  0.5907 -0.6366 -0.1787
  455TMC3    C3 6774   3.048   1.341  16.673  0.9788  0.3261 -0.0866
  455TMC3    C4 6775   3.154   1.315  16.423  0.4322 -0.1319 -0.0010
  455TMC3    C5 6776   3.027   1.264  16.448 -0.4038  0.8873  0.0282
  455TMC3    C6 6777   2.973   1.277  16.574 -0.0636  0.7974  0.4359
  455TMC3     C 6778   3.366   1.375  16.489  0.3898 -0.7821 -0.3863
  455TMC3     O 6779   3.382   1.406  16.374  0.3099 -0.0716  0.1236
  455TMC3     H 6780   3.226   1.445  16.721  0.4079  0.5720 -0.9944
  455TMC3    H1 6781   3.198   1.290  16.327  2.5696 -0.8765  1.1640
  455TMC3    H2 6782   2.869   1.251  16.590  1.1585 -2.4260  3.0162
  455TMC3    C7 6783   3.014   1.124  16.395  1.1223 -0.5483  0.3108
  455TMC3    C8 6784   3.004   1.380  16.796 -0.2066 -0.1857 -0.2661
  455TMC3    O1 6785   2.910   1.067  16.369 -0.5948 -0.0556 -0.0208
  455TMC3    O2 6786   3.095   1.391  16.882  0.2470  0.3267  0.0813
  456MPD2     C 6787   0.995   0.827  16.408 -0.2219  0.0513  0.0346
  456MPD2    C1 6788   1.109   0.837  16.483  0.4415 -0.2784  0.1221
  456MPD2    C2 6789   1.099   0.888  16.609 -0.3383 -0.6936 -0.7208
  456MPD2    C3 6790   0.975   0.909  16.665 -0.0631  0.2339 -0.3729
  456MPD2    C4 6791   0.857   0.888  16.587  0.5134  0.4188  0.7250
  456MPD2    C5 6792   0.874   0.850  16.459 -0.0502  0.2987 -0.3640
  456MPD2     H 6793   1.186   0.902  16.671 -0.3211 -2.4797 -0.3401
  456MPD2    H1 6794   0.752   0.903  16.612  0.2974 -1.6909  1.0432
  456MPD2    H2 6795   0.994   0.805  16.301 -0.0331 -2.6779  0.5967
  456MPD2    H3 6796   0.791   0.843  16.389 -0.2245  0.2080 -0.1496
  456MPD2     N 6797   0.975   0.959  16.797  0.3778 -0.0505  0.0830
  456MPD2    H5 6798   1.069   0.967  16.836 -0.0440  0.8176  0.9200
  456MPD2    N1 6799   1.236   0.823  16.419  0.1061 -0.0503  0.4451
  456MPD2    H7 6800   1.236   0.812  16.318 -1.2578  0.9405  0.3436
  457TMC3    C1 6801   0.891   1.051  17.002 -0.6112 -0.1995 -0.1121
  457TMC3    C2 6802   0.787   1.116  17.059  0.4912 -0.0017 -0.3264
  457TMC3    C3 6803   0.771   1.126  17.193 -0.4527  0.2371  0.4899
  457TMC3    C4 6804   0.986   0.989  17.076  0.3594 -0.3764  0.8121
  457TMC3    C5 6805   0.974   0.999  17.212 -0.0930  0.4153 -0.0804
  457TMC3    C6 6806   0.878   1.075  17.274  0.4318 -0.4508  0.3914
  457TMC3     C 6807   0.868   1.008  16.862  0.0452  0.0420 -0.1109
  457TMC3     O 6808   0.752   1.016  16.818 -0.9022 -0.4933 -0.6449
  457TMC3     H 6809   0.715   1.158  16.990 -1.2153 -3.0918 -0.4276
  457TMC3    H1 6810   1.049   0.916  17.027 -1.8907 -1.9241  0.2102
  457TMC3    H2 6811   0.870   1.091  17.381  2.0968  1.9760  0.1566
  457TMC3    C7 6812   1.094   0.985  17.292  0.3607 -0.6172  0.5537
  457TMC3    C8 6813   0.722   1.250  17.240  0.4101 -0.0516  0.9968
  457TMC3    O1 6814   1.089   0.958  17.413  0.2247 -0.3252  0.5190
  457TMC3    O2 6815   0.781   1.303  17.331  0.2382  0.0627  0.9150
  458MPD2     C 6816   3.875   0.281  12.343 -0.2178 -0.0996 -0.9806
  458MPD2    C1 6817   3.834   0.312  12.469 -0.6590 -0.2982  0.1722
  458MPD2    C2 6818   3.697   0.333  12.489 -0.3532  0.0006 -0.3779
  458MPD2    C3 6819   3.614   0.315  12.383 -0.4296  0.0462 -0.2938
  458MPD2    C4 6820   3.661   0.272  12.259  0.1647 -0.3325  0.0671
  458MPD2    C5 6821   3.790   0.252  12.242  0.1459 -0.0871  0.2339
  458MPD2     H 6822   3.660   0.380  12.579 -0.3047  3.2989 -2.0600
  458MPD2    H1 6823   3.607   0.255  12.167 -0.1341  0.8131  0.0402
  458MPD2    H2 6824   3.981   0.269  12.321  0.1160 -1.0311  1.0675
  458MPD2    H3 6825   3.833   0.212  12.151 -2.4697 -0.3029 -0.9097
  458MPD2     N 6826   3.481   0.353  12.390  0.1260  0.0342  0.2998
  458MPD2    H5 6827   3.443   0.349  12.485  1.6402 -0.8122  0.8699
  458MPD2    N1 6828   3.929   0.334  12.567  0.3208  0.1561  0.6790
  458MPD2    H7 6829   4.029   0.342  12.551  0.1507  0.6629 -0.1026
  459TMC3    C1 6830   4.003   0.388  12.791  0.7476 -0.9785 -1.2222
  459TMC3    C2 6831   4.087   0.482  12.745  0.7203 -0.0292 -0.0289
  459TMC3    C3 6832   4.174   0.535  12.830 -0.7036 -0.3306 -0.1783
  459TMC3    C4 6833   4.011   0.347  12.923  0.0836  0.0672 -0.3966
  459TMC3    C5 6834   4.103   0.404  13.001 -0.0181  0.0521 -0.4660
  459TMC3    C6 6835   4.203   0.491  12.959 -0.7595 -0.7911  0.3567
  459TMC3     C 6836   3.897   0.331  12.707  0.0163 -0.4874  0.0725
  459TMC3     O 6837   3.789   0.293  12.755 -0.2157  0.0636  0.6261
  459TMC3     H 6838   4.061   0.538  12.656 -1.0394  0.2310  0.6376
  459TMC3    H1 6839   3.942   0.271  12.958 -0.2380  0.9334  0.8383
  459TMC3    H2 6840   4.275   0.532  13.028 -1.1039  1.0641 -0.3759
  459TMC3    C7 6841   4.130   0.332  13.122 -0.5908  0.0707  0.3788
  459TMC3    C8 6842   4.282   0.624  12.780  1.1946 -0.1290  0.0292
  459TMC3    O1 6843   4.092   0.215  13.126 -0.3624  0.3852 -0.7654
  459TMC3    O2 6844   4.380   0.660  12.843 -0.3025  0.0203  0.0309
  460MPD2     C 6845   3.377   2.893  10.645  0.3037 -1.3239 -0.0817
  460MPD2    C1 6846   3.261   2.860  10.714 -0.0686  0.1713 -0.1199
  460MPD2    C2 6847   3.139   2.825  10.643  0.4148 -0.0733 -0.1172
  460MPD2    C3 6848   3.136   2.828  10.506 -0.5141  0.2816 -0.2545
  460MPD2    C4 6849   3.251   2.865  10.442  0.1562  0.0918 -0.1228
  460MPD2    C5 6850   3.369   2.891  10.508  0.8354  0.7214  0.2499
  460MPD2     H 6851   3.056   2.787  10.702  0.2621 -0.2387 -0.4372
  460MPD2    H1 6852   3.270   2.863  10.336  0.4847  0.2894 -0.0694
  460MPD2    H2 6853   3.464   2.919  10.703  0.9547 -2.7623 -0.4269
  460MPD2    H3 6854   3.459   2.913  10.451 -0.7155 -0.6844 -2.7533
  460MPD2     N 6855   3.015   2.786  10.443  0.2990  0.0352  0.2972
  460MPD2    H5 6856   2.923   2.780  10.486 -0.1901 -1.3728 -0.9419
  460MPD2    N1 6857   3.281   2.841  10.858  0.2062  0.1141  0.2778
  460MPD2    H7 6858   3.376   2.856  10.892 -0.4214  0.2517  1.9419
  461TMC3    C1 6859   2.886   2.681  10.274 -0.5693 -0.6074 -0.4745
  461TMC3    C2 6860   2.899   2.555  10.213 -0.5241  0.0996  0.1614
  461TMC3    C3 6861   2.780   2.494  10.180 -0.3692  0.5140 -0.3853
  461TMC3    C4 6862   2.768   2.732  10.308 -0.3775 -0.3096  0.0803
  461TMC3    C5 6863   2.652   2.664  10.287 -0.8490  0.4451  0.0090
  461TMC3    C6 6864   2.661   2.555  10.206 -0.0923  0.2183  0.1930
  461TMC3     C 6865   3.008   2.754  10.309 -1.0754 -0.2278 -0.2409
  461TMC3     O 6866   3.092   2.739  10.225  0.3529  0.1376 -0.4660
  461TMC3     H 6867   2.994   2.507  10.189 -2.1149 -2.9197 -0.1623
  461TMC3    H1 6868   2.776   2.835  10.339 -0.2259 -0.4407  0.4777
  461TMC3    H2 6869   2.568   2.503  10.186 -0.5171  1.3611 -0.7589
  461TMC3    C7 6870   2.537   2.745  10.260  0.0345  0.4144  0.5489
  461TMC3    C8 6871   2.783   2.361  10.131 -0.0855 -0.0157  0.0445
  461TMC3    O1 6872   2.458   2.707  10.176 -0.5086  0.0619 -0.0337
  461TMC3    O2 6873   2.879   2.292  10.156 -1.0849  0.2827  0.0493
  462TMC3    C1 6874   3.022   3.607   0.426 -0.6536  0.8800 -0.6694
  462TMC3    C2 6875   2.975   3.557   0.309 -0.0937 -0.1641 -0.1454
  462TMC3    C3 6876   2.949   3.422   0.303  0.3664 -0.0413 -0.0217
  462TMC3    C4 6877   3.054   3.520   0.532 -0.9356  0.0969 -0.4497
  462TMC3    C5 6878   3.030   3.386   0.523 -0.1397  0.1783  0.0957
  462TMC3    C6 6879   2.979   3.335   0.408 -0.0567  0.1352 -0.0143
  462TMC3     C 6880   3.061   3.750   0.413 -0.2010 -0.1457  0.0590
  462TMC3     O 6881   3.006   3.823   0.331  0.3895 -0.1084 -0.2493
  462TMC3     H 6882   2.941   3.620   0.227 -0.3994 -0.2863 -0.1089
  462TMC3    H1 6883   3.096   3.566   0.621  1.0913  0.7156 -1.7154
  462TMC3    H2 6884   2.923   3.242   0.411  1.5702 -0.8593 -0.2868
  462TMC3    C7 6885   2.981   3.308   0.636  0.0123 -0.1128  0.2058
  462TMC3    C8 6886   2.927   3.368   0.174 -0.0557 -0.5369  0.4612
  462TMC3    O1 6887   2.915   3.209   0.610 -0.0586 -0.8006  0.4014
  462TMC3    O2 6888   2.922   3.451   0.083 -0.0071  0.1404  0.3553
  463MPD2     C 6889   4.489   2.501   2.375 -0.3285  0.9910  0.0526
  463MPD2    C1 6890   4.381   2.532   2.292  0.1486  0.3905 -0.3261
  463MPD2    C2 6891   4.380   2.663   2.235 -0.3869 -0.2696 -0.2130
  463MPD2    C3 6892   4.481   2.755   2.257 -0.1952 -0.3188 -0.0355
  463MPD2    C4 6893   4.585   2.721   2.340 -0.7546 -0.3655  0.1710
  463MPD2    C5 6894   4.588   2.598   2.400  0.0171  0.6233 -0.3043
  463MPD2     H 6895   4.297   2.689   2.170 -1.7042 -0.1943  1.5018
  463MPD2    H1 6896   4.652   2.797   2.379 -1.3282 -0.1221  0.6815
  463MPD2    H2 6897   4.500   2.405   2.425  0.4988  1.2005  0.2662
  463MPD2    H3 6898   4.659   2.579   2.479 -1.5097  0.5599  1.0602
  463MPD2     N 6899   4.476   2.885   2.194 -0.2169 -0.2711 -0.5817
  463MPD2    H5 6900   4.543   2.950   2.235 -1.5006  1.0331 -0.5456
  463MPD2    N1 6901   4.270   2.448   2.281  0.0466 -0.0213 -0.8570
  463MPD2    H7 6902   4.196   2.484   2.222 -0.6356  1.2633  0.7591
  464TMC3    C1 6903   4.104   2.293   2.333 -0.9345  0.5735 -0.2173
  464TMC3    C2 6904   4.011   2.386   2.302  0.3953 -0.7949 -0.2931
  464TMC3    C3 6905   3.894   2.331   2.251  0.0140  0.3805 -0.6629
  464TMC3    C4 6906   4.079   2.155   2.330 -0.0674  0.1692  0.3559
  464TMC3    C5 6907   3.964   2.111   2.283  0.1587 -0.9173  0.1706
  464TMC3    C6 6908   3.868   2.200   2.245 -0.3068  0.4859  0.4172
  464TMC3     C 6909   4.245   2.330   2.346  1.0301  1.1039  0.6316
  464TMC3     O 6910   4.318   2.258   2.409 -0.2115  0.0055  0.0886
  464TMC3     H 6911   4.034   2.492   2.311  3.7881 -1.5791  0.2068
  464TMC3    H1 6912   4.167   2.093   2.344  0.0867 -0.0990 -1.7536
  464TMC3    H2 6913   3.774   2.170   2.201  0.0546  1.3954 -1.0013
  464TMC3    C7 6914   3.967   1.979   2.239 -0.5672 -0.1155 -0.5392
  464TMC3    C8 6915   3.809   2.423   2.186 -0.6102  0.0037  0.0842
  464TMC3    O1 6916   4.042   1.900   2.290 -0.4931 -0.2127  0.0806
  464TMC3    O2 6917   3.750   2.380   2.091  0.7899  0.1719  0.5355
  465MPD2     C 6918   0.296   0.636  17.123  0.6587 -0.4535 -1.1962
  465MPD2    C1 6919   0.205   0.696  17.201 -0.3939 -0.0761  0.0474
  465MPD2    C2 6920   0.123   0.791  17.141 -0.7892 -0.2632 -0.2726
  465MPD2    C3 6921   0.133   0.827  17.005 -0.1657 -0.5671 -0.2202
  465MPD2    C4 6922   0.232   0.768  16.930 -0.2783  0.1575 -0.8502
  465MPD2    C5 6923   0.310   0.668  16.990 -0.0937  0.5467  0.1763
  465MPD2     H 6924   0.052   0.841  17.206 -0.7477  0.3821 -0.7175
  465MPD2    H1 6925   0.244   0.784  16.824  0.0122 -1.5618 -1.0826
  465MPD2    H2 6926   0.360   0.559  17.164  0.4341  0.5549  1.0532
  465MPD2    H3 6927   0.398   0.627  16.942 -1.0746  1.3341 -2.2868
  465MPD2     N 6928   0.029   0.911  16.953  0.2954 -0.6678  0.4330
  465MPD2    H5 6929   4.678   0.944  17.017  1.2438  1.3975  0.4233
  465MPD2    N1 6930   0.179   0.665  17.337  0.1889 -0.7205 -0.6003
  465MPD2    H7 6931   0.105   0.711  17.389 -0.8431 -1.2621 -1.5921
  466TMC3    C1 6932   4.400   1.008  16.924 -0.0727  0.4041  0.4141
  466TMC3    C2 6933   4.376   1.127  16.855  0.3024 -0.0764  0.1360
  466TMC3    C3 6934   4.454   1.165  16.749 -0.1497 -0.5731  0.3955
  466TMC3    C4 6935   4.512   0.936  16.901 -0.1289 -0.1733  0.7353
  466TMC3    C5 6936   4.597   0.981  16.804 -0.1677  0.1698  0.2071
  466TMC3    C6 6937   4.567   1.088  16.718 -0.2817 -0.0456  0.5813
  466TMC3     C 6938   4.362   1.013  17.064  0.0355  0.1013  0.4373
  466TMC3     O 6939   4.448   0.991  17.144  0.2263 -0.2385 -0.2477
  466TMC3     H 6940   4.296   1.192  16.887  1.2362  0.6585  1.0032
  466TMC3    H1 6941   4.532   0.846  16.958 -0.5872 -0.7536 -0.0200
  466TMC3    H2 6942   4.636   1.121  16.642 -2.3940  1.4996 -0.6482
  466TMC3    C7 6943   0.008   0.934  16.820  0.4658  0.5784 -0.2399
  466TMC3    C8 6944   4.460   1.304  16.744  0.0437 -0.0744 -0.0033
  466TMC3    O1 6945   0.083   0.918  16.720  0.2893 -0.1969 -0.0148
  466TMC3    O2 6946   4.454   1.359  16.855  0.5249 -0.3634  0.1718
  467TMC3    C1 6947   0.955   3.940  13.695 -0.3009  0.6418 -0.4142
  467TMC3    C2 6948   0.846   3.952  13.616 -0.4178 -0.3918 -0.3110
  467TMC3    C3 6949   0.726   3.996  13.670 -0.5116 -0.0507  0.8169
  467TMC3    C4 6950   0.943   3.948  13.832  0.0611 -1.0079 -0.4111
  467TMC3    C5 6951   0.829   3.997  13.883 -0.3589 -0.4335  0.5703
  467TMC3    C6 6952   0.724   4.029  13.802 -0.0317  0.0062  0.2497
  467TMC3     C 6953   1.090   3.955  13.639  0.3431 -0.4312  0.4505
  467TMC3     O 6954   1.187   3.922  13.703 -0.1501  0.1179  0.7447
  467TMC3     H 6955   0.863   3.926  13.513  2.4251 -0.7395  0.2414
  467TMC3    H1 6956   1.033   3.936  13.892 -0.1401 -2.4949 -0.3967
  467TMC3    H2 6957   0.628   4.032  13.853  0.7415  0.4234  1.6710
  467TMC3    C7 6958   0.828   3.994  14.030  0.5684 -0.0045  0.0678
  467TMC3    C8 6959   0.658   4.092  13.585 -0.2138  0.0467  0.1716
  467TMC3    O1 6960   0.936   3.979  14.081 -0.0099  0.9344 -0.1677
  467TMC3    O2 6961   0.645   4.209  13.616 -0.1697  0.1876  0.1444
  468MPD2     C 6962   4.564   2.556  10.740  0.0485 -0.0422  0.7433
  468MPD2    C1 6963   4.692   2.551  10.794  0.5246  1.2199  0.3651
  468MPD2    C2 6964   0.027   2.425  10.814 -0.6562 -0.1875 -0.8617
  468MPD2    C3 6965   4.684   2.309  10.788  0.1767 -0.5887 -1.5383
  468MPD2    C4 6966   4.560   2.318  10.730  0.1330  0.0565 -0.7873
  468MPD2    C5 6967   4.501   2.440  10.706  0.0723 -0.4143 -1.0510
  468MPD2     H 6968   0.127   2.433  10.854 -2.2683 -0.2617  3.1251
  468MPD2    H1 6969   4.514   2.227  10.693  1.2622 -0.9549  0.3158
  468MPD2    H2 6970   4.506   2.646  10.723 -0.3145  0.0224  2.3089
  468MPD2    H3 6971   4.409   2.434  10.649 -1.2522  0.2668  1.0260
  468MPD2     N 6972   0.032   2.178  10.797 -0.1934  0.3083 -0.3428
  468MPD2    H5 6973   4.709   2.093  10.762  0.4659 -0.6411  1.1568
  468MPD2    N1 6974   0.049   2.670  10.820  0.8205  0.6292 -0.2723
  468MPD2    H7 6975   0.149   2.665  10.837  0.5591  1.3233  1.4546
  469TMC3    C1 6976   0.113   2.891  10.826  0.5967 -0.0905 -0.2627
  469TMC3    C2 6977   0.238   2.842  10.817  0.2873  0.6101  0.1636
  469TMC3    C3 6978   0.342   2.913  10.876  0.2916 -0.2854  0.0869
  469TMC3    C4 6979   0.090   3.002  10.907 -0.5628 -0.1705 -0.7396
  469TMC3    C5 6980   0.190   3.063  10.965  0.3594 -0.1068  0.2518
  469TMC3    C6 6981   0.316   3.028  10.946 -0.4411 -0.8015  0.0199
  469TMC3     C 6982   0.005   2.799  10.804 -0.3791 -0.7415  0.4733
  469TMC3     O 6983   4.617   2.850  10.781 -0.9872 -0.0566 -0.4678
  469TMC3     H 6984   0.266   2.762  10.750  2.4783  0.5016  1.2209
  469TMC3    H1 6985   4.712   3.046  10.914 -1.5345 -2.3589 -0.7873
  469TMC3    H2 6986   0.401   3.072  10.997 -0.6848  1.3291 -1.3905
  469TMC3    C7 6987   0.146   3.183  11.035 -0.0055 -0.7020  0.1978
  469TMC3    C8 6988   0.471   2.839  10.879 -0.3195 -0.2574  0.4975
  469TMC3    O1 6989   0.048   3.243  10.987  0.4405 -0.9616  0.2600
  469TMC3    O2 6990   0.487   2.752  10.791  0.0324 -0.3737  0.1628
  470TMC3    C1 6991   3.724   4.120   0.762  0.2443  0.1708 -0.1867
  470TMC3    C2 6992   3.682   4.158   0.886  0.0464  0.7521 -0.3781
  470TMC3    C3 6993   3.702   4.078   1.000  1.0787 -0.8027  0.1439
  470TMC3    C4 6994   3.784   4.003   0.744 -0.2247  0.2280 -0.7340
  470TMC3    C5 6995   3.805   3.925   0.858 -0.5349  0.3828 -0.5892
  470TMC3    C6 6996   3.769   3.964   0.985  0.8441 -0.2415  0.1284
  470TMC3     C 6997   3.640   4.164   0.650 -0.6351 -0.1327 -0.7013
  470TMC3     O 6998   3.628   4.282   0.646  0.0669 -0.4445 -0.1939
  470TMC3     H 6999   3.622   4.248   0.890 -1.6917 -0.4773  0.9803
  470TMC3    H1 7000   3.805   3.958   0.648 -0.4663 -0.1682 -0.6041
  470TMC3    H2 7001   3.800   3.910   1.074 -1.3028 -3.0224 -0.7991
  470TMC3    C7 7002   3.878   3.799   0.841  0.3558 -0.3368 -0.3915
  470TMC3    C8 7003   3.601   4.105   1.107  0.8857  0.0294 -0.2304
  470TMC3    O1 7004   3.957   3.789   0.747 -0.0169 -0.0933  0.7400
  470TMC3    O2 7005   3.534   4.207   1.107 -0.1628  0.3499 -0.2468
  471MPD2     C 7006   2.870   0.052  16.859  0.2338  0.5459 -0.1464
  471MPD2    C1 7007   2.903   4.636  16.879 -0.0998 -0.0571  1.0858
  471MPD2    C2 7008   3.014   4.597  16.952 -0.1340  0.4702 -0.0913
  471MPD2    C3 7009   3.078   4.694  17.028  0.0418  0.0060  0.6537
  471MPD2    C4 7010   3.043   0.106  17.008 -0.7392  0.3230 -1.2237
  471MPD2    C5 7011   2.932   0.140  16.938 -0.3963 -0.6505 -0.3818
  471MPD2     H 7012   3.034   4.492  16.972 -0.0740 -0.0624 -3.0539
  471MPD2    H1 7013   3.088   0.184  17.068  1.2583  1.0745 -3.6968
  471MPD2    H2 7014   2.790   0.086  16.795  1.4469  0.0351 -1.9482
  471MPD2    H3 7015   2.905   0.245  16.934  2.0643  0.0114  0.2017
  471MPD2     N 7016   3.188   4.673  17.112  0.1800  0.1205 -0.2934
  471MPD2    H5 7017   3.235   0.033  17.151 -0.4901  1.3428 -2.0018
  471MPD2    N1 7018   2.835   4.536  16.804 -0.2467 -0.1819  0.4552
  471MPD2    H7 7019   2.873   4.445  16.829 -0.9470 -1.1166 -1.9504
  472TMC3    C1 7020   2.668   4.427  16.662  0.5087 -0.0264  0.1867
  472TMC3    C2 7021   2.567   4.441  16.572  0.5881 -1.0443  0.0946
  472TMC3    C3 7022   2.484   4.329  16.549  0.1823 -0.1127  0.4326
  472TMC3    C4 7023   2.676   4.313  16.741 -0.6114 -0.4588  0.2363
  472TMC3    C5 7024   2.601   4.203  16.703 -0.2511 -0.0114  0.8305
  472TMC3    C6 7025   2.498   4.209  16.606 -0.2169  0.4022 -0.0137
  472TMC3     C 7026   2.736   4.553  16.709  0.7504  0.5870  0.0599
  472TMC3     O 7027   2.685   4.655  16.659  0.4117 -0.1720  0.1198
  472TMC3     H 7028   2.550   4.533  16.518  0.6248 -2.6725 -2.6846
  472TMC3    H1 7029   2.758   4.282  16.805  0.5609 -0.8848 -1.4464
  472TMC3    H2 7030   2.439   4.121  16.585 -0.6102  0.6803 -0.0691
  472TMC3    C7 7031   2.649   4.077  16.751  0.0647 -0.9784  0.8248
  472TMC3    C8 7032   2.375   4.362  16.460 -0.0972  0.3495  0.1070
  472TMC3    O1 7033   2.698   4.073  16.861  0.3969 -0.1123  0.1768
  472TMC3    O2 7034   2.391   4.438  16.369  0.5379 -0.6061 -0.5058
  473MPD2     C 7035   2.791   2.004  13.887 -0.2786 -0.1333 -0.1180
  473MPD2    C1 7036   2.723   2.123  13.892  0.4407  0.1970  0.3333
  473MPD2    C2 7037   2.758   2.225  13.981 -0.7646 -0.0890 -0.1735
  473MPD2    C3 7038   2.877   2.222  14.053  0.2685 -0.2924  0.0697
  473MPD2    C4 7039   2.948   2.107  14.038 -0.1974  0.0074 -0.2897
  473MPD2    C5 7040   2.910   2.001  13.957  0.9818 -0.1082 -0.1831
  473MPD2     H 7041   2.711   2.323  13.976  0.4534  0.5058 -0.0347
  473MPD2    H1 7042   3.049   2.099  14.077  0.0057  0.6905 -0.6811
  473MPD2    H2 7043   2.777   1.917  13.823  0.1599 -1.3304  1.4225
  473MPD2    H3 7044   2.975   1.917  13.935  0.7840 -0.6225  1.1670
  473MPD2     N 7045   2.915   2.324  14.149 -0.1248  0.1522 -0.8480
  473MPD2    H5 7046   2.843   2.386  14.187 -0.7748 -1.4629  0.5350
  473MPD2    N1 7047   2.615   2.153  13.806 -0.0141 -0.4919 -0.2703
  473MPD2    H7 7048   2.564   2.237  13.831  0.9333  0.2338 -0.8017
  474TMC3    C1 7049   3.055   2.435  14.308  0.0245  0.4400 -0.3102
  474TMC3    C2 7050   2.950   2.515  14.353 -0.4350  0.3992 -0.3572
  474TMC3    C3 7051   2.965   2.616  14.442  0.9113  0.5105 -0.9194
  474TMC3    C4 7052   3.188   2.472  14.348 -0.2778  0.3169 -0.2240
  474TMC3    C5 7053   3.198   2.573  14.437 -0.1618 -0.4433 -0.3970
  474TMC3    C6 7054   3.089   2.638  14.489 -0.6548  0.6512 -0.7504
  474TMC3     C 7055   3.039   2.333  14.207  0.2592 -0.1638 -0.6498
  474TMC3     O 7056   3.140   2.265  14.192 -0.4078 -0.1655 -0.1318
  474TMC3     H 7057   2.851   2.491  14.317 -0.9359  0.1132  1.1818
  474TMC3    H1 7058   3.270   2.409  14.314 -1.2403 -1.4206  0.6832
  474TMC3    H2 7059   3.100   2.717  14.562 -0.1527 -0.4984  0.4162
  474TMC3    C7 7060   3.332   2.608  14.476 -0.1545  0.3328  0.0673
  474TMC3    C8 7061   2.850   2.698  14.469  0.3530  0.4823 -0.3825
  474TMC3    O1 7062   3.421   2.601  14.389 -0.2960  0.4214 -0.1104
  474TMC3    O2 7063   2.739   2.647  14.452  0.5863  0.4093 -0.5846
  475MPD2     C 7064   0.982   0.011  10.442 -0.0194 -0.3201 -0.7179
  475MPD2    C1 7065   1.055   0.126  10.462  1.0209 -0.6771  0.4231
  475MPD2    C2 7066   1.048   0.194  10.580  0.3536  0.1232  0.0823
  475MPD2    C3 7067   0.956   0.152  10.676  0.0704 -0.0011 -0.1677
  475MPD2    C4 7068   0.885   0.036  10.656 -0.2443 -0.0812  0.1460
  475MPD2    C5 7069   0.907   4.675  10.549  0.3028  0.3575 -0.5219
  475MPD2     H 7070   1.099   0.289  10.586 -0.9679  0.8248  0.2292
  475MPD2    H1 7071   0.803   0.004  10.720  0.3319  2.0565  1.9721
  475MPD2    H2 7072   0.996   4.675  10.351  2.8584  0.4170 -0.7514
  475MPD2    H3 7073   0.838   4.592  10.539 -0.6920  1.1274 -0.0170
  475MPD2     N 7074   0.941   0.226  10.803 -0.3989 -0.6749 -0.2104
  475MPD2    H5 7075   0.970   0.322  10.791 -0.0212 -1.0990 -2.7092
  475MPD2    N1 7076   1.138   0.163  10.350  0.0965  0.3805  0.0835
  475MPD2    H7 7077   1.144   0.092  10.277 -0.2489 -0.1887  0.6081
  476TMC3    C1 7078   1.151   0.399  10.361 -0.1711  0.1548  0.0524
  476TMC3    C2 7079   1.017   0.416  10.364 -0.7704  0.2036 -0.2573
  476TMC3    C3 7080   0.969   0.518  10.444 -0.4226 -0.2031  0.6117
  476TMC3    C4 7081   1.240   0.485  10.413 -0.0687  0.4288  0.3232
  476TMC3    C5 7082   1.190   0.589  10.485  0.2164  0.2370  0.1411
  476TMC3    C6 7083   1.056   0.604  10.501 -0.2393  0.2157  0.0327
  476TMC3     C 7084   1.208   0.275  10.320  0.6490  0.5719 -0.2123
  476TMC3     O 7085   1.301   0.285  10.241 -0.3140 -0.3265  0.0348
  476TMC3     H 7086   0.953   0.337  10.327 -1.9833  1.2521 -0.4124
  476TMC3    H1 7087   1.341   0.458  10.387  0.3161  2.3031 -0.1164
  476TMC3    H2 7088   1.014   0.690  10.552 -1.7484  0.5081 -1.6921
  476TMC3    C7 7089   1.279   0.683  10.552 -0.0820 -1.0344 -0.5896
  476TMC3    C8 7090   0.838   0.513  10.502 -0.7960  0.5370  0.0413
  476TMC3    O1 7091   1.398   0.695  10.504 -0.0246 -0.2247 -0.0361
  476TMC3    O2 7092   0.813   0.582  10.599 -0.1177  0.0321  0.1000
  477MPD2     C 7093   3.951   2.208  11.918 -0.1475 -0.2071  0.5382
  477MPD2    C1 7094   3.844   2.141  11.859 -0.2066 -0.1270  0.4256
  477MPD2    C2 7095   3.799   2.021  11.912 -0.6269  0.2339  0.4410
  477MPD2    C3 7096   3.843   1.976  12.031  0.3993  0.7783 -0.2282
  477MPD2    C4 7097   3.950   2.041  12.087 -0.3246 -0.0046  0.0363
  477MPD2    C5 7098   4.011   2.146  12.021  0.1265 -0.6663  0.0175
  477MPD2     H 7099   3.722   1.963  11.861 -0.2935  0.7145 -0.6141
  477MPD2    H1 7100   3.998   2.004  12.177  0.3157  1.3568  0.2608
  477MPD2    H2 7101   4.004   2.294  11.878  1.0920 -0.5566  1.4099
  477MPD2    H3 7102   4.095   2.193  12.071 -0.7567  1.5256 -0.5276
  477MPD2     N 7103   3.788   1.863  12.095 -0.0113  0.3514 -0.0769
  477MPD2    H5 7104   3.694   1.837  12.069 -0.0273 -1.0934  1.4425
  477MPD2    N1 7105   3.783   2.197  11.741  0.4610  0.1008 -0.4120
  477MPD2    H7 7106   3.809   2.294  11.722  0.9328  0.1402  0.4651
  478TMC3    C1 7107   3.610   2.246  11.606  0.4771  0.4061 -0.0978
  478TMC3    C2 7108   3.587   2.369  11.667 -0.6719 -0.7697  0.2713
  478TMC3    C3 7109   3.473   2.446  11.641  0.0908  0.9040  0.2687
  478TMC3    C4 7110   3.521   2.197  11.514 -1.0203  0.2475 -0.3641
  478TMC3    C5 7111   3.405   2.265  11.490 -0.0656 -0.3974 -0.2483
  478TMC3    C6 7112   3.379   2.392  11.551  0.1913 -0.8972  0.6878
  478TMC3     C 7113   3.671   2.147  11.681 -0.8823 -0.4163 -0.2480
  478TMC3     O 7114   3.606   2.042  11.689 -0.6749 -0.3738  0.2742
  478TMC3     H 7115   3.651   2.408  11.745 -1.6603 -2.5231  1.9570
  478TMC3    H1 7116   3.543   2.099  11.473  0.4571 -0.0528  1.1015
  478TMC3    H2 7117   3.283   2.438  11.529 -0.3948 -1.4900  2.0530
  478TMC3    C7 7118   3.296   2.188  11.437  0.1795 -0.4130  0.4319
  478TMC3    C8 7119   3.442   2.559  11.728  0.6040  0.0804 -0.9535
  478TMC3    O1 7120   3.288   2.070  11.470  0.8446 -0.4654  0.1086
  478TMC3    O2 7121   3.503   2.570  11.830  0.6976 -0.1776  0.2602
  479MPD2     C 7122   2.417   4.137  15.370  0.5997 -0.3759 -0.4795
  479MPD2    C1 7123   2.374   4.089  15.491 -0.9488 -0.4621  0.1384
  479MPD2    C2 7124   2.453   4.105  15.605 -0.4236  0.2128  0.7900
  479MPD2    C3 7125   2.571   4.172  15.597 -0.2422  0.6040  0.3819
  479MPD2    C4 7126   2.605   4.235  15.477  0.0103  0.4697  0.3977
  479MPD2    C5 7127   2.523   4.217  15.366 -0.3007 -0.1165  0.4340
  479MPD2     H 7128   2.422   4.066  15.701 -1.4351 -3.4539 -1.0254
  479MPD2    H1 7129   2.696   4.293  15.467  0.0910 -0.0070 -1.5818
  479MPD2    H2 7130   2.357   4.151  15.281  0.7846  1.2992 -0.3375
  479MPD2    H3 7131   2.545   4.263  15.269 -1.0083 -1.4688 -0.3619
  479MPD2     N 7132   2.655   4.205  15.708  0.1294  0.3229 -0.1126
  479MPD2    H5 7133   2.749   4.227  15.679  0.9423  0.8005  2.8993
  479MPD2    N1 7134   2.243   4.049  15.503  0.0061 -0.8585  0.5256
  479MPD2    H7 7135   2.197   4.030  15.415 -0.2492 -0.3241  0.5456
  480TMC3    C1 7136   2.334   4.144  16.040 -0.5743 -0.8175 -0.0696
  480TMC3    C2 7137   2.254   4.246  16.002 -0.6542 -0.5147  0.2548
  480TMC3    C3 7138   2.293   4.318  15.888 -0.3361 -0.3325  0.2234
  480TMC3    C4 7139   2.460   4.117  16.002  0.1105  0.3116  0.3830
  480TMC3    C5 7140   2.499   4.201  15.896  0.2208  0.3663  0.4167
  480TMC3    C6 7141   2.422   4.304  15.846  0.1572 -0.2898 -0.1003
  480TMC3     C 7142   2.267   4.030  16.115 -0.6491  0.1670  0.0864
  480TMC3     O 7143   2.335   3.978  16.202 -0.2277  0.4069  0.6252
  480TMC3     H 7144   2.155   4.266  16.043  0.1064  2.1559  0.8094
  480TMC3    H1 7145   2.508   4.026  16.037  0.0579  0.8775  1.9462
  480TMC3    H2 7146   2.461   4.383  15.784  1.5692 -0.0716  1.0673
  480TMC3    C7 7147   2.630   4.163  15.838 -0.1115  0.3445 -0.2228
  480TMC3    C8 7148   2.188   4.372  15.794  0.3822  0.3435  0.3667
  480TMC3    O1 7149   2.713   4.142  15.926  0.1641 -0.2303  0.2722
  480TMC3    O2 7150   2.078   4.383  15.849  0.4203  0.5189  0.3554
  481MPD2     C 7151   3.976   3.523  14.242 -0.1537 -0.2070  0.3820
  481MPD2    C1 7152   3.917   3.423  14.309 -0.4424 -0.4995 -0.4605
  481MPD2    C2 7153   3.999   3.352  14.401 -0.3163 -0.8795 -0.0179
  481MPD2    C3 7154   4.132   3.384  14.422 -0.1318  0.4124  0.2661
  481MPD2    C4 7155   4.192   3.482  14.354  0.3633 -0.5956 -0.1823
  481MPD2    C5 7156   4.108   3.555  14.269 -0.2039  0.4951 -0.6743
  481MPD2     H 7157   3.960   3.261  14.446 -0.5077 -1.7338 -1.9280
  481MPD2    H1 7158   4.299   3.495  14.358  0.2831 -0.0290 -0.0052
  481MPD2    H2 7159   3.920   3.588  14.176 -0.6986 -0.4844  0.5770
  481MPD2    H3 7160   4.160   3.632  14.212 -0.0390  1.3934  0.6967
  481MPD2     N 7161   4.215   3.305  14.507 -0.8190  0.3134  0.1541
  481MPD2    H5 7162   4.304   3.344  14.537 -0.7331  0.0078  0.2994
  481MPD2    N1 7163   3.780   3.395  14.277 -0.2296 -0.1411 -0.3430
  481MPD2    H7 7164   3.742   3.453  14.202 -1.8179  1.1461  1.4612
  482TMC3    C1 7165   3.583   3.280  14.258 -0.4157  0.7674 -0.5799
  482TMC3    C2 7166   3.546   3.177  14.180 -0.3150 -0.4135 -0.0624
  482TMC3    C3 7167   3.428   3.195  14.114 -0.2273  0.5308  0.2299
  482TMC3    C4 7168   3.515   3.401  14.275 -0.0994 -0.8491 -0.5138
  482TMC3    C5 7169   3.394   3.408  14.225 -0.4661 -0.2219  0.5146
  482TMC3    C6 7170   3.350   3.308  14.135  1.1723 -0.8980  0.4339
  482TMC3     C 7171   3.711   3.276  14.318 -0.3360  0.1455  0.0119
  482TMC3     O 7172   3.757   3.177  14.375 -0.1355 -0.5493 -0.4805
  482TMC3     H 7173   3.608   3.088  14.171 -0.1152 -0.2185 -0.6140
  482TMC3    H1 7174   3.543   3.481  14.342 -0.8994 -0.7432 -0.3124
  482TMC3    H2 7175   3.255   3.326  14.088  1.8226 -4.1460 -2.1335
  482TMC3    C7 7176   3.340   3.539  14.199  1.0209 -0.4968  0.7215
  482TMC3    C8 7177   3.411   3.114  13.994  0.2801  0.3499  0.0138
  482TMC3    O1 7178   3.233   3.573  14.243  0.4583  0.3409 -0.2510
  482TMC3    O2 7179   3.447   2.994  13.997 -0.2972  0.5077 -0.7353
  483TMC3    C1 7180   1.514   2.372   0.948  0.5872 -0.6608 -0.1814
  483TMC3    C2 7181   1.481   2.501   0.942  0.2395 -0.0609 -0.1243
  483TMC3    C3 7182   1.469   2.567   1.057  0.6942 -0.4404 -0.4782
  483TMC3    C4 7183   1.521   2.305   1.061  0.6112  0.7074 -0.5196
  483TMC3    C5 7184   1.483   2.369   1.173  0.1546 -0.0856  0.2145
  483TMC3    C6 7185   1.468   2.506   1.172  0.4124 -0.6140  0.7020
  483TMC3     C 7186   1.550   2.307   0.824 -0.1264 -0.3196 -0.7320
  483TMC3     O 7187   1.493   2.341   0.725  0.2362 -0.2265  0.6661
  483TMC3     H 7188   1.491   2.551   0.846  1.9213 -0.3559 -0.1124
  483TMC3    H1 7189   1.525   2.197   1.057 -1.8281  0.5868  0.7242
  483TMC3    H2 7190   1.466   2.566   1.263  0.0244  2.2854 -1.2197
  483TMC3    C7 7191   1.526   2.308   1.299  0.9640  0.1769  0.0244
  483TMC3    C8 7192   1.570   2.673   1.044  0.0984  0.6253 -0.6480
  483TMC3    O1 7193   1.599   2.216   1.279  0.4676  0.6772 -0.6027
  483TMC3    O2 7194   1.654   2.661   0.956 -0.4769  0.0984 -0.1352
  484MPD2     C 7195   4.237   0.846  12.490 -0.5031  0.2106 -0.4153
  484MPD2    C1 7196   4.309   0.783  12.587  0.3198 -0.5020  0.1620
  484MPD2    C2 7197   4.447   0.800  12.594 -0.5231 -0.3239 -0.0034
  484MPD2    C3 7198   4.514   0.901  12.525  0.0891 -0.3094  0.6806
  484MPD2    C4 7199   4.429   0.979  12.457 -0.0478  0.0585 -0.4430
  484MPD2    C5 7200   4.298   0.951  12.431  0.5741 -0.5295  0.1808
  484MPD2     H 7201   4.500   0.721  12.645  0.8560  0.3734 -0.3669
  484MPD2    H1 7202   4.463   1.071  12.410  0.4423  0.4900  0.7684
  484MPD2    H2 7203   4.132   0.829  12.468 -0.0637  0.4404 -2.7830
  484MPD2    H3 7204   4.245   1.021  12.368 -1.1336 -2.2260 -0.2861
  484MPD2     N 7205   4.645   0.929  12.527 -0.6554 -0.0002 -0.0157
  484MPD2    H5 7206   4.672   1.022  12.498 -2.0132 -0.0231 -1.3375
  484MPD2    N1 7207   4.237   0.689  12.665  0.2167  0.3451  0.9588
  484MPD2    H7 7208   4.145   0.676  12.623  0.6204  0.2660  0.1046
  485TMC3    C1 7209   0.156   0.904  12.556  1.3718  0.0910 -0.1831
  485TMC3    C2 7210   0.253   0.850  12.632 -0.1145  1.1734  0.4652
  485TMC3    C3 7211   0.371   0.918  12.622 -0.5804 -0.2997 -0.1429
  485TMC3    C4 7212   0.164   1.010  12.467 -0.1158  0.3858  0.7708
  485TMC3    C5 7213   0.292   1.061  12.453  0.1741 -0.3489  0.3308
  485TMC3    C6 7214   0.392   1.026  12.548  0.5365 -0.8729 -0.6459
  485TMC3     C 7215   0.024   0.846  12.574  0.5507  0.5317  0.5439
  485TMC3     O 7216   0.015   0.731  12.610 -0.5191 -0.0208 -0.1459
  485TMC3     H 7217   0.244   0.762  12.696 -1.5727  1.2202  0.3425
  485TMC3    H1 7218   0.086   1.034  12.395  0.5082  0.5984  0.1628
  485TMC3    H2 7219   0.490   1.073  12.554 -0.0673  0.4791 -1.3305
  485TMC3    C7 7220   0.338   1.057  12.314  0.0438  0.5986 -0.0212
  485TMC3    C8 7221   0.487   0.831  12.618 -0.2058  0.8014 -0.2510
  485TMC3    O1 7222   0.273   1.127  12.236 -0.7759 -0.2328 -0.6070
  485TMC3    O2 7223   0.584   0.884  12.563 -0.0382  0.7583  0.4753
  486MPD2     C 7224   1.948   4.313  12.850  0.2335  0.4831 -0.1956
  486MPD2    C1 7225   1.822   4.271  12.820  0.4881  1.0701  1.0152
  486MPD2    C2 7226   1.722   4.362  12.811  0.0259 -0.0696  0.1516
  486MPD2    C3 7227   1.749   4.494  12.839 -0.1924 -0.1827 -0.7356
  486MPD2    C4 7228   1.872   4.538  12.869  0.2784 -0.0278 -0.0854
  486MPD2    C5 7229   1.975   4.448  12.873  0.5920 -0.2748 -0.5671
  486MPD2     H 7230   1.624   4.333  12.775 -0.1955 -0.1301  0.8043
  486MPD2    H1 7231   1.898   4.643  12.882 -0.6497  0.0709  0.9861
  486MPD2    H2 7232   2.025   4.238  12.861  0.3022  0.5854  0.0283
  486MPD2    H3 7233   2.077   4.481  12.884  0.4428  0.5352 -1.6114
  486MPD2     N 7234   1.634   4.572  12.832 -0.4465  0.3368  0.3164
  486MPD2    H5 7235   1.544   4.530  12.811  0.0694 -1.1811  1.1271
  486MPD2    N1 7236   1.806   4.128  12.805  0.5353  0.6077  0.3761
  486MPD2    H7 7237   1.891   4.079  12.778 -0.1277 -1.2002  1.5755
  487TMC3    C1 7238   1.692   3.912  12.804  0.2895  0.6319 -0.0727
  487TMC3    C2 7239   1.578   3.846  12.786  0.2108  0.5502 -0.4028
  487TMC3    C3 7240   1.592   3.711  12.781 -0.7587 -0.3356 -0.5585
  487TMC3    C4 7241   1.811   3.855  12.838  0.5339  0.4425  0.4664
  487TMC3    C5 7242   1.798   3.725  12.872  0.3627  0.4273  0.4130
  487TMC3    C6 7243   1.702   3.645  12.820  0.0724 -0.5025  0.5251
  487TMC3     C 7244   1.684   4.059  12.789 -0.4820  0.0456  0.4544
  487TMC3     O 7245   1.573   4.108  12.769 -0.1676  0.2220  0.1684
  487TMC3     H 7246   1.491   3.894  12.743  1.4631  1.6285 -1.7276
  487TMC3    H1 7247   1.897   3.915  12.867  1.3295  0.3094 -1.5494
  487TMC3    H2 7248   1.702   3.537  12.826 -2.2728 -0.5575 -0.5497
  487TMC3    C7 7249   1.827   3.695  13.009  0.2400 -0.3262 -0.0780
  487TMC3    C8 7250   1.471   3.641  12.814 -0.6075 -0.1101  0.4344
  487TMC3    O1 7251   1.917   3.753  13.069  0.4319  0.0870 -0.1000
  487TMC3    O2 7252   1.488   3.566  12.910 -0.0242 -0.9700 -0.0991
  488MPD2     C 7253   2.162   1.203  16.636 -0.0209 -0.5201  0.7048
  488MPD2    C1 7254   2.099   1.326  16.635  0.3159  0.0276  0.3293
  488MPD2    C2 7255   2.062   1.382  16.758  0.2599  0.6504  0.2005
  488MPD2    C3 7256   2.069   1.302  16.872 -0.0174  0.3185 -0.1371
  488MPD2    C4 7257   2.112   1.170  16.869  0.2890  0.8519 -0.4938
  488MPD2    C5 7258   2.168   1.131  16.753  0.6540  0.2648 -0.3884
  488MPD2     H 7259   2.015   1.480  16.765  0.0491  0.4711  1.3708
  488MPD2    H1 7260   2.112   1.105  16.956  0.5648  2.0126  0.3822
  488MPD2    H2 7261   2.203   1.167  16.542  0.4550  1.3615  0.1919
  488MPD2    H3 7262   2.222   1.037  16.758 -0.6325 -0.5072 -0.8624
  488MPD2     N 7263   2.005   1.347  16.991 -0.3810 -0.4400  0.4005
  488MPD2    H5 7264   1.950   1.432  16.987  0.9492  0.4404  0.6268
  488MPD2    N1 7265   2.098   1.400  16.511  0.1494  0.7555 -0.5285
  488MPD2    H7 7266   2.079   1.499  16.521  1.0445  0.8931 -0.2248
  489TMC3    C1 7267   1.917   1.348  17.212 -0.0491 -0.4478  0.1517
  489TMC3    C2 7268   1.831   1.428  17.151  0.1345 -0.2613 -1.0459
  489TMC3    C3 7269   1.776   1.531  17.225  0.2052  0.1865  0.1709
  489TMC3    C4 7270   1.958   1.372  17.345 -1.0350  0.8029 -0.4798
  489TMC3    C5 7271   1.894   1.463  17.417 -0.1830  0.3532 -0.6452
  489TMC3    C6 7272   1.812   1.552  17.357 -0.3179  0.0962  0.3766
  489TMC3     C 7273   2.020   1.290  17.115  0.3871 -0.0002 -0.0361
  489TMC3     O 7274   2.100   1.207  17.159 -0.0585  0.7366  0.4026
  489TMC3     H 7275   1.788   1.414  17.052 -2.0623 -3.3770  0.3477
  489TMC3    H1 7276   2.027   1.303  17.392 -0.5483  0.1984 -2.0759
  489TMC3    H2 7277   1.752   1.620  17.417 -0.4798 -0.7015  1.1067
  489TMC3    C7 7278   1.955   1.506  17.541 -0.2848  0.0947 -0.6569
  489TMC3    C8 7279   1.769   1.649  17.134 -0.1313 -0.2184 -0.1490
  489TMC3    O1 7280   1.928   1.623  17.566 -0.8880  0.2783  0.4192
  489TMC3    O2 7281   1.815   1.645  17.021  0.5604  0.4283  0.7378
  490MPD2     C 7282   2.650   0.968   0.038  0.0989 -0.1628 -0.5020
  490MPD2    C1 7283   2.709   0.853  17.683  0.3428 -0.8738  0.4036
  490MPD2    C2 7284   2.842   0.855  17.636  0.0043 -0.4628  0.3165
  490MPD2    C3 7285   2.909   0.981  17.641 -0.6117 -0.1626  0.0200
  490MPD2    C4 7286   2.846   1.093  17.686  0.0261  0.5589  0.1356
  490MPD2    C5 7287   2.717   1.088   0.043  0.2476  0.0072  0.2264
  490MPD2     H 7288   2.895   0.764  17.611 -0.3422 -0.9294  1.2691
  490MPD2    H1 7289   2.903   1.184   0.021 -0.2328  0.6930  0.2541
  490MPD2    H2 7290   2.550   0.957   0.078  0.6006 -0.0696  0.7743
  490MPD2    H3 7291   2.656   1.168   0.084  1.3885  0.6091  0.7478
  490MPD2     N 7292   3.044   0.997  17.615 -0.0469  0.1156  0.1736
  490MPD2    H5 7293   3.097   1.075  17.652  0.1384  0.1164 -0.0902
  490MPD2    N1 7294   2.636   0.732  17.677 -0.0628 -0.0803  0.5509
  490MPD2    H7 7295   2.680   0.651  17.636 -1.1112 -0.2657 -0.2062
  491TMC3    C1 7296   2.531   0.558   0.097  0.0505  0.7669  0.4137
  491TMC3    C2 7297   2.559   0.510   0.219  0.2539  0.3440  0.2280
  491TMC3    C3 7298   2.583   0.377   0.230 -0.8987  0.4853  0.0657
  491TMC3    C4 7299   2.542   0.483  17.673  0.4130 -0.6629 -0.6319
  491TMC3    C5 7300   2.574   0.350  17.685 -0.1969  0.6467 -0.3969
  491TMC3    C6 7301   2.600   0.294   0.122 -0.0619  0.2575  0.3986
  491TMC3     C 7302   2.539   0.696   0.083  0.1860  0.1546  0.4264
  491TMC3     O 7303   2.483   0.764   0.170 -0.2242 -0.3507  0.0764
  491TMC3     H 7304   2.558   0.575   0.306  1.1768  1.8835 -0.8893
  491TMC3    H1 7305   2.517   0.531  17.579  2.3035  0.1115 -0.7207
  491TMC3    H2 7306   2.620   0.188   0.136 -1.3896 -0.0244  0.2140
  491TMC3    C7 7307   2.596   0.275  17.556  0.2254 -0.7893  0.6323
  491TMC3    C8 7308   2.623   0.342   0.363  0.5684  0.5909  0.0478
  491TMC3    O1 7309   2.538   0.305  17.452  0.5079  0.4404 -0.0418
  491TMC3    O2 7310   2.570   0.401   0.451  0.4136  0.7093 -0.7903
  492MPD2     C 7311   3.221   0.153  11.362 -0.7792  0.5636  0.5261
  492MPD2    C1 7312   3.094   0.155  11.316  0.3596  0.0101 -0.4250
  492MPD2    C2 7313   2.997   0.094  11.392  0.4158 -0.2815  0.4239
  492MPD2    C3 7314   3.020   0.029  11.510 -0.4138  0.4387  0.6559
  492MPD2    C4 7315   3.149   0.020  11.545 -0.1787 -0.5006 -0.3287
  492MPD2    C5 7316   3.245   0.089  11.481  0.6556 -0.7639  0.3508
  492MPD2     H 7317   2.893   0.093  11.362  1.1187 -2.8582 -1.9655
  492MPD2    H1 7318   3.182   4.677  11.626  0.0061  0.2033  0.1656
  492MPD2    H2 7319   3.299   0.213  11.316 -2.4740  0.4265 -2.4731
  492MPD2    H3 7320   3.349   0.088  11.515  0.4853 -1.0739  0.8673
  492MPD2     N 7321   2.922   4.697  11.599  0.2704  0.4824 -0.1709
  492MPD2    H5 7322   2.954   4.680  11.694  0.9710 -0.3846 -0.5729
  492MPD2    N1 7323   3.075   0.219  11.190  0.4414 -0.3936 -0.0097
  492MPD2    H7 7324   3.151   0.269  11.145  1.2751 -2.3161 -0.7148
  493TMC3    C1 7325   2.942   0.323  11.011  0.2237 -0.4867  0.2665
  493TMC3    C2 7326   3.028   0.429  11.010  0.6033 -0.4743 -0.2682
  493TMC3    C3 7327   3.002   0.515  10.907 -0.2557 -0.0809  0.0650
  493TMC3    C4 7328   2.832   0.300  10.934  0.2748 -0.4060 -0.0690
  493TMC3    C5 7329   2.816   0.391  10.832 -0.6716 -0.5610  0.1525
  493TMC3    C6 7330   2.903   0.494  10.816  0.5334  0.0727  0.0044
  493TMC3     C 7331   2.950   0.234  11.124 -1.2037 -0.0248  0.2524
  493TMC3     O 7332   2.839   0.186  11.154  0.2211 -0.1467  0.3352
  493TMC3     H 7333   3.102   0.432  11.089 -2.2221  1.1060  2.3226
  493TMC3    H1 7334   2.786   0.203  10.929 -0.1776 -0.1608 -0.6446
  493TMC3    H2 7335   2.899   0.569  10.738  1.6543  0.9741  0.8135
  493TMC3    C7 7336   2.726   0.374  10.718  0.3832 -0.0952  0.1438
  493TMC3    C8 7337   3.098   0.613  10.879 -0.1832 -0.1331  0.4895
  493TMC3    O1 7338   2.727   0.460  10.631  0.0027 -0.0255 -0.3924
  493TMC3    O2 7339   3.085   0.677  10.774  0.0722 -0.5819 -0.2393
  494TMC3    C1 7340   3.728   2.391   0.944  0.5035 -0.2134  0.3212
  494TMC3    C2 7341   3.770   2.256   0.950 -0.4276  0.8862  0.1191
  494TMC3    C3 7342   3.800   2.195   0.834 -0.5555  0.3020 -0.2079
  494TMC3    C4 7343   3.749   2.460   0.826 -0.0242 -0.5145 -0.9159
  494TMC3    C5 7344   3.768   2.396   0.711 -0.0461 -0.1693 -0.1628
  494TMC3    C6 7345   3.793   2.262   0.710 -0.1401  0.7499 -0.4263
  494TMC3     C 7346   3.737   2.467   1.068  0.2544 -0.6240  0.3192
  494TMC3     O 7347   3.688   2.576   1.065 -0.1611 -0.1428  0.1701
  494TMC3     H 7348   3.748   2.188   1.032  1.4819 -0.6792 -0.6857
  494TMC3    H1 7349   3.727   2.566   0.819  0.2029 -0.2598  2.1077
  494TMC3    H2 7350   3.821   2.212   0.617  1.1277  1.9645 -0.7004
  494TMC3    C7 7351   3.808   2.464   0.590 -0.2380 -0.4574  0.6085
  494TMC3    C8 7352   3.831   2.060   0.842  0.3157 -0.4197 -0.5047
  494TMC3    O1 7353   3.783   2.403   0.489 -0.3056  0.0136  0.1910
  494TMC3    O2 7354   3.878   2.026   0.951  0.3026 -0.0459  0.1387
  495TMC3    C1 7355   2.462   4.263  14.874 -0.1062  0.2844  0.1368
  495TMC3    C2 7356   2.363   4.236  14.784 -0.1733 -0.0531  0.1811
  495TMC3    C3 7357   2.247   4.302  14.797  0.2305 -0.3453  0.2279
  495TMC3    C4 7358   2.440   4.346  14.974  0.3320 -0.1640 -0.5060
  495TMC3    C5 7359   2.312   4.389  15.000 -0.7682 -0.0066 -0.0519
  495TMC3    C6 7360   2.213   4.365  14.911  0.0928  0.0184 -0.4985
  495TMC3     C 7361   2.546   4.153  14.896 -0.7129  0.2363  0.2252
  495TMC3     O 7362   2.649   4.167  14.959 -0.1546 -0.2217 -0.1157
  495TMC3     H 7363   2.397   4.187  14.694  0.3785 -0.6695  0.7162
  495TMC3    H1 7364   2.519   4.361  15.047 -0.8280 -1.6327  1.0533
  495TMC3    H2 7365   2.113   4.402  14.932 -0.8347 -1.5695 -2.0976
  495TMC3    C7 7366   2.285   4.407  15.137  0.5873  0.4181  0.6724
  495TMC3    C8 7367   2.137   4.299  14.691  0.3382  0.3421 -0.7380
  495TMC3    O1 7368   2.382   4.436  15.211 -0.2984  0.7053 -0.1069
  495TMC3    O2 7369   2.034   4.361  14.715 -0.6563 -0.3415  0.4681
  496MPD2     C 7370   4.146   4.545  15.866  0.2915 -0.3186  0.7127
  496MPD2    C1 7371   4.098   4.421  15.883  0.7348  0.7601 -0.3650
  496MPD2    C2 7372   3.998   4.393  15.982  0.4032 -0.1510 -0.4324
  496MPD2    C3 7373   3.957   4.498  16.058 -0.5136 -0.7597 -0.1473
  496MPD2    C4 7374   4.026   4.618  16.049 -0.0281 -0.1846  0.2993
  496MPD2    C5 7375   4.118   4.647  15.953  0.3510  0.7474  0.1029
  496MPD2     H 7376   3.949   4.298  16.000 -1.5304  0.4335 -2.5840
  496MPD2    H1 7377   4.003   4.699  16.117  0.2695 -0.6560  0.9657
  496MPD2    H2 7378   4.218   4.558  15.787  0.6130  1.4234  1.3040
  496MPD2    H3 7379   4.164   0.024  15.948 -1.2380  1.5371  1.1308
  496MPD2     N 7380   3.861   4.489  16.160  0.9136  0.2739 -0.7533
  496MPD2    H5 7381   3.862   4.572  16.217 -0.8462  1.3583 -2.2813
  496MPD2    N1 7382   4.160   4.317  15.808  0.0929  0.0534 -0.1511
  496MPD2    H7 7383   4.244   4.343  15.757 -0.0776  0.5133 -0.2027
  497TMC3    C1 7384   3.721   4.396  16.314  0.0038  0.2675  0.5019
  497TMC3    C2 7385   3.746   4.296  16.402 -0.0055  0.3454 -0.6988
  497TMC3    C3 7386   3.755   4.319  16.539 -0.4278 -0.1834 -0.1999
  497TMC3    C4 7387   3.702   4.525  16.362 -0.2382 -0.0658  0.0915
  497TMC3    C5 7388   3.706   4.540  16.499  0.5687 -0.4391 -0.3382
  497TMC3    C6 7389   3.732   4.444  16.587 -0.1709  0.2101  0.4492
  497TMC3     C 7390   3.783   4.380  16.179 -0.6483  0.4351 -0.5515
  497TMC3     O 7391   3.761   4.274  16.120 -0.3542 -0.3870 -0.1010
  497TMC3     H 7392   3.774   4.200  16.360 -2.5826 -0.8546  0.2717
  497TMC3    H1 7393   3.697   4.611  16.297 -2.1436 -2.6275 -3.1176
  497TMC3    H2 7394   3.736   4.466  16.693 -1.8187 -0.1458  0.5764
  497TMC3    C7 7395   3.750   4.669  16.535  0.5931  0.4952 -0.3614
  497TMC3    C8 7396   3.822   4.224  16.628 -0.1108 -0.5804  0.2690
  497TMC3    O1 7397   3.710   0.044  16.476 -0.7705 -0.2817 -0.4369
  497TMC3    O2 7398   3.812   4.254  16.745 -0.1562 -0.2738 -0.8039
  498MPD2     C 7399   0.154   0.536  10.797  0.1403  0.0820 -0.0144
  498MPD2    C1 7400   0.127   0.509  10.663 -0.1646  0.3982  0.0730
  498MPD2    C2 7401   0.038   0.397  10.639  0.0077  0.0055  0.5983
  498MPD2    C3 7402   4.718   0.314  10.744 -0.6831  0.1915 -0.4940
  498MPD2    C4 7403   0.029   0.338  10.878  0.1172 -0.0350  0.3653
  498MPD2    C5 7404   0.112   0.450  10.898  1.0387  0.1137 -0.4377
  498MPD2     H 7405   0.010   0.380  10.536 -0.5446  0.2901  0.7044
  498MPD2    H1 7406   4.714   0.276  10.959 -2.9932  0.1397 -0.8581
  498MPD2    H2 7407   0.209   0.627  10.820  1.0990 -0.2366 -1.0859
  498MPD2    H3 7408   0.135   0.473  11.002  1.6624 -1.4931 -0.2133
  498MPD2     N 7409   4.652   0.188  10.728  0.2506  0.7133  0.8896
  498MPD2    H5 7410   4.651   0.124  10.807 -1.7836 -1.2072 -0.6998
  498MPD2    N1 7411   0.178   0.578  10.550  0.0792  0.1605 -0.1722
  498MPD2    H7 7412   0.151   0.545  10.458 -0.0217 -0.3068  0.0250
  499TMC3    C1 7413   0.304   0.741  10.431  0.0587  0.6573 -0.2094
  499TMC3    C2 7414   0.216   0.731  10.326 -1.0060 -0.0806 -0.0032
  499TMC3    C3 7415   0.266   0.757  10.203  0.0907 -0.4378 -0.1375
  499TMC3    C4 7416   0.433   0.767  10.422  0.3217  0.1362 -0.8398
  499TMC3    C5 7417   0.477   0.801  10.297  0.0296  0.1175  0.3228
  499TMC3    C6 7418   0.395   0.793  10.193 -0.4242 -0.3851 -0.0675
  499TMC3     C 7419   0.265   0.686  10.561  0.0773  0.2147  0.0776
  499TMC3     O 7420   0.328   0.728  10.656 -0.2844  0.0959  0.1751
  499TMC3     H 7421   0.113   0.697  10.341 -0.7221 -0.6715  0.6347
  499TMC3    H1 7422   0.499   0.753  10.506 -1.1415  2.5298  0.6929
  499TMC3    H2 7423   0.431   0.817  10.093  2.0284  2.1638  1.4225
  499TMC3    C7 7424   0.614   0.791  10.260 -0.7163 -0.1817  0.5218
  499TMC3    C8 7425   0.183   0.732  10.092 -0.3134  0.4127 -0.3985
  499TMC3    O1 7426   0.632   0.751  10.144 -0.1956 -0.6282 -1.1532
  499TMC3    O2 7427   0.221   0.786   9.990 -0.3813  0.5300 -0.2925
  500MPD2     C 7428   2.431   0.980  10.489  0.1410 -0.6981  0.6124
  500MPD2    C1 7429   2.461   1.102  10.450 -0.5586  0.2558  0.2072
  500MPD2    C2 7430   2.442   1.148  10.318 -1.1073 -0.2388 -0.8289
  500MPD2    C3 7431   2.404   1.057  10.224  0.0604  0.0551 -0.2166
  500MPD2    C4 7432   2.395   0.924  10.262 -0.1559  0.3157 -0.3065
  500MPD2    C5 7433   2.397   0.885  10.393 -1.3679 -0.4195  0.8085
  500MPD2     H 7434   2.455   1.255  10.302 -2.3267  0.1983  1.0962
  500MPD2    H1 7435   2.351   0.862  10.186  2.2669 -2.1323  0.3097
  500MPD2    H2 7436   2.447   0.941  10.589 -1.2190 -2.1597  0.2586
  500MPD2    H3 7437   2.388   0.778  10.408  0.3741 -0.4559  1.6290
  500MPD2     N 7438   2.375   1.091  10.089 -0.1329 -0.0590  0.6704
  500MPD2    H5 7439   2.318   1.023  10.041 -2.1897  0.9957  1.5964
  500MPD2    N1 7440   2.513   1.196  10.539  0.2075 -0.3399  0.1408
  500MPD2    H7 7441   2.547   1.282  10.498  2.4057 -1.3211 -0.0655
  501TMC3    C1 7442   2.585   1.304  10.737 -0.6936  0.3180  0.3641
  501TMC3    C2 7443   2.558   1.431  10.683 -0.1343 -0.3093 -0.8713
  501TMC3    C3 7444   2.593   1.539  10.761  0.2056 -0.7577  1.1529
  501TMC3    C4 7445   2.633   1.286  10.866 -0.3776 -0.0991  0.9114
  501TMC3    C5 7446   2.664   1.399  10.940 -0.0267 -0.3171  0.0882
  501TMC3    C6 7447   2.641   1.526  10.888  0.4652  0.4245 -0.5146
  501TMC3     C 7448   2.508   1.189  10.677 -0.3520  0.4320  0.4595
  501TMC3     O 7449   2.473   1.092  10.744 -0.2017 -0.8031  0.2091
  501TMC3     H 7450   2.507   1.448  10.589 -0.4639  0.5833 -0.5325
  501TMC3    H1 7451   2.644   1.186  10.906  0.1645 -0.6671 -0.6235
  501TMC3    H2 7452   2.642   1.617  10.947  2.1812  1.0898 -1.5875
  501TMC3    C7 7453   2.741   1.402  11.056 -0.1271 -0.9025 -0.3655
  501TMC3    C8 7454   2.560   1.676  10.716  0.1301 -0.0734  0.1341
  501TMC3    O1 7455   2.756   1.292  11.105  0.0026  0.5966  0.0687
  501TMC3    O2 7456   2.539   1.759  10.802 -0.6661 -0.2123 -0.5711
  502TMC3    C1 7457   1.578   0.351  15.250 -0.4775 -0.3019 -0.3553
  502TMC3    C2 7458   1.530   0.428  15.151  0.3511  1.1966  0.5199
  502TMC3    C3 7459   1.404   0.397  15.107  0.0438 -0.8362  0.4791
  502TMC3    C4 7460   1.506   0.251  15.310 -0.2502  0.1164  0.4548
  502TMC3    C5 7461   1.382   0.225  15.260 -1.1049 -0.0965  0.2522
  502TMC3    C6 7462   1.325   0.298  15.153  0.1159 -0.1706 -0.1930
  502TMC3     C 7463   1.716   0.382  15.299  0.6282  0.4239  0.0953
  502TMC3     O 7464   1.802   0.426  15.223  0.0637  0.0442 -0.0292
  502TMC3     H 7465   1.607   0.489  15.105  0.2566  0.5259 -0.5189
  502TMC3    H1 7466   1.551   0.186  15.384  1.2904 -1.0394 -1.4786
  502TMC3    H2 7467   1.233   0.277  15.100 -0.7976  1.3750  0.7863
  502TMC3    C7 7468   1.303   0.126  15.332 -0.0463 -0.1692  0.0788
  502TMC3    C8 7469   1.311   0.504  15.061  0.3308 -0.4746 -0.1480
  502TMC3    O1 7470   1.359   0.040  15.395 -0.9354 -0.3230  0.0722
  502TMC3    O2 7471   1.189   0.484  15.064  0.0777 -0.0342  0.4300
  503MPD2     C 7472   3.530   1.080  17.331  0.6277 -0.6235  0.1329
  503MPD2    C1 7473   3.608   1.096  17.450  0.2143  0.3877  0.1153
  503MPD2    C2 7474   3.692   1.000  17.486  0.2582  0.6814  0.1646
  503MPD2    C3 7475   3.701   0.872  17.419 -0.2073 -0.4392  0.3495
  503MPD2    C4 7476   3.622   0.862  17.314  0.2272  0.5687 -0.2059
  503MPD2    C5 7477   3.548   0.960  17.265  0.0134 -0.1080 -0.4306
  503MPD2     H 7478   3.756   1.025  17.570 -0.2362  1.3064  0.3537
  503MPD2    H1 7479   3.617   0.766  17.264  3.4175  0.1530  0.2417
  503MPD2    H2 7480   3.455   1.147  17.290  0.3333  0.3299  2.2412
  503MPD2    H3 7481   3.496   0.942  17.171 -2.0469 -0.1321  0.7385
  503MPD2     N 7482   3.796   0.783  17.471  0.9028 -0.5862 -0.1238
  503MPD2    H5 7483   3.825   0.800  17.567  1.0140 -1.1124 -0.0627
  503MPD2    N1 7484   3.602   1.221  17.519 -0.8621  0.6048 -0.0777
  503MPD2    H7 7485   3.662   1.233  17.600 -0.4666 -0.9508 -0.1411
  504TMC3    C1 7486   3.932   0.584  17.467  0.7000  0.0528 -1.0363
  504TMC3    C2 7487   3.924   0.570  17.603 -0.2732  0.4083 -0.2510
  504TMC3    C3 7488   4.034   0.523  17.667  0.1637  0.0384  0.6558
  504TMC3    C4 7489   4.048   0.554  17.399 -0.0326 -0.2343 -0.1191
  504TMC3    C5 7490   4.160   0.506  17.467  0.4344  1.0043  0.0778
  504TMC3    C6 7491   4.152   0.501  17.600 -0.0396 -0.7015 -0.3450
  504TMC3     C 7492   3.839   0.676  17.402  0.4286 -0.4061 -0.5046
  504TMC3     O 7493   3.825   0.653  17.280  0.0758  0.2386 -0.0415
  504TMC3     H 7494   3.832   0.599  17.652 -0.3710 -1.2054  0.5320
  504TMC3    H1 7495   4.042   0.565  17.291  0.9997  1.6033  0.0108
  504TMC3    H2 7496   4.236   0.459  17.654  0.9221 -0.3092 -1.5622
  504TMC3    C7 7497   4.268   0.475  17.382 -0.1981 -0.2039  0.2435
  504TMC3    C8 7498   4.029   0.533   0.129  0.3804 -0.3059 -0.2920
  504TMC3    O1 7499   4.252   0.478  17.263 -0.3034  0.8959  0.3550
  504TMC3    O2 7500   3.925   0.576   0.179 -0.1214 -0.5028  0.2392
  505MPD2     C 7501   4.170   3.721  10.563 -1.1477  0.5699  0.0593
  505MPD2    C1 7502   4.291   3.674  10.507 -0.0263  0.4705  0.5583
  505MPD2    C2 7503   4.388   3.644  10.593 -0.0368  0.8198 -0.0246
  505MPD2    C3 7504   4.375   3.655  10.728 -0.1171  0.2342  0.7500
  505MPD2    C4 7505   4.255   3.696  10.788  0.1077  0.3022  0.4813
  505MPD2    C5 7506   4.152   3.729  10.701  0.3590  0.1807  0.0572
  505MPD2     H 7507   4.484   3.614  10.553  0.3871  0.9375  0.9000
  505MPD2    H1 7508   4.225   3.695  10.893  1.6111  1.3130  0.9190
  505MPD2    H2 7509   4.086   3.743  10.499 -0.5235  0.3622 -0.8206
  505MPD2    H3 7510   4.056   3.769  10.732  1.7191  2.0459  1.8854
  505MPD2     N 7511   4.487   3.637  10.811 -0.3874 -0.2569  0.6085
  505MPD2    H5 7512   4.571   3.594  10.773 -0.1958  1.3314 -0.7817
  505MPD2    N1 7513   4.294   3.667  10.362 -0.9123 -0.1145  0.1194
  505MPD2    H7 7514   4.218   3.713  10.313 -1.3994 -0.7614  0.2702
  506TMC3    C1 7515   4.379   3.624  10.149 -0.3537 -0.8982  0.5289
  506TMC3    C2 7516   4.346   3.752  10.114 -0.6183  0.3151  0.3296
  506TMC3    C3 7517   4.424   3.814  10.030  0.3120 -0.0031 -0.8659
  506TMC3    C4 7518   4.482   3.564  10.083 -0.3862 -0.2972 -0.1241
  506TMC3    C5 7519   4.561   3.631  10.003 -1.1577  0.4505  0.1052
  506TMC3    C6 7520   4.525   3.752   9.963  0.4399 -0.4683  0.0094
  506TMC3     C 7521   4.389   3.606  10.291 -0.0153 -0.2296 -0.6508
  506TMC3     O 7522   4.492   3.552  10.333  0.3763  0.4232 -0.4253
  506TMC3     H 7523   4.265   3.797  10.171 -1.9713  1.8836 -2.8094
  506TMC3    H1 7524   4.496   3.461  10.114  2.2778  0.2441  0.4516
  506TMC3    H2 7525   4.596   3.810   9.906  1.2907  0.8225  2.3501
  506TMC3    C7 7526   4.708   3.619  10.037  0.5486 -0.0131 -0.3328
  506TMC3    C8 7527   4.389   3.947   9.992 -0.6721  0.0966  0.0411
  506TMC3    O1 7528   0.072   3.682   9.974 -0.0767  0.2731 -0.4982
  506TMC3    O2 7529   4.409   3.977   9.874  0.3042  0.5507  0.3952
  507TMC3    C1 7530   0.222   0.505  14.911 -0.3996 -0.7593  0.2702
  507TMC3    C2 7531   0.215   0.419  14.805 -0.6610  0.2454  0.2005
  507TMC3    C3 7532   0.321   0.413  14.715 -0.1002  0.6424 -0.0430
  507TMC3    C4 7533   0.332   0.588  14.929 -0.2997  0.7198 -0.1378
  507TMC3    C5 7534   0.436   0.583  14.837 -0.0173 -0.4468 -0.2892
  507TMC3    C6 7535   0.434   0.489  14.730  0.0073 -0.9499  0.3806
  507TMC3     C 7536   0.112   0.533  14.994 -0.2435  0.4529  0.4948
  507TMC3     O 7537   0.134   0.603  15.093  0.2808  0.3056  0.3292
  507TMC3     H 7538   0.124   0.365  14.783 -0.7839  0.9531 -1.0837
  507TMC3    H1 7539   0.337   0.659  15.011 -0.1041 -0.4282  0.8294
  507TMC3    H2 7540   0.520   0.479  14.666 -0.1981  1.8789 -0.3387
  507TMC3    C7 7541   0.474   0.712  14.784 -0.3584 -0.1237  0.3942
  507TMC3    C8 7542   0.270   0.405  14.586 -0.3493 -0.9974 -0.4582
  507TMC3    O1 7543   0.475   0.707  14.660  0.0392 -0.5030  0.4509
  507TMC3    O2 7544   0.180   0.328  14.561  0.2748  0.8784  0.0768
  508MPD2     C 7545   1.091   2.593  16.396 -0.4366  0.9287 -0.3115
  508MPD2    C1 7546   1.070   2.732  16.423 -0.5187  0.1662 -0.1361
  508MPD2    C2 7547   1.018   2.810  16.320  0.5639  0.5538 -0.1243
  508MPD2    C3 7548   1.005   2.759  16.196  0.1591 -0.2284  0.2700
  508MPD2    C4 7549   1.026   2.622  16.173 -0.4255  0.7029 -0.2985
  508MPD2    C5 7550   1.066   2.540  16.271  0.7398 -0.0020 -0.4812
  508MPD2     H 7551   0.988   2.911  16.343  2.5320  0.7615  1.5906
  508MPD2    H1 7552   1.017   2.581  16.074 -1.1475  0.1054  0.0181
  508MPD2    H2 7553   1.135   2.522  16.465  0.0798  0.4664 -1.1195
  508MPD2    H3 7554   1.080   2.434  16.252 -1.5983  0.0263 -2.4710
  508MPD2     N 7555   0.977   2.854  16.101 -0.7783  0.6612  0.1487
  508MPD2    H5 7556   0.983   2.948  16.140  1.0001  0.2852  0.7924
  508MPD2    N1 7557   1.122   2.776  16.546  0.1793  0.4295 -1.2079
  508MPD2    H7 7558   1.148   2.704  16.613 -2.1518  0.0849 -0.6864
  509TMC3    C1 7559   0.914   3.090  15.706  0.1386 -0.7234 -0.1386
  509TMC3    C2 7560   0.945   3.210  15.770 -0.8457 -0.0276  0.4178
  509TMC3    C3 7561   0.985   3.199  15.901  0.5833  0.2255 -0.5624
  509TMC3    C4 7562   0.930   2.966  15.761  0.6322 -0.3853 -0.4788
  509TMC3    C5 7563   0.956   2.966  15.895 -0.1880  0.0385 -0.2899
  509TMC3    C6 7564   0.992   3.080  15.966 -0.5972  0.3655 -0.6519
  509TMC3     C 7565   0.878   3.098  15.567  0.3183  0.4440 -0.1996
  509TMC3     O 7566   0.910   3.003  15.499 -0.3676 -0.4594  0.1809
  509TMC3     H 7567   0.953   3.307  15.722  0.5654  0.0244  0.7587
  509TMC3    H1 7568   0.885   2.882  15.709  0.1713 -0.7128  0.4452
  509TMC3    H2 7569   1.009   3.075  16.073 -0.4111 -2.1160 -0.8023
  509TMC3    C7 7570   0.969   2.837  15.964 -0.3583 -0.4299 -0.3410
  509TMC3    C8 7571   1.041   3.319  15.962  0.5066  0.3135  0.3208
  509TMC3    O1 7572   0.958   2.731  15.900  0.9190 -0.6526  0.1662
  509TMC3    O2 7573   1.034   3.418  15.895  0.1097  0.1714 -0.4784
  510MPD2     C 7574   3.572   0.091  14.619 -0.2627  0.0886  0.0520
  510MPD2    C1 7575   3.637   4.721  14.706  0.5696  0.0390  0.4949
  510MPD2    C2 7576   3.757   4.660  14.678 -0.3435 -0.4193  0.0386
  510MPD2    C3 7577   3.819   4.686  14.561  0.0417 -0.0456  0.2832
  510MPD2    C4 7578   3.751   0.028  14.461 -0.2068 -0.4442  0.0434
  510MPD2    C5 7579   3.631   0.092  14.493  0.7576  0.0482  0.0329
  510MPD2     H 7580   3.813   4.603  14.752 -0.7546 -0.5118  0.2805
  510MPD2    H1 7581   3.785   0.032  14.359 -0.2363  0.2925  0.0661
  510MPD2    H2 7582   3.478   0.143  14.635  0.8515  1.9815  0.4891
  510MPD2    H3 7583   3.580   0.148  14.416  0.1577 -2.2098 -1.2223
  510MPD2     N 7584   3.947   4.624  14.546  0.3392 -0.9360 -0.3632
  510MPD2    H5 7585   3.983   4.584  14.632  0.0457 -0.4793 -0.0227
  510MPD2    N1 7586   3.581   4.676  14.820 -0.5173  0.1744 -0.3017
  510MPD2    H7 7587   3.632   4.598  14.861 -2.8689 -0.9312  0.5111
  511TMC3    C1 7588   3.406   4.623  14.967  0.3464 -0.5019  0.2066
  511TMC3    C2 7589   3.337   4.669  15.075  0.2654  0.3469 -0.2662
  511TMC3    C3 7590   3.274   4.577  15.151  0.0779  0.7029 -0.6668
  511TMC3    C4 7591   3.429   4.488  14.943  0.1405 -0.3218  0.3410
  511TMC3    C5 7592   3.370   4.395  15.018 -0.6601  0.0460  0.2109
  511TMC3    C6 7593   3.288   4.441  15.125  0.1582  0.1605 -0.1360
  511TMC3     C 7594   3.457   4.713  14.867  0.2849 -0.1167  0.1994
  511TMC3     O 7595   3.399   0.101  14.857 -0.2205  0.2089  0.4830
  511TMC3     H 7596   3.320   0.055  15.078 -0.6659  0.1689  0.5509
  511TMC3    H1 7597   3.485   4.455  14.857 -0.1960  1.9903 -0.7491
  511TMC3    H2 7598   3.228   4.366  15.175 -0.7856 -0.9537 -2.9239
  511TMC3    C7 7599   3.346   4.261  14.969 -0.1453 -0.1061 -0.1344
  511TMC3    C8 7600   3.220   4.623  15.283 -0.9600 -0.5134 -0.2866
  511TMC3    O1 7601   3.345   4.245  14.851  0.5776  0.5638 -0.3071
  511TMC3    O2 7602   3.181   0.018  15.286 -0.4595 -0.1966  0.0973
  512TMC3    C1 7603   2.287   3.977  13.046  0.0845  0.2858 -0.3914
  512TMC3    C2 7604   2.323   3.948  13.175  0.1048 -0.4414  0.4910
  512TMC3    C3 7605   2.407   3.844  13.194 -0.2490 -0.1505  0.1970
  512TMC3    C4 7606   2.342   3.906  12.942 -0.7045  0.3782 -0.5151
  512TMC3    C5 7607   2.434   3.807  12.968 -0.5148  0.1532 -0.9111
  512TMC3    C6 7608   2.470   3.775  13.089  0.7195 -0.7816  0.2514
  512TMC3     C 7609   2.243   4.107  13.015 -0.4741  0.2337 -0.5692
  512TMC3     O 7610   2.292   4.157  12.918  0.4589  0.0139  0.0271
  512TMC3     H 7611   2.284   4.005  13.258  1.6186 -0.7500  1.4118
  512TMC3    H1 7612   2.309   3.934  12.843 -0.7208 -0.0383 -0.6289
  512TMC3    H2 7613   2.551   3.705  13.104  1.0772 -0.2177  0.9739
  512TMC3    C7 7614   2.476   3.721  12.858 -0.6725  0.8102  0.7380
  512TMC3    C8 7615   2.470   3.836  13.321  0.6923 -0.5400  0.2852
  512TMC3    O1 7616   2.479   3.769  12.744 -0.0969 -0.2254  0.0596
  512TMC3    O2 7617   2.462   3.936  13.388  0.0518 -0.6093  0.0855
  513MPD2     C 7618   4.207   3.515  13.428  0.0063  0.2471  1.6229
  513MPD2    C1 7619   4.298   3.570  13.346 -0.3605 -0.2453  0.3201
  513MPD2    C2 7620   4.356   3.688  13.386 -0.4250  0.2363 -0.0506
  513MPD2    C3 7621   4.329   3.740  13.513  0.3467 -0.0663 -0.2599
  513MPD2    C4 7622   4.241   3.674  13.598 -0.8647 -0.0983  0.2388
  513MPD2    C5 7623   4.184   3.559  13.556  0.8310  1.0627  0.1984
  513MPD2     H 7624   4.429   3.737  13.321 -0.1442  1.3635  1.1024
  513MPD2    H1 7625   4.218   3.697  13.701  0.8758 -1.0567  0.8554
  513MPD2    H2 7626   4.139   3.444  13.384  0.3618 -0.3419  2.0331
  513MPD2    H3 7627   4.111   3.504  13.616  1.3565  1.3357  1.0948
  513MPD2     N 7628   4.388   3.865  13.545  0.0290  0.2955  0.8841
  513MPD2    H5 7629   4.443   3.906  13.471 -0.2637 -1.0082 -0.0459
  513MPD2    N1 7630   4.334   3.520  13.220 -0.2686 -0.5556  0.4026
  513MPD2    H7 7631   4.407   3.569  13.170 -1.3106 -0.8161 -1.3843
  514TMC3    C1 7632   4.376   3.383  13.041 -0.9440 -0.3680  0.3432
  514TMC3    C2 7633   4.306   3.390  12.924 -0.2626  0.3890  0.5271
  514TMC3    C3 7634   4.365   3.457  12.823  0.5747 -0.1599  0.0106
  514TMC3    C4 7635   4.499   3.438  13.051 -0.1305 -0.6804  0.1777
  514TMC3    C5 7636   4.551   3.505  12.947 -0.4008 -0.1138  0.8641
  514TMC3    C6 7637   4.493   3.510  12.825 -0.8000 -0.9201  0.0269
  514TMC3     C 7638   4.287   3.405  13.157  0.3494  0.4640 -0.1380
  514TMC3     O 7639   4.175   3.357  13.160  0.4163  0.1999  0.6428
  514TMC3     H 7640   4.203   3.357  12.914 -0.2964  1.5682 -3.0140
  514TMC3    H1 7641   4.549   3.434  13.147 -0.4335 -0.0886  0.3639
  514TMC3    H2 7642   4.535   3.567  12.743 -1.8269  0.3977  0.4065
  514TMC3    C7 7643   4.597   3.626  13.002  0.1210 -0.4742 -0.5792
  514TMC3    C8 7644   4.302   3.442  12.685  0.1890  0.4842  0.8017
  514TMC3    O1 7645   4.522   3.714  13.037 -0.2588 -0.9571 -0.3396
  514TMC3    O2 7646   4.182   3.419  12.685 -1.0932  0.4776  0.5715
  515MPD2     C 7647   2.208   0.942  14.573  0.1409 -1.3210  0.1370
  515MPD2    C1 7648   2.260   0.876  14.682 -0.6767 -0.5511  0.1462
  515MPD2    C2 7649   2.344   0.947  14.771 -0.2028  0.2384  0.0331
  515MPD2    C3 7650   2.372   1.083  14.755 -0.1539 -0.4211 -0.5319
  515MPD2    C4 7651   2.313   1.151  14.656  1.0035 -0.0880 -0.7481
  515MPD2    C5 7652   2.231   1.082  14.563  0.1985  0.0555 -1.1135
  515MPD2     H 7653   2.396   0.881  14.839 -1.3328 -0.4322  0.2382
  515MPD2    H1 7654   2.317   1.259  14.656  1.7238 -0.1160 -0.0128
  515MPD2    H2 7655   2.140   0.897  14.503 -0.8014 -1.9685  1.4683
  515MPD2    H3 7656   2.182   1.136  14.482 -1.0090  1.4736  0.5703
  515MPD2     N 7657   2.462   1.154  14.830  0.1186  0.5010 -0.0796
  515MPD2    H5 7658   2.492   1.242  14.791  0.7174  1.6202  2.9265
  515MPD2    N1 7659   2.242   0.733  14.704  0.4766  0.5197 -0.2606
  515MPD2    H7 7660   2.300   0.687  14.774 -0.0483  0.6145  0.2353
  516TMC3    C1 7661   2.180   0.511  14.674 -0.3329 -0.2272 -0.3049
  516TMC3    C2 7662   2.149   0.446  14.559 -0.0892  0.1779 -1.0986
  516TMC3    C3 7663   2.071   0.331  14.559  0.2225  0.3362 -0.0404
  516TMC3    C4 7664   2.140   0.462  14.794 -0.3436  0.5874  0.1612
  516TMC3    C5 7665   2.058   0.348  14.789  0.0033 -0.0462 -0.7595
  516TMC3    C6 7666   2.020   0.282  14.677 -0.5956 -0.6108 -0.1548
  516TMC3     C 7667   2.157   0.652  14.635  0.1168  0.8151  0.0234
  516TMC3     O 7668   2.070   0.673  14.549  0.1060  0.5354  0.1479
  516TMC3     H 7669   2.199   0.475  14.468 -0.7438 -1.4342 -1.9571
  516TMC3    H1 7670   2.160   0.518  14.885 -0.1434  2.3551 -0.9753
  516TMC3    H2 7671   1.961   0.191  14.675 -3.3079  1.1411 -0.6275
  516TMC3    C7 7672   2.017   0.300  14.924  0.1726  0.0408  0.1626
  516TMC3    C8 7673   1.986   0.321  14.432 -0.0775 -0.5549 -0.0662
  516TMC3    O1 7674   2.074   0.342  15.022  0.1442 -0.7012  0.2029
  516TMC3    O2 7675   1.967   0.211  14.383  0.1917  0.1635  0.1372
  517MPD2     C 7676   2.078   2.821   0.312  0.3188  0.2000  1.1672
  517MPD2    C1 7677   2.186   2.748   0.356  0.5229 -0.4783  0.7016
  517MPD2    C2 7678   2.225   2.765   0.483  0.1593 -0.4658  0.4573
  517MPD2    C3 7679   2.161   2.853   0.566  0.6505 -0.3574 -0.3873
  517MPD2    C4 7680   2.046   2.920   0.527 -0.6101 -0.4062 -0.2811
  517MPD2    C5 7681   2.011   2.906   0.395  0.9830  0.4474  0.3704
  517MPD2     H 7682   2.312   2.709   0.515  1.0585 -0.8058 -2.6009
  517MPD2    H1 7683   2.004   2.998   0.589  0.1601  0.3216 -0.6746
  517MPD2    H2 7684   2.053   2.820   0.206  0.2386  1.0143  1.1795
  517MPD2    H3 7685   1.940   2.971   0.347  0.2053 -1.8520 -1.5708
  517MPD2     N 7686   2.206   2.863   0.701 -1.0127 -0.6719 -0.0099
  517MPD2    H5 7687   2.158   2.931   0.760  1.2669 -0.9498  2.1627
  517MPD2    N1 7688   2.253   2.649   0.280 -0.4514 -0.6269 -0.7734
  517MPD2    H7 7689   2.333   2.603   0.322 -0.9672 -0.4822  0.3911
  518TMC3    C1 7690   2.302   2.511   0.096 -0.0711 -0.7324 -0.1019
  518TMC3    C2 7691   2.258   2.425  17.679 -0.5664 -0.4407  0.5664
  518TMC3    C3 7692   2.352   2.337  17.616  0.0116 -0.3287 -0.6150
  518TMC3    C4 7693   2.425   2.504   0.140 -0.0630 -0.1544  0.6822
  518TMC3    C5 7694   2.509   2.413   0.083 -1.0373  0.4259 -0.4286
  518TMC3    C6 7695   2.474   2.324  17.670 -0.3463 -0.2957  0.5900
  518TMC3     C 7696   2.205   2.604   0.156 -0.9342  0.3224 -0.5692
  518TMC3     O 7697   2.109   2.632   0.088 -0.8830 -0.4259 -0.3030
  518TMC3     H 7698   2.156   2.430  17.640 -0.3891  0.5581  0.2251
  518TMC3    H1 7699   2.470   2.573   0.209  1.0077 -0.6781  0.5179
  518TMC3    H2 7700   2.535   2.257  17.610 -0.0589 -1.5010  2.2376
  518TMC3    C7 7701   2.635   2.400   0.135  0.0522 -0.4675  0.4757
  518TMC3    C8 7702   2.295   2.207  17.559  0.0010 -1.2460 -0.1462
  518TMC3    O1 7703   2.667   2.473   0.229  0.3744 -0.1533  0.4140
  518TMC3    O2 7704   2.334   2.103  17.610 -0.2725  0.0955  1.1938
  519MPD2     C 7705   4.192   1.166  13.984  0.2059  1.0120 -0.4523
  519MPD2    C1 7706   4.090   1.098  13.925  0.4131  0.3793 -0.4281
  519MPD2    C2 7707   4.097   0.960  13.918  0.0231  0.1715 -0.0154
  519MPD2    C3 7708   4.191   0.895  13.994  0.3119  0.1952 -0.8549
  519MPD2    C4 7709   4.291   0.958  14.066 -0.4869  0.1026  0.6845
  519MPD2    C5 7710   4.296   1.092  14.049  0.1155 -0.5505 -0.6704
  519MPD2     H 7711   4.028   0.913  13.850  2.5685  0.0449 -2.5254
  519MPD2    H1 7712   4.364   0.909  14.129  1.0469  0.6741 -0.6472
  519MPD2    H2 7713   4.175   1.272  13.999  0.2508  0.9419  0.0865
  519MPD2    H3 7714   4.375   1.152  14.093 -0.8611 -1.2073  1.9979
  519MPD2     N 7715   4.187   0.755  14.015 -0.8068  0.1349 -0.3114
  519MPD2    H5 7716   4.254   0.717  14.081  0.0802  2.2897  0.0111
  519MPD2    N1 7717   3.977   1.176  13.882 -0.6451  0.5773  0.4440
  519MPD2    H7 7718   3.986   1.274  13.904  1.0676  0.4558  0.3021
  520TMC3    C1 7719   4.089   0.537  14.011 -0.0525 -0.1901  0.3202
  520TMC3    C2 7720   3.979   0.461  13.967  0.8159 -0.6207  0.8320
  520TMC3    C3 7721   3.996   0.328  13.954  0.0929 -0.2765  0.5254
  520TMC3    C4 7722   4.210   0.473  14.040 -0.3686 -0.0370 -0.0498
  520TMC3    C5 7723   4.213   0.334  14.037  1.1275 -0.5726 -0.9318
  520TMC3    C6 7724   4.111   0.260  13.984  0.2707 -0.0517  0.7763
  520TMC3     C 7725   4.080   0.678  13.976  0.0813 -0.0030 -0.2245
  520TMC3     O 7726   3.988   0.697  13.896  0.2596  0.5198  0.2010
  520TMC3     H 7727   3.888   0.508  13.932  0.7296 -0.3477  1.4225
  520TMC3    H1 7728   4.295   0.533  14.071  0.1742 -1.1306  0.5778
  520TMC3    H2 7729   4.121   0.152  13.972 -1.1490 -0.3405  2.1923
  520TMC3    C7 7730   4.330   0.269  14.082  0.2301  0.3056  0.0727
  520TMC3    C8 7731   3.904   0.255  13.864  0.2097  0.2777 -0.1364
  520TMC3    O1 7732   4.314   0.154  14.127  0.5541  0.2026  0.1006
  520TMC3    O2 7733   3.958   0.174  13.786 -0.2817 -0.1126  0.0732
  521MPD2     C 7734   0.434   3.918  17.583  0.2056  0.3232  0.2638
  521MPD2    C1 7735   0.392   3.821  17.499 -0.1870  0.1069 -0.2996
  521MPD2    C2 7736   0.452   3.800  17.375 -0.2589  0.2527  0.5454
  521MPD2    C3 7737   0.565   3.872  17.345  0.8247 -0.5358 -0.2764
  521MPD2    C4 7738   0.623   3.960  17.441 -0.0548 -0.3378  0.9931
  521MPD2    C5 7739   0.548   3.984  17.555 -0.3318 -0.0498 -0.1846
  521MPD2     H 7740   0.416   3.732  17.299 -1.3889  1.6092 -0.1364
  521MPD2    H1 7741   0.712   4.021  17.435  0.6738 -1.3630  1.4004
  521MPD2    H2 7742   0.396   3.931  17.684 -1.8343 -0.9558 -0.3463
  521MPD2    H3 7743   0.585   4.059  17.625  0.0095  2.0225 -2.5874
  521MPD2     N 7744   0.632   3.859  17.222 -0.2266  0.0218  0.0454
  521MPD2    H5 7745   0.581   3.805  17.153  0.6976 -0.7406 -0.0462
  521MPD2    N1 7746   0.284   3.748  17.540  0.0938 -0.6743  0.6360
  521MPD2    H7 7747   0.261   3.755  17.639  0.1328  0.0227  0.5945
  522TMC3    C1 7748   0.796   3.908  17.047 -0.0463  0.2939 -0.4151
  522TMC3    C2 7749   0.913   3.969  17.007  0.9180 -0.1803 -0.4154
  522TMC3    C3 7750   0.962   3.932  16.888 -0.7363  0.1423 -0.0684
  522TMC3    C4 7751   0.733   3.816  16.970  0.6060 -0.2685 -0.3871
  522TMC3    C5 7752   0.773   3.797  16.843  0.0335 -0.2130  0.2975
  522TMC3    C6 7753   0.896   3.842  16.800  0.5329 -0.0785 -1.1309
  522TMC3     C 7754   0.759   3.910  17.188 -0.6905  1.0256  0.4419
  522TMC3     O 7755   0.840   3.965  17.267  0.1993  0.4719 -0.2744
  522TMC3     H 7756   0.981   4.016  17.077  0.5036  0.3667 -0.3757
  522TMC3    H1 7757   0.647   3.757  16.999  0.2794 -1.3114 -3.4354
  522TMC3    H2 7758   0.932   3.822  16.700  3.0326 -0.7183 -0.0978
  522TMC3    C7 7759   0.729   3.678  16.772  0.0211 -0.5515 -0.3767
  522TMC3    C8 7760   1.112   3.907  16.897 -0.5297 -0.1563 -0.2793
  522TMC3    O1 7761   0.820   3.615  16.718  0.0859  0.0387  0.2246
  522TMC3    O2 7762   1.178   3.987  16.969  0.5208  0.2936 -0.2806
  523MPD2     C 7763   2.461   3.079  10.383  0.0246 -0.5553 -0.0766
  523MPD2    C1 7764   2.469   2.982  10.285 -0.3742 -0.0824  0.2789
  523MPD2    C2 7765   2.429   3.008  10.159 -0.2477  0.4002 -0.8167
  523MPD2    C3 7766   2.377   3.125  10.126 -0.0165 -0.4974 -0.3455
  523MPD2    C4 7767   2.360   3.222  10.221 -0.0698  0.4994 -0.0916
  523MPD2    C5 7768   2.402   3.198  10.347  0.5384  0.4595  0.0967
  523MPD2     H 7769   2.424   2.925  10.089 -1.3948  0.8221 -1.2467
  523MPD2    H1 7770   2.323   3.321  10.198  2.3144  1.1323 -1.1242
  523MPD2    H2 7771   2.499   3.072  10.484  0.5300  3.3599 -0.0270
  523MPD2    H3 7772   2.387   3.273  10.425 -0.3869 -0.6938  1.0305
  523MPD2     N 7773   2.330   3.154   9.984  0.2882 -0.3935 -0.4788
  523MPD2    H5 7774   2.282   3.240   9.960  1.1641 -0.0042 -0.8117
  523MPD2    N1 7775   2.541   2.866  10.329 -0.0245 -0.3528 -0.2379
  523MPD2    H7 7776   2.593   2.856  10.415  1.3345  0.6413 -0.9444
  524TMC3    C1 7777   2.320   3.154   9.758  0.3195 -0.0746  0.3041
  524TMC3    C2 7778   2.249   3.078   9.667  0.3433  0.1162  0.3774
  524TMC3    C3 7779   2.150   3.146   9.602 -0.7110  0.2604  0.5634
  524TMC3    C4 7780   2.305   3.286   9.772  0.2754  0.1911  0.1263
  524TMC3    C5 7781   2.194   3.342   9.717 -0.5648 -1.3097 -0.4292
  524TMC3    C6 7782   2.115   3.274   9.629  0.4967  0.2129  0.3571
  524TMC3     C 7783   2.360   3.083   9.875 -0.4381  0.0670  0.6779
  524TMC3     O 7784   2.379   2.963   9.864 -0.4144  0.5408 -0.6581
  524TMC3     H 7785   2.254   2.969   9.666  3.0666  0.2632 -1.4000
  524TMC3    H1 7786   2.367   3.347   9.837  0.9608 -0.3716  0.0052
  524TMC3    H2 7787   2.029   3.321   9.582  1.1594 -0.6046 -1.6799
  524TMC3    C7 7788   2.132   3.428   9.820  0.3965  0.9216  0.6604
  524TMC3    C8 7789   2.064   3.065   9.508 -0.2312  0.1395  0.1067
  524TMC3    O1 7790   2.184   3.432   9.933  0.2392 -0.3479 -0.1897
  524TMC3    O2 7791   1.955   3.113   9.481 -0.0540  0.0469 -0.0351
  525MPD2     C 7792   0.465   0.070  14.640 -1.2370  0.0214 -0.7763
  525MPD2    C1 7793   0.576   0.071  14.717  0.3229  0.2739 -0.2900
  525MPD2    C2 7794   0.688   0.144  14.689 -0.1467 -0.4792 -0.1018
  525MPD2    C3 7795   0.684   0.220  14.574 -0.0419  0.3759 -0.4541
  525MPD2    C4 7796   0.570   0.218  14.489 -0.1747  0.0433 -0.1606
  525MPD2    C5 7797   0.465   0.138  14.522  0.0636  0.1353  0.2973
  525MPD2     H 7798   0.775   0.145  14.753  0.1550 -1.9848 -0.4773
  525MPD2    H1 7799   0.579   0.254  14.387  0.2438 -0.8192 -0.4300
  525MPD2    H2 7800   0.380   0.008  14.666 -0.1871  0.0997  2.8529
  525MPD2    H3 7801   0.388   0.117  14.449 -0.2127  0.6675  0.4367
  525MPD2     N 7802   0.792   0.297  14.527  0.3234 -0.9093 -0.4388
  525MPD2    H5 7803   0.760   0.358  14.453  0.0157 -1.1717 -0.5207
  525MPD2    N1 7804   0.589   4.718  14.834 -0.4190  0.2057 -0.3093
  525MPD2    H7 7805   0.675   0.002  14.888 -0.4453  2.2488 -0.4956
  526TMC3    C1 7806   0.533   4.583  15.015 -0.1011 -0.4720  0.2108
  526TMC3    C2 7807   0.451   4.590  15.127 -0.8286  0.3840  0.1183
  526TMC3    C3 7808   0.506   4.555  15.250  0.4573 -0.2546  0.5408
  526TMC3    C4 7809   0.654   4.523  15.017 -0.1048 -0.1090  1.4134
  526TMC3    C5 7810   0.709   4.485  15.133 -0.6210  0.0644 -0.4281
  526TMC3    C6 7811   0.640   4.505  15.247  0.5571  1.0697 -0.4452
  526TMC3     C 7812   0.488   4.659  14.899 -0.2872  0.1631 -1.1764
  526TMC3     O 7813   0.369   4.672  14.889  0.5989  0.3480  0.2078
  526TMC3     H 7814   0.372   4.664  15.120  0.0595  1.2377 -0.9350
  526TMC3    H1 7815   0.716   4.531  14.928 -1.0259  1.4207  0.9141
  526TMC3    H2 7816   0.674   4.466  15.342 -0.4805  0.3970 -0.3554
  526TMC3    C7 7817   0.850   4.453  15.147 -0.7632  0.1980  0.0320
  526TMC3    C8 7818   0.432   4.552  15.375 -0.2196 -0.5419  0.3310
  526TMC3    O1 7819   0.898   4.437  15.258  0.0768  0.0249 -0.3210
  526TMC3    O2 7820   0.490   4.509  15.474  0.4193  0.3590  0.0143
  527MPD2     C 7821   3.615   3.042   1.522  0.7321 -0.3892  0.2087
  527MPD2    C1 7822   3.691   3.014   1.638  0.2736 -0.2378 -0.2014
  527MPD2    C2 7823   3.803   2.933   1.625  0.2347 -0.4945 -0.2036
  527MPD2    C3 7824   3.830   2.883   1.497  0.7263  0.1335  0.8758
  527MPD2    C4 7825   3.763   2.918   1.385  0.4472 -0.5818  0.2548
  527MPD2    C5 7826   3.654   3.001   1.401  0.2263 -0.4143 -0.0055
  527MPD2     H 7827   3.864   2.901   1.709  1.6088  1.8624 -0.3203
  527MPD2    H1 7828   3.791   2.890   1.284  0.9805 -0.5889  0.4048
  527MPD2    H2 7829   3.527   3.104   1.533 -0.1015 -1.7229  1.1001
  527MPD2    H3 7830   3.600   3.034   1.313 -0.3231  2.4770  1.4445
  527MPD2     N 7831   3.944   2.793   1.476 -0.2214 -0.1059 -0.2672
  527MPD2    H5 7832   3.982   2.744   1.557 -1.3908  1.8063  1.4550
  527MPD2    N1 7833   3.665   3.063   1.767  0.4799  0.3997  0.2263
  527MPD2    H7 7834   3.736   3.044   1.837 -0.5661  0.3292  1.2632
  528TMC3    C1 7835   3.562   3.189   1.936  0.6678  0.0563  0.2136
  528TMC3    C2 7836   3.684   3.203   1.999  0.0960  0.2653  0.5236
  528TMC3    C3 7837   3.683   3.287   2.104  0.6984  0.0882 -0.3904
  528TMC3    C4 7838   3.447   3.252   1.979 -0.3164 -0.4256  1.0453
  528TMC3    C5 7839   3.455   3.337   2.091 -0.7723 -0.3242  0.3865
  528TMC3    C6 7840   3.575   3.358   2.151 -0.2983  0.4138  0.0580
  528TMC3     C 7841   3.560   3.150   1.798  0.5876 -0.4653 -0.0864
  528TMC3     O 7842   3.465   3.175   1.732  0.0612 -0.2911  0.8753
  528TMC3     H 7843   3.776   3.186   1.944 -1.1268  0.0187 -1.4854
  528TMC3    H1 7844   3.352   3.248   1.926 -0.0986  0.0010  0.6307
  528TMC3    H2 7845   3.574   3.428   2.234 -1.1221 -1.9407  2.0217
  528TMC3    C7 7846   3.330   3.394   2.146 -1.4250  0.3228  0.8054
  528TMC3    C8 7847   3.791   3.272   2.202 -0.1335 -0.0628  0.0282
  528TMC3    O1 7848   3.234   3.315   2.143  0.3032  0.1445  0.3670
  528TMC3    O2 7849   3.813   3.377   2.264 -1.0222  0.0120 -0.5304
  529MPD2     C 7850   1.575   1.700   0.916 -0.6155  0.8962 -0.2633
  529MPD2    C1 7851   1.674   1.610   0.892  1.3022  0.4285 -0.5446
  529MPD2    C2 7852   1.706   1.590   0.763 -0.3810 -0.5369  1.1021
  529MPD2    C3 7853   1.655   1.665   0.659  1.0623 -0.1391  0.4491
  529MPD2    C4 7854   1.569   1.770   0.693 -0.1003  0.2113  0.5211
  529MPD2    C5 7855   1.523   1.777   0.818  0.8920  0.1584 -0.4776
  529MPD2     H 7856   1.773   1.509   0.737 -0.9437 -0.1583 -1.5472
  529MPD2    H1 7857   1.522   1.830   0.616 -0.1094  1.0817  1.2089
  529MPD2    H2 7858   1.537   1.719   1.016  2.8480  0.4546  1.1520
  529MPD2    H3 7859   1.443   1.844   0.845  0.7903  0.3865 -1.3802
  529MPD2     N 7860   1.699   1.657   0.520  0.5965 -0.7172  0.1936
  529MPD2    H5 7861   1.659   1.728   0.459 -0.9518 -0.0017  2.0421
  529MPD2    N1 7862   1.734   1.530   0.995 -0.7079 -0.5041  0.4043
  529MPD2    H7 7863   1.789   1.452   0.960  0.5230  0.8593 -0.7004
  530TMC3    C1 7864   1.692   1.407   1.183  0.5090 -0.5781 -0.2589
  530TMC3    C2 7865   1.714   1.399   1.316  0.2796  0.1851  0.2192
  530TMC3    C3 7866   1.747   1.282   1.376  0.3165 -0.2267 -0.1516
  530TMC3    C4 7867   1.687   1.297   1.105 -0.1351  0.0207  0.2234
  530TMC3    C5 7868   1.710   1.174   1.170 -0.5999 -0.6127  0.4735
  530TMC3    C6 7869   1.741   1.168   1.301  1.1593  0.4021  0.0037
  530TMC3     C 7870   1.705   1.539   1.132 -0.2814 -0.3497  0.6096
  530TMC3     O 7871   1.670   1.640   1.195  0.7667 -0.2272  0.0899
  530TMC3     H 7872   1.715   1.495   1.368 -0.3831 -0.4628  1.4393
  530TMC3    H1 7873   1.651   1.308   1.003  1.1976  0.3491 -0.2141
  530TMC3    H2 7874   1.768   1.076   1.351 -0.3248 -0.3566 -0.5975
  530TMC3    C7 7875   1.680   1.049   1.103  0.6574 -0.7513 -0.4752
  530TMC3    C8 7876   1.774   1.276   1.521 -0.6810 -0.1106  0.4143
  530TMC3    O1 7877   1.674   1.059   0.981 -0.1082 -0.1745 -0.1845
  530TMC3    O2 7878   1.731   1.367   1.589 -0.1210 -0.3827 -0.3896
  531MPD2     C 7879   0.237   3.858  13.305  0.2979  0.2014  0.6829
  531MPD2    C1 7880   0.106   3.905  13.272  0.2713  0.4244  0.1388
  531MPD2    C2 7881   0.028   3.830  13.180  0.3932  0.3160  0.3618
  531MPD2    C3 7882   0.079   3.705  13.134  0.1233  0.5893 -0.3882
  531MPD2    C4 7883   0.207   3.668  13.161  0.3994 -0.0008  0.0564
  531MPD2    C5 7884   0.287   3.749  13.244 -0.2151  0.2733 -0.1299
  531MPD2     H 7885   4.651   3.861  13.146  0.0251 -0.3355  0.8122
  531MPD2    H1 7886   0.254   3.574  13.133 -0.0496  0.0846 -0.9662
  531MPD2    H2 7887   0.295   3.914  13.378 -1.3030  1.2057  1.1962
  531MPD2    H3 7888   0.383   3.715  13.280 -0.1883 -0.3920 -0.8262
  531MPD2     N 7889   0.007   3.612  13.054 -0.1259  0.0480 -0.0345
  531MPD2    H5 7890   0.060   3.527  13.040 -0.2443 -0.2889  1.5728
  531MPD2    N1 7891   0.056   4.012  13.347 -0.6655 -0.0235 -0.0968
  531MPD2    H7 7892   0.129   4.064  13.395 -0.0474 -1.2869  0.3380
  532TMC3    C1 7893   4.619   4.098  13.499  0.0468 -0.1138  0.1557
  532TMC3    C2 7894   4.493   4.084  13.541  0.5967 -0.5847 -0.2700
  532TMC3    C3 7895   4.460   4.043  13.673  0.7197 -0.0039 -0.3162
  532TMC3    C4 7896   4.721   4.094  13.595  0.5020  0.1434 -0.0201
  532TMC3    C5 7897   4.688   4.063  13.725 -0.5425  0.1784  0.7216
  532TMC3    C6 7898   4.558   4.042  13.774  0.1199  0.1621  1.0472
  532TMC3     C 7899   4.645   4.045  13.360 -0.4847  0.6622 -0.0995
  532TMC3     O 7900   4.553   3.996  13.297 -0.2432  0.6226  0.1739
  532TMC3     H 7901   4.413   4.079  13.468 -1.5120  1.0431  1.9223
  532TMC3    H1 7902   0.105   4.107  13.575  0.1968 -0.4709 -2.0199
  532TMC3    H2 7903   4.546   3.984  13.865  0.9699  1.9278  2.2813
  532TMC3    C7 7904   0.070   4.000  13.805  0.1358 -0.2909  0.5832
  532TMC3    C8 7905   4.372   3.926  13.669  0.0780 -0.3302 -0.1488
  532TMC3    O1 7906   0.076   4.021  13.926  0.0332  0.3608  0.0157
  532TMC3    O2 7907   4.326   3.886  13.776 -0.6687  0.3630 -0.2606
  533TMC3    C1 7908   0.970   0.442  14.578 -0.7162 -0.5571 -0.0283
  533TMC3    C2 7909   1.106   0.454  14.576 -0.7262  0.1127 -0.4540
  533TMC3    C3 7910   1.161   0.557  14.652  0.3043  0.0309 -0.4021
  533TMC3    C4 7911   0.884   0.537  14.630  0.0909 -0.5595  0.0066
  533TMC3    C5 7912   0.943   0.636  14.710 -0.5782 -0.0599 -0.1631
  533TMC3    C6 7913   1.082   0.647  14.718 -0.1248 -0.7895  0.6981
  533TMC3     C 7914   0.919   0.302  14.578 -0.0432  0.1931  0.9531
  533TMC3     O 7915   0.974   0.225  14.658  0.2736 -0.2157  0.1370
  533TMC3     H 7916   1.168   0.377  14.532  1.6355  0.7445  1.8037
  533TMC3    H1 7917   0.788   0.501  14.666  1.4572 -2.2013  2.0613
  533TMC3    H2 7918   1.130   0.725  14.776  1.4142 -1.6764  0.6121
  533TMC3    C7 7919   0.884   0.638  14.841  0.4151 -0.2956  0.2985
  533TMC3    C8 7920   1.289   0.601  14.610  1.0221  0.2166 -0.2682
  533TMC3    O1 7921   0.843   0.532  14.875 -0.0776  0.2539 -0.0022
  533TMC3    O2 7922   1.381   0.591  14.692  0.2203  0.6882  0.4552
  534MPD2     C 7923   3.946   1.703   2.124 -0.0756  0.1540  0.0281
  534MPD2    C1 7924   3.859   1.806   2.099 -0.1005 -0.7861  0.8576
  534MPD2    C2 7925   3.747   1.787   2.027 -0.3789  0.3317  0.2266
  534MPD2    C3 7926   3.714   1.662   1.984  0.5868 -0.3626  0.4560
  534MPD2    C4 7927   3.804   1.558   2.003  0.0476 -0.1047 -0.3963
  534MPD2    C5 7928   3.919   1.584   2.076  0.5049  0.1763 -0.0725
  534MPD2     H 7929   3.680   1.869   2.008  2.0169  2.4392  0.9190
  534MPD2    H1 7930   3.766   1.458   1.981 -3.2392  1.2228 -0.7682
  534MPD2    H2 7931   4.042   1.714   2.173 -0.3122  1.2908  0.2309
  534MPD2    H3 7932   3.980   1.505   2.118 -0.8365 -1.7263 -1.7164
  534MPD2     N 7933   3.600   1.630   1.906 -0.4352  0.1446  0.1344
  534MPD2    H5 7934   3.610   1.546   1.849 -0.6508  0.1038  0.1562
  534MPD2    N1 7935   3.876   1.939   2.143  0.2089 -0.1310 -0.1826
  534MPD2    H7 7936   3.822   2.013   2.099  0.6904  0.2948 -0.0611
  535TMC3    C1 7937   3.383   1.652   1.809 -0.4406  0.1621  0.2264
  535TMC3    C2 7938   3.252   1.632   1.856 -0.7862 -0.3383 -0.2003
  535TMC3    C3 7939   3.158   1.606   1.757 -0.1690 -0.0075 -0.0229
  535TMC3    C4 7940   3.419   1.642   1.679 -0.4078 -0.4024 -0.5346
  535TMC3    C5 7941   3.320   1.600   1.590  0.0982  0.0196 -0.4735
  535TMC3    C6 7942   3.191   1.580   1.629 -0.6485 -0.0194  0.5658
  535TMC3     C 7943   3.481   1.705   1.902 -0.3314 -0.0111 -0.1239
  535TMC3     O 7944   3.443   1.793   1.976 -0.7611 -0.4181 -0.5315
  535TMC3     H 7945   3.221   1.638   1.960  0.1543  4.0783 -0.1860
  535TMC3    H1 7946   3.513   1.692   1.660 -0.8680 -0.4789 -3.0029
  535TMC3    H2 7947   3.121   1.542   1.556  1.0678 -3.7104  0.8528
  535TMC3    C7 7948   3.349   1.624   1.445  0.4232  0.5503  0.3854
  535TMC3    C8 7949   3.028   1.559   1.798 -0.1776  0.6279  0.1383
  535TMC3    O1 7950   3.281   1.571   1.360  0.4270 -0.5904  0.6063
  535TMC3    O2 7951   2.951   1.516   1.709 -0.2976 -0.2768  0.3025
  536MPD2     C 7952   2.544   0.243  16.451  0.7766 -0.3272 -0.7644
  536MPD2    C1 7953   2.432   0.185  16.513 -0.4195  0.2550  0.1362
  536MPD2    C2 7954   2.306   0.219  16.470  0.4755 -0.6152  0.6483
  536MPD2    C3 7955   2.285   0.308  16.367 -0.8297 -0.2500 -0.2443
  536MPD2    C4 7956   2.396   0.384  16.326  0.4699 -0.6243  0.1734
  536MPD2    C5 7957   2.520   0.339  16.357  0.2121  0.2990 -0.2907
  536MPD2     H 7958   2.229   0.171  16.528  1.0865 -2.4596 -0.0704
  536MPD2    H1 7959   2.386   0.454  16.244  1.6887  0.7251  1.1771
  536MPD2    H2 7960   2.645   0.216  16.480  0.3398 -1.1124  0.0163
  536MPD2    H3 7961   2.607   0.388  16.314  0.9309 -1.3560 -0.7107
  536MPD2     N 7962   2.157   0.355  16.320  0.2258 -0.5114  0.3615
  536MPD2    H5 7963   2.161   0.404  16.231 -0.4500  1.8136  1.6323
  536MPD2    N1 7964   2.451   0.088  16.616  0.5100  0.2198  0.4104
  536MPD2    H7 7965   2.546   0.069  16.647  0.6491  2.1550  1.1389
  537TMC3    C1 7966   2.415   4.642  16.777 -0.5709  0.6758  0.4306
  537TMC3    C2 7967   2.493   4.700  16.869  0.1925  0.2230  1.1026
  537TMC3    C3 7968   2.527   4.629  16.978  0.3999 -0.6272  0.2924
  537TMC3    C4 7969   2.369   4.520  16.797  0.5054 -0.2314 -0.1864
  537TMC3    C5 7970   2.376   4.461  16.922  0.3014  0.1582 -0.1555
  537TMC3    C6 7971   2.463   4.518  17.014 -0.0366 -0.1241  0.1565
  537TMC3     C 7972   2.359   0.001  16.663 -0.3121 -0.4508 -0.4932
  537TMC3     O 7973   2.258   4.673  16.608 -0.3025  0.6511 -0.4530
  537TMC3     H 7974   2.515   0.085  16.865 -0.1444  0.2236 -0.7354
  537TMC3    H1 7975   2.286   4.478  16.742 -0.3244  0.2180  0.6931
  537TMC3    H2 7976   2.481   4.469  17.109  0.3217  1.7177  1.0375
  537TMC3    C7 7977   2.259   4.414  16.988  0.3177 -0.4264 -0.2839
  537TMC3    C8 7978   2.592   4.700  17.084  0.0403  0.5199 -0.0189
  537TMC3    O1 7979   2.153   4.422  16.929 -0.1282 -0.2319  0.2484
  537TMC3    O2 7980   2.565   0.096  17.110  0.0679 -0.8047  0.1769
  538TMC3    C1 7981   3.298   3.324  11.210 -0.9080 -0.1744  0.5791
  538TMC3    C2 7982   3.301   3.250  11.094  0.1266  0.1677  0.0685
  538TMC3    C3 7983   3.197   3.263  10.997  0.3442 -0.5365 -0.0002
  538TMC3    C4 7984   3.186   3.390  11.241 -0.5086 -0.2121  0.0028
  538TMC3    C5 7985   3.078   3.397  11.152  1.1967  0.0622  0.9549
  538TMC3    C6 7986   3.084   3.337  11.028 -0.1772 -0.5150  0.3556
  538TMC3     C 7987   3.376   3.280  11.320  0.2416 -0.0353 -0.0001
  538TMC3     O 7988   3.327   3.302  11.431  0.0017 -0.0658 -0.3181
  538TMC3     H 7989   3.382   3.179  11.085 -0.5833 -0.8082  1.4546
  538TMC3    H1 7990   3.177   3.440  11.336 -0.4630 -0.9347  0.3912
  538TMC3    H2 7991   3.008   3.344  10.952 -1.2913 -3.0554  1.2508
  538TMC3    C7 7992   2.976   3.501  11.166  0.0636 -0.3739  0.0329
  538TMC3    C8 7993   3.224   3.226  10.858  0.7329  0.1844  0.0751
  538TMC3    O1 7994   2.882   3.502  11.089  0.4039 -0.2266 -0.3335
  538TMC3    O2 7995   3.123   3.226  10.790 -0.0599 -0.4947  0.1450
  539MPD2     C 7996   3.397   2.828  11.835  0.2309  0.2138  0.4127
  539MPD2    C1 7997   3.316   2.766  11.742  0.1886  0.3060 -0.4052
  539MPD2    C2 7998   3.216   2.845  11.689 -0.5102 -0.2020 -0.0526
  539MPD2    C3 7999   3.209   2.987  11.711  0.4540 -0.3165 -0.8054
  539MPD2    C4 8000   3.289   3.037  11.810  0.1413  0.1907  0.3689
  539MPD2    C5 8001   3.381   2.959  11.871 -0.2573 -0.9604  0.1746
  539MPD2     H 8002   3.151   2.790  11.622  0.7497 -2.3618  0.4820
  539MPD2    H1 8003   3.279   3.141  11.841 -2.4734  0.1160 -0.2297
  539MPD2    H2 8004   3.469   2.782  11.901 -0.1239 -2.1961 -0.9041
  539MPD2    H3 8005   3.451   2.991  11.947  0.7039  0.2534 -1.2199
  539MPD2     N 8006   3.132   3.080  11.642 -0.2433  0.2507  0.0790
  539MPD2    H5 8007   3.157   3.173  11.672  1.4076 -0.0709 -0.2952
  539MPD2    N1 8008   3.329   2.631  11.692 -0.0109  0.5118 -0.3249
  539MPD2    H7 8009   3.267   2.611  11.615 -1.5564 -0.0797  1.0558
  540TMC3    C1 8010   2.975   3.163  11.488 -0.5075 -0.1746  0.5197
  540TMC3    C2 8011   2.911   3.138  11.371  0.1166  0.2689  0.3212
  540TMC3    C3 8012   2.811   3.225  11.336  0.8359  0.1065 -0.1159
  540TMC3    C4 8013   2.965   3.278  11.553 -0.6984 -0.4540 -0.1104
  540TMC3    C5 8014   2.864   3.361  11.522 -0.4035  0.3979 -0.2456
  540TMC3    C6 8015   2.783   3.339  11.411  0.1676 -0.0964 -0.6398
  540TMC3     C 8016   3.052   3.049  11.535 -0.3074  0.3230 -0.6015
  540TMC3     O 8017   3.035   2.944  11.474 -0.3533 -0.6722 -0.1227
  540TMC3     H 8018   2.925   3.049  11.311  0.3127 -0.3430  1.2695
  540TMC3    H1 8019   3.011   3.292  11.650 -0.4841 -1.9966  0.0073
  540TMC3    H2 8020   2.696   3.399  11.391  1.2444  0.9497 -2.2004
  540TMC3    C7 8021   2.853   3.483  11.594  0.2638 -0.3856 -0.7165
  540TMC3    C8 8022   2.729   3.208  11.215 -0.0132 -0.5400  0.3612
  540TMC3    O1 8023   2.958   3.541  11.620 -0.0431 -0.7409  0.0246
  540TMC3    O2 8024   2.650   3.301  11.184  0.3948 -0.4619  0.9126
  541MPD2     C 8025   1.515   3.950  13.239 -0.6100  0.1059  0.6096
  541MPD2    C1 8026   1.395   3.902  13.196 -0.4051 -1.1524  0.8370
  541MPD2    C2 8027   1.332   3.970  13.089  0.9113 -0.3458 -0.2167
  541MPD2    C3 8028   1.393   4.076  13.026 -0.9951  0.1024  0.3331
  541MPD2    C4 8029   1.514   4.120  13.071 -0.5366 -0.9618  0.0936
  541MPD2    C5 8030   1.577   4.052  13.172  0.0487 -0.4536  0.4172
  541MPD2     H 8031   1.233   3.939  13.057  0.8245  0.7156 -0.9670
  541MPD2    H1 8032   1.572   4.196  13.020 -2.4193  1.1910  1.1164
  541MPD2    H2 8033   1.571   3.898  13.316 -2.9454 -0.4836  1.9108
  541MPD2    H3 8034   1.679   4.082  13.193 -0.3897  2.2348 -1.1773
  541MPD2     N 8035   1.334   4.146  12.919  0.2624 -0.5526 -0.1220
  541MPD2    H5 8036   1.399   4.206  12.870 -3.1916  1.9158 -1.6928
  541MPD2    N1 8037   1.324   3.797  13.258  0.1420 -0.1712 -0.1462
  541MPD2    H7 8038   1.253   3.759  13.197  1.8897  0.2107 -2.4179
  542TMC3    C1 8039   1.185   4.194  12.740  0.1024  0.4382 -1.1265
  542TMC3    C2 8040   1.277   4.181  12.646 -0.4968  0.2869 -0.4254
  542TMC3    C3 8041   1.252   4.235  12.525  0.0729  0.1634  0.3694
  542TMC3    C4 8042   1.066   4.255  12.713  0.0983  0.3342  0.3483
  542TMC3    C5 8043   1.037   4.295  12.585  0.6780  0.1605 -0.2160
  542TMC3    C6 8044   1.136   4.284  12.486  0.0876  0.0193 -0.3247
  542TMC3     C 8045   1.203   4.137  12.870 -0.0309  0.0923 -0.4525
  542TMC3     O 8046   1.102   4.098  12.923 -0.0655 -0.0417 -0.0084
  542TMC3     H 8047   1.348   4.099  12.656 -0.4815  0.4024  0.4401
  542TMC3    H1 8048   0.994   4.249  12.794 -0.0714 -1.0451  0.0884
  542TMC3    H2 8049   1.117   4.315  12.384 -1.1471  1.2319  0.2777
  542TMC3    C7 8050   0.914   4.366  12.547 -0.4208  0.0490 -0.8361
  542TMC3    C8 8051   1.355   4.244  12.426  0.3498 -0.1461 -0.0252
  542TMC3    O1 8052   0.893   4.382  12.427 -0.2967  0.5622  0.3098
  542TMC3    O2 8053   1.332   4.308  12.326 -0.1487  0.6487  0.1447
  543TMC3    C1 8054   0.669   0.763   0.090 -0.3419 -0.2192  0.2206
  543TMC3    C2 8055   0.623   0.643   0.131  0.2492  0.6548  0.0736
  543TMC3    C3 8056   0.654   0.605   0.264  0.4529  0.1075 -0.1235
  543TMC3    C4 8057   0.750   0.846   0.174 -1.0581  0.1138 -0.1061
  543TMC3    C5 8058   0.766   0.809   0.301  0.6513 -0.1016 -0.2305
  543TMC3    C6 8059   0.712   0.691   0.350  0.5846 -0.4195 -1.1426
  543TMC3     C 8060   0.719   0.758  17.647  0.1058  0.0581  1.0352
  543TMC3     O 8061   0.837   0.720  17.649 -0.1840  0.9491 -0.2351
  543TMC3     H 8062   0.577   0.579   0.058  0.7922  0.9294 -0.5096
  543TMC3    H1 8063   0.814   0.916   0.121 -2.4570  1.1124 -0.4859
  543TMC3    H2 8064   0.732   0.657   0.452  0.6904  1.6718 -0.4722
  543TMC3    C7 8065   0.853   0.882   0.393 -0.4121 -0.6423  0.0697
  543TMC3    C8 8066   0.723   0.475   0.262 -0.3516 -0.1945  0.2757
  543TMC3    O1 8067   0.877   0.831   0.499 -0.1466  0.2915 -0.3960
  543TMC3    O2 8068   0.835   0.474   0.312  0.0945  1.0695 -0.3256
  544MPD2     C 8069   0.759   4.693   0.178  0.1431  0.4680  0.1926
  544MPD2    C1 8070   0.856   0.065   0.194 -0.2889 -0.2584  0.2502
  544MPD2    C2 8071   0.818   0.197   0.209  0.0493 -0.7547  0.0827
  544MPD2    C3 8072   0.686   0.235   0.212 -0.0809 -0.2490 -0.0584
  544MPD2    C4 8073   0.590   0.137   0.180 -0.0456  0.2748 -0.0708
  544MPD2    C5 8074   0.632   0.010   0.173  0.6720 -0.8148 -0.0603
  544MPD2     H 8075   0.887   0.278   0.231 -1.3431  0.5169 -0.2527
  544MPD2    H1 8076   0.483   0.153   0.187 -0.3147 -0.8538 -1.6093
  544MPD2    H2 8077   0.786   4.588   0.173 -0.4860  0.3217 -0.1019
  544MPD2    H3 8078   0.559   4.654   0.150 -0.4599  0.2241  0.0447
  544MPD2     N 8079   0.642   0.372   0.220 -0.2421  0.0713 -0.0828
  544MPD2    H5 8080   0.543   0.393   0.216 -0.2954 -0.1142  0.2680
  544MPD2    N1 8081   0.991   0.014   0.210 -0.4357 -0.0317 -0.9164
  544MPD2    H7 8082   1.007   4.636   0.205 -2.9876 -0.5671  1.2905
  545TMC3    C1 8083   1.219   4.712   0.269 -0.1926 -1.0569 -0.7528
  545TMC3    C2 8084   1.338   0.014   0.212 -0.5402  0.0021 -0.9144
  545TMC3    C3 8085   1.425   4.637   0.204 -0.2709 -0.5901  0.6560
  545TMC3    C4 8086   1.183   4.599   0.328  0.9878 -0.0779  0.1496
  545TMC3    C5 8087   1.283   4.506   0.336  0.0056 -0.2765  0.6929
  545TMC3    C6 8088   1.407   4.521   0.276 -0.3716 -0.7565  0.3144
  545TMC3     C 8089   1.108   0.083   0.229 -0.3121  0.3756 -0.5125
  545TMC3     O 8090   1.129   0.201   0.214  0.1835  0.1071  0.2987
  545TMC3     H 8091   1.356   0.111   0.167  0.6903 -0.3216 -1.1179
  545TMC3    H1 8092   1.087   4.578   0.375  1.5512 -1.0396  0.8567
  545TMC3    H2 8093   1.484   4.445   0.277 -1.5205 -1.9393 -1.1594
  545TMC3    C7 8094   1.262   4.384   0.413  0.4846 -0.2167 -0.1176
  545TMC3    C8 8095   1.549   4.651   0.131 -0.4126  0.0313 -0.3984
  545TMC3    O1 8096   1.166   4.377   0.485 -0.2557 -0.1058  0.0832
  545TMC3    O2 8097   1.640   4.578   0.164 -0.0619 -0.4607  0.0180
  546MPD2     C 8098   2.352   1.087   0.194 -0.1816 -0.2747  0.2403
  546MPD2    C1 8099   2.279   1.057   0.080  0.2407  0.0074  0.0926
  546MPD2    C2 8100   2.274   1.148  17.665 -0.3771  0.1649 -0.1226
  546MPD2    C3 8101   2.349   1.257  17.668 -0.1694 -0.5579 -0.3386
  546MPD2    C4 8102   2.418   1.295   0.100  0.4546 -0.4433  0.6125
  546MPD2    C5 8103   2.417   1.208   0.205 -0.2378  0.0802 -0.1718
  546MPD2     H 8104   2.221   1.131  17.572 -2.0969 -1.0362  1.0921
  546MPD2    H1 8105   2.477   1.384   0.115  1.1391 -0.7179 -0.4523
  546MPD2    H2 8106   2.371   1.019   0.276  1.8868 -0.6999 -0.5845
  546MPD2    H3 8107   2.467   1.238   0.296  1.5167 -1.8766 -0.5069
  546MPD2     N 8108   2.372   1.335  17.550  0.3611  0.6968  0.0052
  546MPD2    H5 8109   2.408   1.429  17.560 -1.3923  1.3646  0.0790
  546MPD2    N1 8110   2.231   0.922   0.067  0.5734 -0.0468  0.2575
  546MPD2    H7 8111   2.252   0.854   0.139  0.2988 -0.2892  0.1081
  547TMC3    C1 8112   2.099   0.741  17.661  0.1860 -0.0759 -0.2365
  547TMC3    C2 8113   2.026   0.706  17.548  0.8364 -0.3244  0.0439
  547TMC3    C3 8114   2.000   0.572  17.522  0.3943 -0.5715  0.2874
  547TMC3    C4 8115   2.160   0.648   0.057 -0.1887 -0.3197  0.0189
  547TMC3    C5 8116   2.136   0.512   0.012 -0.5303  0.4926  0.1007
  547TMC3    C6 8117   2.057   0.473  17.594 -0.3413 -0.1760 -0.3478
  547TMC3     C 8118   2.154   0.875  17.652  0.8050 -0.6336 -0.0924
  547TMC3     O 8119   2.122   0.934  17.552 -0.0140  0.0866 -0.2644
  547TMC3     H 8120   1.991   0.785  17.483  2.7011  0.0178 -0.5385
  547TMC3    H1 8121   2.226   0.677   0.138 -2.2860 -1.0688  2.0142
  547TMC3    H2 8122   2.020   0.372  17.586  1.1705 -0.6172 -1.7456
  547TMC3    C7 8123   2.204   0.412   0.092  0.2866  0.0912 -0.1149
  547TMC3    C8 8124   1.865   0.543  17.470  0.4106  0.1165 -0.1870
  547TMC3    O1 8125   2.196   0.431   0.212  0.2503  0.0473 -0.0710
  547TMC3    O2 8126   1.837   0.597  17.363 -0.5811  0.8997 -0.0646
  548MPD2     C 8127   1.814   1.226  12.344 -0.0597  0.2181 -0.1371
  548MPD2    C1 8128   1.847   1.176  12.470 -0.0945  0.3418  1.2044
  548MPD2    C2 8129   1.948   1.079  12.481 -0.6511 -1.0102 -0.5106
  548MPD2    C3 8130   2.020   1.038  12.362  0.8377 -0.1039 -0.4974
  548MPD2    C4 8131   1.985   1.097  12.240  0.0518 -0.2593 -0.3606
  548MPD2    C5 8132   1.881   1.191  12.229  0.3496 -0.3852  0.0209
  548MPD2     H 8133   1.984   1.043  12.577 -1.2581 -0.9114 -0.2427
  548MPD2    H1 8134   2.023   1.076  12.141  0.0117 -1.4272 -0.1305
  548MPD2    H2 8135   1.735   1.298  12.329  0.1545  0.3562 -0.5837
  548MPD2    H3 8136   1.857   1.235  12.133  0.3919  0.9449  0.6179
  548MPD2     N 8137   2.113   0.934  12.371 -0.0567 -0.2266 -0.4112
  548MPD2    H5 8138   2.145   0.897  12.460 -0.5632  2.0768  0.7310
  548MPD2    N1 8139   1.771   1.223  12.574 -0.3213 -0.6155  0.2224
  548MPD2    H7 8140   1.687   1.273  12.546 -0.4826 -1.3663 -0.6232
  549TMC3    C1 8141   1.660   1.222  12.777 -0.0321  0.2544  0.2728
  549TMC3    C2 8142   1.617   1.355  12.755  0.0479  0.1070  0.5499
  549TMC3    C3 8143   1.480   1.386  12.775  0.6866 -0.1901 -0.0566
  549TMC3    C4 8144   1.574   1.122  12.802  0.1342  0.4612 -0.3142
  549TMC3    C5 8145   1.442   1.151  12.816 -0.0544 -0.7633 -0.5168
  549TMC3    C6 8146   1.396   1.281  12.802 -0.1060  0.1746 -0.1737
  549TMC3     C 8147   1.780   1.181  12.706  0.3996 -0.5876 -0.0363
  549TMC3     O 8148   1.851   1.098  12.760  0.1534  0.3077  0.2185
  549TMC3     H 8149   1.694   1.425  12.723  0.2988 -0.8830 -1.0252
  549TMC3    H1 8150   1.617   1.030  12.838 -0.9820  1.3081  3.2036
  549TMC3    H2 8151   1.294   1.312  12.827  0.1888  1.0583 -0.0518
  549TMC3    C7 8152   1.335   1.060  12.772  0.4820  0.5448  0.6640
  549TMC3    C8 8153   1.438   1.495  12.697  0.0510  0.3230 -0.1780
  549TMC3    O1 8154   1.239   1.109  12.720 -0.3143 -0.1676  0.1704
  549TMC3    O2 8155   1.337   1.478  12.629 -0.3379  0.1732 -0.2582
  550TMC3    C1 8156   0.432   4.170  12.706 -0.2846  0.3471  0.1640
  550TMC3    C2 8157   0.339   4.192  12.799 -0.3007  0.3382 -0.1616
  550TMC3    C3 8158   0.228   4.258  12.759 -0.5086  0.7829  0.3386
  550TMC3    C4 8159   0.412   4.198  12.577  0.0978 -0.1866  0.4638
  550TMC3    C5 8160   0.297   4.249  12.530 -0.0464 -0.1077  0.1075
  550TMC3    C6 8161   0.195   4.280  12.624 -0.2521  0.4040 -0.1621
  550TMC3     C 8162   0.481   4.037  12.716 -0.1643 -0.0605 -0.0422
  550TMC3     O 8163   0.483   3.980  12.825 -0.0008  0.0687 -0.1554
  550TMC3     H 8164   0.369   4.165  12.900 -2.6611 -0.8016  0.2375
  550TMC3    H1 8165   0.494   4.193  12.507  0.4068 -0.9743  0.8819
  550TMC3    H2 8166   0.096   4.311  12.594 -0.4271 -1.7177 -1.7878
  550TMC3    C7 8167   0.262   4.206  12.395 -0.1224 -0.5055  0.7363
  550TMC3    C8 8168   0.127   4.297  12.854 -0.1044  0.4597  0.0754
  550TMC3    O1 8169   0.322   4.107  12.357  0.2045 -0.3468 -0.6293
  550TMC3    O2 8170   0.012   4.310  12.813  0.2016 -0.2112 -0.5359
  551TMC3    C1 8171   3.022   1.503  13.366  0.1273 -0.0787 -0.2458
  551TMC3    C2 8172   3.097   1.539  13.257 -0.2483 -0.4442  0.2506
  551TMC3    C3 8173   3.193   1.637  13.272  0.3750  0.0383 -0.5368
  551TMC3    C4 8174   3.056   1.548  13.490 -0.3476 -0.4398 -0.0955
  551TMC3    C5 8175   3.155   1.650  13.499 -0.2436  0.5846  0.0790
  551TMC3    C6 8176   3.214   1.697  13.386  0.4105 -0.0563  0.7376
  551TMC3     C 8177   2.906   1.411  13.344  0.3064 -0.0952  0.0247
  551TMC3     O 8178   2.899   1.362  13.230  0.3884 -0.5052  0.1206
  551TMC3     H 8179   3.081   1.480  13.167 -0.3228 -0.4539  0.2701
  551TMC3    H1 8180   2.987   1.517  13.568 -0.1814  0.5998  0.4551
  551TMC3    H2 8181   3.295   1.768  13.386  0.7659 -0.4745 -1.1942
  551TMC3    C7 8182   3.180   1.708  13.626 -0.2376  0.3084 -0.1155
  551TMC3    C8 8183   3.254   1.683  13.149 -0.2041 -0.3974 -0.4021
  551TMC3    O1 8184   3.169   1.629  13.718 -0.5858  0.6197 -0.7403
  551TMC3    O2 8185   3.263   1.592  13.067  0.3569  0.7068 -0.1872
  552MPD2     C 8186   0.186   3.737  14.161  0.1662 -0.6085 -0.0131
  552MPD2    C1 8187   0.163   3.598  14.180  0.2751  0.0172  0.8625
  552MPD2    C2 8188   0.258   3.520  14.250 -0.1775 -0.2063  0.0002
  552MPD2    C3 8189   0.376   3.575  14.296  0.5141  0.4799  0.9032
  552MPD2    C4 8190   0.395   3.715  14.274 -0.8077 -0.1251 -0.4559
  552MPD2    C5 8191   0.305   3.791  14.205 -0.2945  0.2111  0.0964
  552MPD2     H 8192   0.236   3.415  14.268  2.2465 -0.6539  0.3685
  552MPD2    H1 8193   0.479   3.766  14.320 -0.8859  0.2505 -0.7294
  552MPD2    H2 8194   0.111   3.795  14.109 -0.8479 -2.3168 -0.4868
  552MPD2    H3 8195   0.337   3.894  14.193  0.4010  0.0104  0.2303
  552MPD2     N 8196   0.473   3.509  14.376 -0.2866  0.7701 -0.2039
  552MPD2    H5 8197   0.544   3.567  14.420  1.6076 -0.4949 -1.5801
  552MPD2    N1 8198   0.047   3.530  14.145  0.2082  0.2172 -0.0632
  552MPD2    H7 8199   0.048   3.429  14.145  1.8746  0.2384 -1.9769
  553TMC3    C1 8200   4.574   3.491  14.028 -0.1467  0.1420 -0.0834
  553TMC3    C2 8201   4.523   3.520  13.909  0.3074 -0.8613 -0.1820
  553TMC3    C3 8202   4.466   3.420  13.836  0.4326  0.1487  0.2560
  553TMC3    C4 8203   4.563   3.365  14.082 -0.7503  0.2562 -0.1775
  553TMC3    C5 8204   4.493   3.266  14.010 -0.5044 -0.2212 -0.1129
  553TMC3    C6 8205   4.440   3.297  13.889 -0.1478 -0.2873  0.4104
  553TMC3     C 8206   4.663   3.592  14.077  0.0768 -0.2347  0.3124
  553TMC3     O 8207   4.646   3.708  14.055  0.2865 -0.0165  0.1846
  553TMC3     H 8208   4.535   3.622  13.875  0.2691 -0.8882 -0.2767
  553TMC3    H1 8209   4.598   3.349  14.184 -2.1405  0.3433  0.3215
  553TMC3    H2 8210   4.401   3.210  13.838  1.5508 -1.8964  1.9089
  553TMC3    C7 8211   4.511   3.123  14.055 -0.4022  0.6975 -0.5650
  553TMC3    C8 8212   4.494   3.437  13.698  0.0418 -0.3335 -0.7877
  553TMC3    O1 8213   4.427   3.045  14.005  0.0208  0.0464 -0.3994
  553TMC3    O2 8214   4.575   3.520  13.662 -0.0994  0.8990 -0.0582
  554TMC3    C1 8215   1.706   2.620  11.813 -0.1563 -0.7734 -0.5732
  554TMC3    C2 8216   1.614   2.633  11.709  0.0234  0.0163  0.2040
  554TMC3    C3 8217   1.632   2.733  11.618  0.5777 -0.1834  0.1448
  554TMC3    C4 8218   1.826   2.703  11.814 -0.0070 -0.0738  0.1061
  554TMC3    C5 8219   1.840   2.791  11.710  0.2742 -0.4562 -0.1602
  554TMC3    C6 8220   1.741   2.815  11.621  0.0106  0.4770 -0.1543
  554TMC3     C 8221   1.728   2.478  11.838 -0.4249  1.0316  0.2487
  554TMC3     O 8222   1.663   2.393  11.779 -0.0232  1.1142  0.5034
  554TMC3     H 8223   1.526   2.570  11.703 -1.6948  2.3909  0.6274
  554TMC3    H1 8224   1.914   2.682  11.873 -0.1620  1.3278  0.8282
  554TMC3    H2 8225   1.757   2.893  11.547 -0.9188  0.9952  0.1980
  554TMC3    C7 8226   1.952   2.883  11.698  0.0088 -1.1561  0.4892
  554TMC3    C8 8227   1.548   2.737  11.499  0.0760  0.6010 -0.2226
  554TMC3    O1 8228   1.994   2.903  11.581 -0.4997  0.1193 -0.2180
  554TMC3    O2 8229   1.555   2.842  11.435 -0.4948 -0.4417  0.6405
  555TMC3    C1 8230   0.976   2.149  15.215  0.0938 -0.1730  0.3421
  555TMC3    C2 8231   0.982   2.221  15.330  0.5904 -0.1170  0.5817
  555TMC3    C3 8232   0.945   2.156  15.444 -0.2069  0.1761  0.0886
  555TMC3    C4 8233   0.951   2.017  15.210 -0.5946  0.0170 -0.2392
  555TMC3    C5 8234   0.919   1.956  15.330 -1.1591  0.3600  0.7065
  555TMC3    C6 8235   0.910   2.024  15.448 -0.8369 -0.0301 -0.0112
  555TMC3     C 8236   1.037   2.213  15.106 -0.5329 -0.4310 -0.5581
  555TMC3     O 8237   1.082   2.326  15.136  0.3321 -0.1958 -0.2703
  555TMC3     H 8238   0.994   2.328  15.338  0.9130 -0.0432 -0.9994
  555TMC3    H1 8239   0.968   1.951  15.126 -0.5853  0.5311 -0.6398
  555TMC3    H2 8240   0.862   1.978  15.533  0.3375 -0.2304  0.5346
  555TMC3    C7 8241   0.907   1.811  15.334 -0.2354  0.1521 -0.2408
  555TMC3    C8 8242   0.932   2.235  15.562  0.2984  0.2001 -0.5291
  555TMC3    O1 8243   0.823   1.761  15.409  0.3554 -0.1022  0.3596
  555TMC3    O2 8244   0.890   2.351  15.565  0.1540 -0.1073  0.2978
  556MPD2     C 8245   3.624   3.642  10.933  0.1007  0.6418  0.0554
  556MPD2    C1 8246   3.739   3.616  10.999  0.1277  0.0327 -1.1149
  556MPD2    C2 8247   3.849   3.572  10.924 -0.6013 -0.3773  0.1386
  556MPD2    C3 8248   3.835   3.554  10.780 -0.0121  0.4996 -0.6092
  556MPD2    C4 8249   3.722   3.589  10.719 -0.0687  0.6818 -0.9522
  556MPD2    C5 8250   3.618   3.628  10.798 -0.3523 -0.5101  0.0335
  556MPD2     H 8251   3.938   3.546  10.979 -0.9929 -2.7291 -0.3120
  556MPD2    H1 8252   3.705   3.570  10.613 -1.6101 -1.1673 -0.3749
  556MPD2    H2 8253   3.535   3.674  10.987 -0.2148 -1.5651  0.8511
  556MPD2    H3 8254   3.523   3.652  10.751  0.9151  1.0453 -1.7110
  556MPD2     N 8255   3.947   3.481  10.723  0.0597  0.3755 -0.0612
  556MPD2    H5 8256   4.022   3.451  10.784 -0.5158  0.0566  0.4871
  556MPD2    N1 8257   3.761   3.625  11.137 -0.2771 -0.1625  0.1657
  556MPD2    H7 8258   3.855   3.615  11.173  0.4806 -0.8023 -2.0455
  557TMC3    C1 8259   4.034   3.328  10.564  0.3830  0.5395 -0.4169
  557TMC3    C2 8260   4.061   3.320  10.429  0.1148 -0.1356 -0.4515
  557TMC3    C3 8261   4.037   3.205  10.372 -0.3702 -0.2172  0.4111
  557TMC3    C4 8262   3.992   3.228  10.638 -0.0060 -0.5003  0.2857
  557TMC3    C5 8263   3.952   3.120  10.568  0.1036 -0.1681 -0.1337
  557TMC3    C6 8264   3.970   3.105  10.436 -0.3624 -0.0234  0.0694
  557TMC3     C 8265   3.953   3.449  10.589  0.1902 -0.1745  0.0754
  557TMC3     O 8266   3.919   3.523  10.493 -0.9116  0.3303 -0.2549
  557TMC3     H 8267   4.125   3.399  10.390  2.8783 -1.4142  1.4555
  557TMC3    H1 8268   3.965   3.237  10.743  0.0222  1.9815  0.0815
  557TMC3    H2 8269   3.939   3.015  10.384 -0.7502 -0.5470  1.2257
  557TMC3    C7 8270   3.817   3.093  10.615 -0.3563  0.4173 -0.0170
  557TMC3    C8 8271   4.064   3.195  10.229  0.1858 -0.2821 -0.0373
  557TMC3    O1 8272   3.810   3.049  10.728  0.1931 -0.1070 -1.1141
  557TMC3    O2 8273   4.112   3.291  10.172  0.0930 -0.9828  0.2132
  558TMC3    C1 8274   2.325   1.208   9.905 -0.6036  0.4507  0.0345
  558TMC3    C2 8275   2.287   1.330   9.868 -0.4474  0.1972  0.2857
  558TMC3    C3 8276   2.207   1.344   9.760  0.0839  0.0293  0.4648
  558TMC3    C4 8277   2.281   1.096   9.835 -0.2914  0.6964  0.1558
  558TMC3    C5 8278   2.205   1.109   9.726 -0.1929 -0.5874  0.0943
  558TMC3    C6 8279   2.155   1.233   9.690  0.0930 -0.0848  0.1986
  558TMC3     C 8280   2.407   1.200  10.020  0.1070 -0.2784  0.3844
  558TMC3     O 8281   2.460   1.302  10.054 -0.7796  0.1515  0.3846
  558TMC3     H 8282   2.325   1.423   9.909  0.5316  0.5519 -1.3808
  558TMC3    H1 8283   2.298   0.991   9.859  1.4202  0.7320 -0.8529
  558TMC3    H2 8284   2.080   1.243   9.612  1.2318 -1.7786 -1.1370
  558TMC3    C7 8285   2.142   0.984   9.689  0.7437  0.2170  0.3856
  558TMC3    C8 8286   2.105   1.439   9.788  0.8335 -0.1616 -0.4655
  558TMC3    O1 8287   2.220   0.890   9.679  0.0827 -0.1051 -0.5091
  558TMC3    O2 8288   2.037   1.487   9.696 -0.7715 -0.4403 -0.2069
  559MPD2     C 8289   1.854   2.426  10.588 -0.2664 -0.2415  0.0597
  559MPD2    C1 8290   1.801   2.311  10.647  0.2782  0.6251  0.0056
  559MPD2    C2 8291   1.867   2.258  10.753  0.6806  0.3669 -0.0072
  559MPD2    C3 8292   1.990   2.311  10.797  0.5810 -0.2224  0.4527
  559MPD2    C4 8293   2.041   2.419  10.732 -0.4392  0.4436 -0.0905
  559MPD2    C5 8294   1.976   2.476  10.626  0.1091 -0.4080  0.0722
  559MPD2     H 8295   1.821   2.181  10.813  1.5171 -0.9493 -1.0544
  559MPD2    H1 8296   2.146   2.441  10.745 -0.2671  1.1684 -2.5610
  559MPD2    H2 8297   1.813   2.467  10.497 -1.1126  0.6846  0.8491
  559MPD2    H3 8298   2.019   2.555  10.566 -0.2918 -0.8725 -0.8318
  559MPD2     N 8299   2.061   2.240  10.897 -0.4466 -0.0549 -0.6586
  559MPD2    H5 8300   2.013   2.154  10.922  0.9343 -0.5401  0.3599
  559MPD2    N1 8301   1.666   2.266  10.603  0.2807 -0.6109 -0.0728
  559MPD2    H7 8302   1.616   2.330  10.542 -1.5515 -0.5582  1.4601
  560TMC3    C1 8303   2.243   2.178  11.050  0.2215  0.0197 -0.8641
  560TMC3    C2 8304   2.195   2.050  11.052 -0.5696  0.0486  0.1404
  560TMC3    C3 8305   2.269   1.959  11.120 -0.0285  0.2319  0.3184
  560TMC3    C4 8306   2.356   2.221  11.119  0.0188  0.0860 -0.5526
  560TMC3    C5 8307   2.420   2.125  11.192 -0.2443 -0.4452  0.4717
  560TMC3    C6 8308   2.383   1.993  11.192  0.4412 -0.1974  0.9760
  560TMC3     C 8309   2.181   2.281  10.963  0.2710  0.3848 -0.2245
  560TMC3     O 8310   2.239   2.386  10.951  0.3910 -0.2091 -0.4284
  560TMC3     H 8311   2.104   2.022  11.001 -0.8806 -0.9337  1.2491
  560TMC3    H1 8312   2.397   2.321  11.128 -2.9419  1.2528  0.0326
  560TMC3    H2 8313   2.445   1.919  11.242  1.2500  0.4044  0.8735
  560TMC3    C7 8314   2.531   2.153  11.284  1.0673  0.4319  0.3739
  560TMC3    C8 8315   2.249   1.824  11.053 -0.1051  0.3811  0.6678
  560TMC3    O1 8316   2.542   2.075  11.375  0.2176  0.3863  0.4346
  560TMC3    O2 8317   2.201   1.827  10.938 -0.1032 -0.0190 -0.0969
  561TMC3    C1 8318   4.603   1.093  11.553 -1.1427 -0.5870  0.0943
  561TMC3    C2 8319   4.515   1.021  11.630 -0.0735  0.4236  0.2271
  561TMC3    C3 8320   4.406   1.094  11.663 -0.1140 -0.0417  0.1562
  561TMC3    C4 8321   4.581   1.217  11.505 -0.0956 -0.3825 -0.3020
  561TMC3    C5 8322   4.456   1.268  11.522 -0.1949 -0.4313  0.1673
  561TMC3    C6 8323   4.367   1.210  11.609 -0.3532 -0.8030  0.1353
  561TMC3     C 8324   0.017   1.048  11.541  0.2820  0.2233  0.2293
  561TMC3     O 8325   0.029   0.929  11.507 -0.0987 -1.1866 -0.2701
  561TMC3     H 8326   4.532   0.919  11.661 -2.9625  0.0222  0.5487
  561TMC3    H1 8327   4.656   1.269  11.447  1.4705 -1.7624  0.4732
  561TMC3    H2 8328   4.267   1.253  11.612 -0.7083 -1.6416  0.1412
  561TMC3    C7 8329   4.419   1.392  11.464  0.7622 -1.0667  0.1120
  561TMC3    C8 8330   4.325   1.031  11.767  0.1918 -0.1398  0.1544
  561TMC3    O1 8331   4.308   1.436  11.500 -0.2446  0.1382  0.1316
  561TMC3    O2 8332   4.362   0.921  11.808  0.7687 -0.4306 -1.0658
  562TMC3    C1 8333   0.669   2.416  16.379 -0.5251 -0.4537 -0.2895
  562TMC3    C2 8334   0.585   2.520  16.338 -0.5304  0.2105  0.1877
  562TMC3    C3 8335   0.512   2.495  16.223  0.5181 -0.7189 -0.1110
  562TMC3    C4 8336   0.664   2.292  16.313 -0.8068 -0.1297  0.0819
  562TMC3    C5 8337   0.570   2.275  16.216 -0.0474 -0.5034  0.4569
  562TMC3    C6 8338   0.490   2.377  16.167  0.4826  0.3956  0.5275
  562TMC3     C 8339   0.763   2.436  16.490  0.4140 -0.2210  1.1077
  562TMC3     O 8340   0.825   2.339  16.525 -0.0209  0.4552 -0.8479
  562TMC3     H 8341   0.593   2.619  16.382  1.4076  0.9178 -1.7869
  562TMC3    H1 8342   0.742   2.217  16.328  0.0338  0.8180  0.4161
  562TMC3    H2 8343   0.412   2.358  16.094  0.4976  0.8716  0.3932
  562TMC3    C7 8344   0.519   2.142  16.202  0.2176  0.0185 -0.8755
  562TMC3    C8 8345   0.405   2.591  16.209 -0.6326  0.1403 -0.1869
  562TMC3    O1 8346   0.434   2.130  16.117  0.2366 -0.4201  0.1556
  562TMC3    O2 8347   0.363   2.651  16.304  0.1299  0.7173 -0.0152
  563MPD2     C 8348   3.023   4.031  15.836 -0.2087 -0.0341 -0.4532
  563MPD2    C1 8349   3.086   4.134  15.902 -0.0861 -0.0769  0.4193
  563MPD2    C2 8350   3.220   4.116  15.932  0.2472  0.0897  0.3882
  563MPD2    C3 8351   3.291   4.009  15.869  0.0096  0.2068  0.1985
  563MPD2    C4 8352   3.223   3.927  15.785  0.6666  0.1120 -0.3562
  563MPD2    C5 8353   3.090   3.932  15.774 -0.4338 -0.5809 -0.2215
  563MPD2     H 8354   3.271   4.186  15.997  0.1822 -0.7269  1.3186
  563MPD2    H1 8355   3.275   3.839  15.751  1.4356  0.9709 -1.4177
  563MPD2    H2 8356   2.920   4.028  15.802  1.0091 -0.1392 -4.2012
  563MPD2    H3 8357   3.050   3.842  15.729 -1.1936  0.7771 -2.2614
  563MPD2     N 8358   3.426   3.988  15.915  0.1157 -0.4771 -0.3779
  563MPD2    H5 8359   3.445   4.053  15.991 -0.6614 -1.4765  0.6827
  563MPD2    N1 8360   3.007   4.235  15.964  0.0280  0.2841 -0.7030
  563MPD2    H7 8361   2.908   4.216  15.971  0.3424 -0.5207  1.4416
  564TMC3    C1 8362   2.985   4.330  16.176 -0.4501  1.2750  0.5470
  564TMC3    C2 8363   2.860   4.274  16.185 -0.3468 -0.8314 -0.4628
  564TMC3    C3 8364   2.812   4.225  16.305  0.4304  0.0723 -0.2956
  564TMC3    C4 8365   3.071   4.334  16.286 -0.1385  0.9901 -0.6296
  564TMC3    C5 8366   3.023   4.271  16.401 -0.2233 -0.1322  0.0698
  564TMC3    C6 8367   2.893   4.221  16.415  0.5727  0.1614 -0.1195
  564TMC3     C 8368   3.058   4.330  16.047 -0.2859  0.5465  0.7815
  564TMC3     O 8369   3.170   4.372  16.051 -0.4725 -0.1175 -1.0305
  564TMC3     H 8370   2.792   4.286  16.101  0.3164 -1.6367 -1.1230
  564TMC3    H1 8371   3.175   4.364  16.289  0.1675 -0.0097 -1.2089
  564TMC3    H2 8372   2.863   4.164  16.502 -0.5881  1.9759  0.6636
  564TMC3    C7 8373   3.111   4.165  16.447 -0.6089  0.2546  1.0625
  564TMC3    C8 8374   2.744   4.099  16.293  0.0068 -0.5904  0.0017
  564TMC3    O1 8375   3.079   4.119  16.553  0.4652  0.0674 -0.2579
  564TMC3    O2 8376   2.706   4.045  16.397  0.7945 -0.1487 -0.2671
  565TMC3    C1 8377   3.397   0.052  10.544 -0.6229  0.2557 -0.0123
  565TMC3    C2 8378   3.445   0.019  10.668 -0.0650  0.1425  0.0028
  565TMC3    C3 8379   3.410   4.627  10.728  0.2815 -0.3658 -0.3116
  565TMC3    C4 8380   3.320   4.686  10.479 -0.0787 -0.5497  0.3099
  565TMC3    C5 8381   3.273   4.575  10.544  0.2194  0.4971  0.1230
  565TMC3    C6 8382   3.327   4.536  10.665  0.3417 -0.0647 -0.6951
  565TMC3     C 8383   3.466   0.147  10.461 -0.3022 -0.2953  0.2581
  565TMC3     O 8384   3.399   0.182  10.363  0.4457 -0.4393  0.2181
  565TMC3     H 8385   3.484   0.101  10.727  1.1625 -1.1066  0.9285
  565TMC3    H1 8386   3.285   4.720  10.382 -1.3213 -0.1129  0.9072
  565TMC3    H2 8387   3.285   4.456  10.725  0.3220 -0.9609 -1.9124
  565TMC3    C7 8388   3.179   4.497  10.460 -0.0441 -0.0239 -0.0932
  565TMC3    C8 8389   3.480   4.584  10.848 -0.1538  0.0739 -0.3739
  565TMC3    O1 8390   3.122   4.555  10.369 -0.0601 -0.6348 -0.3216
  565TMC3    O2 8391   3.514   4.676  10.922  0.5455 -0.9455  0.3432
  566MPD2     C 8392   0.355   1.670  14.021  0.1444 -0.1685  0.4423
  566MPD2    C1 8393   0.470   1.595  13.998  0.7780 -0.6633  0.6114
  566MPD2    C2 8394   0.482   1.535  13.876 -0.0386 -0.2806 -0.2273
  566MPD2    C3 8395   0.392   1.553  13.767  0.6325 -1.0516 -0.3548
  566MPD2    C4 8396   0.272   1.611  13.797  0.5369  0.3652 -0.4377
  566MPD2    C5 8397   0.253   1.666  13.923  0.3500 -0.2166 -0.9315
  566MPD2     H 8398   0.574   1.480  13.860  0.8784  0.7477  1.4397
  566MPD2    H1 8399   0.194   1.625  13.722  0.0682 -1.3362 -0.2724
  566MPD2    H2 8400   0.334   1.717  14.117 -0.8801 -0.0225  0.1423
  566MPD2    H3 8401   0.158   1.713  13.945  1.3939  0.2215  2.6499
  566MPD2     N 8402   0.412   1.501  13.632  0.1469  0.3944  0.0717
  566MPD2    H5 8403   0.334   1.501  13.567  0.0323  0.0749  0.2087
  566MPD2    N1 8404   0.574   1.597  14.099 -0.0037  0.0935 -0.3854
  566MPD2    H7 8405   0.549   1.636  14.189  0.4069  0.9024 -0.6122
  567TMC3    C1 8406   0.797   1.603  14.172  0.7554 -1.0668  1.1884
  567TMC3    C2 8407   0.901   1.683  14.134  0.6814 -0.9433 -0.2102
  567TMC3    C3 8408   0.963   1.758  14.234 -0.0251  0.2858 -0.3754
  567TMC3    C4 8409   0.762   1.586  14.300  0.2271  0.1668 -0.2436
  567TMC3    C5 8410   0.838   1.646  14.397 -0.3681 -0.5994 -0.5612
  567TMC3    C6 8411   0.933   1.737  14.363 -0.1134  0.4373 -0.1941
  567TMC3     C 8412   0.705   1.565  14.069  0.2010 -0.0418  0.7958
  567TMC3     O 8413   0.753   1.529  13.965 -0.0865  0.1846  0.6503
  567TMC3     H 8414   0.942   1.695  14.034 -0.1743 -1.4825 -0.6268
  567TMC3    H1 8415   0.689   1.512  14.332  0.2418  0.9727  1.7003
  567TMC3    H2 8416   0.982   1.786  14.447 -0.4205 -0.5086  0.5437
  567TMC3    C7 8417   0.857   1.578  14.527 -0.3254  0.0703 -0.1163
  567TMC3    C8 8418   1.039   1.871  14.185  0.1419  0.6625 -0.7550
  567TMC3    O1 8419   0.972   1.592  14.564  0.3722  0.0362  0.2198
  567TMC3    O2 8420   1.026   1.910  14.069  0.0121 -0.4475  0.1624
  568MPD2     C 8421   2.904   2.536  16.681 -0.0199 -0.3029  0.8033
  568MPD2    C1 8422   2.905   2.622  16.792 -0.1137  0.0128 -0.0649
  568MPD2    C2 8423   2.933   2.756  16.779 -0.5812  0.6780 -0.4661
  568MPD2    C3 8424   2.934   2.814  16.653 -0.3512  0.0902 -0.2214
  568MPD2    C4 8425   2.912   2.731  16.553 -0.0476 -0.4073 -0.2555
  568MPD2    C5 8426   2.912   2.597  16.562  0.0004 -0.4007  0.8178
  568MPD2     H 8427   2.952   2.817  16.866 -1.5141  0.8753 -0.3984
  568MPD2    H1 8428   2.916   2.767  16.451 -1.2086  0.1420 -0.1084
  568MPD2    H2 8429   2.898   2.427  16.682 -0.9462 -0.2495  0.6973
  568MPD2    H3 8430   2.898   2.546  16.467  1.4741 -0.1342  0.4506
  568MPD2     N 8431   2.948   2.956  16.643  0.1069 -0.3174 -0.1142
  568MPD2    H5 8432   2.951   2.995  16.736  0.1832 -2.4167  0.7720
  568MPD2    N1 8433   2.900   2.549  16.914 -0.3255  0.4580 -0.1239
  568MPD2    H7 8434   2.894   2.447  16.916 -0.0221  0.4246 -1.0451
  569TMC3    C1 8435   2.956   3.171  16.550  0.1457 -0.4592  0.6195
  569TMC3    C2 8436   3.048   3.215  16.638 -0.3123  0.2580  0.5444
  569TMC3    C3 8437   3.074   3.350  16.642 -0.1363  0.0124  0.4754
  569TMC3    C4 8438   2.900   3.258  16.464  0.0316  0.4477  0.1978
  569TMC3    C5 8439   2.927   3.395  16.467  0.6298 -0.0500  0.1421
  569TMC3    C6 8440   3.013   3.441  16.560 -0.2314 -0.6147  0.1682
  569TMC3     C 8441   2.945   3.029  16.521  0.4748  0.4384 -0.2159
  569TMC3     O 8442   2.903   2.996  16.410 -0.7199  0.4984  0.4088
  569TMC3     H 8443   3.102   3.140  16.695  0.1329 -0.2791 -0.5999
  569TMC3    H1 8444   2.835   3.214  16.389 -0.6545 -0.6794  1.4552
  569TMC3    H2 8445   3.049   3.543  16.549 -1.2933 -0.3696 -1.0123
  569TMC3    C7 8446   2.906   3.476  16.347  0.8987  0.3901  0.3853
  569TMC3    C8 8447   3.162   3.398  16.750  0.7366  0.7716  0.1322
  569TMC3    O1 8448   2.859   3.406  16.255 -0.1915 -0.1561 -0.5132
  569TMC3    O2 8449   3.230   3.306  16.799  0.5196 -0.3265 -0.3029
  570TMC3    C1 8450   2.138   1.479  16.290 -0.0869  0.6923  0.6248
  570TMC3    C2 8451   2.226   1.468  16.185  0.9550  0.9295  0.4541
  570TMC3    C3 8452   2.232   1.562  16.091  0.2329 -0.2615  0.1216
  570TMC3    C4 8453   2.061   1.589  16.309 -0.1647 -0.0643 -0.0699
  570TMC3    C5 8454   2.059   1.682  16.204 -0.5623 -0.1026 -0.4478
  570TMC3    C6 8455   2.148   1.670  16.094 -0.3518  0.2775  0.8623
  570TMC3     C 8456   2.141   1.362  16.383  0.3341 -0.1648 -0.0691
  570TMC3     O 8457   2.186   1.251  16.346 -0.0182 -0.1131  0.0889
  570TMC3     H 8458   2.303   1.391  16.185 -1.0187 -1.0337  0.3059
  570TMC3    H1 8459   1.986   1.604  16.386  1.2024  1.5136  0.9654
  570TMC3    H2 8460   2.144   1.732  16.005 -0.3854  0.1655  0.7868
  570TMC3    C7 8461   1.979   1.800  16.215 -0.5508  0.1830  0.3598
  570TMC3    C8 8462   2.343   1.567  15.994 -0.8184 -0.3395 -0.0406
  570TMC3    O1 8463   1.947   1.823  16.332  0.3707  0.7224  0.2100
  570TMC3    O2 8464   2.366   1.678  15.945  0.1056 -0.6968  0.3944
  571MPD2     C 8465   0.208   3.081  17.352 -0.7840 -0.4025 -0.0676
  571MPD2    C1 8466   0.187   3.027  17.479 -0.4060 -0.3853 -0.0418
  571MPD2    C2 8467   0.205   3.105  17.593  0.2479  0.5784 -0.3144
  571MPD2    C3 8468   0.243   3.237  17.581  0.0919  0.4990  0.0024
  571MPD2    C4 8469   0.278   3.284  17.460  0.3639  0.3001 -0.5985
  571MPD2    C5 8470   0.256   3.207  17.345 -0.1060 -0.6189 -0.2883
  571MPD2     H 8471   0.187   3.060   0.003 -0.2312 -1.2210 -1.2288
  571MPD2    H1 8472   0.320   3.383  17.471 -0.7650  0.8095 -0.9464
  571MPD2    H2 8473   0.205   3.012  17.268  2.2445 -1.1768  0.4571
  571MPD2    H3 8474   0.283   3.253  17.251 -1.1105 -0.5013 -0.5173
  571MPD2     N 8475   0.268   3.321   0.004 -0.1550 -0.1418 -0.2460
  571MPD2    H5 8476   0.320   3.408  17.680 -2.4460  1.6072  2.5690
  571MPD2    N1 8477   0.142   2.893  17.491 -0.7550 -0.7283  0.2144
  571MPD2    H7 8478   0.136   2.845  17.402 -2.6048  1.0864 -0.6420
  572TMC3    C1 8479   0.263   3.385   0.238  0.2416  0.0043 -0.5192
  572TMC3    C2 8480   0.258   3.339   0.367  0.5351 -0.0712 -0.6052
  572TMC3    C3 8481   0.281   3.434   0.460  0.7835 -0.7810  0.4794
  572TMC3    C4 8482   0.268   3.520   0.200  0.1538  0.1479  0.3113
  572TMC3    C5 8483   0.283   3.608   0.306  0.0078 -0.3790  0.6261
  572TMC3    C6 8484   0.304   3.564   0.436  0.1281 -0.6491  0.1257
  572TMC3     C 8485   0.224   3.288   0.133 -0.9336  0.2021  0.0484
  572TMC3     O 8486   0.172   3.183   0.171  0.2145 -0.4292  0.0263
  572TMC3     H 8487   0.260   3.233   0.387 -1.8401  0.0871  0.4311
  572TMC3    H1 8488   0.265   3.557   0.098  1.8745  2.2950  1.0471
  572TMC3    H2 8489   0.324   3.631   0.519  2.5146 -1.9955  0.6339
  572TMC3    C7 8490   0.318   3.739   0.263 -0.1408 -0.4309  0.1374
  572TMC3    C8 8491   0.276   3.380   0.599 -0.4932  0.2226 -0.0872
  572TMC3    O1 8492   0.306   3.764   0.142  0.0990  0.0540  0.2859
  572TMC3    O2 8493   0.294   3.260   0.615 -0.1014  0.5873  0.5779
  573MPD2     C 8494   1.940   3.440   1.171  0.9980 -0.0649  0.8002
  573MPD2    C1 8495   2.025   3.544   1.129 -0.0358 -0.0644 -0.0729
  573MPD2    C2 8496   2.028   3.574   0.994 -0.2873  0.3617  0.4749
  573MPD2    C3 8497   1.946   3.515   0.895  0.2624 -0.5853 -0.5977
  573MPD2    C4 8498   1.869   3.410   0.945 -0.1425 -0.4200  0.1188
  573MPD2    C5 8499   1.868   3.374   1.077 -0.2175 -0.2764  0.2044
  573MPD2     H 8500   2.076   3.663   0.958  0.7752 -0.7871 -0.9443
  573MPD2    H1 8501   1.796   3.367   0.877  1.6955  0.0332 -2.1224
  573MPD2    H2 8502   1.934   3.400   1.271 -0.3515 -1.0801  0.3160
  573MPD2    H3 8503   1.815   3.284   1.107 -0.7643 -0.6217 -1.8254
  573MPD2     N 8504   1.934   3.548   0.762  0.0633 -0.2175 -0.2516
  573MPD2    H5 8505   1.866   3.500   0.704 -1.8190 -0.4683  2.1701
  573MPD2    N1 8506   2.118   3.594   1.223  0.0672  0.4474  0.1532
  573MPD2    H7 8507   2.110   3.570   1.322  0.4145 -0.2257  0.0122
  574TMC3    C1 8508   1.926   3.687   0.574  0.4762 -0.5219 -0.5480
  574TMC3    C2 8509   1.791   3.663   0.561  0.3062 -0.0068 -0.0141
  574TMC3    C3 8510   1.728   3.709   0.451 -0.0520 -0.3989 -0.3351
  574TMC3    C4 8511   2.001   3.733   0.476  0.1030 -0.4175 -0.2254
  574TMC3    C5 8512   1.937   3.779   0.358 -0.1445 -0.2130  0.1168
  574TMC3    C6 8513   1.800   3.761   0.341 -0.8242  0.4920  0.2292
  574TMC3     C 8514   1.982   3.666   0.704  0.2250  0.0284  0.1305
  574TMC3     O 8515   2.065   3.745   0.749  0.5233 -0.2807 -0.3131
  574TMC3     H 8516   1.727   3.601   0.623 -0.5921  1.2499  0.3236
  574TMC3    H1 8517   2.108   3.743   0.492 -0.1829  2.2890  0.0425
  574TMC3    H2 8518   1.751   3.819   0.264  2.4207  0.8441 -1.5686
  574TMC3    C7 8519   2.006   3.846   0.250  0.0374 -0.5410  0.2109
  574TMC3    C8 8520   1.583   3.725   0.452  0.2935  0.5526 -0.3121
  574TMC3    O1 8521   1.944   3.869   0.147 -0.6807  0.2938 -0.0687
  574TMC3    O2 8522   1.523   3.638   0.517  0.3404 -1.0034 -0.7727
  575TMC3    C1 8523   4.011   0.100  11.484 -0.8977 -1.1676 -0.4385
  575TMC3    C2 8524   3.996   0.002  11.580 -0.1060 -0.3467  0.3673
  575TMC3    C3 8525   3.978   4.596  11.547  0.7737 -0.4997  0.2303
  575TMC3    C4 8526   3.998   0.066  11.351 -0.7350  0.2600 -0.2699
  575TMC3    C5 8527   3.970   4.653  11.329  0.1461  0.6132  0.3258
  575TMC3    C6 8528   3.959   4.555  11.427 -0.3161 -0.5525 -0.1939
  575TMC3     C 8529   4.075   0.221  11.518 -0.6026  0.2454  0.1595
  575TMC3     O 8530   4.148   0.273  11.436  0.5566 -0.2418  0.3986
  575TMC3     H 8531   4.021   0.028  11.682 -0.5322 -0.1840  0.4295
  575TMC3    H1 8532   4.000   0.134  11.266 -2.3259 -0.3132 -0.7766
  575TMC3    H2 8533   3.936   4.452  11.402  1.5792 -0.5288 -2.0317
  575TMC3    C7 8534   3.894   4.621  11.217  0.4816 -0.3805 -0.2919
  575TMC3    C8 8535   3.936   4.505  11.653  0.2652  0.1509  0.4146
  575TMC3    O1 8536   3.800   4.695  11.186  0.1497  0.5245  0.4178
  575TMC3    O2 8537   3.918   4.385  11.624 -0.3794  0.1436  0.2715
  576MPD2     C 8538   3.240   1.737  12.566  0.3862  0.0408  0.9140
  576MPD2    C1 8539   3.306   1.801  12.467 -1.4376 -0.5225 -0.1855
  576MPD2    C2 8540   3.293   1.936  12.447 -0.5229  0.2881 -0.2282
  576MPD2    C3 8541   3.196   2.006  12.522  0.0724 -0.2879 -0.0241
  576MPD2    C4 8542   3.122   1.938  12.611 -0.0993 -0.1842 -0.6899
  576MPD2    C5 8543   3.133   1.804  12.631 -0.3577 -0.0121 -0.1739
  576MPD2     H 8544   3.362   1.981  12.377 -0.0849  0.1512  0.1163
  576MPD2    H1 8545   3.040   1.972  12.673  1.3986 -2.2418  2.3959
  576MPD2    H2 8546   3.267   1.639  12.604 -1.9011 -1.3520 -1.0506
  576MPD2    H3 8547   3.079   1.762  12.714 -0.5318  0.4544 -0.0514
  576MPD2     N 8548   3.179   2.148  12.502  0.1744 -0.4625  0.4469
  576MPD2    H5 8549   3.234   2.185  12.425  0.3938 -0.7744  0.4534
  576MPD2    N1 8550   3.403   1.738  12.385 -0.2063 -0.7455 -0.1447
  576MPD2    H7 8551   3.448   1.807  12.324  0.8665 -1.6525 -0.3708
  577TMC3    C1 8552   3.572   1.586  12.295 -0.8361  0.1010 -0.2975
  577TMC3    C2 8553   3.614   1.458  12.274  0.2918  0.0620 -0.7665
  577TMC3    C3 8554   3.742   1.441  12.231 -0.4326 -0.1620 -0.4320
  577TMC3    C4 8555   3.645   1.692  12.255 -0.2521  0.1270  0.0905
  577TMC3    C5 8556   3.772   1.665  12.198 -0.0323  0.0592 -0.1283
  577TMC3    C6 8557   3.829   1.539  12.189 -0.7759 -0.9957 -0.0375
  577TMC3     C 8558   3.454   1.606  12.384 -0.1855 -0.1603  0.3827
  577TMC3     O 8559   3.427   1.515  12.462 -0.4192 -0.3110 -0.9491
  577TMC3     H 8560   3.558   1.371  12.307 -2.8968  2.1444 -0.7198
  577TMC3    H1 8561   3.622   1.797  12.267  0.5868  0.0190  2.6109
  577TMC3    H2 8562   3.922   1.537  12.134 -0.6884  1.4507 -0.0106
  577TMC3    C7 8563   3.858   1.775  12.166  0.2411 -0.3202 -0.0469
  577TMC3    C8 8564   3.792   1.306  12.219  0.1957  0.1309 -0.4739
  577TMC3    O1 8565   3.979   1.770  12.187 -0.2474  0.0812 -0.3894
  577TMC3    O2 8566   3.741   1.216  12.286 -0.1579 -0.0167  0.0550
  578MPD2     C 8567   1.988   1.692   1.326 -0.0026  0.4673  0.0946
  578MPD2    C1 8568   2.072   1.591   1.274  0.3277  0.4472 -0.2615
  578MPD2    C2 8569   2.119   1.486   1.347 -0.2632 -0.1475  0.5630
  578MPD2    C3 8570   2.095   1.479   1.478 -0.0362  0.2423  0.4274
  578MPD2    C4 8571   2.012   1.580   1.540  0.1941 -0.3460  0.5653
  578MPD2    C5 8572   1.959   1.683   1.454  0.1484 -0.0025  0.6155
  578MPD2     H 8573   2.182   1.413   1.298 -0.4765 -0.9456  1.4695
  578MPD2    H1 8574   1.989   1.587   1.645  0.3811 -2.2369  0.7485
  578MPD2    H2 8575   1.965   1.777   1.262  1.3853  0.7437 -0.0474
  578MPD2    H3 8576   1.893   1.755   1.500  0.0648 -0.8319  1.7888
  578MPD2     N 8577   2.168   1.375   1.541  1.0748 -0.6035  0.4550
  578MPD2    H5 8578   2.212   1.306   1.481  1.0727  1.7857 -2.3083
  578MPD2    N1 8579   2.084   1.597   1.127 -0.2460 -0.0900 -0.3455
  578MPD2    H7 8580   2.044   1.675   1.077 -0.7126 -0.7638 -1.0275
  579TMC3    C1 8581   2.249   1.253   1.723 -0.3543  0.4903 -0.3477
  579TMC3    C2 8582   2.308   1.259   1.842 -0.1417 -0.3939 -0.6003
  579TMC3    C3 8583   2.420   1.192   1.864 -0.3183 -0.3861 -0.7135
  579TMC3    C4 8584   2.280   1.153   1.634  0.1420 -0.6646  0.8585
  579TMC3    C5 8585   2.400   1.088   1.659 -0.2517  0.1626  0.3588
  579TMC3    C6 8586   2.473   1.097   1.778  0.3721  0.4916 -0.0314
  579TMC3     C 8587   2.181   1.373   1.681 -0.0583 -0.4068  0.5202
  579TMC3     O 8588   2.140   1.442   1.770  0.0458  0.1283  0.2054
  579TMC3     H 8589   2.284   1.347   1.901 -0.8477 -0.8680 -0.1747
  579TMC3    H1 8590   2.221   1.128   1.547  0.9405 -2.9178  0.9514
  579TMC3    H2 8591   2.576   1.064   1.788  0.5712  1.4941  1.2370
  579TMC3    C7 8592   2.451   0.988   1.567 -1.4816 -0.2220 -0.0484
  579TMC3    C8 8593   2.498   1.237   1.979  0.1797 -0.3654  0.4647
  579TMC3    O1 8594   2.530   0.911   1.615  0.2015  0.0946  0.1112
  579TMC3    O2 8595   2.423   1.272   2.070  0.3754 -0.8789 -0.6629
  580TMC3    C1 8596   1.410   0.751  11.811 -0.6829  0.1619  0.4682
  580TMC3    C2 8597   1.457   0.704  11.695 -0.0870 -0.6594  0.6068
  580TMC3    C3 8598   1.464   0.571  11.686 -0.1613  0.3057  0.7124
  580TMC3    C4 8599   1.351   0.677  11.909 -0.1493  0.3875 -0.1961
  580TMC3    C5 8600   1.353   0.539  11.893 -0.8078  0.1194  0.2009
  580TMC3    C6 8601   1.421   0.485  11.787 -0.2683 -0.2436 -0.4496
  580TMC3     C 8602   1.381   0.898  11.823  0.1130 -0.0752 -0.3380
  580TMC3     O 8603   1.275   0.926  11.880  0.6086 -0.2368  0.4190
  580TMC3     H 8604   1.497   0.775  11.624 -1.2255 -1.3084 -0.6752
  580TMC3    H1 8605   1.309   0.728  11.995 -1.2189 -0.8616  0.0245
  580TMC3    H2 8606   1.440   0.379  11.773  0.3569 -0.3378  1.1428
  580TMC3    C7 8607   1.327   0.447  12.002 -0.0451 -0.3883  0.1108
  580TMC3    C8 8608   1.483   0.520  11.556  0.4377  0.6697 -0.9525
  580TMC3    O1 8609   1.348   0.480  12.119  0.3038 -0.0083 -0.7634
  580TMC3    O2 8610   1.415   0.418  11.536 -1.0319  0.7416 -0.3838
  581MPD2     C 8611   4.267   0.092  14.834  0.4378  0.7190  0.2436
  581MPD2    C1 8612   4.136   0.115  14.842 -0.0092  0.1882 -0.6196
  581MPD2    C2 8613   4.069   0.164  14.730  0.1070 -0.3601 -0.0954
  581MPD2    C3 8614   4.136   0.208  14.615 -0.2671 -0.4771 -0.1611
  581MPD2    C4 8615   4.271   0.180  14.602  0.0075 -0.2214 -0.1560
  581MPD2    C5 8616   4.328   0.128  14.712  0.7737 -0.4856 -0.2819
  581MPD2     H 8617   3.961   0.175  14.734  0.2178  0.6101  0.3029
  581MPD2    H1 8618   4.337   0.207  14.520 -1.3311  1.5345 -0.6695
  581MPD2    H2 8619   4.327   0.040  14.908  1.4374 -0.1863 -1.1787
  581MPD2    H3 8620   4.435   0.110  14.713  0.5869 -1.6149 -0.9496
  581MPD2     N 8621   4.065   0.285  14.522  0.3893 -0.4143  0.4170
  581MPD2    H5 8622   3.969   0.308  14.548 -0.2961 -0.4286 -2.1034
  581MPD2    N1 8623   4.052   0.089  14.958 -0.3602  0.0481 -0.0441
  581MPD2    H7 8624   3.962   0.136  14.950  0.2230  1.4241  1.3772
  582TMC3    C1 8625   3.993   0.030  15.188 -0.6803 -0.5297 -0.6516
  582TMC3    C2 8626   4.040   0.065  15.314  0.0119 -0.4440 -0.9179
  582TMC3    C3 8627   3.945   0.081  15.413  0.4750 -0.0195  0.0925
  582TMC3    C4 8628   3.855   0.029  15.159 -0.0657  0.0533  0.2469
  582TMC3    C5 8629   3.764   0.050  15.257 -0.0046 -0.8724  0.4594
  582TMC3    C6 8630   3.809   0.059  15.389 -0.8189  0.0848 -0.7276
  582TMC3     C 8631   4.096   0.029  15.082 -0.7965  0.5494 -0.1999
  582TMC3     O 8632   4.203   4.710  15.124 -0.1562  0.3576  0.2211
  582TMC3     H 8633   4.145   0.078  15.336 -0.5601  3.3935 -0.3894
  582TMC3    H1 8634   3.827   0.011  15.056  0.4201  1.7514 -0.1788
  582TMC3    H2 8635   3.738   0.064  15.470 -0.0685  1.0571 -0.1319
  582TMC3    C7 8636   3.638   0.096  15.234  0.4711  0.0870 -0.7471
  582TMC3    C8 8637   3.985   0.142  15.539  0.4241  0.2717 -0.0310
  582TMC3    O1 8638   3.558   0.067  15.325 -0.4817  0.1021  0.2155
  582TMC3    O2 8639   3.898   0.221  15.576  0.2154  0.8070  0.5230
  583MPD2     C 8640   4.182   2.013  17.070  0.1100  0.5017 -0.2531
  583MPD2    C1 8641   4.152   2.123  16.994 -1.1310 -0.7120 -0.6178
  583MPD2    C2 8642   4.113   2.238  17.058  0.2689  0.6709 -0.7230
  583MPD2    C3 8643   4.106   2.249  17.196 -0.7451 -0.1513 -0.0545
  583MPD2    C4 8644   4.150   2.140  17.271 -0.2027 -0.0190 -0.1170
  583MPD2    C5 8645   4.187   2.032  17.207 -0.1069  0.3002  0.6015
  583MPD2     H 8646   4.082   2.329  17.007 -2.0551  0.8250  0.9980
  583MPD2    H1 8647   4.153   2.127  17.379  0.6767  1.4151  0.0319
  583MPD2    H2 8648   4.214   1.917  17.031 -2.2976 -0.7824  0.9498
  583MPD2    H3 8649   4.224   1.953  17.272 -0.1677  0.8818  1.3318
  583MPD2     N 8650   4.050   2.366  17.260 -0.3403 -0.5394  0.4048
  583MPD2    H5 8651   4.012   2.435  17.197  0.2429  0.5555  1.2450
  583MPD2    N1 8652   4.168   2.118  16.857  0.9024 -0.1024 -0.3513
  583MPD2    H7 8653   4.148   2.206  16.811  1.9403  0.4421  0.2445
  584TMC3    C1 8654   3.996   2.495  17.442 -0.1532  0.3370 -0.5331
  584TMC3    C2 8655   4.018   2.614  17.371  0.0246  0.1582  0.2110
  584TMC3    C3 8656   4.024   2.736  17.435 -0.3143  1.0894 -0.2739
  584TMC3    C4 8657   3.971   2.507  17.577  0.5077 -0.4743  1.3069
  584TMC3    C5 8658   3.969   2.630  17.635 -0.8234  0.1553 -0.1542
  584TMC3    C6 8659   4.002   2.743  17.571 -0.7384  0.5194  0.4055
  584TMC3     C 8660   4.045   2.375  17.395 -0.5028  0.2579  0.7928
  584TMC3     O 8661   4.062   2.288  17.481 -0.0069 -0.4508  0.6292
  584TMC3     H 8662   4.048   2.612  17.267 -1.8149  1.0927 -0.3243
  584TMC3    H1 8663   3.962   2.423  17.646  0.1445  0.5785  2.5331
  584TMC3    H2 8664   3.980   2.837  17.621  0.1635  0.6795  0.4937
  584TMC3    C7 8665   3.927   2.627   0.085 -0.0700 -0.4638  0.3529
  584TMC3    C8 8666   4.047   2.864  17.365 -0.6813 -0.0489  0.3016
  584TMC3    O1 8667   3.880   2.524   0.129  0.4157  0.5401  0.2233
  584TMC3    O2 8668   4.033   2.860  17.248 -0.5688 -0.5872 -0.0772
  585MPD2     C 8669   3.533   1.154   0.659 -0.0652 -0.1933  0.3591
  585MPD2    C1 8670   3.453   1.232   0.574  0.1239  0.6070  0.5278
  585MPD2    C2 8671   3.430   1.187   0.444  0.4034 -0.0624  0.2326
  585MPD2    C3 8672   3.478   1.064   0.401  0.1762  0.4712 -0.2299
  585MPD2    C4 8673   3.543   0.987   0.490  0.7143  0.4548  0.3084
  585MPD2    C5 8674   3.576   1.034   0.615  0.6159  0.1875  0.0841
  585MPD2     H 8675   3.363   1.246   0.382  1.9581 -0.8211 -2.1887
  585MPD2    H1 8676   3.591   0.900   0.447  0.4479  0.1950  0.5338
  585MPD2    H2 8677   3.553   1.205   0.752  2.3946 -0.8915  0.1970
  585MPD2    H3 8678   3.640   0.981   0.686 -1.6767 -0.5236  1.6049
  585MPD2     N 8679   3.457   1.008   0.271  0.1504  0.4320 -0.1349
  585MPD2    H5 8680   3.471   0.908   0.264 -0.9314  0.3391 -1.0458
  585MPD2    N1 8681   3.410   1.355   0.627  1.0169  0.0466 -0.1905
  585MPD2    H7 8682   3.419   1.362   0.728 -0.2123 -2.0215  0.0683
  586TMC3    C1 8683   3.400   0.992   0.050  0.2786 -0.2635 -0.1572
  586TMC3    C2 8684   3.488   0.891   0.033  0.1508  0.0122  0.1213
  586TMC3    C3 8685   3.457   0.803  17.619  0.6261  0.5695  0.2213
  586TMC3    C4 8686   3.295   1.018  17.651  0.3489 -0.3455  0.4636
  586TMC3    C5 8687   3.268   0.926  17.561 -0.4503  0.2165 -0.0986
  586TMC3    C6 8688   3.346   0.819  17.544 -1.0496 -0.2610 -0.1647
  586TMC3     C 8689   3.410   1.080   0.167 -1.0556 -0.0379  0.5752
  586TMC3     O 8690   3.374   1.196   0.147 -0.0569 -0.4195  0.1475
  586TMC3     H 8691   3.571   0.863   0.097  2.2887 -0.5373 -2.9111
  586TMC3    H1 8692   3.256   1.119  17.657 -0.3453 -0.6519  1.0878
  586TMC3    H2 8693   3.313   0.734  17.485  1.2484 -0.8610 -0.5879
  586TMC3    C7 8694   3.122   0.906  17.538 -0.2933 -0.8768  0.4678
  586TMC3    C8 8695   3.517   0.671  17.628  0.9291  0.0578  0.4156
  586TMC3    O1 8696   3.082   0.808  17.482  0.7992 -0.1616 -0.6474
  586TMC3    O2 8697   3.576   0.634   0.041  0.3251 -0.9413 -0.0179
  587TMC3    C1 8698   0.715   4.344  16.554 -0.1281  0.5155 -1.2525
  587TMC3    C2 8699   0.712   4.463  16.487  0.1025 -0.0419  0.3102
  587TMC3    C3 8700   0.841   4.513  16.456 -0.0655  0.2927 -0.2725
  587TMC3    C4 8701   0.834   4.278  16.585  0.6876 -0.3821 -0.2750
  587TMC3    C5 8702   0.956   4.334  16.552 -0.1336 -0.1077 -0.7481
  587TMC3    C6 8703   0.961   4.453  16.488 -0.7152 -0.2891 -0.5346
  587TMC3     C 8704   0.597   4.273  16.590 -0.4826 -0.2200  0.8015
  587TMC3     O 8705   0.609   4.152  16.611 -0.6607  0.0638 -0.4292
  587TMC3     H 8706   0.626   4.516  16.449  0.3877 -2.1208 -3.2383
  587TMC3    H1 8707   0.829   4.185  16.640  0.2428 -0.9017 -1.2007
  587TMC3    H2 8708   1.055   4.502  16.466 -1.2088 -0.0770 -2.1741
  587TMC3    C7 8709   1.069   4.283  16.627 -0.2593  0.1387 -0.0503
  587TMC3    C8 8710   0.840   4.644  16.396 -0.2177 -0.3086 -0.0642
  587TMC3    O1 8711   1.057   4.211  16.721 -0.3563  0.4094  0.4520
  587TMC3    O2 8712   0.947   4.690  16.361 -0.2228 -0.3767 -0.0735
  588TMC3    C1 8713   3.273   2.263   9.990  0.4633  0.1594 -0.0697
  588TMC3    C2 8714   3.176   2.167  10.029  0.2886 -0.8581 -0.1958
  588TMC3    C3 8715   3.183   2.116  10.155  0.4847  0.1645 -0.5604
  588TMC3    C4 8716   3.360   2.318  10.082  0.1627  0.1650 -0.1874
  588TMC3    C5 8717   3.373   2.258  10.206 -0.8519 -0.7446 -0.3613
  588TMC3    C6 8718   3.279   2.165  10.243 -0.2671 -0.3363 -0.2537
  588TMC3     C 8719   3.277   2.299   9.848  0.5852  0.4040 -0.8461
  588TMC3     O 8720   3.282   2.212   9.757 -0.1495 -0.4722 -0.0901
  588TMC3     H 8721   3.123   2.129   9.942 -2.8197 -1.7445  2.0859
  588TMC3    H1 8722   3.446   2.375  10.047  0.8196 -0.4673  0.3850
  588TMC3    H2 8723   3.269   2.135  10.347 -1.1871  2.7522  0.5553
  588TMC3    C7 8724   3.431   2.347  10.302  0.0923 -0.1484 -0.0267
  588TMC3    C8 8725   3.105   1.995  10.185  0.3089 -0.4873  0.4842
  588TMC3    O1 8726   3.514   2.293  10.374  0.5322 -0.1411  0.0092
  588TMC3    O2 8727   3.011   1.968  10.106  0.2004  0.3179 -0.1957
  589TMC3    C1 8728   2.893   4.408   1.554  0.0772  0.0688  0.3777
  589TMC3    C2 8729   2.916   4.442   1.686 -0.4252  1.1496 -0.7443
  589TMC3    C3 8730   3.044   4.437   1.739 -0.1843  0.4049 -0.7706
  589TMC3    C4 8731   2.992   4.368   1.473  0.1737  0.2614 -0.4269
  589TMC3    C5 8732   3.111   4.350   1.531 -0.1424 -0.4994 -0.6202
  589TMC3    C6 8733   3.139   4.382   1.661 -0.4140 -0.0177 -0.9044
  589TMC3     C 8734   2.770   4.450   1.492 -0.1313 -0.2666 -0.2329
  589TMC3     O 8735   2.743   4.382   1.390 -0.3486 -0.2377 -0.4252
  589TMC3     H 8736   2.837   4.486   1.745 -0.0485  1.0239 -0.1534
  589TMC3    H1 8737   2.975   4.332   1.372  2.4517 -0.2642 -0.6274
  589TMC3    H2 8738   3.239   4.364   1.700 -1.3638  0.4546  1.7928
  589TMC3    C7 8739   3.207   4.267   1.456 -0.0277 -0.2242 -0.5498
  589TMC3    C8 8740   3.083   4.550   1.827  0.5361  0.5052  0.8146
  589TMC3    O1 8741   3.186   4.260   1.332  1.1729 -0.2787  0.7132
  589TMC3    O2 8742   3.011   4.592   1.919 -0.7901  0.7164 -0.6230
  590MPD2     C 8743   1.785   2.691  16.647  0.0197  0.3394 -0.2953
  590MPD2    C1 8744   1.727   2.815  16.645  1.1870 -0.4509 -0.5109
  590MPD2    C2 8745   1.810   2.917  16.596 -0.6938 -0.2294  0.4231
  590MPD2    C3 8746   1.938   2.887  16.556  0.3772 -0.1213 -0.7051
  590MPD2    C4 8747   1.989   2.758  16.559  0.1230  0.0178 -0.1935
  590MPD2    C5 8748   1.907   2.657  16.605 -0.7516 -0.1249  0.8083
  590MPD2     H 8749   1.794   3.025  16.599 -0.9951 -0.3114  1.6225
  590MPD2    H1 8750   2.081   2.732  16.507 -0.1435  1.0808 -1.2115
  590MPD2    H2 8751   1.729   2.610  16.693  0.3882  0.3116  0.1105
  590MPD2    H3 8752   1.942   2.555  16.621 -1.7312 -0.4388  0.9531
  590MPD2     N 8753   2.015   2.998  16.515  0.1901 -0.6273  0.2671
  590MPD2    H5 8754   1.977   3.091  16.527 -0.8448 -1.0071 -0.1197
  590MPD2    N1 8755   1.596   2.838  16.695 -0.0839  0.5316 -0.0617
  590MPD2    H7 8756   1.543   2.761  16.736  0.1985  0.5963  0.4288
  591TMC3    C1 8757   2.170   3.104  16.385  0.0770 -0.1601  0.1454
  591TMC3    C2 8758   2.273   3.089  16.296  0.5214 -0.5727 -1.1789
  591TMC3    C3 8759   2.289   3.179  16.194  0.5721  0.6891 -0.9616
  591TMC3    C4 8760   2.098   3.218  16.376  0.5865 -1.1141  0.7068
  591TMC3    C5 8761   2.131   3.317  16.294 -0.4020  0.5400 -0.1139
  591TMC3    C6 8762   2.220   3.299  16.198  0.2726 -0.4942  0.2352
  591TMC3     C 8763   2.141   2.993  16.471 -0.3436 -0.7912  0.3650
  591TMC3     O 8764   2.218   2.899  16.475 -0.4225  0.5679 -0.5060
  591TMC3     H 8765   2.325   2.994  16.298 -0.2256 -0.9707 -0.5215
  591TMC3    H1 8766   2.016   3.232  16.447 -0.1280  1.5290 -0.6391
  591TMC3    H2 8767   2.233   3.370  16.117 -0.1013  2.0967  2.4550
  591TMC3    C7 8768   2.039   3.425  16.275 -0.2355  0.3032  0.7513
  591TMC3    C8 8769   2.366   3.132  16.078  0.2099 -0.1658  0.6601
  591TMC3    O1 8770   1.923   3.408  16.311  0.1960 -0.3796 -0.3446
  591TMC3    O2 8771   2.413   3.018  16.082  0.4552 -0.8051  0.0542
  592MPD2     C 8772   2.164   4.712  11.599  0.6801 -0.3098 -0.4715
  592MPD2    C1 8773   2.174   0.062  11.715  0.5185 -0.3473 -0.1813
  592MPD2    C2 8774   2.101   0.020  11.824  0.4754  0.1207  0.1814
  592MPD2    C3 8775   2.015   4.636  11.822 -0.0804 -0.8438 -0.8326
  592MPD2    C4 8776   2.008   4.558  11.709 -0.3543 -0.7385 -0.4436
  592MPD2    C5 8777   2.080   4.603  11.599 -0.0551  0.2424  0.0430
  592MPD2     H 8778   2.103   0.062  11.924 -3.7040  1.5863 -0.3389
  592MPD2    H1 8779   1.953   4.465  11.704 -0.4599 -0.7120  0.2151
  592MPD2    H2 8780   2.225   0.028  11.517  1.2212 -1.3492 -0.5353
  592MPD2    H3 8781   2.072   4.550  11.504 -1.7585  0.2366  0.1941
  592MPD2     N 8782   1.945   4.598  11.940 -0.8016 -0.1792  0.4249
  592MPD2    H5 8783   1.961   4.670  12.010 -1.0006  0.1431  0.1428
  592MPD2    N1 8784   2.252   0.174  11.722  0.7915  0.5312 -0.7022
  592MPD2    H7 8785   2.293   0.201  11.633  2.8327 -0.6072 -0.1031
  593TMC3    C1 8786   2.355   0.360  11.801  0.1052  0.1528 -0.3441
  593TMC3    C2 8787   2.348   0.461  11.892 -0.3050 -0.1367 -0.0368
  593TMC3    C3 8788   2.449   0.558  11.895 -0.4144  0.2718  0.3192
  593TMC3    C4 8789   2.465   0.349  11.713 -1.4545 -0.4338  0.4945
  593TMC3    C5 8790   2.561   0.445  11.724 -0.5713 -0.3481 -0.0453
  593TMC3    C6 8791   2.555   0.550  11.815 -0.4328 -0.0681 -0.4896
  593TMC3     C 8792   2.267   0.256  11.831  0.1781 -0.4825  0.4284
  593TMC3     O 8793   2.215   0.260  11.941  0.1645 -0.6821 -0.2838
  593TMC3     H 8794   2.265   0.480  11.960 -1.1656 -0.7063 -0.9411
  593TMC3    H1 8795   2.459   0.263  11.648  0.1235 -0.9254  0.9990
  593TMC3    H2 8796   2.637   0.620  11.830 -0.4011 -0.3845  0.7835
  593TMC3    C7 8797   2.691   0.415  11.667  0.8646  0.4421 -0.7009
  593TMC3    C8 8798   2.418   0.686  11.953  0.1184  0.4056  0.3560
  593TMC3    O1 8799   2.716   0.302  11.619 -0.3916  0.2774  0.1402
  593TMC3    O2 8800   2.311   0.735  11.927 -0.1153  0.4065 -0.3555
  594MPD2     C 8801   1.090   3.524  14.220 -0.5195  0.7589  1.1104
  594MPD2    C1 8802   1.055   3.560  14.346 -0.7543  0.0173 -0.3797
  594MPD2    C2 8803   1.103   3.679  14.395 -1.0597 -0.2185  0.0095
  594MPD2    C3 8804   1.189   3.751  14.317 -0.4378 -0.3881  0.1938
  594MPD2    C4 8805   1.213   3.711  14.192 -0.3419 -0.4138 -0.4883
  594MPD2    C5 8806   1.170   3.598  14.139  0.3947  0.1363 -0.0121
  594MPD2     H 8807   1.088   3.711  14.498 -1.2880 -2.4366  0.6628
  594MPD2    H1 8808   1.277   3.770  14.128  0.4503  1.0640  1.6580
  594MPD2    H2 8809   1.039   3.436  14.181  1.6179 -0.2905  0.6780
  594MPD2    H3 8810   1.195   3.584  14.034  0.4691 -0.2429  0.0593
  594MPD2     N 8811   1.242   3.873  14.370 -0.2485  0.7535 -0.1463
  594MPD2    H5 8812   1.214   3.886  14.466 -0.4969  2.1616 -0.4070
  594MPD2    N1 8813   0.973   3.473  14.425  0.6002  0.3377  0.1964
  594MPD2    H7 8814   0.938   3.389  14.379  2.4884 -0.9406  1.1350
  595TMC3    C1 8815   1.523   4.244  14.427  1.2845 -0.7979 -0.1247
  595TMC3    C2 8816   1.477   4.145  14.347  0.2319  0.0582 -0.8424
  595TMC3    C3 8817   1.362   4.075  14.383 -0.2020 -0.0570  0.2673
  595TMC3    C4 8818   1.455   4.283  14.531  0.2711 -0.2023 -0.1352
  595TMC3    C5 8819   1.336   4.218  14.565 -0.6108  0.0360  0.5292
  595TMC3    C6 8820   1.288   4.107  14.496  0.0496 -0.2675  0.4651
  595TMC3     C 8821   1.666   4.249  14.459 -0.0726 -0.6921 -0.2265
  595TMC3     O 8822   1.697   4.250  14.578 -0.2830  0.0889  0.1084
  595TMC3     H 8823   1.525   4.131  14.250  1.9376 -1.6938  0.2523
  595TMC3    H1 8824   1.483   4.376  14.580  1.5057  0.0336 -1.3096
  595TMC3    H2 8825   1.194   4.058  14.516 -0.2784 -0.0448 -0.5450
  595TMC3    C7 8826   1.255   4.252  14.666  0.4934  0.2788  0.2423
  595TMC3    C8 8827   1.335   3.951  14.314 -0.1854  0.4694  0.7396
  595TMC3    O1 8828   1.149   4.200  14.666  0.4391  0.3009  0.1097
  595TMC3    O2 8829   1.406   3.940  14.212 -0.0702  0.1861  0.7960
  596MPD2     C 8830   0.248   1.930  16.832 -1.0641  0.9755  0.1073
  596MPD2    C1 8831   0.196   2.040  16.758 -0.6807  0.0291 -0.5887
  596MPD2    C2 8832   0.150   2.019  16.635 -0.0373 -0.4287  0.4965
  596MPD2    C3 8833   0.176   1.909  16.565 -0.1875 -0.0358 -0.6381
  596MPD2    C4 8834   0.230   1.799  16.631  0.7807 -0.5961  1.0464
  596MPD2    C5 8835   0.255   1.807  16.768  0.0404  0.0869 -0.5089
  596MPD2     H 8836   0.119   2.113  16.591  0.1802 -0.4853  0.2258
  596MPD2    H1 8837   0.253   1.707  16.579 -2.0915 -0.4414 -0.5302
  596MPD2    H2 8838   0.275   1.943  16.936  0.4080  0.4387 -0.1948
  596MPD2    H3 8839   0.300   1.725  16.823  1.8905  1.2885 -0.2318
  596MPD2     N 8840   0.119   1.883  16.436 -0.4232  0.8654 -0.5039
  596MPD2    H5 8841   0.142   1.790  16.403 -0.9225 -0.0990  1.8718
  596MPD2    N1 8842   0.175   2.167  16.818  0.0907  0.0812  0.1491
  596MPD2    H7 8843   0.131   2.239  16.762  1.6849  1.0183  0.0992
  597TMC3    C1 8844   0.146   2.339  16.969 -0.5981  0.4088  0.7043
  597TMC3    C2 8845   0.177   2.437  16.882  0.2153 -0.3519  0.0185
  597TMC3    C3 8846   0.101   2.549  16.891 -0.5209  0.4062  0.0189
  597TMC3    C4 8847   0.085   2.356  17.087  0.2317  0.0732  1.4022
  597TMC3    C5 8848   0.020   2.481  17.100 -0.6999 -0.6655 -0.4174
  597TMC3    C6 8849   0.017   2.578  17.002 -0.2819 -0.3787 -0.4822
  597TMC3     C 8850   0.200   2.208  16.948  0.0523 -0.9999  0.2598
  597TMC3     O 8851   0.225   2.135  17.044  0.3494  0.1934 -0.1320
  597TMC3     H 8852   0.240   2.416  16.796 -0.9782  0.0646 -0.9621
  597TMC3    H1 8853   0.069   2.280  17.162 -0.8243 -1.2184 -0.1256
  597TMC3    H2 8854   4.666   2.657  17.011  0.4851  0.5223 -2.2532
  597TMC3    C7 8855   4.662   2.496  17.218 -0.1721 -0.3602  0.2233
  597TMC3    C8 8856   0.118   2.663  16.801 -0.5661 -0.0129  0.1363
  597TMC3    O1 8857   4.623   2.391  17.270 -0.1501  1.2611 -0.0020
  597TMC3    O2 8858   0.026   2.746  16.814  0.7704 -0.2045 -0.4589
  598TMC3    C1 8859   3.110   3.441  15.488  0.1161  0.1039 -0.0795
  598TMC3    C2 8860   3.126   3.328  15.406  0.2123 -0.6942  0.5899
  598TMC3    C3 8861   3.212   3.336  15.305 -0.5998 -0.1525  0.0929
  598TMC3    C4 8862   3.171   3.561  15.465  0.1914 -0.0920 -0.3567
  598TMC3    C5 8863   3.259   3.562  15.362 -0.7116 -0.8374 -0.0578
  598TMC3    C6 8864   3.279   3.454  15.277 -0.3596 -0.5830  0.2854
  598TMC3     C 8865   3.036   3.435  15.611  0.5690 -0.0772  0.1732
  598TMC3     O 8866   3.026   3.539  15.672 -0.0023 -0.1607 -0.1796
  598TMC3     H 8867   3.090   3.227  15.417 -1.6691  0.0647  1.2721
  598TMC3    H1 8868   3.131   3.653  15.505 -1.5883 -0.6883 -0.7690
  598TMC3    H2 8869   3.355   3.454  15.199  0.0453 -0.6784  0.6856
  598TMC3    C7 8870   3.287   3.693  15.309  0.6013  0.2033  0.1075
  598TMC3    C8 8871   3.203   3.239  15.199 -0.3822  0.4094 -0.8758
  598TMC3    O1 8872   3.274   3.786  15.379  0.1482  0.1283  0.1227
  598TMC3    O2 8873   3.279   3.256  15.105  0.4689 -0.1515  0.2391
  599MPD2     C 8874   3.267   1.378  15.898  0.3839 -0.7224  0.1604
  599MPD2    C1 8875   3.209   1.252  15.910 -0.9023  0.3428 -0.4913
  599MPD2    C2 8876   3.085   1.243  15.966 -0.1746  0.2902  0.5339
  599MPD2    C3 8877   3.010   1.343  15.998  0.3195 -0.1118  0.0505
  599MPD2    C4 8878   3.060   1.468  15.989  0.3838  0.0619  0.0031
  599MPD2    C5 8879   3.187   1.486  15.937 -0.7416 -0.3943 -0.7865
  599MPD2     H 8880   3.040   1.145  15.963 -1.3966  0.8252  1.3453
  599MPD2    H1 8881   3.009   1.551  16.036 -0.1248  0.7042 -1.6743
  599MPD2    H2 8882   3.369   1.386  15.862  0.7208  3.9554  2.1903
  599MPD2    H3 8883   3.231   1.585  15.937 -2.6480  0.4464 -2.5455
  599MPD2     N 8884   2.884   1.329  16.065 -0.8743 -0.0463  0.7796
  599MPD2    H5 8885   2.839   1.414  16.098  0.7505  1.4621 -0.8907
  599MPD2    N1 8886   3.293   1.139  15.891  0.2325 -0.1833 -0.9293
  599MPD2    H7 8887   3.392   1.161  15.897 -0.0542  0.8843 -0.2509
  600TMC3    C1 8888   2.687   1.235  16.161  0.6351 -0.2329 -0.2602
  600TMC3    C2 8889   2.639   1.120  16.217 -0.5225 -0.6306 -0.2719
  600TMC3    C3 8890   2.541   1.134  16.312 -0.3527  0.6288  0.1085
  600TMC3    C4 8891   2.655   1.364  16.210 -0.0620 -0.3496 -0.1229
  600TMC3    C5 8892   2.564   1.372  16.313 -0.3417 -0.5470 -0.2935
  600TMC3    C6 8893   2.503   1.257  16.368  0.0326 -0.1576 -0.4633
  600TMC3     C 8894   2.817   1.212  16.096  0.3668  0.1585  0.1393
  600TMC3     O 8895   2.834   1.100  16.042 -0.7325  0.3937 -0.2398
  600TMC3     H 8896   2.680   1.023  16.191  1.2571 -0.2923  1.2574
  600TMC3    H1 8897   2.682   1.450  16.150 -0.0772 -1.4844 -1.7448
  600TMC3    H2 8898   2.426   1.268  16.442 -1.0372 -0.8995 -1.4713
  600TMC3    C7 8899   2.507   1.501  16.355  0.1820  0.2137  0.2285
  600TMC3    C8 8900   2.493   1.009  16.375  0.0062 -0.2884 -0.7703
  600TMC3    O1 8901   2.423   1.493  16.444  0.0348  0.0954 -0.3341
  600TMC3    O2 8902   2.580   0.926  16.397  0.2796  0.3405  0.6919
  601MPD2     C 8903   0.508   4.203   0.358  0.8712 -0.4285  0.0250
  601MPD2    C1 8904   0.420   4.161   0.258 -0.8372 -0.6476  0.3224
  601MPD2    C2 8905   0.384   4.023   0.265  0.6251 -0.4880  0.8728
  601MPD2    C3 8906   0.422   3.934   0.360 -0.0529 -0.7765 -0.1392
  601MPD2    C4 8907   0.511   3.978   0.457 -0.4556 -0.2613  0.6115
  601MPD2    C5 8908   0.552   4.111   0.452  1.0578  0.2437 -0.3139
  601MPD2     H 8909   0.325   3.993   0.179  0.7858 -1.5694  1.1337
  601MPD2    H1 8910   0.552   3.919   0.538  1.5938 -0.3416 -0.4632
  601MPD2    H2 8911   0.545   4.304   0.354 -1.4662  0.3855 -0.9765
  601MPD2    H3 8912   0.614   4.147   0.534 -0.4596  1.2269  0.3942
  601MPD2     N 8913   0.381   3.801   0.366 -0.5569 -0.0678 -0.5421
  601MPD2    H5 8914   0.402   3.747   0.449 -0.6802  1.1783  0.2915
  601MPD2    N1 8915   0.373   4.256   0.162  0.0719  0.3854  0.1785
  601MPD2    H7 8916   0.323   4.206   0.089  0.5507 -0.2196  0.2618
  602TMC3    C1 8917   0.294   4.456   0.062  0.8336 -0.1805 -0.8146
  602TMC3    C2 8918   0.263   4.586   0.077  0.1331  0.2807 -0.2030
  602TMC3    C3 8919   0.205   4.662  17.668 -1.0422 -0.0098 -0.7727
  602TMC3    C4 8920   0.269   4.392  17.632  0.9817 -0.6257  0.1850
  602TMC3    C5 8921   0.196   4.468  17.543  0.5622 -0.5874 -0.1260
  602TMC3    C6 8922   0.166   4.599  17.556 -0.1209  0.3959 -0.0112
  602TMC3     C 8923   0.368   4.390   0.176  0.2638 -0.1544  0.3911
  602TMC3     O 8924   0.389   4.468   0.268 -0.1641 -0.6821  0.2616
  602TMC3     H 8925   0.285   4.641   0.168  0.0619  0.4854 -0.3105
  602TMC3    H1 8926   0.308   4.297  17.597  0.6130 -0.7983  0.2418
  602TMC3    H2 8927   0.118   4.651  17.474 -0.2192 -0.9029 -0.7708
  602TMC3    C7 8928   0.133   4.408  17.425 -0.2106  0.7967 -0.5418
  602TMC3    C8 8929   0.128   0.055   0.027  0.7173 -0.1193  0.3393
  602TMC3    O1 8930   0.212   4.352  17.348  0.1306 -0.8398  0.3320
  602TMC3    O2 8931   0.169   0.133   0.116  0.4795 -0.5573  0.0671
  603TMC3    C1 8932   3.616   4.200  11.271  0.2012 -0.4254 -0.0876
  603TMC3    C2 8933   3.672   4.235  11.389 -0.3197 -0.2684  0.3950
  603TMC3    C3 8934   3.627   4.351  11.445  0.1831 -0.9079  0.1781
  603TMC3    C4 8935   3.538   4.289  11.202 -0.4830  0.3347  0.1480
  603TMC3    C5 8936   3.513   4.410  11.254 -0.3869 -0.3927  0.0133
  603TMC3    C6 8937   3.560   4.445  11.376  0.3312 -0.2385  0.0468
  603TMC3     C 8938   3.681   4.099  11.195  0.4392  0.3546  0.3452
  603TMC3     O 8939   3.615   4.056  11.105 -0.3854 -0.2435 -0.3270
  603TMC3     H 8940   3.723   4.159  11.447  1.4130 -1.0866 -2.2047
  603TMC3    H1 8941   3.510   4.261  11.101  1.0640 -1.4969  0.2309
  603TMC3    H2 8942   3.499   4.516  11.430 -0.4045 -1.8633  1.3344
  603TMC3    C7 8943   3.408   4.496  11.207 -0.2740 -0.6621 -0.5276
  603TMC3    C8 8944   3.601   4.347  11.593  0.5441 -0.7407 -0.3093
  603TMC3    O1 8945   3.398   4.603  11.271 -1.0638 -0.5897 -0.3560
  603TMC3    O2 8946   3.585   4.237  11.645 -0.3177 -0.0289  0.1544
  604MPD2     C 8947   4.031   3.272  16.466 -0.2885  0.8122 -0.0605
  604MPD2    C1 8948   3.915   3.319  16.426 -0.0778 -0.1811 -0.7908
  604MPD2    C2 8949   3.885   3.308  16.293  0.3579 -0.4663 -0.6865
  604MPD2    C3 8950   3.972   3.240  16.199  0.2162  0.6328 -0.4225
  604MPD2    C4 8951   4.089   3.186  16.250  0.2821  0.4529 -0.0792
  604MPD2    C5 8952   4.126   3.217  16.384  0.3918 -0.7410  0.7162
  604MPD2     H 8953   3.803   3.363  16.250  2.2470  1.4297 -1.8754
  604MPD2    H1 8954   4.161   3.128  16.193  0.5540 -0.1720  0.8994
  604MPD2    H2 8955   4.067   3.273  16.568  1.6060  0.6525 -0.7374
  604MPD2    H3 8956   4.219   3.178  16.424  0.3587 -1.2903  0.2525
  604MPD2     N 8957   3.940   3.235  16.060 -0.5139  0.7835 -0.2862
  604MPD2    H5 8958   3.848   3.273  16.039 -0.8750 -0.2858 -0.6764
  604MPD2    N1 8959   3.834   3.371  16.526  0.2833  0.0520 -0.6854
  604MPD2    H7 8960   3.892   3.364  16.609  0.9297 -2.4086 -1.3359
  605TMC3    C1 8961   3.652   3.477  16.635 -0.0842  0.1081  0.4368
  605TMC3    C2 8962   3.733   3.544  16.719  0.0829 -0.2916 -1.0028
  605TMC3    C3 8963   3.678   3.645  16.799  0.0857 -0.1780 -0.1758
  605TMC3    C4 8964   3.522   3.526  16.616 -0.0897  0.3516  0.5386
  605TMC3    C5 8965   3.477   3.637  16.686 -0.4880  1.0941 -0.3926
  605TMC3    C6 8966   3.554   3.695  16.788  0.1696 -0.5420  0.2231
  605TMC3     C 8967   3.709   3.423  16.509 -0.3645  0.2003  0.0880
  605TMC3     O 8968   3.627   3.431  16.415 -0.3605  0.3006 -0.0946
  605TMC3     H 8969   3.839   3.522  16.714 -0.1417 -1.9764  1.5199
  605TMC3    H1 8970   3.457   3.463  16.557  0.7448 -1.7451  1.8610
  605TMC3    H2 8971   3.508   3.781  16.835  1.2689  1.0724 -1.7022
  605TMC3    C7 8972   3.373   3.718  16.623 -0.0822 -0.4857  0.3900
  605TMC3    C8 8973   3.756   3.678  16.916 -0.1193  0.0913 -0.1074
  605TMC3    O1 8974   3.302   3.783  16.701 -0.1759 -0.0629 -0.6939
  605TMC3    O2 8975   3.731   3.788  16.969  0.2954  0.7104  0.2125
  606TMC3    C1 8976   0.848   1.544  17.650  0.6373 -0.6951 -0.0695
  606TMC3    C2 8977   0.982   1.517  17.627  0.2391 -0.2285 -1.4246
  606TMC3    C3 8978   1.017   1.381  17.629 -0.2184  0.7967 -0.3498
  606TMC3    C4 8979   0.756   1.446  17.677  0.1562  0.3194  0.2978
  606TMC3    C5 8980   0.797   1.321  17.672  0.3761  0.0248  0.2247
  606TMC3    C6 8981   0.926   1.284  17.652  0.6569  0.1706  0.5821
  606TMC3     C 8982   0.788   1.669  17.610  0.5874 -0.1168 -0.5215
  606TMC3     O 8983   0.668   1.665  17.592 -1.1254  0.1559 -0.4170
  606TMC3     H 8984   1.054   1.597  17.613  0.4207  0.0625  1.2883
  606TMC3    H1 8985   0.652   1.474   0.001  0.5411  2.3497 -1.1971
  606TMC3    H2 8986   0.952   1.180  17.637  1.0527  0.3683 -0.1203
  606TMC3    C7 8987   0.713   1.223   0.045  0.8355 -0.2496 -0.6208
  606TMC3    C8 8988   1.156   1.354  17.635 -0.2098  0.8135 -0.7349
  606TMC3    O1 8989   0.771   1.141   0.113  0.5589 -0.3182  0.5630
  606TMC3    O2 8990   1.233   1.440  17.593  0.0787  0.4466 -0.0709
  607MPD2     C 8991   2.256   4.312  11.939  0.7852 -0.0194  0.8535
  607MPD2    C1 8992   2.293   4.428  11.999  0.4881 -0.0821 -1.0136
  607MPD2    C2 8993   2.258   4.461  12.125  0.6235 -0.2988 -0.0766
  607MPD2    C3 8994   2.196   4.369  12.210  0.2824  0.2822 -0.3155
  607MPD2    C4 8995   2.159   4.249  12.147  0.3996 -0.4047  0.1001
  607MPD2    C5 8996   2.190   4.222  12.016 -0.0033 -0.1555  0.4828
  607MPD2     H 8997   2.280   4.560  12.163 -0.8466 -1.0018  2.6317
  607MPD2    H1 8998   2.099   4.177  12.202 -0.1595  1.1031  1.4712
  607MPD2    H2 8999   2.266   4.293  11.833 -1.5032  0.4423  0.5622
  607MPD2    H3 9000   2.166   4.124  11.974 -0.0786  0.1086 -0.0934
  607MPD2     N 9001   2.177   4.397  12.345  0.3654 -0.2291 -0.4253
  607MPD2    H5 9002   2.207   4.491  12.371 -1.0571 -0.2691  1.3700
  607MPD2    N1 9003   2.355   4.533  11.931  0.3353  0.2519  0.3200
  607MPD2    H7 9004   2.375   4.611  11.993  2.1515  0.0573 -0.0193
  608TMC3    C1 9005   2.487   4.646  11.779  0.2191 -0.2716 -0.1342
  608TMC3    C2 9006   2.509   0.011  11.882 -0.5307  0.0593 -0.3216
  608TMC3    C3 9007   2.634   0.073  11.887  0.3575 -0.1985 -0.5586
  608TMC3    C4 9008   2.589   4.631  11.684 -0.1105  0.1633  0.1839
  608TMC3    C5 9009   2.707   4.687  11.698 -0.0548  0.8056  0.0477
  608TMC3    C6 9010   2.736   0.054  11.798  0.7620  0.5042 -0.5761
  608TMC3     C 9011   2.413   4.528  11.811  0.1253  0.1942 -0.4858
  608TMC3     O 9012   2.411   4.439  11.727  0.3917 -0.2726 -0.6380
  608TMC3     H 9013   2.429   0.048  11.946  0.5208 -0.8802  1.5462
  608TMC3    H1 9014   2.580   4.559  11.603 -1.2759  2.1830 -1.4811
  608TMC3    H2 9015   2.828   0.112  11.800  0.5860  0.7642  0.0364
  608TMC3    C7 9016   2.788   4.695  11.572 -0.3633 -0.2085 -0.0263
  608TMC3    C8 9017   2.653   0.156  12.004  0.4585  0.0049  0.2980
  608TMC3    O1 9018   2.730   4.676  11.461 -0.0495 -0.4966  0.9130
  608TMC3    O2 9019   2.731   0.249  11.999  0.4687 -0.6890 -0.0038
  609TMC3    C1 9020   0.807   3.361   8.648  0.7124  0.1610  0.2956
  609TMC3    C2 9021   0.798   3.278   8.541  0.7180 -0.6423  0.3067
  609TMC3    C3 9022   0.897   3.188   8.526 -0.2306  0.3581 -0.5069
  609TMC3    C4 9023   0.918   3.362   8.731  0.0375  0.2865  0.2596
  609TMC3    C5 9024   1.008   3.261   8.716 -0.0522  0.1273 -0.0273
  609TMC3    C6 9025   0.998   3.165   8.619  0.1061  0.5031 -0.1927
  609TMC3     C 9026   0.683   3.408   8.701 -0.2359 -0.6275  0.1866
  609TMC3     O 9027   0.692   3.463   8.806 -0.1325 -0.4343  0.1907
  609TMC3     H 9028   0.720   3.287   8.466  1.1611  1.9560  0.1389
  609TMC3    H1 9029   0.928   3.437   8.809  4.5759  0.4673 -0.5136
  609TMC3    H2 9030   1.085   3.100   8.615 -0.8792 -0.8540  0.5619
  609TMC3    C7 9031   1.130   3.275   8.797 -0.1540  0.2017 -0.2382
  609TMC3    C8 9032   0.862   3.081   8.437  0.1314 -0.1893  0.1464
  609TMC3    O1 9033   1.137   3.370   8.878 -0.5646  0.1195 -0.0868
  609TMC3    O2 9034   0.745   3.067   8.413  0.4590 -0.0305  0.1212
  610TMC3    C1 9035   2.753   4.543  12.884  0.8388 -0.0712  1.2076
  610TMC3    C2 9036   2.815   4.589  12.768  0.1322 -0.2391  0.1266
  610TMC3    C3 9037   2.933   4.527  12.730 -0.3882 -0.1208 -0.4460
  610TMC3    C4 9038   2.793   4.439  12.958  0.7986  0.3651 -0.0839
  610TMC3    C5 9039   2.907   4.378  12.912  0.4005 -0.0396 -0.1950
  610TMC3    C6 9040   2.980   4.418  12.804  0.0416 -0.6150 -0.2558
  610TMC3     C 9041   2.661   4.639  12.940 -0.6801  0.4081 -0.2950
  610TMC3     O 9042   2.580   4.694  12.868 -0.3240 -0.0897  0.2249
  610TMC3     H 9043   2.776   4.679  12.721  2.3760  0.6051 -0.1040
  610TMC3    H1 9044   2.738   4.420  13.049  0.9811  2.1359  0.4021
  610TMC3    H2 9045   3.061   4.353  12.772 -0.1695 -0.5968 -0.8297
  610TMC3    C7 9046   2.971   4.289  13.007  0.1552  0.5735 -0.4857
  610TMC3    C8 9047   2.994   4.568  12.610  0.7133 -0.7564  0.0631
  610TMC3    O1 9048   3.085   4.257  12.971  0.7116  0.0179 -0.8458
  610TMC3    O2 9049   2.924   4.627  12.531  0.3625 -0.1223 -0.2967
  611MPD2     C 9050   2.297   4.404  10.086 -0.5409 -0.3949  0.5655
  611MPD2    C1 9051   2.292   4.280  10.146  0.3098 -0.7517  0.0179
  611MPD2    C2 9052   2.404   4.226  10.210  0.6503 -0.3592 -0.4621
  611MPD2    C3 9053   2.522   4.301  10.218 -0.3977  0.0152  0.4906
  611MPD2    C4 9054   2.524   4.425  10.160  0.5537 -0.3916 -0.1018
  611MPD2    C5 9055   2.417   4.475  10.105 -0.2703  0.1956  0.0072
  611MPD2     H 9056   2.401   4.125  10.249  1.5295 -0.1157  0.2135
  611MPD2    H1 9057   2.613   4.487  10.153 -0.1371  0.7683  1.4193
  611MPD2    H2 9058   2.207   4.446  10.044  1.1141 -0.2418 -2.8200
  611MPD2    H3 9059   2.428   4.576  10.068  4.7341  0.0994  1.2387
  611MPD2     N 9060   2.630   4.265  10.310 -0.4699 -0.0391  0.9567
  611MPD2    H5 9061   2.680   4.345  10.347 -0.8901 -0.0443  1.5225
  611MPD2    N1 9062   2.167   4.218  10.145  0.3833  0.4191  0.0495
  611MPD2    H7 9063   2.091   4.275  10.111  0.7330 -0.2228 -1.8157
  612TMC3    C1 9064   2.734   4.129  10.479  0.4323 -0.7656  0.4306
  612TMC3    C2 9065   2.770   4.243  10.549  0.2141 -0.3845 -0.1220
  612TMC3    C3 9066   2.835   4.218  10.660 -1.0859 -0.3763 -0.1588
  612TMC3    C4 9067   2.789   4.008  10.508  0.9090  0.3825 -0.5189
  612TMC3    C5 9068   2.866   3.994  10.620 -0.2331  0.7624 -0.0091
  612TMC3    C6 9069   2.890   4.098  10.700 -0.5772 -0.1060 -0.8071
  612TMC3     C 9070   2.653   4.135  10.360  0.5053 -0.0975  0.3262
  612TMC3     O 9071   2.612   4.028  10.313 -0.0909  0.3244 -0.2274
  612TMC3     H 9072   2.708   4.330  10.529  0.2944  0.0934  1.6789
  612TMC3    H1 9073   2.763   3.917  10.454  1.1639  0.3616 -0.6072
  612TMC3    H2 9074   2.948   4.078  10.790 -0.5676  0.8240 -0.6080
  612TMC3    C7 9075   2.921   3.862  10.649  0.7476  0.1930  0.5019
  612TMC3    C8 9076   2.872   4.334  10.739  0.1502 -0.5866  0.0613
  612TMC3    O1 9077   2.922   3.784  10.553  0.2192  0.3808  0.6305
  612TMC3    O2 9078   2.797   4.431  10.724  0.6535  0.0769  0.0440
  613MPD2     C 9079   1.351   1.767  16.963  0.2718  0.4367 -0.3705
  613MPD2    C1 9080   1.252   1.813  16.870  0.0345 -0.0405  0.1629
  613MPD2    C2 9081   1.123   1.770  16.869  0.1710 -0.5196 -0.0350
  613MPD2    C3 9082   1.081   1.677  16.966  0.3000 -0.0253 -0.4114
  613MPD2    C4 9083   1.178   1.648  17.062  0.6919  0.4586 -0.0283
  613MPD2    C5 9084   1.309   1.689  17.063 -0.6965 -0.9275 -0.0130
  613MPD2     H 9085   1.056   1.805  16.791 -0.6182  2.8046  2.1372
  613MPD2    H1 9086   1.149   1.579  17.141 -0.9823  2.2173  0.8688
  613MPD2    H2 9087   1.452   1.808  16.964 -0.1070  1.3296  1.9779
  613MPD2    H3 9088   1.371   1.645  17.140  1.8814  0.1914 -1.4597
  613MPD2     N 9089   0.954   1.601  16.954 -0.0415  0.9326 -0.0739
  613MPD2    H5 9090   0.942   1.517  17.010 -1.6388  2.7943  2.3756
  613MPD2    N1 9091   1.294   1.878  16.750  0.3479  0.0475 -0.3946
  613MPD2    H7 9092   1.395   1.879  16.736  0.2483 -0.7884 -1.1711
  614TMC3    C1 9093   1.275   1.954  16.531 -0.1043 -0.9298 -1.0452
  614TMC3    C2 9094   1.302   1.828  16.481  0.2594  0.1970  0.4360
  614TMC3    C3 9095   1.252   1.779  16.362 -0.3439  0.0474  0.2752
  614TMC3    C4 9096   1.204   2.038  16.455 -0.0667 -0.8730  0.1694
  614TMC3    C5 9097   1.163   1.995  16.335  0.6031 -0.3777  0.3442
  614TMC3    C6 9098   1.177   1.865  16.289  0.5579 -0.4825 -0.9775
  614TMC3     C 9099   1.218   1.950  16.660 -0.1944 -0.1709  0.4779
  614TMC3     O 9100   1.104   1.988  16.672 -0.3973  0.3480 -0.2659
  614TMC3     H 9101   1.352   1.753  16.543 -0.4753 -0.8587 -0.2499
  614TMC3    H1 9102   1.177   2.131  16.503  0.2356 -0.3687 -0.6447
  614TMC3    H2 9103   1.135   1.831  16.195  0.2260  0.4894 -1.1829
  614TMC3    C7 9104   1.067   2.082  16.268 -0.1970  0.0471  0.3900
  614TMC3    C8 9105   1.221   1.633  16.360  0.1603  0.9149  0.8150
  614TMC3    O1 9106   1.015   2.166  16.338  0.3561 -0.1249  0.2874
  614TMC3    O2 9107   1.276   1.559  16.444 -0.5092  0.3742  0.0082
  615MPD2     C 9108   0.666   2.930  16.083  0.0661  0.2694 -0.3572
  615MPD2    C1 9109   0.661   3.070  16.096  0.4329 -0.2564 -0.1380
  615MPD2    C2 9110   0.607   3.139  15.989 -0.2538 -0.0090 -0.6371
  615MPD2    C3 9111   0.576   3.067  15.873  0.0983 -0.2446 -0.6995
  615MPD2    C4 9112   0.580   2.928  15.868 -0.2424  0.3525  0.6105
  615MPD2    C5 9113   0.630   2.857  15.974 -0.5756  0.2748  0.4398
  615MPD2     H 9114   0.602   3.247  15.982 -1.6391 -0.0600 -0.4093
  615MPD2    H1 9115   0.535   2.870  15.789  2.0730  1.2106 -1.3294
  615MPD2    H2 9116   0.696   2.867  16.166  0.2022 -2.0984 -2.2109
  615MPD2    H3 9117   0.652   2.752  15.986  2.7301  0.5625 -2.8405
  615MPD2     N 9118   0.527   3.140  15.759  0.2905  0.6449 -0.6883
  615MPD2    H5 9119   0.531   3.242  15.763 -4.4822  0.8012 -0.6235
  615MPD2    N1 9120   0.705   3.139  16.210  0.0379 -0.0261  0.2223
  615MPD2    H7 9121   0.695   3.240  16.200 -1.4760 -0.0367  1.5871
  616TMC3    C1 9122   0.793   3.176  16.424  0.5958 -0.7454  0.5134
  616TMC3    C2 9123   0.853   3.290  16.372 -0.0526 -0.0427 -0.9358
  616TMC3    C3 9124   0.896   3.377  16.464 -0.9028 -0.0871  0.4805
  616TMC3    C4 9125   0.780   3.143  16.558 -0.7349  0.4346 -0.1518
  616TMC3    C5 9126   0.839   3.236  16.643 -0.0397 -0.7462  0.0015
  616TMC3    C6 9127   0.898   3.351  16.600 -0.3045  0.8061 -0.6008
  616TMC3     C 9128   0.735   3.082  16.333  1.0550 -0.3292  0.4161
  616TMC3     O 9129   0.718   2.967  16.374  0.0049 -0.5316 -0.3352
  616TMC3     H 9130   0.875   3.317  16.269  1.2384  1.6984 -0.2208
  616TMC3    H1 9131   0.706   3.071  16.591  0.2287 -0.4862 -0.0147
  616TMC3    H2 9132   0.933   3.429  16.667 -1.3185 -0.1605  1.0573
  616TMC3    C7 9133   0.759   3.260  16.766 -0.4591 -0.1653  0.5970
  616TMC3    C8 9134   0.921   3.511  16.410 -0.1706  0.1286  0.4983
  616TMC3    O1 9135   0.647   3.216  16.787 -0.0285  0.4973 -0.7733
  616TMC3    O2 9136   0.835   3.568  16.347 -0.2952 -0.4561  0.0886
  617MPD2     C 9137   3.841   1.834  13.717  0.6025 -0.0875  0.2143
  617MPD2    C1 9138   3.875   1.742  13.811 -0.1710  0.3553 -0.2130
  617MPD2    C2 9139   3.776   1.667  13.880  0.0280 -0.1190  0.8871
  617MPD2    C3 9140   3.642   1.691  13.847 -0.2589 -0.2229  0.1294
  617MPD2    C4 9141   3.614   1.791  13.757  0.8931 -0.3182  0.1278
  617MPD2    C5 9142   3.709   1.854  13.692 -0.5391  0.0261  0.6239
  617MPD2     H 9143   3.801   1.580  13.939  0.3607 -0.2278  0.5901
  617MPD2    H1 9144   3.512   1.819  13.733  1.0296 -1.3414 -1.6121
  617MPD2    H2 9145   3.916   1.883  13.655  1.5445 -0.3357  1.1637
  617MPD2    H3 9146   3.692   1.924  13.611 -0.4133 -0.0224  0.5561
  617MPD2     N 9147   3.533   1.628  13.907 -0.2711 -0.3310  0.3790
  617MPD2    H5 9148   3.443   1.660  13.874  0.0415 -1.9152 -2.0140
  617MPD2    N1 9149   4.011   1.712  13.817  0.9176 -0.3650  0.1036
  617MPD2    H7 9150   4.081   1.769  13.772 -0.7474 -0.8988 -3.1665
  618TMC3    C1 9151   4.202   1.601  13.877 -0.1836 -0.2328  0.0675
  618TMC3    C2 9152   4.276   1.492  13.843  0.2069  0.3408 -0.0541
  618TMC3    C3 9153   4.416   1.501  13.853 -0.1842 -0.4216 -0.2084
  618TMC3    C4 9154   4.270   1.712  13.920  0.1688 -0.1235  0.4182
  618TMC3    C5 9155   4.403   1.722  13.902  0.1738 -0.1686 -0.7453
  618TMC3    C6 9156   4.482   1.619  13.876 -0.3585  0.2601  0.1972
  618TMC3     C 9157   4.062   1.595  13.869 -0.9847  0.6382  0.3693
  618TMC3     O 9158   4.007   1.490  13.900  1.1291 -0.1475 -0.2371
  618TMC3     H 9159   4.222   1.403  13.813 -0.4570  0.0785  1.9319
  618TMC3    H1 9160   4.210   1.796  13.955 -0.4768  0.0380 -1.0732
  618TMC3    H2 9161   4.588   1.621  13.852  0.1876 -0.9990  2.5335
  618TMC3    C7 9162   4.463   1.829  13.977 -0.2486 -0.0579 -0.3933
  618TMC3    C8 9163   4.489   1.389  13.802 -0.2311  0.5874 -0.2409
  618TMC3    O1 9164   4.416   1.844  14.088 -0.1343 -0.4892 -0.8148
  618TMC3    O2 9165   4.418   1.307  13.744  0.0172  0.6619 -0.3609
  619MPD2     C 9166   0.392   2.743  13.674 -0.2386  0.6878 -0.2155
  619MPD2    C1 9167   0.287   2.821  13.624 -0.1561 -0.1243  0.2184
  619MPD2    C2 9168   0.160   2.788  13.658  0.3182  0.5606 -0.1128
  619MPD2    C3 9169   0.134   2.685  13.744  0.4336 -0.2066 -0.0695
  619MPD2    C4 9170   0.239   2.596  13.777  0.6313 -0.0461 -0.3659
  619MPD2    C5 9171   0.367   2.630  13.747 -0.1499 -0.7193  0.3317
  619MPD2     H 9172   0.083   2.857  13.626 -3.3166 -2.7189  1.5182
  619MPD2    H1 9173   0.220   2.499  13.821  0.2856 -1.2446 -3.1794
  619MPD2    H2 9174   0.495   2.756  13.643 -0.3060  1.9384  0.0871
  619MPD2    H3 9175   0.447   2.561  13.773  1.6287  0.9651 -0.7205
  619MPD2     N 9176   4.718   2.657  13.780  0.1099  0.3289  0.5249
  619MPD2    H5 9177   4.701   2.566  13.823 -0.2981  0.5913  0.9201
  619MPD2    N1 9178   0.299   2.943  13.551  0.2211  0.1070  0.3778
  619MPD2    H7 9179   0.213   2.988  13.520  0.2477  0.1283  0.3347
  620TMC3    C1 9180   0.400   3.140  13.475  0.0344 -0.5435  0.0342
  620TMC3    C2 9181   0.295   3.164  13.394  0.6080  0.2043 -0.4870
  620TMC3    C3 9182   0.281   3.288  13.338  0.4688  0.1230  0.4089
  620TMC3    C4 9183   0.489   3.232  13.509  0.2196 -0.4570 -0.0982
  620TMC3    C5 9184   0.468   3.359  13.460  0.1127 -0.2235  0.6858
  620TMC3    C6 9185   0.366   3.383  13.377 -0.2758 -0.3383  0.3420
  620TMC3     C 9186   0.416   3.011  13.541  0.8626 -0.3017 -0.4265
  620TMC3     O 9187   0.529   2.978  13.574 -0.0355 -0.5979 -0.9309
  620TMC3     H 9188   0.222   3.090  13.364  0.3266  0.2975 -0.0368
  620TMC3    H1 9189   0.571   3.208  13.575  1.1235 -1.3770 -1.5479
  620TMC3    H2 9190   0.360   3.486  13.343  1.6356 -0.2128  0.4013
  620TMC3    C7 9191   0.497   3.461  13.558 -0.1923  0.2035 -0.2938
  620TMC3    C8 9192   0.154   3.330  13.365 -0.1569  0.2897 -0.2724
  620TMC3    O1 9193   0.611   3.488  13.597 -0.1369  0.2785 -0.1090
  620TMC3    O2 9194   0.154   3.423  13.445  0.2270  0.0302  0.7077
  621MPD2     C 9195   1.068   2.858  10.463  0.5465 -0.5492 -0.3066
  621MPD2    C1 9196   0.941   2.831  10.413  0.4025  0.5694 -0.4072
  621MPD2    C2 9197   0.894   2.912  10.310 -0.6451  0.6705 -0.6758
  621MPD2    C3 9198   0.978   3.011  10.254  0.0026  0.4457 -0.2531
  621MPD2    C4 9199   1.104   3.032  10.306  0.2887 -0.2982  0.0371
  621MPD2    C5 9200   1.151   2.951  10.406  0.2526 -0.2477 -0.4786
  621MPD2     H 9201   0.794   2.884  10.279 -0.9169  1.0184 -0.1087
  621MPD2    H1 9202   1.164   3.109  10.258  1.2444  0.5116  2.5279
  621MPD2    H2 9203   1.116   2.786  10.528  2.7639  1.7915  0.6680
  621MPD2    H3 9204   1.249   2.945  10.451 -1.9553 -3.8877  3.8954
  621MPD2     N 9205   0.919   3.087  10.153 -0.3214  0.0370 -0.3182
  621MPD2    H5 9206   0.824   3.060  10.130 -0.9374  1.0064  1.0764
  621MPD2    N1 9207   0.855   2.733  10.475  0.0321 -0.4246  0.3033
  621MPD2    H7 9208   0.759   2.728  10.442  0.6597 -0.2994 -1.5867
  622TMC3    C1 9209   0.793   2.537  10.571 -0.5472  0.1209  0.5752
  622TMC3    C2 9210   0.666   2.577  10.602 -0.3471 -0.6138 -0.0319
  622TMC3    C3 9211   0.577   2.481  10.617 -0.0088 -0.8063  0.7349
  622TMC3    C4 9212   0.839   2.409  10.589 -0.5037 -0.1781  0.5088
  622TMC3    C5 9213   0.741   2.314  10.613 -0.3442 -0.1680  0.3429
  622TMC3    C6 9214   0.611   2.352  10.625  0.3110 -0.1637  0.4163
  622TMC3     C 9215   0.898   2.641  10.560  0.0188  0.0896  0.5074
  622TMC3     O 9216   1.013   2.608  10.583  0.2297  0.3692 -0.0715
  622TMC3     H 9217   0.640   2.682  10.611 -3.3309 -1.2395 -1.3618
  622TMC3    H1 9218   0.934   2.386  10.542  0.1395  0.7310  1.3729
  622TMC3    H2 9219   0.544   2.276  10.663 -2.1483  1.5486 -0.5124
  622TMC3    C7 9220   0.762   2.174  10.573  0.6384  0.4742 -0.2169
  622TMC3    C8 9221   0.435   2.504  10.608  0.4997 -0.1835 -0.4890
  622TMC3    O1 9222   0.875   2.122  10.583 -0.4268 -0.3379  0.7117
  622TMC3    O2 9223   0.350   2.424  10.653 -0.0073 -0.0783  0.1695
  623MPD2     C 9224   4.165   3.503  15.989 -0.2856 -0.9747  0.2397
  623MPD2    C1 9225   4.099   3.546  16.103  0.2191 -0.1448 -0.7023
  623MPD2    C2 9226   4.158   3.526  16.228 -0.0607 -0.3572  0.1993
  623MPD2    C3 9227   4.291   3.483  16.236  0.0259  0.1991  0.3133
  623MPD2    C4 9228   4.360   3.453  16.116  0.1848  0.3413  0.2097
  623MPD2    C5 9229   4.294   3.459  15.998  0.0167  0.6032  0.1799
  623MPD2     H 9230   4.100   3.528  16.319 -0.9374 -0.1637 -0.3668
  623MPD2    H1 9231   4.467   3.432  16.125 -0.2174 -0.7391  2.5923
  623MPD2    H2 9232   4.120   3.513  15.890 -1.2240 -1.7065  0.5876
  623MPD2    H3 9233   4.354   3.445  15.908  0.1196  0.0808  0.3284
  623MPD2     N 9234   4.347   3.470  16.363  0.2024 -0.4199 -0.0202
  623MPD2    H5 9235   4.282   3.492  16.438  1.9374  0.5991  1.1858
  623MPD2    N1 9236   3.973   3.611  16.105  0.2060  0.2962  0.3163
  623MPD2    H7 9237   3.942   3.636  16.198 -0.1954  0.3360  0.1685
  624TMC3    C1 9238   4.666   3.487  16.709  0.2617  0.3336  0.2778
  624TMC3    C2 9239   4.573   3.444  16.807 -0.4997  0.2648 -0.4545
  624TMC3    C3 9240   4.446   3.408  16.757 -0.1475  0.5606 -0.5706
  624TMC3    C4 9241   4.636   3.492  16.574  0.1184 -0.3033 -0.2500
  624TMC3    C5 9242   4.512   3.456  16.538 -0.4692 -0.4125  0.8193
  624TMC3    C6 9243   4.410   3.419  16.625 -0.4998 -0.7927 -0.4159
  624TMC3     C 9244   0.095   3.508  16.737  0.0017  0.7432 -1.0814
  624TMC3     O 9245   0.124   3.526  16.853 -0.3509 -0.3126  0.1309
  624TMC3     H 9246   4.592   3.460  16.913 -2.0116 -0.1407 -0.1085
  624TMC3    H1 9247   4.701   3.543  16.504  0.1025 -0.2467 -0.2236
  624TMC3    H2 9248   4.313   3.383  16.592 -0.9551 -1.4204  1.5814
  624TMC3    C7 9249   4.482   3.466  16.395  0.1944 -1.1995  0.2391
  624TMC3    C8 9250   4.334   3.409  16.847  0.4111  0.5862 -0.0288
  624TMC3    O1 9251   4.577   3.480  16.320 -0.0297 -0.5711 -1.3455
  624TMC3    O2 9252   4.249   3.334  16.808  0.6596 -0.5104 -0.4864
  625MPD2     C 9253   0.168   4.407   0.636  0.5040  0.1586 -0.5793
  625MPD2    C1 9254   0.178   4.501   0.734  0.4806  0.6176 -0.2414
  625MPD2    C2 9255   0.292   4.513   0.814 -0.0032 -0.3298 -0.9897
  625MPD2    C3 9256   0.399   4.434   0.797 -0.5454 -0.0181  0.3275
  625MPD2    C4 9257   0.388   4.339   0.698  0.1008  0.7816  0.8339
  625MPD2    C5 9258   0.279   4.331   0.615  0.5069 -0.0973 -0.6452
  625MPD2     H 9259   0.288   4.589   0.891  0.7286 -1.3315  0.0387
  625MPD2    H1 9260   0.471   4.273   0.676 -1.1866 -0.4750 -0.2518
  625MPD2    H2 9261   0.078   4.389   0.578  0.1038  0.1128  0.0539
  625MPD2    H3 9262   0.269   4.248   0.546  1.1546  0.4495 -1.3841
  625MPD2     N 9263   0.517   4.447   0.875 -0.1888  0.0125  0.4497
  625MPD2    H5 9264   0.515   4.520   0.946 -1.6442 -1.8635  2.3312
  625MPD2    N1 9265   0.075   4.594   0.753  0.0131  0.5605 -0.0797
  625MPD2    H7 9266   0.081   4.679   0.809 -0.8844 -0.1116  1.0531
  626TMC3    C1 9267   4.583   4.700   0.740 -0.8509  0.0587  0.3721
  626TMC3    C2 9268   4.511   0.045   0.642  0.1207  0.1809 -0.1878
  626TMC3    C3 9269   4.454   0.163   0.678 -0.1802 -0.6647 -0.0490
  626TMC3    C4 9270   4.602   0.035   0.863  0.2136 -0.7249  0.0688
  626TMC3    C5 9271   4.546   0.159   0.890  0.3582  0.2477 -0.1902
  626TMC3    C6 9272   4.463   0.221   0.802 -0.3488 -0.2282  0.6976
  626TMC3     C 9273   4.671   4.593   0.696 -0.0707  0.0502  0.0157
  626TMC3     O 9274   4.617   4.514   0.618  1.0250  0.0795  0.0947
  626TMC3     H 9275   4.493   0.001   0.545 -0.0535 -2.0277  0.8377
  626TMC3    H1 9276   4.661   4.714   0.944 -0.0920 -0.0618  0.6385
  626TMC3    H2 9277   4.444   0.326   0.821 -1.2756 -0.2954  0.1073
  626TMC3    C7 9278   4.558   0.209   1.028 -0.1917  1.1045 -0.0447
  626TMC3    C8 9279   4.381   0.226   0.575  0.2470 -0.1807 -0.2750
  626TMC3    O1 9280   4.651   0.166   1.093 -0.3037 -0.1849 -0.3810
  626TMC3    O2 9281   4.378   0.169   0.468 -0.3316  0.3032 -0.3669
  627MPD2     C 9282   3.438   0.272  14.070 -1.2623 -0.8337 -0.5021
  627MPD2    C1 9283   3.442   0.298  14.206  0.4552  0.2747 -0.4474
  627MPD2    C2 9284   3.333   0.267  14.293  0.1990  0.3688  0.5446
  627MPD2    C3 9285   3.223   0.204  14.236  0.2538  0.3622 -0.4166
  627MPD2    C4 9286   3.219   0.173  14.101  0.0951 -0.0356  0.0721
  627MPD2    C5 9287   3.328   0.208  14.023 -0.3139  0.0054  0.5664
  627MPD2     H 9288   3.318   0.301  14.395 -3.2601 -1.3376  0.5902
  627MPD2    H1 9289   3.144   0.106  14.059 -1.1451  1.2986  0.1550
  627MPD2    H2 9290   3.529   0.282  14.011  1.0709  1.8255  3.5827
  627MPD2    H3 9291   3.343   0.179  13.919 -0.7138 -2.3935  1.1858
  627MPD2     N 9292   3.114   0.183  14.322 -0.3159  0.5389 -0.1086
  627MPD2    H5 9293   3.129   0.221  14.415  2.3190  0.5455 -0.5471
  627MPD2    N1 9294   3.558   0.350  14.273 -0.2757  0.6285 -0.0443
  627MPD2    H7 9295   3.571   0.349  14.373  0.0742  0.0728 -0.0953
  628TMC3    C1 9296   3.775   0.440  14.293 -0.0977 -0.8979  0.3960
  628TMC3    C2 9297   3.881   0.359  14.321  0.5203 -1.0137 -0.4322
  628TMC3    C3 9298   4.006   0.402  14.346 -0.3191 -0.3343  0.1796
  628TMC3    C4 9299   3.796   0.571  14.306  0.0177 -0.3968 -0.2198
  628TMC3    C5 9300   3.918   0.623  14.350 -0.1354 -0.1466  0.3787
  628TMC3    C6 9301   4.019   0.537  14.372  0.2007 -0.1517 -0.0268
  628TMC3     C 9302   3.670   0.399  14.205  0.1441 -0.2657 -0.0050
  628TMC3     O 9303   3.685   0.457  14.098 -0.4306  0.0891  0.0729
  628TMC3     H 9304   3.867   0.252  14.332 -0.0350 -0.8832  0.1584
  628TMC3    H1 9305   3.715   0.633  14.268 -0.1758 -0.3135  0.3294
  628TMC3    H2 9306   4.117   0.577  14.397 -0.5617  2.1181 -0.6004
  628TMC3    C7 9307   3.953   0.766  14.322 -0.1960  0.3373 -0.5558
  628TMC3    C8 9308   4.112   0.325  14.402 -0.7094  0.2137 -0.8598
  628TMC3    O1 9309   4.071   0.799  14.317  0.2271  0.3079  0.2293
  628TMC3    O2 9310   4.225   0.347  14.356  0.1883  0.3042  0.3367
  629MPD2     C 9311   1.175   3.953  16.485  0.1735 -0.3725 -0.0162
  629MPD2    C1 9312   1.252   3.849  16.531  0.4123 -0.2783  0.4244
  629MPD2    C2 9313   1.207   3.711  16.517  0.3246  0.6395  0.0524
  629MPD2    C3 9314   1.081   3.690  16.470 -0.2456 -0.2661  0.1041
  629MPD2    C4 9315   0.995   3.792  16.438 -0.1963 -0.2003  0.2372
  629MPD2    C5 9316   1.046   3.925  16.439 -0.2371  0.2787  0.6086
  629MPD2     H 9317   1.264   3.622  16.543 -1.3774  0.2589  2.4934
  629MPD2    H1 9318   0.896   3.787  16.393  0.3813 -1.0582 -0.9361
  629MPD2    H2 9319   1.208   4.055  16.496 -0.5192  0.0346 -1.6813
  629MPD2    H3 9320   0.987   4.010  16.407 -0.7557 -0.7612 -1.2101
  629MPD2     N 9321   1.037   3.556  16.460 -0.1974 -0.5588  0.2195
  629MPD2    H5 9322   1.104   3.484  16.485 -0.1303 -1.1479 -1.6168
  629MPD2    N1 9323   1.387   3.874  16.564 -0.2258 -0.4201  0.1384
  629MPD2    H7 9324   1.409   3.973  16.558 -1.5935 -0.1200  0.0013
  630TMC3    C1 9325   1.618   3.830  16.626  0.6374  0.5920 -0.2986
  630TMC3    C2 9326   1.682   3.903  16.530  0.5382  0.6622 -0.1760
  630TMC3    C3 9327   1.790   3.848  16.463  0.0885  0.0890  0.4791
  630TMC3    C4 9328   1.687   3.728  16.698 -0.0592  0.5834 -0.3965
  630TMC3    C5 9329   1.794   3.674  16.629 -0.1888 -0.5929 -0.8552
  630TMC3    C6 9330   1.846   3.733  16.515  0.5374  0.2918  1.0526
  630TMC3     C 9331   1.483   3.778  16.596 -0.0091 -1.3009  0.6345
  630TMC3     O 9332   1.465   3.662  16.621 -0.4935  1.1209 -0.5696
  630TMC3     H 9333   1.639   3.986  16.475  1.8499  2.0590  0.8849
  630TMC3    H1 9334   1.632   3.670  16.771 -0.3838  0.8537 -0.4219
  630TMC3    H2 9335   1.929   3.685  16.465  0.8894  0.5816  1.3610
  630TMC3    C7 9336   1.882   3.609  16.718 -0.1376 -0.5645 -0.0249
  630TMC3    C8 9337   1.897   3.942  16.448  1.0269 -0.0048  0.8272
  630TMC3    O1 9338   1.823   3.552  16.814 -0.0039  0.6470  0.1080
  630TMC3    O2 9339   2.001   3.906  16.508 -0.0661  0.4871 -0.0919
  631MPD2     C 9340   4.326   3.502  15.527 -0.9549  0.4373 -0.1189
  631MPD2    C1 9341   4.430   3.573  15.572 -0.0842  0.5734 -0.4715
  631MPD2    C2 9342   4.560   3.522  15.566  0.3233 -0.3308 -0.3130
  631MPD2    C3 9343   4.585   3.397  15.507  0.3505 -0.5427  0.2772
  631MPD2    C4 9344   4.476   3.336  15.444 -0.1132  0.4282 -0.4559
  631MPD2    C5 9345   4.346   3.384  15.460  0.8523 -0.4525  0.3395
  631MPD2     H 9346   4.644   3.576  15.609 -0.7618  0.3871  0.9024
  631MPD2    H1 9347   4.487   3.247  15.384 -0.5183  0.0790 -0.0192
  631MPD2    H2 9348   4.224   3.537  15.543 -0.4130  2.0424 -0.2388
  631MPD2    H3 9349   4.262   3.334  15.412 -0.4772  1.8450  0.2732
  631MPD2     N 9350   4.715   3.344  15.476 -0.1991  0.3901 -0.4809
  631MPD2    H5 9351   4.720   3.259  15.421 -2.2251 -1.4514  2.2083
  631MPD2    N1 9352   4.416   3.707  15.623 -0.0978 -0.0337 -0.5526
  631MPD2    H7 9353   4.500   3.760  15.641 -1.2161  2.1651 -1.8608
  632TMC3    C1 9354   4.315   3.914  15.654 -0.2048  0.6714 -0.2302
  632TMC3    C2 9355   4.207   3.980  15.706 -0.6721 -0.2822 -0.0235
  632TMC3    C3 9356   4.215   4.118  15.701 -0.2678 -0.2360 -0.3345
  632TMC3    C4 9357   4.425   3.974  15.597  0.1133 -0.3045  0.2212
  632TMC3    C5 9358   4.428   4.108  15.599  0.5115  1.3196  0.5011
  632TMC3    C6 9359   4.328   4.184  15.657  0.6663  0.6237  0.2868
  632TMC3     C 9360   4.299   3.775  15.636 -0.1911 -0.4437 -0.1258
  632TMC3     O 9361   4.182   3.750  15.624  0.2250 -0.4526  0.6444
  632TMC3     H 9362   4.125   3.923  15.747  0.4182 -0.6433  1.6602
  632TMC3    H1 9363   4.508   3.927  15.546  1.6112 -0.1639  2.5306
  632TMC3    H2 9364   4.333   4.291  15.642  1.3517  0.3716 -1.2919
  632TMC3    C7 9365   4.551   4.170  15.546  0.3005 -0.0446 -0.0585
  632TMC3    C8 9366   4.124   4.186  15.793  0.1151  0.3569  0.8405
  632TMC3    O1 9367   4.611   4.259  15.605 -0.5128  0.0358  0.1061
  632TMC3    O2 9368   4.032   4.122  15.841 -0.4239  0.1045 -0.2171
  633MPD2     C 9369   4.674   1.946  17.603 -0.8784  0.2662 -0.5022
  633MPD2    C1 9370   4.605   1.863  17.513  0.2872 -0.6344 -0.3535
  633MPD2    C2 9371   4.572   1.735  17.559  0.2822  0.2908 -0.6072
  633MPD2    C3 9372   4.590   1.698   0.005 -0.5446  0.1554 -0.0432
  633MPD2    C4 9373   4.658   1.775   0.085 -0.4999 -0.3664  0.3018
  633MPD2    C5 9374   4.694   1.899   0.039 -0.5110  0.8322  0.7577
  633MPD2     H 9375   4.559   1.659  17.483 -2.2207 -0.4662  0.5697
  633MPD2    H1 9376   4.680   1.749   0.188  0.4865 -3.2006 -0.6429
  633MPD2    H2 9377   4.712   2.045  17.583 -0.4608 -0.1377 -1.6752
  633MPD2    H3 9378   0.016   1.974   0.104  0.9111  0.2702  0.4634
  633MPD2     N 9379   4.547   1.573   0.060 -0.8953  0.2467  0.0509
  633MPD2    H5 9380   4.564   1.562   0.160 -1.0192  2.0117  0.2705
  633MPD2    N1 9381   4.584   1.888  17.376  0.2558 -0.6148 -0.4882
  633MPD2    H7 9382   4.553   1.815  17.312  0.4145 -1.5526  0.5132
  634TMC3    C1 9383   4.570   2.024  17.179  0.4067  0.3668  0.2504
  634TMC3    C2 9384   4.627   1.929  17.095 -0.1271 -0.1063 -0.3797
  634TMC3    C3 9385   4.606   1.942  16.962 -0.1354 -0.0421 -0.3287
  634TMC3    C4 9386   4.512   2.139  17.130 -0.4972 -0.2580 -0.8578
  634TMC3    C5 9387   4.517   2.152  16.991  0.4988  0.2359 -0.4222
  634TMC3    C6 9388   4.552   2.053  16.902 -0.0265  0.0278  0.6965
  634TMC3     C 9389   4.607   2.017  17.328 -0.4431  0.1373  0.1101
  634TMC3     O 9390   4.598   2.118  17.395  0.0500  0.1341 -0.2829
  634TMC3     H 9391   4.669   1.840  17.141 -1.3012 -0.0927  0.7410
  634TMC3    H1 9392   4.489   2.216  17.203  0.6664 -1.0556  0.3387
  634TMC3    H2 9393   4.540   2.061  16.795  0.2081  2.7986  0.8888
  634TMC3    C7 9394   4.492   2.281  16.922  0.4709 -0.4760  0.1456
  634TMC3    C8 9395   4.589   1.813  16.891 -0.1718  0.1518 -0.2543
  634TMC3    O1 9396   4.499   2.293  16.798 -0.6242  0.4999  0.0925
  634TMC3    O2 9397   4.630   1.710  16.940 -0.4425 -0.2499 -0.0493
  635TMC3    C1 9398   0.122   2.679  17.596  0.7134  0.3251 -0.7425
  635TMC3    C2 9399   0.195   2.622  17.495  0.0060 -0.1603 -0.5115
  635TMC3    C3 9400   0.188   2.488  17.474  0.4057 -0.4991  0.3941
  635TMC3    C4 9401   0.050   2.604  17.682  0.4349 -0.5583  0.0051
  635TMC3    C5 9402   0.046   2.469  17.651 -0.1500  0.4965 -1.1622
  635TMC3    C6 9403   0.104   2.407  17.546 -0.7662  0.1793 -0.2052
  635TMC3     C 9404   0.120   2.822  17.610  0.7969  0.3734 -0.7689
  635TMC3     O 9405   0.117   2.863   0.045  0.5822  0.0113 -0.2221
  635TMC3     H 9406   0.264   2.675  17.430  0.5266  1.2369  1.1602
  635TMC3    H1 9407   4.714   2.656   0.072  2.1167  1.4057 -0.0871
  635TMC3    H2 9408   0.112   2.299  17.542 -0.8572  0.1882 -0.6435
  635TMC3    C7 9409   4.710   2.373   0.058  0.3383 -0.2913 -0.4556
  635TMC3    C8 9410   0.278   2.423  17.384  0.1154 -0.7917  0.0104
  635TMC3    O1 9411   4.700   2.252   0.026 -0.1884 -0.4040 -0.1006
  635TMC3    O2 9412   0.319   2.309  17.405  0.1997 -0.3330 -0.3866
  636MPD2     C 9413   0.427   1.857  16.215  0.4011  0.1989  0.3096
  636MPD2    C1 9414   0.516   1.912  16.310  0.9209 -0.9811 -0.1899
  636MPD2    C2 9415   0.557   1.835  16.410 -0.1979  0.3177 -0.2607
  636MPD2    C3 9416   0.500   1.710  16.427  0.2597  0.1840  0.0803
  636MPD2    C4 9417   0.421   1.648  16.328  0.2977  0.9746  0.0445
  636MPD2    C5 9418   0.386   1.727  16.220  0.6368  0.3463 -0.3812
  636MPD2     H 9419   0.633   1.867  16.481 -1.0647  2.0393 -0.1157
  636MPD2    H1 9420   0.382   1.547  16.330  0.3750  0.9458  0.0881
  636MPD2    H2 9421   0.393   1.917  16.131 -3.1937 -0.9067  0.9938
  636MPD2    H3 9422   0.314   1.685  16.151  0.3100  1.6258 -0.8225
  636MPD2     N 9423   0.554   1.635  16.533  0.0533  0.4972  0.1027
  636MPD2    H5 9424   0.635   1.673  16.581  0.1640 -1.1498  1.2199
  636MPD2    N1 9425   0.562   2.051  16.296  0.2208 -0.3862 -0.5536
  636MPD2    H7 9426   0.615   2.096  16.370 -1.2346  0.4135  0.0171
  637TMC3    C1 9427   0.635   1.460  16.660 -0.3495  0.1177  0.2308
  637TMC3    C2 9428   0.671   1.549  16.756  0.0885  0.2431 -0.0698
  637TMC3    C3 9429   0.768   1.514  16.840  0.1791 -0.4293  0.3824
  637TMC3    C4 9430   0.703   1.344  16.644  0.7760 -0.2271 -0.0014
  637TMC3    C5 9431   0.821   1.319  16.707 -0.9662 -0.0253  0.2917
  637TMC3    C6 9432   0.838   1.400  16.816 -0.2310 -0.2399 -0.5931
  637TMC3     C 9433   0.539   1.500  16.554  0.0664  0.6157 -0.0010
  637TMC3     O 9434   0.483   1.413  16.493 -0.0242 -0.1945 -0.1115
  637TMC3     H 9435   0.617   1.642  16.765 -1.1760 -0.5085  0.1443
  637TMC3    H1 9436   0.686   1.283  16.556  0.0571 -1.6082  1.0982
  637TMC3    H2 9437   0.932   1.381  16.867 -1.0582  1.1109  1.3906
  637TMC3    C7 9438   0.940   1.293  16.627  0.4323 -0.1456 -0.4259
  637TMC3    C8 9439   0.858   1.620  16.858  0.1756 -0.2175  0.0374
  637TMC3    O1 9440   1.036   1.354  16.664 -0.4159 -0.1217  0.2273
  637TMC3    O2 9441   0.833   1.722  16.793  0.1639  0.2749  0.2180
  638MPD2     C 9442   0.788   0.924  15.040 -0.2875  0.2629 -0.4250
  638MPD2    C1 9443   0.800   0.791  15.017  0.0766 -0.5510 -0.1450
  638MPD2    C2 9444   0.738   0.696  15.102 -0.3124  0.6056 -0.2418
  638MPD2    C3 9445   0.661   0.736  15.207 -0.6785 -0.1162 -0.0073
  638MPD2    C4 9446   0.638   0.874  15.227  0.6348  0.0223 -0.2156
  638MPD2    C5 9447   0.707   0.961  15.146 -0.0041 -0.1828  0.5582
  638MPD2     H 9448   0.759   0.590  15.092 -1.2539  0.3210  0.8738
  638MPD2    H1 9449   0.564   0.913  15.297 -0.7582 -0.0046 -1.6768
  638MPD2    H2 9450   0.820   1.004  14.974 -1.3478  1.2617  0.2711
  638MPD2    H3 9451   0.688   1.065  15.170 -1.2220  0.2891 -2.4089
  638MPD2     N 9452   0.609   0.624  15.275 -0.3162 -0.2324 -0.3322
  638MPD2    H5 9453   0.652   0.533  15.264 -1.0137 -0.4286 -1.4639
  638MPD2    N1 9454   0.862   0.761  14.898  0.2561  0.2769  0.4230
  638MPD2    H7 9455   0.877   0.846  14.845  0.3467  0.5178  0.8340
  639TMC3    C1 9456   0.456   0.501  15.390 -0.0783 -0.1809 -0.2731
  639TMC3    C2 9457   0.330   0.466  15.363 -0.6373 -0.7430 -0.8099
  639TMC3    C3 9458   0.299   0.334  15.388 -0.7883  0.2096 -0.2815
  639TMC3    C4 9459   0.549   0.420  15.453 -0.2768 -0.5853  0.2995
  639TMC3    C5 9460   0.515   0.295  15.490 -0.5787  0.9735  0.3892
  639TMC3    C6 9461   0.389   0.257  15.458  0.0371  0.1290 -0.0090
  639TMC3     C 9462   0.494   0.633  15.348  0.3281  0.1542 -0.0581
  639TMC3     O 9463   0.410   0.725  15.353 -0.1182 -0.3839  0.3525
  639TMC3     H 9464   0.266   0.523  15.296  0.6106  2.0174  0.3468
  639TMC3    H1 9465   0.642   0.466  15.485 -1.6504  0.1200  3.3133
  639TMC3    H2 9466   0.352   0.156  15.475  0.8381 -0.6040 -2.4712
  639TMC3    C7 9467   0.607   0.191  15.519 -0.2900  0.8256  0.6380
  639TMC3    C8 9468   0.256   0.268  15.267  0.2573  0.5896 -0.2203
  639TMC3    O1 9469   0.571   0.108  15.596  0.5593  0.2748 -0.0604
  639TMC3    O2 9470   0.346   0.211  15.202 -0.2524 -0.1501  0.3990
  640MPD2     C 9471   0.860   4.548   9.802 -0.7754  0.5936 -0.2744
  640MPD2    C1 9472   0.740   4.486   9.762 -0.3780  0.8666 -0.3513
  640MPD2    C2 9473   0.627   4.515   9.834 -0.1917 -0.0934 -0.9589
  640MPD2    C3 9474   0.633   4.598   9.945  1.0243  0.1729 -0.6662
  640MPD2    C4 9475   0.754   4.658   9.980 -0.8090 -0.2421 -0.5787
  640MPD2    C5 9476   0.867   4.626   9.914 -0.1738  0.0557 -0.8028
  640MPD2     H 9477   0.536   4.463   9.806  0.0313 -0.3956 -1.1287
  640MPD2    H1 9478   0.751   0.011  10.059 -0.1604 -0.3668 -0.4360
  640MPD2    H2 9479   0.945   4.521   9.741 -1.7718  1.1083 -1.8851
  640MPD2    H3 9480   0.960   4.679   9.936  0.5578 -0.6994 -2.0814
  640MPD2     N 9481   0.526   4.613  10.033  0.1183  0.4858  0.2523
  640MPD2    H5 9482   0.522   4.696  10.090 -0.0644  0.1410  0.7418
  640MPD2    N1 9483   0.749   4.399   9.648 -0.0946  0.5144 -0.3103
  640MPD2    H7 9484   0.840   4.394   9.603  0.3876  0.6529  0.6562
  641TMC3    C1 9485   0.696   4.244   9.481 -0.6516  1.1197 -0.0673
  641TMC3    C2 9486   0.823   4.203   9.478  0.0511  0.5868  0.1390
  641TMC3    C3 9487   0.858   4.096   9.400 -1.0188  0.3662 -0.0144
  641TMC3    C4 9488   0.595   4.173   9.417 -0.3833  0.0820 -0.2416
  641TMC3    C5 9489   0.635   4.066   9.340  0.3508  0.6400  0.5980
  641TMC3    C6 9490   0.763   4.029   9.330 -0.2350  0.0575 -0.2903
  641TMC3     C 9491   0.645   4.332   9.580  0.0005  0.1323  0.2419
  641TMC3     O 9492   0.525   4.336   9.603 -0.9159  0.0547  0.3558
  641TMC3     H 9493   0.902   4.265   9.520  1.4439 -0.5844 -0.7177
  641TMC3    H1 9494   0.503   4.229   9.409 -0.3658 -0.3129 -3.1384
  641TMC3    H2 9495   0.790   3.952   9.259 -0.5962  0.9627 -1.3966
  641TMC3    C7 9496   0.555   4.025   9.227 -0.5890  0.0948  1.0450
  641TMC3    C8 9497   0.979   4.013   9.432 -0.0349 -0.1943 -0.6508
  641TMC3    O1 9498   0.609   3.973   9.134 -0.5385 -0.0841 -0.0158
  641TMC3    O2 9499   1.009   3.931   9.348 -0.4780  0.1217  0.5880
  642TMC3    C1 9500   2.253   0.774  12.315  0.6533  0.0506 -0.3461
  642TMC3    C2 9501   2.347   0.814  12.405 -0.0310  0.2001 -0.6029
  642TMC3    C3 9502   2.411   0.714  12.471  0.5188  0.8567  0.2729
  642TMC3    C4 9503   2.245   0.648  12.266 -0.2488  0.3969 -0.1913
  642TMC3    C5 9504   2.310   0.553  12.338  0.3161 -0.1603 -0.5468
  642TMC3    C6 9505   2.393   0.582  12.439 -0.1999  0.6511 -0.3603
  642TMC3     C 9506   2.160   0.868  12.263 -0.2296 -1.2415  0.1586
  642TMC3     O 9507   2.100   0.849  12.157 -0.1662 -0.1475 -0.5465
  642TMC3     H 9508   2.358   0.917  12.435  1.6214 -0.3528  0.7015
  642TMC3    H1 9509   2.154   0.620  12.214 -1.2515 -0.6589  2.1493
  642TMC3    H2 9510   2.450   0.499  12.480  0.5907  1.2325 -0.2922
  642TMC3    C7 9511   2.248   0.425  12.338 -0.2991  0.2254  0.4111
  642TMC3    C8 9512   2.488   0.737  12.590  1.0040  0.2876 -0.1867
  642TMC3    O1 9513   2.189   0.396  12.233 -0.6101 -0.2641 -0.1812
  642TMC3    O2 9514   2.508   0.641  12.667  0.7016  0.4700  0.2983
  643TMC3    C1 9515   1.978   4.534   0.688  0.3915 -0.0607 -0.3457
  643TMC3    C2 9516   1.846   4.536   0.664 -0.4168  0.2274 -0.2997
  643TMC3    C3 9517   1.804   4.560   0.532 -0.0991  0.3516 -0.4944
  643TMC3    C4 9518   2.062   4.571   0.586 -0.6925  0.2853 -0.2957
  643TMC3    C5 9519   2.020   4.594   0.460  0.7364  0.1392 -1.2793
  643TMC3    C6 9520   1.885   4.578   0.427  0.0604  0.4223  0.3240
  643TMC3     C 9521   2.004   4.607   0.814  0.0807 -0.5177 -0.2170
  643TMC3     O 9522   1.916   4.639   0.891 -0.3383 -0.7519  0.1395
  643TMC3     H 9523   1.771   4.528   0.741  0.2529 -1.3983  0.1881
  643TMC3    H1 9524   2.166   4.586   0.612 -0.2590 -0.0528 -1.8262
  643TMC3    H2 9525   1.859   4.598   0.324  2.9405  0.1488 -0.4703
  643TMC3    C7 9526   2.083   4.694   0.375 -0.1644  0.3552  0.6203
  643TMC3    C8 9527   1.679   4.633   0.519  0.5188  0.1868 -0.4281
  643TMC3    O1 9528   2.003   0.053   0.328  0.3080  0.3613  0.4298
  643TMC3    O2 9529   1.580   4.596   0.579  0.3304 -0.3514  0.5895
  644MPD2     C 9530   1.470   4.685   9.809 -0.0640 -0.9103 -0.2778
  644MPD2    C1 9531   1.399   4.598   9.726  0.3115 -0.9203 -0.3422
  644MPD2    C2 9532   1.285   4.648   9.669 -0.5317 -0.0600  0.7166
  644MPD2    C3 9533   1.240   0.056   9.698  1.1476  0.4845  0.3552
  644MPD2    C4 9534   1.318   0.142   9.766  0.4545  0.3012  0.6767
  644MPD2    C5 9535   1.430   0.092   9.824 -0.3530  0.1229 -0.8224
  644MPD2     H 9536   1.218   4.575   9.626 -1.8056 -0.7004  3.8110
  644MPD2    H1 9537   1.284   0.244   9.782 -2.0163 -0.3265 -0.5564
  644MPD2    H2 9538   1.554   4.649   9.867  1.7590  0.3910 -2.1323
  644MPD2    H3 9539   1.483   0.162   9.887 -2.3557 -1.9191  3.1321
  644MPD2     N 9540   1.108   0.076   9.653  0.7095 -0.0513  0.9545
  644MPD2    H5 9541   1.055   0.007   9.602  0.4921 -0.8577  2.2793
  644MPD2    N1 9542   1.450   4.464   9.710 -0.4397  1.0938  0.1453
  644MPD2    H7 9543   1.533   4.438   9.762  0.7371  0.8654 -1.8241
  645TMC3    C1 9544   0.902   0.150   9.614  0.8958  0.0192  0.6400
  645TMC3    C2 9545   0.880   0.074   9.499  0.3689 -0.6529 -0.3216
  645TMC3    C3 9546   0.753   0.034   9.469  0.4950 -0.3390  0.6617
  645TMC3    C4 9547   0.793   0.189   9.693  0.1014 -0.5838 -0.2171
  645TMC3    C5 9548   0.665   0.156   9.656  0.2236  0.1775  0.5435
  645TMC3    C6 9549   0.642   0.075   9.546  0.0410 -0.0328 -0.8753
  645TMC3     C 9550   1.029   0.180   9.675  0.5285  0.6771 -0.1212
  645TMC3     O 9551   1.037   0.268   9.758 -0.5061  0.1570  0.6100
  645TMC3     H 9552   0.959   0.029   9.440  3.5321  2.3451  1.6122
  645TMC3    H1 9553   0.816   0.253   9.778 -0.1105 -2.9447  1.6231
  645TMC3    H2 9554   0.540   0.047   9.521 -0.4444  2.4103 -1.6150
  645TMC3    C7 9555   0.556   0.188   9.746  0.7954  0.0446 -0.4983
  645TMC3    C8 9556   0.746   4.651   9.363  0.1198  0.2126  0.4347
  645TMC3    O1 9557   0.597   0.267   9.833  0.2257  0.2990 -0.2701
  645TMC3    O2 9558   0.851   4.616   9.310 -0.6446  0.8214 -0.0312
  646MPD2     C 9559   0.834   4.206  14.729 -0.1660  0.4106  0.4326
  646MPD2    C1 9560   0.735   4.191  14.826 -0.7207  0.3084  0.6208
  646MPD2    C2 9561   0.602   4.232  14.798  0.0362  0.8295 -0.4103
  646MPD2    C3 9562   0.576   4.297  14.679 -0.7723 -0.4164 -0.1280
  646MPD2    C4 9563   0.679   4.305  14.587 -0.0533  0.0299  0.2542
  646MPD2    C5 9564   0.803   4.258  14.611 -0.2079  0.5367  0.1130
  646MPD2     H 9565   0.532   4.218  14.880  0.9624  1.9085  0.5624
  646MPD2    H1 9566   0.668   4.340  14.485 -0.7109  0.3576  0.4366
  646MPD2    H2 9567   0.935   4.170  14.742 -0.3512  0.1768  1.2210
  646MPD2    H3 9568   0.880   4.257  14.535 -2.6962 -1.4873 -2.3844
  646MPD2     N 9569   0.446   4.349  14.654 -0.4933  0.2587 -0.1794
  646MPD2    H5 9570   0.379   4.347  14.729 -0.0953  1.0579  0.1978
  646MPD2    N1 9571   0.782   4.130  14.946  0.5965 -0.1669  0.4127
  646MPD2    H7 9572   0.881   4.125  14.970  1.2703 -2.7659 -2.8045
  647TMC3    C1 9573   0.797   3.994  15.130 -0.2646 -0.2747 -0.2020
  647TMC3    C2 9574   0.747   3.888  15.196 -0.0173 -0.3280 -0.3806
  647TMC3    C3 9575   0.814   3.843  15.298 -0.2101  0.2591  0.3432
  647TMC3    C4 9576   0.925   4.045  15.152 -0.2180 -0.2101 -0.2521
  647TMC3    C5 9577   0.995   3.989  15.256 -0.2954  0.6191  1.0262
  647TMC3    C6 9578   0.933   3.897  15.337  0.4003 -0.3030  0.1595
  647TMC3     C 9579   0.711   4.039  15.023  0.3002  0.0330 -1.0331
  647TMC3     O 9580   0.596   3.998  15.002 -0.3305 -0.7265  0.5459
  647TMC3     H 9581   0.659   3.836  15.160 -0.3697  1.1011 -1.6092
  647TMC3    H1 9582   0.962   4.127  15.091 -1.1954 -0.1809 -0.8006
  647TMC3    H2 9583   0.994   3.841  15.408  1.2507 -1.1086 -1.2179
  647TMC3    C7 9584   1.138   4.011  15.268 -0.0371 -0.3165  0.5318
  647TMC3    C8 9585   0.793   3.716  15.363  0.1817 -0.2436  0.3108
  647TMC3    O1 9586   1.185   3.997  15.379  0.4129  0.0758 -0.5257
  647TMC3    O2 9587   0.816   3.704  15.484 -0.0361 -0.0687  0.2563
  648TMC3    C1 9588   0.034   1.935  16.216  0.1970  0.8413 -0.0412
  648TMC3    C2 9589   0.044   1.806  16.173 -0.1481  1.5812  0.2971
  648TMC3    C3 9590   0.025   1.780  16.041 -0.4981 -0.2115  0.3324
  648TMC3    C4 9591   4.720   2.035  16.127  1.0079 -0.0889  0.0082
  648TMC3    C5 9592   4.697   2.005  15.996 -0.1892  0.4598 -0.7142
  648TMC3    C6 9593   4.701   1.876  15.957 -0.7606  0.1258 -0.5983
  648TMC3     C 9594   0.066   1.982  16.354  0.0572  0.2082  0.7458
  648TMC3     O 9595   0.052   2.101  16.379  0.1947  0.2018 -0.5369
  648TMC3     H 9596   0.076   1.724  16.237  0.5305  0.2587 -1.7363
  648TMC3    H1 9597   4.719   2.137  16.164  1.0720 -0.4434  0.9800
  648TMC3    H2 9598   4.673   1.855  15.854  1.2047  0.2781 -1.1487
  648TMC3    C7 9599   4.592   2.088  15.926  0.1417 -0.4171  0.3985
  648TMC3    C8 9600   4.710   1.646  16.006 -0.5253 -0.1015  0.1639
  648TMC3    O1 9601   4.596   2.069  15.804 -1.2514  0.2587 -0.3522
  648TMC3    O2 9602   4.671   1.570  16.089 -0.0913  0.0389  0.2082
  649TMC3    C1 9603   3.744   2.948  12.879  0.3250 -0.4183 -0.1141
  649TMC3    C2 9604   3.879   2.986  12.880  0.3565  0.3990 -0.3935
  649TMC3    C3 9605   3.968   2.939  12.976 -0.5303 -0.1602 -0.1638
  649TMC3    C4 9606   3.693   2.876  12.986  0.7579 -0.3166  0.0170
  649TMC3    C5 9607   3.782   2.828  13.080  0.3225 -0.2164 -0.0958
  649TMC3    C6 9608   3.912   2.860  13.080  0.7989 -0.6753 -0.7780
  649TMC3     C 9609   3.646   3.042  12.821 -0.4458  0.7418 -0.1479
  649TMC3     O 9610   3.550   3.069  12.892 -0.2621  0.0891 -0.0795
  649TMC3     H 9611   3.923   3.030  12.792  0.6514  0.5221 -0.1831
  649TMC3    H1 9612   3.588   2.854  13.003  1.6286 -2.7726  2.1340
  649TMC3    H2 9613   3.974   2.813  13.155 -1.1053 -0.6429  0.7871
  649TMC3    C7 9614   3.743   2.718  13.166  0.3830  0.0070  0.2980
  649TMC3    C8 9615   4.116   2.975  12.979  0.3634  0.2009  0.5578
  649TMC3    O1 9616   3.743   2.734  13.287 -0.2366  0.4448 -0.3088
  649TMC3    O2 9617   4.181   2.927  13.068  0.5161 -0.2099 -0.5080
  650TMC3    C1 9618   1.509   0.047  12.793  1.0800 -0.3895 -0.2517
  650TMC3    C2 9619   1.504   0.180  12.813  0.6202 -0.0566  0.5283
  650TMC3    C3 9620   1.425   0.255  12.727 -0.0970  0.4558  0.0980
  650TMC3    C4 9621   1.439   4.707  12.693  0.1456 -0.3149  0.6249
  650TMC3    C5 9622   1.360   0.068  12.621  0.3660  0.5645 -0.2686
  650TMC3    C6 9623   1.342   0.202  12.639  0.3502  0.1625  0.1224
  650TMC3     C 9624   1.635   4.705  12.829 -0.3140 -0.1862 -0.5374
  650TMC3     O 9625   1.722   0.054  12.872 -0.1617  0.8037  0.1909
  650TMC3     H 9626   1.565   0.236  12.883  1.6243  0.0996 -0.4759
  650TMC3    H1 9627   1.463   4.604  12.668  0.8738  0.3233 -1.3010
  650TMC3    H2 9628   1.263   0.254  12.586  1.5490 -0.5845 -2.3992
  650TMC3    C7 9629   1.291   0.012  12.499  0.2872 -0.0302  0.5713
  650TMC3    C8 9630   1.425   0.392  12.763  0.3947  0.2210 -0.2113
  650TMC3    O1 9631   1.250   4.615  12.498 -0.0522  0.0639 -0.2813
  650TMC3    O2 9632   1.527   0.443  12.805 -0.3207  0.5631  0.0812
  651MPD2     C 9633   0.752   1.708  10.854  0.4369 -0.0664  0.6050
  651MPD2    C1 9634   0.716   1.841  10.858  0.0687 -0.6759  0.1753
  651MPD2    C2 9635   0.819   1.936  10.853  0.0267  0.5785 -0.4885
  651MPD2    C3 9636   0.946   1.891  10.823 -0.6229  0.0514  0.2717
  651MPD2    C4 9637   0.980   1.759  10.833  0.4906  0.4200 -0.5726
  651MPD2    C5 9638   0.880   1.671  10.836 -0.0590 -0.6216  0.0673
  651MPD2     H 9639   0.800   2.043  10.864 -0.2290  0.4821  0.0224
  651MPD2    H1 9640   1.078   1.715  10.818  1.3907  2.0216  0.5374
  651MPD2    H2 9641   0.689   1.622  10.876  0.6405 -0.7828 -1.6453
  651MPD2    H3 9642   0.901   1.565  10.824  2.0910  0.1504 -2.8389
  651MPD2     N 9643   1.054   1.985  10.804 -0.4321 -0.6220 -0.1711
  651MPD2    H5 9644   1.024   2.082  10.800  0.5246 -0.2359  2.1861
  651MPD2    N1 9645   0.582   1.879  10.872  0.1626 -0.3366 -0.2656
  651MPD2    H7 9646   0.570   1.978  10.887  0.0874 -0.2382 -0.9815
  652TMC3    C1 9647   1.459   2.177  10.647  0.1555  0.1158  0.1848
  652TMC3    C2 9648   1.386   2.069  10.667  1.0098 -0.0353  0.1105
  652TMC3    C3 9649   1.263   2.082  10.726 -0.1858  0.4429 -0.7566
  652TMC3    C4 9650   1.408   2.299  10.686  0.8954 -0.0934 -0.1163
  652TMC3    C5 9651   1.280   2.312  10.734  0.1170  0.1308  0.7035
  652TMC3    C6 9652   1.200   2.203  10.759  0.2243  0.6322  0.2216
  652TMC3     C 9653   1.604   2.159  10.650  0.4463  0.3228  0.1310
  652TMC3     O 9654   1.638   2.058  10.711 -0.8234 -0.3056 -0.4796
  652TMC3     H 9655   1.422   1.971  10.638  0.5946 -1.0789  3.1547
  652TMC3    H1 9656   1.478   2.379  10.707  0.0269  0.4987  0.5152
  652TMC3    H2 9657   1.110   2.226  10.815 -0.3575  0.5928 -0.7025
  652TMC3    C7 9658   1.249   2.439  10.804  1.5550  0.2456 -0.3423
  652TMC3    C8 9659   1.184   1.962  10.760 -0.1420 -0.3010 -0.0750
  652TMC3    O1 9660   1.170   2.432  10.900  0.5463  0.2336  0.1224
  652TMC3    O2 9661   1.247   1.855  10.763 -0.3147 -0.2034 -0.0983
  653MPD2     C 9662   4.278   1.955  17.576 -0.0328  0.0239 -0.8852
  653MPD2    C1 9663   4.178   2.002  17.655 -0.4498 -0.5825 -0.0817
  653MPD2    C2 9664   4.055   1.935  17.650 -0.3775 -0.0923 -0.1315
  653MPD2    C3 9665   4.040   1.818  17.582 -0.0266  0.4942  0.6063
  653MPD2    C4 9666   4.150   1.763  17.518 -0.2059  0.5864 -0.0074
  653MPD2    C5 9667   4.264   1.839  17.511 -0.1546  0.4788  0.0690
  653MPD2     H 9668   3.967   1.969   0.016 -1.5088 -1.7721 -0.9305
  653MPD2    H1 9669   4.138   1.674  17.458  0.9795  1.0035 -0.8678
  653MPD2    H2 9670   4.372   2.009  17.569  0.9269 -1.3592  1.0095
  653MPD2    H3 9671   4.349   1.801  17.458  0.2155  2.7099 -0.9496
  653MPD2     N 9672   3.917   1.755  17.583 -0.3020 -0.1539 -0.0307
  653MPD2    H5 9673   3.845   1.812  17.626 -2.0330 -2.8362  0.5729
  653MPD2    N1 9674   4.191   2.126   0.034 -0.1916  0.2244  0.2989
  653MPD2    H7 9675   4.278   2.173   0.011 -2.4287  3.7687 -0.9217
  654TMC3    C1 9676   3.738   1.608  17.553 -0.0431 -0.5386  0.2711
  654TMC3    C2 9677   3.653   1.711  17.571  0.1267 -0.3994  0.3353
  654TMC3    C3 9678   3.522   1.681  17.553  0.0589  0.2738 -0.3756
  654TMC3    C4 9679   3.700   1.471  17.537  0.0383  0.5511  0.3310
  654TMC3    C5 9680   3.566   1.453  17.537 -0.4022  0.4059  0.2375
  654TMC3    C6 9681   3.473   1.555  17.540 -0.2681  0.2491  0.5399
  654TMC3     C 9682   3.879   1.629  17.541 -0.2442  0.3046 -0.8177
  654TMC3     O 9683   3.953   1.554  17.480 -0.3537  0.0093  0.2170
  654TMC3     H 9684   3.680   1.814  17.588 -0.3654 -0.3100  0.5845
  654TMC3    H1 9685   3.780   1.398  17.542 -0.7394 -0.1936  1.7887
  654TMC3    H2 9686   3.370   1.521  17.542 -0.8819  1.9878 -1.8058
  654TMC3    C7 9687   3.517   1.324  17.486 -0.2597  0.9106 -0.2377
  654TMC3    C8 9688   3.446   1.776  17.478 -0.1016  0.3162  0.4289
  654TMC3    O1 9689   3.407   1.328  17.428  0.9906  0.2608  0.2602
  654TMC3    O2 9690   3.473   1.896  17.493 -0.6942  0.1123 -0.0005
  655MPD2     C 9691   0.510   2.128  15.640 -0.1887 -0.4009 -0.3716
  655MPD2    C1 9692   0.396   2.182  15.567  0.5349 -0.3804  0.0055
  655MPD2    C2 9693   0.372   2.132  15.440  0.9233  0.3059 -0.0488
  655MPD2    C3 9694   0.451   2.032  15.382 -0.4520  0.1779  0.2973
  655MPD2    C4 9695   0.564   1.992  15.452  0.0062 -0.7073  0.3519
  655MPD2    C5 9696   0.597   2.040  15.578  0.3306  0.1489  0.1754
  655MPD2     H 9697   0.282   2.158  15.386  0.3437 -2.3801 -0.3681
  655MPD2    H1 9698   0.637   1.923  15.412  0.9586 -0.1916  1.1990
  655MPD2    H2 9699   0.547   2.166  15.735 -1.5614 -2.0961  0.8539
  655MPD2    H3 9700   0.691   2.010  15.624  0.0150 -2.0825 -0.6204
  655MPD2     N 9701   0.429   1.981  15.252 -0.3541 -0.4134  0.0572
  655MPD2    H5 9702   0.510   1.937  15.209 -0.8528 -2.3169  1.0741
  655MPD2    N1 9703   0.304   2.273  15.619 -0.2573 -0.2224 -0.0886
  655MPD2    H7 9704   0.237   2.305  15.550 -0.3419 -0.3088 -0.0458
  656TMC3    C1 9705   0.201   2.411  15.778  0.3956  0.1118 -0.1834
  656TMC3    C2 9706   0.161   2.409  15.907 -0.0966  0.2889  0.1638
  656TMC3    C3 9707   0.064   2.501  15.943  0.2034 -0.2577 -0.6604
  656TMC3    C4 9708   0.145   2.491  15.684 -0.5543 -0.2472 -0.3401
  656TMC3    C5 9709   0.047   2.578  15.721 -0.0060  0.7249 -0.7092
  656TMC3    C6 9710   4.715   2.575  15.849 -0.6183 -0.1339 -0.1230
  656TMC3     C 9711   0.309   2.319  15.748 -0.4260  0.2934 -0.1259
  656TMC3     O 9712   0.390   2.299  15.836  0.6113 -0.3555  0.6646
  656TMC3     H 9713   0.207   2.342  15.978  1.8192 -2.3439 -3.5726
  656TMC3    H1 9714   0.193   2.490  15.587 -0.9255 -6.8539 -0.4824
  656TMC3    H2 9715   4.619   2.619  15.873  0.0178  0.6865  0.8923
  656TMC3    C7 9716   4.703   2.638  15.607 -0.1651 -0.6618  0.9928
  656TMC3    C8 9717   0.018   2.472  16.077  0.0274  1.0472 -0.1602
  656TMC3    O1 9718   4.716   2.588  15.497 -0.4285 -0.2641  0.1070
  656TMC3    O2 9719   0.041   2.362  16.119  0.2130  0.2434 -0.1994
  657TMC3    C1 9720   4.140   1.541  14.972  0.0196 -0.4379 -0.3798
  657TMC3    C2 9721   4.073   1.587  15.084  0.5716 -0.9322 -0.2538
  657TMC3    C3 9722   3.959   1.667  15.076 -0.0241  0.8454 -0.6792
  657TMC3    C4 9723   4.092   1.563  14.850 -0.1891 -0.2694 -0.1195
  657TMC3    C5 9724   3.977   1.640  14.840  0.0093  0.7675  0.2298
  657TMC3    C6 9725   3.906   1.688  14.952  0.2147 -0.0189  0.4875
  657TMC3     C 9726   4.227   1.430  14.984 -0.0234 -0.3565 -0.2287
  657TMC3     O 9727   4.325   1.430  14.907 -0.1787  0.2616 -0.0361
  657TMC3     H 9728   4.108   1.555  15.181  1.6918 -1.5204 -0.8449
  657TMC3    H1 9729   4.156   1.545  14.764 -0.5765 -0.0294 -0.4580
  657TMC3    H2 9730   3.800   1.709  14.949  0.7531  3.0737  2.8463
  657TMC3    C7 9731   3.933   1.670  14.702 -0.0125 -0.1540 -0.1472
  657TMC3    C8 9732   3.947   1.781  15.168 -0.7847  0.0672  0.0467
  657TMC3    O1 9733   3.996   1.611  14.617 -0.4266 -0.1418 -0.0476
  657TMC3    O2 9734   3.858   1.853  15.123  0.2132  0.1346  0.0761
  658MPD2     C 9735   0.725   1.489  15.011 -0.3327 -0.4921  0.3427
  658MPD2    C1 9736   0.611   1.523  14.938 -0.1996  0.7257  0.3170
  658MPD2    C2 9737   0.618   1.524  14.799 -0.9135  0.4626 -0.1552
  658MPD2    C3 9738   0.740   1.510  14.728  0.3983  0.6959 -0.4558
  658MPD2    C4 9739   0.852   1.485  14.804  0.8242  0.3485 -0.0684
  658MPD2    C5 9740   0.840   1.458  14.938 -0.1721 -0.3685  0.4541
  658MPD2     H 9741   0.527   1.534  14.741 -0.7654 -1.9651 -0.7877
  658MPD2    H1 9742   0.941   1.456  14.749  0.7156 -0.5678  0.2269
  658MPD2    H2 9743   0.728   1.484  15.120  1.4441 -2.2133  0.2060
  658MPD2    H3 9744   0.933   1.429  14.986  0.3097 -0.3160 -0.4560
  658MPD2     N 9745   0.741   1.539  14.594 -0.0836 -0.1186 -0.2179
  658MPD2    H5 9746   0.652   1.556  14.550  0.1855 -1.5369 -1.2810
  658MPD2    N1 9747   0.498   1.575  15.012 -0.0170 -0.1450  0.0344
  658MPD2    H7 9748   0.518   1.594  15.110 -1.0737  0.9743  0.0339
  659TMC3    C1 9749   0.307   1.717  15.010  0.1274 -0.0706  0.0967
  659TMC3    C2 9750   0.384   1.814  15.063 -0.8603 -0.9946 -0.5329
  659TMC3    C3 9751   0.346   1.946  15.044  0.1344 -0.0682 -0.0363
  659TMC3    C4 9752   0.189   1.741  14.942 -0.1605  0.0972  0.4756
  659TMC3    C5 9753   0.157   1.872  14.924 -0.1851  0.5484  0.7850
  659TMC3    C6 9754   0.231   1.976  14.970  0.8776  0.2340  0.6055
  659TMC3     C 9755   0.379   1.605  14.955 -0.3280 -0.0040 -0.4202
  659TMC3     O 9756   0.321   1.553  14.861 -0.1757  0.3096  0.4479
  659TMC3     H 9757   0.475   1.797  15.120 -0.4633  2.7561 -0.0389
  659TMC3    H1 9758   0.124   1.658  14.917  0.3018 -0.3154  0.6208
  659TMC3    H2 9759   0.201   2.079  14.958 -1.0257 -0.6325 -2.0542
  659TMC3    C7 9760   0.019   1.900  14.905  0.2353  0.0791  0.1949
  659TMC3    C8 9761   0.318   1.999  15.178 -0.3267  0.1241  0.0678
  659TMC3    O1 9762   4.696   1.982  14.982  0.1467  0.0359 -0.4439
  659TMC3    O2 9763   0.208   2.038  15.208 -0.1582  0.2206 -0.5595
  660MPD2     C 9764   3.383   0.587  12.685  0.1954  0.1006  0.0721
  660MPD2    C1 9765   3.279   0.666  12.724 -0.0721 -0.5191  0.3590
  660MPD2    C2 9766   3.208   0.624  12.838  0.3246  0.1388 -0.4183
  660MPD2    C3 9767   3.236   0.511  12.910 -0.6169  0.7782 -0.1618
  660MPD2    C4 9768   3.344   0.435  12.868 -0.1070 -0.5146  0.1850
  660MPD2    C5 9769   3.410   0.469  12.748 -0.2950 -0.2281  0.3352
  660MPD2     H 9770   3.133   0.695  12.872  0.3135 -0.0235 -0.1043
  660MPD2    H1 9771   3.381   0.350  12.924  1.0267 -1.2494 -1.6406
  660MPD2    H2 9772   3.436   0.613  12.594  1.9681  0.5825  1.2222
  660MPD2    H3 9773   3.487   0.403  12.709  0.9372  1.4822 -0.1044
  660MPD2     N 9774   3.158   0.459  13.019 -0.2838 -0.3583 -0.6951
  660MPD2    H5 9775   3.182   0.373  13.067 -1.0498 -1.3373 -2.0841
  660MPD2    N1 9776   3.240   0.773  12.645 -0.2220 -0.9359  0.0322
  660MPD2    H7 9777   3.304   0.805  12.573 -1.4749  1.0120 -0.1993
  661TMC3    C1 9778   3.110   0.935  12.556  0.2800  0.0823 -0.5362
  661TMC3    C2 9779   3.221   0.967  12.486 -0.5728  0.4414 -0.1305
  661TMC3    C3 9780   3.204   1.047  12.373  1.0918  0.0974 -0.1118
  661TMC3    C4 9781   2.984   0.978  12.528 -0.3705 -0.0115 -0.5092
  661TMC3    C5 9782   2.971   1.058  12.421 -0.2360  1.0118  0.2672
  661TMC3    C6 9783   3.078   1.086  12.343  0.2395  0.1947  0.1620
  661TMC3     C 9784   3.119   0.834  12.658 -0.1086  1.0330 -0.2089
  661TMC3     O 9785   3.012   0.789  12.705  0.2259 -0.0819 -0.7667
  661TMC3     H 9786   3.321   0.949  12.524 -0.7035  2.2506  1.0188
  661TMC3    H1 9787   2.895   0.934  12.572 -1.5278  2.4716 -0.3578
  661TMC3    H2 9788   3.065   1.152  12.259  2.0496  0.1623 -0.1483
  661TMC3    C7 9789   2.837   1.091  12.375  0.9171  0.2643 -0.5964
  661TMC3    C8 9790   3.309   1.062  12.283  0.4099 -0.9542  0.1088
  661TMC3    O1 9791   2.806   1.206  12.347 -0.5776  0.1972  0.3707
  661TMC3    O2 9792   3.389   0.973  12.292  0.4068  0.4565 -0.7011
  662MPD2     C 9793   3.649   0.211  17.427 -1.0814  0.2146  0.0834
  662MPD2    C1 9794   3.659   0.260  17.556 -0.0293  0.3278  0.5663
  662MPD2    C2 9795   3.613   0.382  17.589 -0.4179 -0.0577  0.0662
  662MPD2    C3 9796   3.565   0.471  17.487  0.4564 -0.8772 -0.3187
  662MPD2    C4 9797   3.566   0.421  17.359  0.0192 -0.2860 -0.1632
  662MPD2    C5 9798   3.599   0.292  17.329  1.2819 -0.9553 -0.1490
  662MPD2     H 9799   3.608   0.416   0.005 -1.3408 -0.4167  0.1392
  662MPD2    H1 9800   3.530   0.486  17.280 -2.2429 -2.9146 -1.2867
  662MPD2    H2 9801   3.680   0.110  17.401  1.8796  1.1564  0.0137
  662MPD2    H3 9802   3.587   0.253  17.229  0.7912 -0.1274 -0.4079
  662MPD2     N 9803   3.520   0.606  17.505  0.0606 -0.7733 -0.5838
  662MPD2    H5 9804   3.489   0.662  17.427  1.5327 -2.1610 -2.1725
  662MPD2    N1 9805   3.689   0.174  17.667  0.3409  0.4275 -0.3100
  662MPD2    H7 9806   3.681   0.217   0.071 -1.0738  0.7569 -0.5881
  663TMC3    C1 9807   3.731   4.716   0.111  0.4122 -0.6281  0.5353
  663TMC3    C2 9808   3.616   0.011   0.183  0.5178 -0.5383  0.2298
  663TMC3    C3 9809   3.576   4.624   0.261  0.9686  0.5028  0.1634
  663TMC3    C4 9810   3.802   4.604   0.124  0.2600  0.9078  1.0136
  663TMC3    C5 9811   3.775   4.517   0.218 -0.5636 -0.1633 -0.2618
  663TMC3    C6 9812   3.664   4.522   0.293 -0.3517  0.5367  0.0516
  663TMC3     C 9813   3.732   0.046  17.663 -0.6131 -0.1649 -0.4778
  663TMC3     O 9814   3.749   4.690  17.568  0.1884  0.2713  0.4474
  663TMC3     H 9815   3.537   0.082   0.161  0.3189 -0.3360  1.6055
  663TMC3    H1 9816   3.896   4.593   0.071  0.4228  1.4692  1.1863
  663TMC3    H2 9817   3.630   4.447   0.363  0.6999  0.7207  0.7718
  663TMC3    C7 9818   3.875   4.416   0.266  0.2320  0.4974 -0.4847
  663TMC3    C8 9819   3.492   4.665   0.376 -0.1554  0.6291  0.3870
  663TMC3    O1 9820   3.994   4.436   0.266 -0.2322  0.4439  0.4616
  663TMC3    O2 9821   3.426   4.581   0.435 -0.0373 -0.7390  0.3990
  664MPD2     C 9822   2.043   3.341   0.251 -0.1344  0.2433 -0.1360
  664MPD2    C1 9823   2.131   3.442   0.222  0.0394  0.8397 -0.0961
  664MPD2    C2 9824   2.218   3.484   0.319 -0.2064  0.0866 -0.0233
  664MPD2    C3 9825   2.222   3.424   0.444  0.8723 -0.1406  0.2488
  664MPD2    C4 9826   2.128   3.326   0.472  0.2053  0.5044 -0.1430
  664MPD2    C5 9827   2.041   3.285   0.374 -0.4535  0.2701  0.9644
  664MPD2     H 9828   2.284   3.566   0.293 -0.2793  0.4564  0.9865
  664MPD2    H1 9829   2.113   3.273   0.566 -2.3197  1.2868 -0.1351
  664MPD2    H2 9830   1.983   3.297   0.171  2.3763 -1.5740 -1.0167
  664MPD2    H3 9831   1.982   3.195   0.390  0.9677 -0.8623 -0.1523
  664MPD2     N 9832   2.305   3.477   0.552 -0.3617 -0.2462  0.3226
  664MPD2    H5 9833   2.351   3.565   0.530  0.5524 -1.3668 -2.2404
  664MPD2    N1 9834   2.139   3.495   0.089  0.5178 -0.8850 -0.6857
  664MPD2    H7 9835   2.219   3.556   0.073 -0.4584  1.0871  2.0075
  665TMC3    C1 9836   2.381   3.491   0.776  0.3246  0.0886 -0.0299
  665TMC3    C2 9837   2.450   3.428   0.878  0.3658 -0.2048  0.2281
  665TMC3    C3 9838   2.527   3.505   0.968 -0.1261  1.2806  0.6756
  665TMC3    C4 9839   2.376   3.626   0.764  0.5981  0.2405 -0.5908
  665TMC3    C5 9840   2.446   3.696   0.852 -0.0889 -0.3968 -0.3958
  665TMC3    C6 9841   2.527   3.639   0.952 -0.8874  0.2594  0.2359
  665TMC3     C 9842   2.312   3.412   0.675  0.2943  0.1486 -0.3170
  665TMC3     O 9843   2.302   3.291   0.697 -0.3354  0.2865  0.3530
  665TMC3     H 9844   2.445   3.320   0.890 -0.8694 -0.3094 -1.2077
  665TMC3    H1 9845   2.313   3.674   0.690  1.1241 -1.0884 -1.9038
  665TMC3    H2 9846   2.584   3.707   1.014  1.5869 -1.2874 -0.3553
  665TMC3    C7 9847   2.452   3.839   0.831 -0.3917  0.4090  0.2610
  665TMC3    C8 9848   2.564   3.470   1.102 -0.1406  0.0628 -0.1998
  665TMC3    O1 9849   2.473   3.879   0.717 -0.5657  0.7773 -0.4375
  665TMC3    O2 9850   2.648   3.537   1.156 -0.1680  0.2423  0.9410
  666TMC3    C1 9851   0.935   3.194   9.948 -0.1969  0.1558  0.6802
  666TMC3    C2 9852   1.026   3.214   9.844 -0.3589 -0.4283 -0.1718
  666TMC3    C3 9853   1.026   3.337   9.793  0.2707  0.1042 -0.0019
  666TMC3    C4 9854   0.837   3.285   9.979  0.1573  0.1944  0.2346
  666TMC3    C5 9855   0.820   3.393   9.892 -0.0943 -0.2565  0.2495
  666TMC3    C6 9856   0.926   3.423   9.812  0.3919 -0.4530  1.1307
  666TMC3     C 9857   1.002   3.151  10.060 -0.4679  0.1016 -0.6783
  666TMC3     O 9858   1.124   3.173  10.062  0.8373  0.0203 -0.2144
  666TMC3     H 9859   1.106   3.142   9.830 -0.2170  0.0624 -1.7724
  666TMC3    H1 9860   0.759   3.268  10.052 -0.1969  1.6182  0.1825
  666TMC3    H2 9861   0.935   3.527   9.782  1.7234 -0.1928  2.3918
  666TMC3    C7 9862   0.738   3.500   9.942 -0.4803 -0.4341  0.4316
  666TMC3    C8 9863   1.159   3.390   9.774 -0.5322  0.1867 -0.4546
  666TMC3    O1 9864   0.694   3.488  10.053 -0.2731  0.3959  0.1134
  666TMC3    O2 9865   1.161   3.501   9.727  0.2482 -0.2230  0.1103
  667MPD2     C 9866   2.845   3.356  15.061  0.2233  0.7454 -0.3241
  667MPD2    C1 9867   2.742   3.399  15.140 -0.2788  0.0775  0.1174
  667MPD2    C2 9868   2.631   3.309  15.160 -0.3423  0.0790  0.0167
  667MPD2    C3 9869   2.619   3.190  15.088  0.2619 -0.8168  0.4616
  667MPD2    C4 9870   2.719   3.166  14.991 -0.4821 -0.2423 -0.1013
  667MPD2    C5 9871   2.830   3.243  14.983  0.1439 -0.0573  0.2333
  667MPD2     H 9872   2.551   3.332  15.230  0.4290  1.7458  0.3510
  667MPD2    H1 9873   2.710   3.078  14.929  1.0176 -0.0721 -0.5743
  667MPD2    H2 9874   2.944   3.400  15.056  0.9200 -0.7478  0.2787
  667MPD2    H3 9875   2.914   3.223  14.918 -0.3934 -0.0570 -0.4630
  667MPD2     N 9876   2.520   3.094  15.102 -0.1099  0.0289 -0.3579
  667MPD2    H5 9877   2.539   3.003  15.061 -0.5503  0.1836 -0.9027
  667MPD2    N1 9878   2.741   3.510  15.221 -0.1447 -0.2870  0.3580
  667MPD2    H7 9879   2.660   3.525  15.280 -1.6586 -0.0772 -1.7634
  668TMC3    C1 9880   2.840   3.705  15.323  0.3314 -0.5520 -0.4381
  668TMC3    C2 9881   2.924   3.808  15.310 -0.3201  0.0425 -0.0288
  668TMC3    C3 9882   2.945   3.897  15.418 -0.1283 -0.4964  0.0359
  668TMC3    C4 9883   2.777   3.685  15.441 -0.2291 -0.5591 -0.1841
  668TMC3    C5 9884   2.784   3.779  15.536  0.4783 -0.2978  0.0367
  668TMC3    C6 9885   2.870   3.884  15.526 -0.2212 -0.0087  0.3026
  668TMC3     C 9886   2.846   3.600  15.229  0.5221  0.1770  0.0685
  668TMC3     O 9887   2.952   3.595  15.172  0.0305  0.6747 -0.1827
  668TMC3     H 9888   2.977   3.815  15.216  0.0096 -2.1285  0.0037
  668TMC3    H1 9889   2.727   3.589  15.458 -2.5789  0.5776 -0.6460
  668TMC3    H2 9890   2.859   3.967  15.595  1.9191  0.5079  0.0235
  668TMC3    C7 9891   2.677   3.782  15.634  0.6022  0.6066  0.0783
  668TMC3    C8 9892   2.995   4.032  15.396 -0.9134  0.0148 -0.0115
  668TMC3    O1 9893   2.695   3.865  15.723 -0.0391  0.4312  0.2250
  668TMC3    O2 9894   3.020   4.102  15.493  0.3678  0.7178 -0.2408
  669TMC3    C1 9895   0.702   3.229  14.667 -0.5273 -0.0258 -0.3318
  669TMC3    C2 9896   0.598   3.237  14.577  0.9774  0.5945  0.7032
  669TMC3    C3 9897   0.603   3.341  14.490 -0.0516 -0.0246 -0.0227
  669TMC3    C4 9898   0.807   3.309  14.666 -0.4412  0.0642  0.3993
  669TMC3    C5 9899   0.800   3.416  14.574  0.6560  0.0712 -0.4267
  669TMC3    C6 9900   0.698   3.436  14.491 -0.2049 -0.1779  0.1439
  669TMC3     C 9901   0.680   3.136  14.768  0.4747 -0.3602 -0.2386
  669TMC3     O 9902   0.567   3.122  14.804 -0.2065  0.4695 -0.4439
  669TMC3     H 9903   0.511   3.173  14.581 -1.2559  3.5345 -1.1642
  669TMC3    H1 9904   0.882   3.306  14.745  1.3078 -0.6685 -1.2953
  669TMC3    H2 9905   0.704   3.507  14.410  0.8313  0.5150  0.8208
  669TMC3    C7 9906   0.915   3.501  14.548  0.0303  0.5384 -0.5556
  669TMC3    C8 9907   0.489   3.368  14.399  0.6351  0.1566 -0.4019
  669TMC3    O1 9908   0.950   3.586  14.627 -0.0024  0.1197  0.2539
  669TMC3    O2 9909   0.411   3.278  14.369  0.2929 -0.0859  0.0144
  670MPD2     C 9910   3.732   1.760  13.301  0.1717 -0.3757  0.0033
  670MPD2    C1 9911   3.838   1.687  13.347 -0.3925  0.4774  0.3617
  670MPD2    C2 9912   3.823   1.601  13.447  0.3549 -0.1361 -0.9188
  670MPD2    C3 9913   3.703   1.572  13.505  0.2417  0.0775  0.0144
  670MPD2    C4 9914   3.594   1.647  13.460 -0.2501  0.2015  0.0555
  670MPD2    C5 9915   3.608   1.738  13.350  0.3075 -0.7277  0.3002
  670MPD2     H 9916   3.914   1.547  13.472 -0.1473 -0.8293 -0.5680
  670MPD2    H1 9917   3.491   1.639  13.493 -0.3319  3.0256  0.4790
  670MPD2    H2 9918   3.746   1.826  13.217 -0.9756 -1.0997 -0.7478
  670MPD2    H3 9919   3.527   1.793  13.303 -0.9958 -3.9758 -1.2715
  670MPD2     N 9920   3.696   1.467  13.600 -0.0424 -0.6942 -0.7162
  670MPD2    H5 9921   3.788   1.428  13.617  0.4506  0.5671 -0.5109
  670MPD2    N1 9922   3.968   1.684  13.296 -0.3363  0.2690  0.1386
  670MPD2    H7 9923   4.039   1.625  13.336 -0.9025 -1.7020 -1.7719
  671TMC3    C1 9924   3.614   1.296  13.724  0.5552  0.0804  0.1270
  671TMC3    C2 9925   3.727   1.301  13.796 -1.0465  0.4842  0.3260
  671TMC3    C3 9926   3.742   1.211  13.897 -0.5826 -0.2737 -0.1771
  671TMC3    C4 9927   3.521   1.196  13.740  0.1866 -0.0186 -0.1894
  671TMC3    C5 9928   3.536   1.110  13.842 -0.0603  0.0360 -0.4142
  671TMC3    C6 9929   3.641   1.123  13.928 -0.2550  0.0713  0.7897
  671TMC3     C 9930   3.582   1.407  13.645 -0.9968 -0.0057 -0.1604
  671TMC3     O 9931   3.468   1.432  13.624 -0.5094 -0.2660 -0.0700
  671TMC3     H 9932   3.792   1.388  13.798 -1.3792  0.7087  1.5002
  671TMC3    H1 9933   3.441   1.188  13.667 -0.7393  1.6128  0.6401
  671TMC3    H2 9934   3.663   1.044  13.999  0.2068  0.1649  0.7519
  671TMC3    C7 9935   3.447   0.995  13.839  0.2648 -0.0565  0.0358
  671TMC3    C8 9936   3.849   1.120  13.860 -0.2326  0.2096  0.5986
  671TMC3    O1 9937   3.386   0.978  13.732  0.0565  0.4703 -0.2828
  671TMC3    O2 9938   3.818   1.003  13.853  0.4861 -0.5803  0.3867
  672MPD2     C 9939   3.863   1.723   1.519  0.1879 -0.1211 -0.5507
  672MPD2    C1 9940   3.980   1.653   1.510  0.2625  0.3370 -0.0834
  672MPD2    C2 9941   4.065   1.655   1.624 -0.2445 -0.0491 -0.0824
  672MPD2    C3 9942   4.038   1.740   1.733  0.3476  0.5183 -0.0068
  672MPD2    C4 9943   3.921   1.812   1.734  0.3429 -0.1882  0.2021
  672MPD2    C5 9944   3.833   1.797   1.630  0.2663  0.0620 -0.2654
  672MPD2     H 9945   4.161   1.605   1.617  0.0149  0.6366 -1.3873
  672MPD2    H1 9946   3.899   1.877   1.818 -1.0656 -0.1367 -0.2128
  672MPD2    H2 9947   3.797   1.719   1.433  0.4312 -4.2031 -0.5206
  672MPD2    H3 9948   3.735   1.841   1.635 -0.8336 -2.2652 -1.2748
  672MPD2     N 9949   4.129   1.763   1.840  0.1320  0.5307 -0.4851
  672MPD2    H5 9950   4.100   1.836   1.904 -0.7470 -0.0540 -0.2179
  672MPD2    N1 9951   4.005   1.579   1.387  0.1358 -0.1175  0.7631
  672MPD2    H7 9952   3.931   1.567   1.319 -0.6034 -1.4084  1.8017
  673TMC3    C1 9953   4.105   1.420   1.248  0.0174 -0.6410  0.3885
  673TMC3    C2 9954   4.197   1.319   1.240 -0.3627  0.3135 -0.5123
  673TMC3    C3 9955   4.214   1.255   1.121 -0.0334 -0.0909  0.8958
  673TMC3    C4 9956   4.021   1.459   1.145 -0.3441  0.4944  0.3408
  673TMC3    C5 9957   4.055   1.397   1.026  0.2151  0.8940  0.1233
  673TMC3    C6 9958   4.149   1.301   1.014 -0.1839  0.4490  0.5082
  673TMC3     C 9959   4.111   1.500   1.368 -0.8595  0.2790 -0.0175
  673TMC3     O 9960   4.212   1.488   1.435  0.1987  0.4054 -0.1868
  673TMC3     H 9961   4.243   1.294   1.335  0.3588 -1.6083 -1.3587
  673TMC3    H1 9962   3.939   1.529   1.147 -0.1963  0.6947 -1.0782
  673TMC3    H2 9963   4.156   1.265   0.913 -1.7129 -2.0283  1.2848
  673TMC3    C7 9964   3.972   1.430   0.915  0.1188 -0.5218 -0.7966
  673TMC3    C8 9965   4.276   1.123   1.104  0.0036  0.3461 -0.0154
  673TMC3    O1 9966   3.925   1.338   0.850  0.6589  0.1387  0.4348
  673TMC3    O2 9967   4.273   1.073   0.993 -0.4370 -0.0037 -0.1558
  674MPD2     C 9968   3.807   1.904   0.252 -0.1450  0.0307  0.4620
  674MPD2    C1 9969   3.773   1.773   0.279  0.0794  0.3743 -0.5670
  674MPD2    C2 9970   3.639   1.744   0.293 -0.7290  0.2595  0.0665
  674MPD2    C3 9971   3.541   1.839   0.304 -0.1551 -0.2629 -0.5510
  674MPD2    C4 9972   3.577   1.971   0.278  0.7807  0.1528 -0.2926
  674MPD2    C5 9973   3.708   1.995   0.251 -0.5807  0.0343  0.4653
  674MPD2     H 9974   3.602   1.643   0.310  1.3071 -0.0941  2.2607
  674MPD2    H1 9975   3.498   2.045   0.283 -1.5766 -2.3352 -0.1720
  674MPD2    H2 9976   3.912   1.930   0.247 -0.1097 -0.4588 -1.3769
  674MPD2    H3 9977   3.731   2.101   0.252  0.1749 -0.1112 -1.7751
  674MPD2     N 9978   3.422   1.797   0.351  0.5156 -0.1710 -0.7927
  674MPD2    H5 9979   3.419   1.699   0.378 -0.5175 -0.1098 -0.6668
  674MPD2    N1 9980   3.877   1.685   0.283 -0.1223  0.3219  0.0369
  674MPD2    H7 9981   3.974   1.713   0.272 -0.5254  1.4568 -0.6228
  675TMC3    C1 9982   3.976   1.481   0.348 -0.3990 -0.1315 -0.4729
  675TMC3    C2 9983   3.945   1.352   0.385  0.5430 -0.3008  0.0912
  675TMC3    C3 9984   3.995   1.300   0.502  0.2202  0.1491  0.2854
  675TMC3    C4 9985   4.059   1.552   0.425  0.4146  0.1945  0.3906
  675TMC3    C5 9986   4.117   1.496   0.533  0.7651 -0.1543 -0.2400
  675TMC3    C6 9987   4.089   1.372   0.567  0.3282 -0.5550  0.0340
  675TMC3     C 9988   3.855   1.552   0.310  0.2185  0.2193 -0.5776
  675TMC3     O 9989   3.753   1.487   0.312  0.0166  0.1590  0.7984
  675TMC3     H 9990   3.883   1.292   0.320  2.5944 -2.2361 -0.0790
  675TMC3    H1 9991   4.096   1.651   0.401 -1.2090  1.3893  2.8720
  675TMC3    H2 9992   4.126   1.336   0.662 -1.2678 -0.2927  0.7627
  675TMC3    C7 9993   4.166   1.596   0.629  0.3002  0.5258 -0.4412
  675TMC3    C8 9994   3.977   1.163   0.539 -0.5448  0.1321 -0.2987
  675TMC3    O1 9995   4.143   1.713   0.607  0.2787  0.2829 -0.4155
  675TMC3    O2 9996   3.984   1.079   0.447 -0.5918  0.0270  0.2193
  676MPD2     C 9997   1.772   4.414  11.029  0.4358 -0.0839  0.0985
  676MPD2    C1 9998   1.676   4.384  11.122  0.2421  0.0913  0.0819
  676MPD2    C2 9999   1.620   4.254  11.131  0.4269 -0.8760  0.1189
  676MPD2    C310000   1.660   4.157  11.042 -0.1264 -0.1348 -0.3180
  676MPD2    C410001   1.750   4.189  10.946 -0.3539 -0.7642  0.1764
  676MPD2    C510002   1.806   4.313  10.943  0.0453  0.9802  0.4469
  676MPD2     H10003   1.551   4.236  11.212 -0.0084  2.2139  0.4323
  676MPD2    H110004   1.782   4.120  10.870 -0.3192 -1.2675  0.6509
  676MPD2    H210005   1.818   4.512  11.016  1.8194 -0.9950 -1.8729
  676MPD2    H310006   1.874   4.327  10.860  1.1336  2.3064  1.5665
  676MPD2     N10007   1.609   4.028  11.033 -0.7466  0.0422  0.3131
  676MPD2    H510008   1.655   3.971  10.962 -0.7679 -1.1367  1.2437
  676MPD2    N110009   1.637   4.479  11.214  0.3501 -0.3403 -0.3296
  676MPD2    H710010   1.559   4.448  11.270 -1.4905  0.8244 -2.2622
  677TMC3    C110011   1.622   4.684  11.333 -0.1513 -0.8054  0.3200
  677TMC3    C210012   1.492   4.655  11.351  0.7494 -0.0188  0.0995
  677TMC3    C310013   1.431   0.004  11.452 -0.0602 -0.1955  0.3358
  677TMC3    C410014   1.696   0.045  11.413  0.0959  0.2354 -0.4917
  677TMC3    C510015   1.627   0.111  11.510 -0.3982 -0.3822 -0.3323
  677TMC3    C610016   1.489   0.101  11.527 -0.0901 -0.0892 -0.2653
  677TMC3     C10017   1.697   4.603  11.241 -0.6067 -0.4606 -0.5489
  677TMC3     O10018   1.810   4.648  11.205  0.4935  0.0991 -0.4388
  677TMC3     H10019   1.445   4.571  11.302  1.4927  0.5194 -1.5529
  677TMC3    H110020   1.804   0.051  11.406  0.0340  0.9086 -0.8103
  677TMC3    H210021   1.437   0.145  11.611  2.5668  2.4929  0.0240
  677TMC3    C710022   1.687   0.204  11.606 -0.5531  0.0862 -0.7026
  677TMC3    C810023   1.321   4.648  11.514  0.4980  0.2839 -0.4787
  677TMC3    O110024   1.636   0.224  11.714  0.0328 -0.2800 -0.0929
  677TMC3    O210025   1.231   4.606  11.447  0.1781 -0.5697 -0.1841
  678MPD2     C10026   3.413   0.191   1.986  0.2177 -0.2164 -0.1097
  678MPD2    C110027   3.459   0.132   1.867  0.1841 -0.1430  0.2715
  678MPD2    C210028   3.393   0.020   1.815 -0.0601 -0.5891 -0.1653
  678MPD2    C310029   3.275   4.701   1.873  0.1991 -0.3850 -0.1667
  678MPD2    C410030   3.225   0.040   1.990  0.2002  0.2277 -0.2476
  678MPD2    C510031   3.296   0.144   2.043 -1.3655  0.3007 -0.5751
  678MPD2     H10032   3.425   4.692   1.723 -0.0088 -1.7301  0.4649
  678MPD2    H110033   3.137   4.720   2.039  0.3872  1.0247  0.7463
  678MPD2    H210034   3.464   0.267   2.045 -0.4892  0.3561 -0.2352
  678MPD2    H310035   3.275   0.181   2.143 -1.4738 -2.4556  0.4116
  678MPD2     N10036   3.205   4.597   1.796  0.1900  0.0270 -0.3175
  678MPD2    H510037   3.243   4.569   1.706 -1.7625 -0.2351 -1.0703
  678MPD2    N110038   3.572   0.180   1.794  0.1677  0.0953  0.3776
  678MPD2    H710039   3.605   0.119   1.720  0.1227  0.7475 -0.1882
  679TMC3    C110040   3.927   0.248   1.605 -0.5774 -0.2426 -0.6188
  679TMC3    C210041   3.834   0.224   1.698 -0.2096 -0.7542 -0.6335
  679TMC3    C310042   3.750   0.334   1.730 -0.4284  0.0185  0.0206
  679TMC3    C410043   3.940   0.368   1.538  0.9521  0.4939  0.1081
  679TMC3    C510044   3.857   0.473   1.570  0.1652  0.0410 -0.2326
  679TMC3    C610045   3.753   0.453   1.656  0.5283 -0.4775  0.6803
  679TMC3     C10046   4.025   0.149   1.592  0.1952 -1.1041  0.4879
  679TMC3     O10047   4.030   0.064   1.681 -0.2131  0.0367 -0.0138
  679TMC3     H10048   3.814   0.136   1.759  1.0002 -1.6634 -1.5357
  679TMC3    H110049   4.017   0.397   1.469  1.2817  1.4793  0.8819
  679TMC3    H210050   3.691   0.531   1.700 -0.1367  0.3266 -1.6749
  679TMC3    C710051   3.836   0.570   1.459 -0.5024  0.1778 -0.3946
  679TMC3    C810052   3.622   0.311   1.802  0.6536  0.3367  0.4984
  679TMC3    O110053   3.880   0.534   1.351 -0.4955 -0.6808 -0.1286
  679TMC3    O210054   3.573   0.411   1.851  0.0002 -0.1984 -0.8445
  680MPD2     C10055   3.075   3.050  13.580  0.0501  0.4488 -0.3178
  680MPD2    C110056   3.146   2.960  13.655  0.9317 -0.4129 -0.2632
  680MPD2    C210057   3.230   3.000  13.755  0.8046  0.1650 -0.1381
  680MPD2    C310058   3.251   3.132  13.788 -0.0763 -0.2236 -0.2883
  680MPD2    C410059   3.169   3.229  13.721 -0.0448 -0.7155  0.3330
  680MPD2    C510060   3.083   3.182  13.623  0.1361  0.4706 -0.0286
  680MPD2     H10061   3.278   2.922  13.811  0.7901 -0.0621 -0.4411
  680MPD2    H110062   3.163   3.333  13.750  1.0114 -0.0447 -1.8957
  680MPD2    H210063   3.010   3.026  13.497 -0.9669  3.7769 -0.4961
  680MPD2    H310064   3.027   3.256  13.568  0.6499 -1.1035 -2.6736
  680MPD2     N10065   3.332   3.183  13.897  1.1743  0.1042 -0.0107
  680MPD2    H510066   3.335   3.284  13.905 -1.4919  0.3082 -1.5948
  680MPD2    N110067   3.141   2.825  13.626  0.0578  0.7420 -0.7265
  680MPD2    H710068   3.210   2.757  13.658  0.4803 -0.3850 -3.9652
  681TMC3    C110069   3.064   2.622  13.540 -0.1375  0.3312 -0.7588
  681TMC3    C210070   2.958   2.556  13.591 -0.2937 -0.1529  0.1052
  681TMC3    C310071   2.974   2.431  13.635 -0.7596  0.2590 -0.0266
  681TMC3    C410072   3.189   2.565  13.537  0.3185  0.3531 -0.2270
  681TMC3    C510073   3.203   2.434  13.566  0.7618 -0.4297  0.4857
  681TMC3    C610074   3.094   2.363  13.617  0.3371  0.1279  0.2617
  681TMC3     C10075   3.048   2.764  13.548 -0.2013  0.2019 -0.7381
  681TMC3     O10076   2.929   2.791  13.550  0.1473  0.5433 -0.4722
  681TMC3     H10077   2.861   2.602  13.609 -0.9254 -1.5110  0.1391
  681TMC3    H110078   3.266   2.629  13.497  0.9725 -1.1624 -1.3998
  681TMC3    H210079   3.103   2.256  13.626  1.5259  0.1669 -0.4629
  681TMC3    C710080   3.296   2.359  13.475  0.2911 -0.1167  0.4110
  681TMC3    C810081   2.931   2.439  13.771  0.5192  0.0085 -0.2301
  681TMC3    O110082   3.258   2.248  13.441 -0.2248 -0.2230  0.1984
  681TMC3    O210083   2.811   2.429  13.779  0.0792 -0.8319  0.5930
  682MPD2     C10084   0.512   4.645  10.667  0.4860  0.5207 -0.2565
  682MPD2    C110085   0.561   4.523  10.700 -0.0973  0.4280  0.1809
  682MPD2    C210086   0.622   4.503  10.824 -0.1131  0.2740 -0.7585
  682MPD2    C310087   0.626   4.595  10.925  0.6451 -0.5828  0.1907
  682MPD2    C410088   0.566   4.712  10.894 -0.4192 -0.5043 -0.3512
  682MPD2    C510089   0.515   0.020  10.768  0.2930  0.0715  0.1379
  682MPD2     H10090   0.677   4.410  10.832 -0.5783  0.0877  0.3059
  682MPD2    H110091   0.567   0.066  10.972 -1.0688 -0.0034 -0.8104
  682MPD2    H210092   0.481   4.679  10.569  1.2190 -0.9905 -1.0074
  682MPD2    H310093   0.468   0.117  10.751 -1.0628 -0.9040 -1.6565
  682MPD2     N10094   0.675   4.556  11.049  0.2729 -0.2299  0.0923
  682MPD2    H510095   0.720   4.465  11.047  0.1115 -0.2947 -0.6336
  682MPD2    N110096   0.565   4.408  10.614 -0.8088 -0.0381 -0.9608
  682MPD2    H710097   0.622   4.330  10.645 -2.2224 -0.1078  1.4570
  683TMC3    C110098   0.723   4.499  11.513 -0.5243  0.3126 -0.1945
  683TMC3    C210099   0.663   4.377  11.514 -0.2447 -0.1884  0.4039
  683TMC3    C310100   0.645   4.312  11.391 -0.7915  0.4659  0.6801
  683TMC3    C410101   0.739   4.574  11.401  0.5060 -0.0497  0.6844
  683TMC3    C510102   0.695   4.520  11.279  0.7929  0.2402  0.4925
  683TMC3    C610103   0.660   4.389  11.273  0.2420 -0.8038  0.3731
  683TMC3     C10104   0.754   4.575  11.635 -0.0592 -0.2053  0.2142
  683TMC3     O10105   0.749   4.695  11.628  0.4838  0.5448 -0.5503
  683TMC3     H10106   0.636   4.326  11.606 -0.9418 -0.1109  0.2384
  683TMC3    H110107   0.764   4.680  11.402  0.6439 -0.1019  2.5479
  683TMC3    H210108   0.612   4.349  11.185 -3.1391  1.8385  0.9824
  683TMC3    C710109   0.654   4.612  11.170  0.0411 -0.2049 -0.1415
  683TMC3    C810110   0.571   4.193  11.383  0.0111 -0.0526  0.5630
  683TMC3    O110111   0.594   4.711  11.209  0.0536  0.6901  0.0472
  683TMC3    O210112   0.494   4.178  11.287 -0.0904 -0.4551  0.1457
  684MPD2     C10113   3.577   3.972  16.604 -0.7552 -0.1448  0.4979
  684MPD2    C110114   3.550   4.027  16.477  0.3333  0.5895 -0.2879
  684MPD2    C210115   3.470   4.144  16.481  0.1991 -0.4761 -0.4644
  684MPD2    C310116   3.458   4.217  16.597 -0.5846 -0.1961  0.5882
  684MPD2    C410117   3.491   4.161  16.716  0.6014  0.0199 -0.3837
  684MPD2    C510118   3.556   4.041  16.721  0.1021 -0.3781 -1.0368
  684MPD2     H10119   3.452   4.193  16.386  1.0236 -0.6571 -0.7089
  684MPD2    H110120   3.471   4.208  16.811 -0.1004  0.9304 -0.9867
  684MPD2    H210121   3.623   3.876  16.621 -1.9632 -0.6559  0.8725
  684MPD2    H310122   3.575   4.005  16.821  1.8668  0.1345 -1.1754
  684MPD2     N10123   3.395   4.342  16.603  0.2998 -0.0242 -0.0938
  684MPD2    H510124   3.366   4.381  16.692  0.5575  0.5742 -0.2798
  684MPD2    N110125   3.585   3.974  16.355  0.1829 -0.1764 -0.2233
  684MPD2    H710126   3.535   4.019  16.279 -0.6536 -1.2378 -0.2994
  685TMC3    C110127   3.655   3.817  16.203 -0.0142 -0.0986 -0.1325
  685TMC3    C210128   3.591   3.888  16.102  0.5097  0.0018  0.1135
  685TMC3    C310129   3.607   3.840  15.978  0.0005  0.6997 -0.5650
  685TMC3    C410130   3.737   3.713  16.183  0.0141 -0.3360  0.0959
  685TMC3    C510131   3.760   3.675  16.052  0.0528 -0.2900  0.1182
  685TMC3    C610132   3.691   3.736  15.952 -0.2115  0.0356  0.2086
  685TMC3     C10133   3.647   3.856  16.340  0.3142  0.2226 -0.2308
  685TMC3     O10134   3.686   3.778  16.422 -0.7193  0.4468  0.6228
  685TMC3     H10135   3.506   3.946  16.134 -0.0038 -0.8039  0.2239
  685TMC3    H110136   3.777   3.665  16.272  1.3486  0.8336  0.1240
  685TMC3    H210137   3.710   3.712  15.848 -0.0061  0.8186  0.0661
  685TMC3    C710138   3.885   3.623  16.004  1.0107  0.4991  0.3587
  685TMC3    C810139   3.504   3.875  15.881 -1.1419  0.4635  0.8208
  685TMC3    O110140   3.901   3.601  15.886  0.5837 -0.3828 -0.5194
  685TMC3    O210141   3.505   3.800  15.789  0.1036  0.2497  0.3745
  686MPD2     C10142   0.423   3.778  15.378  0.3627  0.5967  0.1800
  686MPD2    C110143   0.420   3.659  15.453 -0.1506 -0.6185 -0.6999
  686MPD2    C210144   0.425   3.536  15.383 -0.4549  0.8048  0.0982
  686MPD2    C310145   0.394   3.530  15.249  0.0266  0.4500  0.1770
  686MPD2    C410146   0.407   3.645  15.180 -0.2365 -0.0422  0.1878
  686MPD2    C510147   0.413   3.768  15.238  0.3883  0.6521  0.4962
  686MPD2     H10148   0.421   3.444  15.440 -0.6782  0.8986  0.2311
  686MPD2    H110149   0.402   3.643  15.071  0.6750  0.5933  0.1331
  686MPD2    H210150   0.428   3.874  15.430  1.8838 -1.0755  3.1679
  686MPD2    H310151   0.407   3.858  15.177 -1.3704  1.2471  1.5801
  686MPD2     N10152   0.393   3.410  15.167  0.5014 -0.1649 -0.7490
  686MPD2    H510153   0.396   3.417  15.065  0.3740  0.7419 -0.6881
  686MPD2    N110154   0.408   3.679  15.589 -0.0806 -0.0267  0.3666
  686MPD2    H710155   0.383   3.771  15.623  0.5641  0.2750  0.0372
  687TMC3    C110156   0.362   3.240  15.341  0.4827 -0.2930  0.1130
  687TMC3    C210157   0.239   3.291  15.383  0.2965  0.3418 -0.1368
  687TMC3    C310158   0.213   3.290  15.518  0.2210  0.4369  0.6080
  687TMC3    C410159   0.451   3.178  15.425 -0.2440 -0.4768  0.2041
  687TMC3    C510160   0.423   3.184  15.559 -0.2233  0.1641  0.0717
  687TMC3    C610161   0.306   3.242  15.608 -0.0230 -0.6935  0.1053
  687TMC3     C10162   0.399   3.274  15.209 -0.5973 -0.8307 -0.1275
  687TMC3     O10163   0.427   3.180  15.141 -0.1205 -0.0230 -0.0131
  687TMC3     H10164   0.182   3.345  15.308 -0.8927 -1.1789 -0.3405
  687TMC3    H110165   0.542   3.133  15.385 -0.7113 -0.3948 -0.9584
  687TMC3    H210166   0.274   3.243  15.712  1.7638 -0.8303  0.6568
  687TMC3    C710167   0.492   3.087  15.642  0.3891  0.8152 -0.5834
  687TMC3    C810168   0.100   3.367  15.557 -0.8841 -0.0934 -0.0757
  687TMC3    O110169   0.533   2.992  15.581  0.1943 -0.2178  0.1819
  687TMC3    O210170   0.108   3.432  15.657  0.5812  0.4638 -0.1199
  688MPD2     C10171   4.442   2.781  17.575  0.5417 -0.6489  0.0083
  688MPD2    C110172   4.452   2.647  17.560  0.0957  0.6632 -0.0329
  688MPD2    C210173   4.519   2.605  17.453 -0.1232 -0.0899  0.9102
  688MPD2    C310174   4.585   2.683  17.360 -0.8107  0.2056  0.0028
  688MPD2    C410175   4.573   2.820  17.375  0.2110  0.3068 -0.0558
  688MPD2    C510176   4.500   2.863  17.483 -0.6341  1.2735 -0.2557
  688MPD2     H10177   4.534   2.497  17.451  2.2236  0.2254  1.3156
  688MPD2    H110178   4.604   2.894  17.302  0.3310 -0.7826 -1.1036
  688MPD2    H210179   4.375   2.834  17.642  1.5147 -1.6236  1.7416
  688MPD2    H310180   4.483   2.970  17.487  0.5316  1.4171  1.0003
  688MPD2     N10181   4.656   2.628  17.254  0.0337  0.0332  0.4134
  688MPD2    H510182   4.705   2.690  17.191 -0.7948  0.5974  0.3369
  688MPD2    N110183   4.397   2.554  17.653 -0.1783  0.6472 -0.0569
  688MPD2    H710184   4.395   2.454  17.640 -0.6207  0.6703 -0.1830
  689TMC3    C110185   4.274   2.496   0.162  0.1347 -0.1210  0.3169
  689TMC3    C210186   4.246   2.520   0.291 -0.0688  0.0197 -1.0387
  689TMC3    C310187   4.165   2.432   0.359  0.2089  0.7124  0.5887
  689TMC3    C410188   4.226   2.382   0.097 -0.0095  0.1110 -0.5096
  689TMC3    C510189   4.127   2.316   0.162 -0.4543 -0.0411 -0.1465
  689TMC3    C610190   4.094   2.337   0.292 -0.4746  0.9398  0.0861
  689TMC3     C10191   4.349   2.596   0.088  1.0494 -0.1436  0.4341
  689TMC3     O10192   4.374   2.703   0.147  0.1393 -0.0905  0.0681
  689TMC3     H10193   4.290   2.605   0.342  0.5073 -0.5939 -0.5106
  689TMC3    H110194   4.238   2.364  17.677 -1.8367  0.1333 -0.7081
  689TMC3    H210195   4.016   2.277   0.338  0.8315  1.0064  2.4084
  689TMC3    C710196   4.099   2.183   0.119 -0.8773 -0.1076  0.3448
  689TMC3    C810197   4.171   2.444   0.500 -0.9576 -0.2616  0.1388
  689TMC3    O110198   3.994   2.136   0.166  0.0062  0.3554  0.2282
  689TMC3    O210199   4.215   2.549   0.551 -0.6462  0.5208 -0.0672
  690MPD2     C10200   1.517   4.550  16.252  0.7459  0.0186 -0.5015
  690MPD2    C110201   1.505   4.465  16.142 -0.1364  0.7226 -0.0950
  690MPD2    C210202   1.612   4.463  16.051 -0.9435  0.2766 -0.4694
  690MPD2    C310203   1.709   4.558  16.060 -1.0541 -0.3529  0.4548
  690MPD2    C410204   1.710   4.638  16.168  0.4413 -0.3600 -0.2972
  690MPD2    C510205   1.615   4.638  16.262  0.2755  0.0435 -0.2253
  690MPD2     H10206   1.627   4.390  15.972 -0.4681  1.0087 -1.0602
  690MPD2    H110207   1.785   4.716  16.179 -0.8367  1.0267 -1.3979
  690MPD2    H210208   1.449   4.555  16.336  1.8150  0.8938  0.3136
  690MPD2    H310209   1.623   4.702  16.349 -2.9826 -1.3045  1.0672
  690MPD2     N10210   1.795   4.575  15.950 -0.5520 -0.7783  0.4574
  690MPD2    H510211   1.768   4.529  15.864  1.3697 -0.5467 -0.2756
  690MPD2    N110212   1.410   4.359  16.139  0.1974  0.4200 -0.1814
  690MPD2    H710213   1.440   4.290  16.070 -1.7990  0.0421 -0.6697
  691TMC3    C110214   1.221   4.236  16.171  1.2834 -0.7536 -0.6068
  691TMC3    C210215   1.088   4.228  16.196  0.0220  0.0826  0.3153
  691TMC3    C310216   1.019   4.114  16.153 -0.1704  0.5724  0.6125
  691TMC3    C410217   1.289   4.123  16.142 -0.2601  1.1352 -0.0232
  691TMC3    C510218   1.219   4.005  16.136 -0.5230  0.1152 -0.1527
  691TMC3    C610219   1.086   3.997  16.129 -0.2756 -0.2346 -0.5055
  691TMC3     C10220   1.284   4.356  16.204  0.0814  0.0860  0.0986
  691TMC3     O10221   1.228   4.432  16.280 -0.1554  0.4449  0.3843
  691TMC3     H10222   1.036   4.318  16.225 -0.2933 -0.8001  2.5084
  691TMC3    H110223   1.397   4.126  16.134 -0.2913  2.5264  0.0524
  691TMC3    H210224   1.033   3.907  16.099  2.2287 -0.9120 -2.8703
  691TMC3    C710225   1.291   3.883  16.154  0.7364  0.2877 -0.0983
  691TMC3    C810226   0.872   4.105  16.182  0.0342  0.0542  0.9950
  691TMC3    O110227   1.401   3.895  16.201 -0.3077 -0.1826  0.0668
  691TMC3    O210228   0.822   3.992  16.174 -0.5675  0.1459 -0.3012
  692TMC3    C110229   3.387   0.915  15.868  0.2753 -0.3228 -0.2978
  692TMC3    C210230   3.479   0.953  15.963 -0.0103  0.0827 -0.6905
  692TMC3    C310231   3.571   0.869  16.015  0.3196 -0.5785 -0.0570
  692TMC3    C410232   3.374   0.784  15.830 -0.4473  0.6382  0.1510
  692TMC3    C510233   3.467   0.704  15.896  0.6667  0.9139 -0.1154
  692TMC3    C610234   3.559   0.737  15.983  0.2475  0.1243 -0.4814
  692TMC3     C10235   3.262   1.002  15.874 -0.1955  0.8290  0.2301
  692TMC3     O10236   3.149   0.956  15.852 -0.2945 -0.1110  0.3826
  692TMC3     H10237   3.501   1.059  15.964 -1.0744  0.3003 -0.5461
  692TMC3    H110238   3.288   0.748  15.775 -0.6414  0.7183  0.4039
  692TMC3    H210239   3.634   0.664  16.013  0.8480  0.9120 -0.0879
  692TMC3    C710240   3.442   0.561  15.872 -1.1196 -0.5657 -0.1215
  692TMC3    C810241   3.606   0.887  16.151  0.0744 -0.2230  0.1308
  692TMC3    O110242   3.361   0.540  15.783  0.5997 -0.0302 -0.6351
  692TMC3    O210243   3.625   0.780  16.209  0.2110  0.1983  0.1104
  693MPD2     C10244   2.752   3.893  11.403  0.6541  1.0548 -0.1390
  693MPD2    C110245   2.694   3.774  11.358  0.9768 -1.1150  0.1836
  693MPD2    C210246   2.775   3.677  11.302  0.2989  0.1118  0.1632
  693MPD2    C310247   2.912   3.698  11.300 -0.3906  0.3341 -0.3873
  693MPD2    C410248   2.968   3.812  11.360 -0.7653 -0.6448  0.2336
  693MPD2    C510249   2.885   3.909  11.407 -0.1499 -0.7522  0.6073
  693MPD2     H10250   2.732   3.579  11.283 -1.5698  0.7037  1.2898
  693MPD2    H110251   3.075   3.828  11.362 -0.5928 -1.8629  1.1510
  693MPD2    H210252   2.692   3.961  11.462  0.9467  2.8435 -1.9072
  693MPD2    H310253   2.926   3.999  11.451 -0.0214 -0.8986  0.7878
  693MPD2     N10254   3.000   3.592  11.268  0.3795  0.1337 -0.3145
  693MPD2    H510255   3.097   3.604  11.296 -0.6668  1.5593  2.6769
  693MPD2    N110256   2.551   3.756  11.360 -0.2685  0.8127 -0.0382
  693MPD2    H710257   2.507   3.810  11.434 -3.5389 -0.3154 -1.1562
  694TMC3    C110258   2.347   3.647  11.316 -0.0061  0.1219  0.9786
  694TMC3    C210259   2.271   3.600  11.213 -0.9646 -0.3580  0.3118
  694TMC3    C310260   2.178   3.501  11.241 -0.1848  0.4747  0.1612
  694TMC3    C410261   2.328   3.602  11.445 -0.1029 -0.8162 -0.8394
  694TMC3    C510262   2.242   3.506  11.472 -0.1852  0.6786  0.7242
  694TMC3    C610263   2.164   3.453  11.373 -0.1200 -0.2697 -0.3447
  694TMC3     C10264   2.486   3.663  11.282  0.1944 -0.2995  0.0665
  694TMC3     O10265   2.521   3.619  11.173  0.4392  0.2920 -0.2631
  694TMC3     H10266   2.287   3.648  11.117 -0.2019  1.0035  1.1345
  694TMC3    H110267   2.380   3.647  11.529 -1.4003 -0.3237 -0.3047
  694TMC3    H210268   2.093   3.372  11.379  1.0359 -1.0882  2.1296
  694TMC3    C710269   2.215   3.463  11.607 -0.2959 -0.0037  0.5760
  694TMC3    C810270   2.132   3.420  11.123 -0.4805 -0.5963  0.0346
  694TMC3    O110271   2.261   3.534  11.699 -0.2749  0.1582 -0.8716
  694TMC3    O210272   2.057   3.331  11.154  0.2354 -0.0190  0.1511
  695MPD2     C10273   3.701   0.159  13.672  0.2911  0.3023  0.3146
  695MPD2    C110274   3.685   0.273  13.747  0.2381  0.4615 -0.6752
  695MPD2    C210275   3.567   0.343  13.738  0.2037 -0.2663  0.5317
  695MPD2    C310276   3.481   0.315  13.632  0.7405  0.1504 -0.5909
  695MPD2    C410277   3.505   0.202  13.553 -0.1144  0.7565 -0.3924
  695MPD2    C510278   3.615   0.126  13.572 -0.3921  0.0960  0.1099
  695MPD2     H10279   3.547   0.430  13.800 -0.4872  0.5847 -0.8956
  695MPD2    H110280   3.436   0.189  13.471 -1.2718  0.7588  0.5781
  695MPD2    H210281   3.788   0.099  13.693 -0.0779  0.0898  1.2248
  695MPD2    H310282   3.646   0.043  13.509 -0.5544  0.6849 -0.7300
  695MPD2     N10283   3.371   0.400  13.614  0.3629  0.1672  0.5276
  695MPD2    H510284   3.355   0.474  13.681  0.3634 -0.0731  0.7910
  695MPD2    N110285   3.777   0.299  13.860 -0.3581  0.1212 -0.5004
  695MPD2    H710286   3.744   0.357  13.936  1.5648 -1.0832  1.2339
  696TMC3    C110287   3.178   0.508  13.519 -0.0374  1.5274  0.6911
  696TMC3    C210288   3.112   0.504  13.638  0.5188  0.4246 -0.3822
  696TMC3    C310289   3.005   0.596  13.648 -0.4507 -0.7730 -0.7178
  696TMC3    C410290   3.148   0.582  13.403 -0.5862 -0.1233 -0.6064
  696TMC3    C510291   3.056   0.680  13.422 -0.4194 -0.3733  1.0904
  696TMC3    C610292   2.983   0.680  13.536 -0.4078  0.2432  0.0447
  696TMC3     C10293   3.293   0.415  13.497 -0.2969 -0.1046 -1.1043
  696TMC3     O10294   3.307   0.364  13.383  0.0898  0.5439 -0.2816
  696TMC3     H10295   3.133   0.429  13.713  2.2874  0.9942 -0.3015
  696TMC3    H110296   3.216   0.581  13.318  0.0289 -0.0627 -0.1162
  696TMC3    H210297   2.910   0.757  13.559  0.4919  1.3700 -0.8646
  696TMC3    C710298   3.089   0.806  13.367  0.7819  0.0559  0.5015
  696TMC3    C810299   3.014   0.674  13.774  0.5411 -0.4921 -0.3256
  696TMC3    O110300   3.135   0.816  13.257  0.3838  0.1618  0.3593
  696TMC3    O210301   2.997   0.796  13.765  0.0006 -0.3411  0.3696
  697MPD2     C10302   2.882   2.505  15.755 -0.0250  0.2577  0.0321
  697MPD2    C110303   2.968   2.446  15.666 -0.2802  0.3307 -0.0659
  697MPD2    C210304   3.046   2.534  15.587  0.3799 -0.9114  0.1715
  697MPD2    C310305   3.048   2.668  15.597  0.8267 -0.5178 -0.4541
  697MPD2    C410306   2.972   2.723  15.694  0.5453  0.3706 -0.2960
  697MPD2    C510307   2.888   2.641  15.772  0.8677  0.6733  0.0796
  697MPD2     H10308   3.120   2.489  15.522 -0.7054  0.1130 -1.7505
  697MPD2    H110309   2.964   2.828  15.723  3.2297  1.2838 -2.8633
  697MPD2    H210310   2.827   2.453  15.832  1.3838 -0.4125  0.5862
  697MPD2    H310311   2.818   2.687  15.841  2.6184  0.8319  1.7402
  697MPD2     N10312   3.134   2.748  15.504  0.6794 -0.2617 -0.3999
  697MPD2    H510313   3.197   2.693  15.447  1.0949  2.0726 -2.1873
  697MPD2    N110314   2.984   2.301  15.658  0.1825 -0.1704 -0.0228
  697MPD2    H710315   3.049   2.276  15.584  1.4971  1.5931  0.5379
  698TMC3    C110316   3.257   2.924  15.395  0.2092  0.5576  0.5450
  698TMC3    C210317   3.341   3.022  15.427 -0.6450  0.6130 -0.5861
  698TMC3    C310318   3.445   3.041  15.346 -0.0146  0.0255 -0.4656
  698TMC3    C410319   3.269   2.841  15.288 -0.4922  0.5652 -0.8635
  698TMC3    C510320   3.364   2.875  15.196 -0.1656  0.3566 -0.1788
  698TMC3    C610321   3.455   2.980  15.219 -0.3771 -0.2552 -0.2778
  698TMC3     C10322   3.159   2.882  15.501  0.2455 -0.5807  0.2254
  698TMC3     O10323   3.129   2.974  15.578 -0.1348 -0.6559  0.0276
  698TMC3     H10324   3.330   3.084  15.516  1.9206  1.7643 -1.0626
  698TMC3    H110325   3.205   2.754  15.275 -0.5291  0.6018 -0.9230
  698TMC3    H210326   3.519   3.028  15.146 -0.6101  1.8361  0.8983
  698TMC3    C710327   3.379   2.788  15.077 -0.6909 -0.1758 -0.1292
  698TMC3    C810328   3.534   3.151  15.373  0.2559 -0.1242 -0.0513
  698TMC3    O110329   3.278   2.719  15.050  0.2070 -0.0665 -0.0452
  698TMC3    O210330   3.481   3.240  15.435  0.5180  0.3958 -0.4534
  699TMC3    C110331   2.960   0.433  13.153  0.1672 -0.2577 -0.0182
  699TMC3    C210332   3.023   0.328  13.214  0.5144  0.6238 -0.1325
  699TMC3    C310333   2.942   0.271  13.313 -0.0159 -0.3807  0.4096
  699TMC3    C410334   2.834   0.478  13.177  0.5599  0.8114 -0.5260
  699TMC3    C510335   2.764   0.411  13.272  0.6513  1.0025 -0.4114
  699TMC3    C610336   2.819   0.312  13.342  0.1627 -0.0670 -0.2940
  699TMC3     C10337   3.039   0.516  13.064 -0.4646  0.4549  0.6619
  699TMC3     O10338   2.991   0.628  13.035  0.0950 -0.5864  0.1751
  699TMC3     H10339   3.120   0.287  13.188  0.4049 -0.7559  1.6355
  699TMC3    H110340   2.796   0.567  13.127 -3.5129 -0.3340  0.5596
  699TMC3    H210341   2.746   0.255  13.399  0.1749 -0.0125 -0.2233
  699TMC3    C710342   2.673   0.493  13.355 -0.7087  0.2575 -0.0478
  699TMC3    C810343   3.003   0.170  13.406  0.0525  0.0782  1.0227
  699TMC3    O110344   2.612   0.430  13.443  1.0590 -0.2312 -0.2904
  699TMC3    O210345   2.926   0.131  13.491 -0.0339 -0.1936  0.6339
  700TMC3    C110346   2.312   3.025   0.174 -0.1879  0.3400 -0.1007
  700TMC3    C210347   2.398   2.925   0.148 -0.2530  0.0424  1.0354
  700TMC3    C310348   2.526   2.927   0.197 -0.0199  0.6546 -0.1065
  700TMC3    C410349   2.364   3.141   0.232 -0.2655 -0.9060  0.6800
  700TMC3    C510350   2.493   3.150   0.258 -0.3456 -0.0641 -0.6327
  700TMC3    C610351   2.579   3.045   0.249 -0.5538 -0.4631 -0.5866
  700TMC3     C10352   2.232   3.058   0.058  0.4257  0.3497 -0.4197
  700TMC3     O10353   2.151   2.976   0.018 -0.3768  0.4057 -0.1599
  700TMC3     H10354   2.368   2.836   0.093  1.4515 -2.3200  3.9354
  700TMC3    H110355   2.312   3.230   0.266  1.0262 -0.0876  0.5052
  700TMC3    H210356   2.685   3.063   0.259 -1.1899  3.0159 -0.2339
  700TMC3    C710357   2.540   3.280   0.284  0.4707  0.5642 -0.4278
  700TMC3    C810358   2.615   2.837   0.135 -0.1479  0.0558  0.1054
  700TMC3    O110359   2.500   3.363   0.204  0.2099  0.8013  0.0479
  700TMC3    O210360   2.583   2.777   0.035  0.4337  0.2772  0.4804
  701TMC3    C110361   2.296   1.510  15.581 -0.5422  0.0633 -0.1960
  701TMC3    C210362   2.310   1.471  15.453  0.0763 -0.0686  0.4899
  701TMC3    C310363   2.404   1.539  15.379 -0.5354 -0.4539 -1.0591
  701TMC3    C410364   2.355   1.626  15.631  0.0344  0.3719 -1.0205
  701TMC3    C510365   2.460   1.677  15.565  0.0432 -0.1032  0.5965
  701TMC3    C610366   2.493   1.626  15.437 -0.1516 -0.0626 -0.5046
  701TMC3     C10367   2.183   1.471  15.657 -1.0447  0.1533  0.8754
  701TMC3     O10368   2.143   1.550  15.739  0.2139  0.3114  0.1165
  701TMC3     H10369   2.240   1.404  15.404  0.7813 -0.4308 -0.0235
  701TMC3    H110370   2.330   1.659  15.731 -1.2638  0.5844 -1.4104
  701TMC3    H210371   2.569   1.673  15.376 -1.1931  3.2956  0.8041
  701TMC3    C710372   2.514   1.804  15.601 -0.2176 -0.1084  0.5424
  701TMC3    C810373   2.401   1.533  15.226  0.3810  0.5538  0.3759
  701TMC3    O110374   2.579   1.860  15.515 -0.4639  0.4305 -0.4148
  701TMC3    O210375   2.457   1.627  15.169  0.0901  0.3096 -0.2069
  702MPD2     C10376   1.394   3.591  10.555 -0.1137 -0.0804  0.0080
  702MPD2    C110377   1.503   3.635  10.629 -0.0034  0.4662 -0.7846
  702MPD2    C210378   1.602   3.695  10.564  0.1367 -0.0715  0.4016
  702MPD2    C310379   1.588   3.725  10.422 -0.1260 -0.2827 -0.6611
  702MPD2    C410380   1.480   3.676  10.353 -0.3076 -0.3692  0.0823
  702MPD2    C510381   1.385   3.608  10.421  0.0272 -0.0708  0.2265
  702MPD2     H10382   1.683   3.730  10.626 -1.0996 -0.3916  2.2093
  702MPD2    H110383   1.465   3.680  10.246  1.7436 -0.3760 -0.2045
  702MPD2    H210384   1.336   3.509  10.595 -0.5651 -1.4356 -3.4979
  702MPD2    H310385   1.310   3.557  10.361  0.3520  0.0185 -0.2593
  702MPD2     N10386   1.665   3.821  10.356 -0.3312  0.2571 -0.4716
  702MPD2    H510387   1.632   3.858  10.268 -0.5624  0.3504 -0.3450
  702MPD2    N110388   1.514   3.632  10.768 -0.2677  0.1364  0.6333
  702MPD2    H710389   1.592   3.684  10.806 -0.8494  1.6372 -0.2269
  703TMC3    C110390   1.822   3.985  10.328  0.0385  0.0207 -0.1024
  703TMC3    C210391   1.729   4.083  10.305  0.5497  0.2699 -0.5042
  703TMC3    C310392   1.769   4.179  10.219 -0.1244 -0.4377  0.3490
  703TMC3    C410393   1.954   3.989  10.296  0.0866  0.4532 -0.5190
  703TMC3    C510394   1.987   4.091  10.216 -0.4111 -1.0922  0.8652
  703TMC3    C610395   1.900   4.188  10.174  0.7580  0.7447  0.3270
  703TMC3     C10396   1.784   3.868  10.407 -0.0817 -0.4906 -0.2298
  703TMC3     O10397   1.870   3.814  10.474  0.3150 -0.0008  0.0583
  703TMC3     H10398   1.631   4.079  10.350  0.1823  3.0449 -1.0665
  703TMC3    H110399   2.029   3.921  10.333  0.9231  0.8853 -1.4401
  703TMC3    H210400   1.938   4.269  10.113 -0.7502  1.3788  0.2339
  703TMC3    C710401   2.131   4.099  10.202 -0.3707  0.1476  0.0805
  703TMC3    C810402   1.682   4.286  10.182 -0.0811  0.6261 -0.2189
  703TMC3    O110403   2.205   4.008  10.248  0.6576  0.4554 -0.3524
  703TMC3    O210404   1.719   4.359  10.093  1.1169  0.1508  0.2954
  704TMC3    C110405   3.890   2.383  12.273 -0.7774 -0.1634 -0.6729
  704TMC3    C210406   4.021   2.404  12.320  0.0783  0.6221  0.2680
  704TMC3    C310407   4.042   2.352  12.448 -0.6743  0.1738 -0.3311
  704TMC3    C410408   3.793   2.307  12.337  0.5132  0.5866  0.1728
  704TMC3    C510409   3.831   2.244  12.450 -0.6040  0.4213 -0.0225
  704TMC3    C610410   3.954   2.266  12.509 -0.0633  0.8053 -0.0839
  704TMC3     C10411   3.836   2.441  12.147  0.2404 -0.0488 -0.4288
  704TMC3     O10412   3.716   2.463  12.141 -0.6136  0.1347 -0.2583
  704TMC3     H10413   4.084   2.488  12.290  0.3003  0.1546 -0.5471
  704TMC3    H110414   3.715   2.274  12.270  0.3944  1.6618 -0.2271
  704TMC3    H210415   3.978   2.209  12.598  0.3953  2.0253  0.5658
  704TMC3    C710416   3.762   2.125  12.497 -0.0095 -0.5471  0.4903
  704TMC3    C810417   4.174   2.372  12.512 -0.6480  0.7701 -0.6887
  704TMC3    O110418   3.641   2.127  12.515 -0.1824 -0.4699  0.1827
  704TMC3    O210419   4.178   2.355  12.631 -0.2628 -0.4907  0.1350
  705MPD2     C10420   4.030   0.681  16.806  0.2689  0.1191  0.1336
  705MPD2    C110421   3.927   0.670  16.715 -0.7510  0.4701 -0.1819
  705MPD2    C210422   3.797   0.700  16.755 -0.3511  0.0681  0.1203
  705MPD2    C310423   3.761   0.749  16.879  0.3696 -0.3461  0.5367
  705MPD2    C410424   3.863   0.756  16.971  0.5505 -0.2376 -0.1213
  705MPD2    C510425   3.990   0.713  16.936  0.0331 -0.1731 -0.4418
  705MPD2     H10426   3.725   0.696  16.674  0.8805 -1.4294 -0.9004
  705MPD2    H110427   3.835   0.781  17.072  0.6538  1.6515 -0.5390
  705MPD2    H210428   4.131   0.648  16.787 -0.6755 -3.4358  1.1240
  705MPD2    H310429   4.061   0.686  17.013 -0.6424 -0.3382  0.1192
  705MPD2     N10430   3.631   0.787  16.917  0.5957  0.6200  0.2033
  705MPD2    H510431   3.629   0.820  17.013 -0.7447 -1.4526  0.8912
  705MPD2    N110432   3.942   0.637  16.581  0.4633 -0.5374 -0.0461
  705MPD2    H710433   3.862   0.651  16.520 -0.6161 -2.0976  1.0548
  706TMC3    C110434   4.064   0.490  16.180  0.5869  0.5239 -0.2755
  706TMC3    C210435   4.036   0.605  16.116 -0.4940 -0.5378  0.2255
  706TMC3    C310436   3.999   0.714  16.191 -0.7909 -0.1687  0.6318
  706TMC3    C410437   4.065   0.479  16.319 -0.0711  0.2501  0.7929
  706TMC3    C510438   4.038   0.591  16.386 -0.7287  0.3423 -0.2975
  706TMC3    C610439   4.000   0.707  16.330 -0.1454  0.4831  0.1479
  706TMC3     C10440   4.154   0.395  16.122  0.1332 -0.7136  0.5614
  706TMC3     O10441   4.256   0.367  16.184  0.3355  0.2890  0.3500
  706TMC3     H10442   4.051   0.610  16.009 -0.7030  1.6821  0.3092
  706TMC3    H110443   4.098   0.390  16.371  3.0214  1.1739  0.4558
  706TMC3    H210444   3.983   0.796  16.389 -2.1471 -0.1299  0.4868
  706TMC3    C710445   4.052   0.583  16.523  0.0959 -0.5257  0.8743
  706TMC3    C810446   3.938   0.831  16.126 -0.8169 -0.3209 -0.2322
  706TMC3    O110447   4.147   0.521  16.572 -0.0158 -0.6907  0.0243
  706TMC3    O210448   3.902   0.804  16.012 -0.9263  0.1079 -0.4358
  707TMC3    C110449   2.146   4.295   2.176  0.7175  0.6805 -0.0513
  707TMC3    C210450   2.273   4.305   2.215 -0.3410 -0.4034  0.4183
  707TMC3    C310451   2.298   4.313   2.347 -0.0609 -0.1518  0.4698
  707TMC3    C410452   2.037   4.297   2.264  0.2439  0.5506 -0.0563
  707TMC3    C510453   2.067   4.290   2.396 -0.0161  0.0391 -0.1686
  707TMC3    C610454   2.195   4.311   2.446 -0.3834  0.6629  0.8343
  707TMC3     C10455   2.130   4.226   2.048  0.5450  0.6302 -0.1988
  707TMC3     O10456   2.239   4.195   1.997  0.1515  0.4076 -0.3313
  707TMC3     H10457   2.347   4.316   2.136  0.4038 -1.3655  0.9848
  707TMC3    H110458   1.936   4.268   2.237  0.9223 -1.6321 -0.2406
  707TMC3    H210459   2.234   4.272   2.540  2.2932  1.2785 -0.0094
  707TMC3    C710460   1.961   4.273   2.489  0.2244 -0.2197  0.1636
  707TMC3    C810461   2.432   4.282   2.378  0.0848 -0.0533 -0.5972
  707TMC3    O110462   1.852   4.232   2.448 -0.8101  0.0759  0.1575
  707TMC3    O210463   2.471   4.297   2.493 -0.5139  0.2097  0.1247
  708MPD2     C10464   2.461   3.502  13.996 -0.9571  0.3290  0.5188
  708MPD2    C110465   2.343   3.541  14.053  0.0511  0.3656 -0.3643
  708MPD2    C210466   2.308   3.507  14.186  0.6701 -0.5832  0.4142
  708MPD2    C310467   2.397   3.424  14.253  0.2349 -0.1518 -1.1020
  708MPD2    C410468   2.515   3.380  14.198  0.3773  0.6642 -0.1643
  708MPD2    C510469   2.552   3.429  14.072 -0.4694 -0.0718  0.1913
  708MPD2     H10470   2.221   3.553  14.231  1.2415  1.2895 -0.4090
  708MPD2    H110471   2.582   3.319  14.258 -2.0841 -1.7865  0.0834
  708MPD2    H210472   2.497   3.537  13.899 -1.2117  1.5353  0.8671
  708MPD2    H310473   2.646   3.392  14.035 -0.8795  0.7450 -1.6310
  708MPD2     N10474   2.356   3.366  14.376 -0.5748 -0.0013  0.2529
  708MPD2    H510475   2.429   3.345  14.443 -0.8331  0.2065  0.6011
  708MPD2    N110476   2.251   3.622  13.981 -0.0238  0.4521  0.1006
  708MPD2    H710477   2.170   3.657  14.032  0.6437 -0.9022  2.1067
  709TMC3    C110478   2.120   3.723  13.816  0.2010 -1.1414 -0.5288
  709TMC3    C210479   2.034   3.671  13.717 -0.0918  0.1670  0.2822
  709TMC3    C310480   1.904   3.685  13.737  0.4465 -0.1961  0.8174
  709TMC3    C410481   2.066   3.786  13.926  0.1237 -0.1986 -0.4279
  709TMC3    C510482   1.935   3.778  13.946 -0.0122  0.8887  0.6235
  709TMC3    C610483   1.849   3.724  13.851 -0.0352  0.2676 -0.1637
  709TMC3     C10484   2.246   3.644  13.849  0.1546 -0.7274  0.4656
  709TMC3     O10485   2.324   3.609  13.762  0.2404 -0.1187  0.3912
  709TMC3     H10486   2.073   3.619  13.630  2.1143 -2.2092  2.6554
  709TMC3    H110487   2.137   3.821  14.000  2.1423 -2.8725 -1.1027
  709TMC3    H210488   1.741   3.717  13.854  0.1668 -2.4747  0.5670
  709TMC3    C710489   1.912   3.731  14.086  0.5130 -0.4789  0.0262
  709TMC3    C810490   1.809   3.619  13.650 -1.0510  0.0743 -0.4686
  709TMC3    O110491   2.019   3.700  14.143 -0.3322  0.1793 -0.2732
  709TMC3    O210492   1.718   3.557  13.706 -0.7677  0.4076  0.7203
  710TMC3    C110493   3.386   0.807   0.773  0.6244  0.2682 -0.2693
  710TMC3    C210494   3.418   0.730   0.667  0.0568  0.2730 -0.0525
  710TMC3    C310495   3.540   0.666   0.665  0.4220  0.2694  0.1368
  710TMC3    C410496   3.468   0.810   0.883 -0.2620  0.6835  0.3546
  710TMC3    C510497   3.586   0.738   0.877 -0.7402  0.4771  0.5420
  710TMC3    C610498   3.628   0.663   0.772  1.0121 -0.0326 -0.6091
  710TMC3     C10499   3.262   0.875   0.759  0.0756  0.0538 -1.1684
  710TMC3     O10500   3.182   0.847   0.669 -0.0275 -0.5963  0.4249
  710TMC3     H10501   3.343   0.717   0.591  0.0583 -0.0852  0.0091
  710TMC3    H110502   3.429   0.835   0.981 -0.1622 -0.4952  0.6973
  710TMC3    H210503   3.718   0.603   0.779  0.3121 -0.8264  1.4751
  710TMC3    C710504   3.655   0.722   1.005  0.3928  0.0075  0.0826
  710TMC3    C810505   3.542   0.535   0.608 -0.2795  1.0390 -0.5390
  710TMC3    O110506   3.719   0.618   1.018 -0.4218 -0.0072  0.3734
  710TMC3    O210507   3.649   0.486   0.564 -0.0555 -0.1640 -0.3582
  711TMC3    C110508   2.600   1.208  15.017  0.8968  0.1856 -0.6238
  711TMC3    C210509   2.584   1.229  15.151  0.3487  0.1495  0.6515
  711TMC3    C310510   2.670   1.320  15.207  0.1944  0.3389 -0.1763
  711TMC3    C410511   2.689   1.286  14.944 -0.2861  0.2190 -0.0160
  711TMC3    C510512   2.777   1.375  15.006  0.1122  0.1123 -0.1866
  711TMC3    C610513   2.752   1.404  15.134  0.0040  0.1953  0.4953
  711TMC3     C10514   2.511   1.113  14.951  0.4737  0.1965  0.2587
  711TMC3     O10515   2.466   1.026  15.026 -0.4912 -0.0283 -0.7363
  711TMC3     H10516   2.527   1.162  15.215  1.7528 -1.4729  0.2072
  711TMC3    H110517   2.709   1.253  14.842  1.8653 -1.5202  0.9710
  711TMC3    H210518   2.804   1.489  15.178  0.7970  0.0877 -0.2196
  711TMC3    C710519   2.916   1.363  14.972 -0.0436  0.0475  0.1163
  711TMC3    C810520   2.696   1.299  15.344  0.0723  0.4993 -0.2022
  711TMC3    O110521   2.993   1.351  15.068  0.1695  0.5091  0.2554
  711TMC3    O210522   2.633   1.225  15.416 -0.0483  0.0037 -0.1341
  712MPD2     C10523   4.397   2.112  13.292  0.0010 -0.0402 -0.1476
  712MPD2    C110524   4.276   2.118  13.364  0.4201  0.8027 -0.8145
  712MPD2    C210525   4.282   2.179  13.489  0.0322 -0.4352 -0.1804
  712MPD2    C310526   4.400   2.244  13.536 -0.1089 -0.0754 -0.1024
  712MPD2    C410527   4.517   2.216  13.474  0.0554  0.2369  0.1596
  712MPD2    C510528   4.510   2.152  13.351  0.0413  0.1303 -0.5376
  712MPD2     H10529   4.189   2.188  13.544  0.3850 -1.6704  0.6206
  712MPD2    H110530   4.610   2.263  13.504  1.4379 -1.0997 -2.0476
  712MPD2    H210531   4.410   2.071  13.192  0.1571 -2.0659  0.6912
  712MPD2    H310532   4.602   2.141  13.295 -1.4975 -0.9703 -2.8555
  712MPD2     N10533   4.415   2.323  13.655  0.2804  0.2269 -0.3517
  712MPD2    H510534   4.507   2.362  13.669  0.6445 -0.5099 -0.6885
  712MPD2    N110535   4.160   2.082  13.297  0.4650  0.2935 -0.8830
  712MPD2    H710536   4.161   2.063  13.197 -0.3248  0.3615 -0.8983
  713TMC3    C110537   4.339   2.513  13.777 -0.2862 -0.5163  0.3611
  713TMC3    C210538   4.466   2.547  13.787 -0.2450 -0.6699 -0.2278
  713TMC3    C310539   4.480   2.681  13.804 -0.4735  0.2790 -0.8428
  713TMC3    C410540   4.231   2.590  13.820  0.7305  0.2453 -0.2066
  713TMC3    C510541   4.256   2.714  13.856 -0.1914 -0.5216 -0.5345
  713TMC3    C610542   4.383   2.767  13.841  0.0191 -0.4276 -0.3446
  713TMC3     C10543   4.303   2.388  13.703  1.0714 -0.3513  0.0458
  713TMC3     O10544   4.180   2.378  13.677  0.2253 -0.5414  0.0842
  713TMC3     H10545   4.548   2.480  13.764 -0.0935 -0.6820  0.3381
  713TMC3    H110546   4.126   2.564  13.807  1.1994  0.3311 -3.9910
  713TMC3    H210547   4.404   2.871  13.861  0.0235 -0.4717 -0.1177
  713TMC3    C710548   4.144   2.802  13.858  0.1931 -0.0686 -0.5981
  713TMC3    C810549   4.608   2.744  13.777 -0.3172 -0.5982  0.0363
  713TMC3    O110550   4.036   2.758  13.829  0.1176 -0.2032  0.3486
  713TMC3    O210551   4.613   2.860  13.759 -0.1261  0.0364 -0.1873
  714MPD2     C10552   1.995   1.068   1.930  0.0019  0.3205  0.2558
  714MPD2    C110553   2.036   1.001   1.817  0.0204  0.0880 -0.2215
  714MPD2    C210554   1.980   1.037   1.697 -0.3036  0.1380  0.0011
  714MPD2    C310555   1.894   1.143   1.679 -0.2456 -0.5096  0.2855
  714MPD2    C410556   1.863   1.218   1.792 -0.1378 -0.7687 -0.6521
  714MPD2    C510557   1.912   1.177   1.910  0.2527 -0.2502 -0.4375
  714MPD2     H10558   2.013   0.981   1.610 -3.9012 -2.1013  0.0589
  714MPD2    H110559   1.790   1.298   1.796  1.3569  0.5066  1.7502
  714MPD2    H210560   2.024   1.034   2.029  2.2257  0.1729 -0.4410
  714MPD2    H310561   1.890   1.233   2.000  1.1656  1.3224 -1.2053
  714MPD2     N10562   1.853   1.171   1.549  0.6229 -0.3397  1.1330
  714MPD2    H510563   1.904   1.124   1.474  0.5576 -2.0083  2.1166
  714MPD2    N110564   2.122   0.892   1.840  0.5403 -0.5494  0.4432
  714MPD2    H710565   2.132   0.857   1.935 -4.5977 -2.2484  0.3778
  715TMC3    C110566   2.284   0.738   1.817  0.7390  0.1289 -0.2020
  715TMC3    C210567   2.329   0.620   1.768  1.1025 -0.2306  0.3362
  715TMC3    C310568   2.456   0.573   1.801 -0.3085  0.2906 -0.6044
  715TMC3    C410569   2.349   0.798   1.920 -0.2497 -0.1378  0.5840
  715TMC3    C510570   2.463   0.738   1.964  0.1317  0.0047  0.1294
  715TMC3    C610571   2.522   0.634   1.904 -0.3587 -0.0621  0.2592
  715TMC3     C10572   2.180   0.812   1.748 -0.9093 -0.1276  0.1104
  715TMC3     O10573   2.168   0.802   1.625  0.4845 -0.5533 -0.6137
  715TMC3     H10574   2.276   0.569   1.688  0.8460 -0.5857  0.7340
  715TMC3    H110575   2.327   0.903   1.939  1.4479  0.6967 -2.1829
  715TMC3    H210576   2.615   0.595   1.945 -0.0870 -0.4669 -0.7225
  715TMC3    C710577   2.516   0.802   2.087 -0.0659 -0.1146 -0.0159
  715TMC3    C810578   2.517   0.462   1.721  0.7768 -0.2554  0.2956
  715TMC3    O110579   2.622   0.761   2.128  0.0340 -0.0870 -0.5220
  715TMC3    O210580   2.480   0.445   1.607 -0.3594 -0.9673 -0.3191
  716MPD2     C10581   1.218   4.042   9.710 -0.0358 -0.9628 -0.0524
  716MPD2    C110582   1.175   3.993   9.590 -0.6152  0.2537  0.4412
  716MPD2    C210583   1.243   3.893   9.525 -0.1802  0.3082  0.4015
  716MPD2    C310584   1.363   3.835   9.580  0.1098  0.4106 -0.4423
  716MPD2    C410585   1.406   3.878   9.701 -0.2996  0.1778  0.1725
  716MPD2    C510586   1.336   3.979   9.765 -0.3373  0.1597 -0.0873
  716MPD2     H10587   1.216   3.860   9.425  1.5681 -2.8902  1.0154
  716MPD2    H110588   1.493   3.842   9.753  0.1407  2.0765  0.7421
  716MPD2    H210589   1.169   4.119   9.769 -1.0205 -0.4427 -1.5368
  716MPD2    H310590   1.366   4.015   9.863 -1.8174  1.2901 -0.0468
  716MPD2     N10591   1.428   3.733   9.503 -0.4948 -0.0561 -0.1538
  716MPD2    H510592   1.374   3.680   9.435  1.8931 -3.6009  0.6976
  716MPD2    N110593   1.057   4.053   9.542 -0.4734  0.4183 -0.0262
  716MPD2    H710594   1.012   4.119   9.606  2.8316  2.6649 -0.0006
  717TMC3    C110595   1.602   3.577   9.459  0.4175  0.4873 -0.2309
  717TMC3    C210596   1.539   3.548   9.343 -0.9751  0.1005 -0.1615
  717TMC3    C310597   1.609   3.502   9.240 -0.0525  0.1350 -0.3743
  717TMC3    C410598   1.741   3.571   9.469 -0.1871  0.0724 -0.0615
  717TMC3    C510599   1.809   3.520   9.362  0.1209 -0.4089  0.3336
  717TMC3    C610600   1.745   3.498   9.240  0.1179 -0.5032  0.1618
  717TMC3     C10601   1.546   3.687   9.541  0.3923  0.3083  0.2553
  717TMC3     O10602   1.623   3.723   9.627 -0.0726  0.4829 -0.2552
  717TMC3     H10603   1.431   3.551   9.340 -0.9625  1.9163  1.3744
  717TMC3    H110604   1.788   3.587   9.565 -0.4415 -0.3943  0.1458
  717TMC3    H210605   1.790   3.464   9.147  1.3599 -1.9420  1.2968
  717TMC3    C710606   1.953   3.516   9.375 -0.0561 -0.2526  0.3225
  717TMC3    C810607   1.530   3.434   9.141  0.1021 -0.0731  0.5779
  717TMC3    O110608   1.998   3.577   9.469 -0.3607 -0.1398 -0.0657
  717TMC3    O210609   1.411   3.461   9.121  0.6790  0.1691 -0.6302
  718MPD2     C10610   1.332   2.805  13.306 -0.8077  0.2946 -0.0729
  718MPD2    C110611   1.372   2.820  13.173  0.3524  0.1796 -0.0222
  718MPD2    C210612   1.330   2.726  13.076 -0.6247  0.7404 -0.0768
  718MPD2    C310613   1.239   2.624  13.114  0.6845  0.3527  0.4293
  718MPD2    C410614   1.200   2.619  13.247 -0.3936  0.2675  0.4595
  718MPD2    C510615   1.249   2.703  13.340  0.2579  0.2481  0.0240
  718MPD2     H10616   1.365   2.741  12.974 -0.8409  1.5425 -0.0363
  718MPD2    H110617   1.126   2.550  13.286 -0.7247 -0.3974 -1.3686
  718MPD2    H210618   1.372   2.873  13.380 -1.0820  0.3346  0.0372
  718MPD2    H310619   1.214   2.690  13.442 -0.4111 -0.4093 -0.2992
  718MPD2     N10620   1.185   2.535  13.021  0.2531 -0.2779  0.3359
  718MPD2    H510621   1.226   2.542  12.928  0.9546  0.8364  0.7344
  718MPD2    N110622   1.460   2.933  13.137  0.0497 -0.1708  0.2719
  718MPD2    H710623   1.484   2.997  13.212  0.1771 -1.6819  1.5149
  719TMC3    C110624   1.533   3.094  13.008  0.1204  0.6049 -0.3147
  719TMC3    C210625   1.410   3.144  12.976 -0.0114 -0.1632  0.3537
  719TMC3    C310626   1.393   3.226  12.865  0.1692  0.7507 -0.4126
  719TMC3    C410627   1.648   3.132  12.943  0.1064 -0.3303 -0.0870
  719TMC3    C510628   1.629   3.233  12.853  0.2055 -0.3974  0.4514
  719TMC3    C610629   1.505   3.273  12.809 -0.1138 -0.0848  0.2759
  719TMC3     C10630   1.520   2.950  13.020  0.2039 -0.2817  0.3718
  719TMC3     O10631   1.516   2.890  12.912  0.2545 -0.2051  0.2849
  719TMC3     H10632   1.322   3.093  13.015  0.6765 -1.9103 -0.3910
  719TMC3    H110633   1.743   3.085  12.967 -0.6610 -1.7361  0.2414
  719TMC3    H210634   1.479   3.340  12.728  1.2027 -0.9447 -0.8484
  719TMC3    C710635   1.733   3.263  12.760  0.1947  0.0330 -0.1539
  719TMC3    C810636   1.280   3.201  12.772  0.1566  0.0807  0.3929
  719TMC3    O110637   1.696   3.289  12.645  0.3414 -0.2860  0.3286
  719TMC3    O210638   1.248   3.289  12.689 -0.0696 -0.3092 -0.5776
  720MPD2     C10639   4.131   4.267  14.236 -0.4743  0.3425  0.2352
  720MPD2    C110640   4.243   4.263  14.163  0.0708 -0.0091  0.0979
  720MPD2    C210641   4.362   4.213  14.215  0.2282  0.2849  0.2064
  720MPD2    C310642   4.372   4.193  14.352  0.6872 -0.8636  0.3868
  720MPD2    C410643   4.255   4.212  14.426 -0.4088  0.4479  0.0684
  720MPD2    C510644   4.138   4.243  14.367 -0.2104 -0.1618 -0.6244
  720MPD2     H10645   4.448   4.211  14.149  1.7329 -0.7847  2.1774
  720MPD2    H110646   4.255   4.198  14.534  0.8456 -0.3260 -0.0314
  720MPD2    H210647   4.035   4.283  14.189  0.5350  0.2269 -1.8868
  720MPD2    H310648   4.052   4.241  14.433  0.5226 -1.7441  0.2750
  720MPD2     N10649   4.505   4.171  14.406  0.4158  0.4380 -0.2100
  720MPD2    H510650   4.586   4.160  14.346 -1.1270  0.0686 -2.2208
  720MPD2    N110651   4.235   4.291  14.027 -0.0646 -0.7622  0.2179
  720MPD2    H710652   4.322   4.284  13.976  0.2228 -0.6745  0.6947
  721TMC3    C110653   4.677   4.164  14.566 -0.2027 -0.4364 -0.4178
  721TMC3    C210654   4.700   4.180  14.703 -0.7379  0.5123 -0.8829
  721TMC3    C310655   0.113   4.164  14.743  1.0443 -0.3059  0.0307
  721TMC3    C410656   0.062   4.143  14.476 -0.5889 -0.2919 -0.5960
  721TMC3    C510657   0.184   4.120  14.525 -0.2869 -0.2933 -0.3788
  721TMC3    C610658   0.216   4.133  14.655  0.2290 -0.8026  0.7630
  721TMC3     C10659   4.536   4.163  14.537  0.4232 -0.7044  0.8030
  721TMC3     O10660   4.465   4.165  14.639 -0.5721  0.1896  0.3272
  721TMC3     H10661   4.628   4.221  14.773 -0.5620 -0.8315  0.0834
  721TMC3    H110662   0.048   4.153  14.369  1.3792  1.1363 -0.7409
  721TMC3    H210663   0.314   4.129  14.700  0.8872  0.5781 -0.5797
  721TMC3    C710664   0.291   4.082  14.427  0.0711 -0.3141 -0.1515
  721TMC3    C810665   0.145   4.196  14.884  0.2365  0.5354 -0.4609
  721TMC3    O110666   0.272   4.103  14.310  0.0388  0.2060 -0.1033
  721TMC3    O210667   0.258   4.234  14.907 -0.4590  0.4937  0.6833
  722MPD2     C10668   3.363   2.846  13.244  0.6313 -0.2014  0.3228
  722MPD2    C110669   3.288   2.953  13.287  0.3389 -0.7455 -0.1032
  722MPD2    C210670   3.154   2.957  13.254 -0.8057 -0.0701  0.3604
  722MPD2    C310671   3.101   2.859  13.172 -0.0682  0.8021  0.2221
  722MPD2    C410672   3.179   2.753  13.127 -0.4020 -0.3497 -0.2289
  722MPD2    C510673   3.311   2.748  13.168 -0.5700 -0.1308 -0.0436
  722MPD2     H10674   3.097   3.043  13.288  0.1954  0.7286  0.0141
  722MPD2    H110675   3.157   2.671  13.059  2.1391  0.0659 -1.5211
  722MPD2    H210676   3.470   2.836  13.258  0.6458  0.9980  1.0554
  722MPD2    H310677   3.369   2.672  13.116 -0.9096 -0.0537 -0.5368
  722MPD2     N10678   2.967   2.878  13.128  0.1620 -0.2461 -0.3697
  722MPD2    H510679   2.917   2.965  13.143  0.8618  0.3236 -1.3823
  722MPD2    N110680   3.342   3.055  13.368 -0.5982  0.0455 -0.6065
  722MPD2    H710681   3.297   3.145  13.366  3.9650  2.3749 -0.1256
  723TMC3    C110682   2.758   2.804  13.097  0.0389  0.2780  0.3134
  723TMC3    C210683   2.682   2.713  13.157 -0.4862 -0.8849 -0.4818
  723TMC3    C310684   2.554   2.761  13.174  0.3002  0.0993 -0.2619
  723TMC3    C410685   2.716   2.919  13.035 -0.3063  0.2050  0.2674
  723TMC3    C510686   2.592   2.959  13.063  0.7072 -0.7278  0.7876
  723TMC3    C610687   2.501   2.883  13.130 -0.2477  0.0912  0.8481
  723TMC3     C10688   2.893   2.766  13.092 -0.3243 -0.7970  0.1834
  723TMC3     O10689   2.928   2.649  13.099  0.2086  0.2038  0.0867
  723TMC3     H10690   2.727   2.619  13.188  0.7194 -1.4363 -3.8089
  723TMC3    H110691   2.783   2.990  12.987 -3.3330  3.0475  0.2698
  723TMC3    H210692   2.397   2.911  13.133 -0.3050  0.0243 -0.4774
  723TMC3    C710693   2.548   3.084  13.014 -0.1030  0.4746 -0.4311
  723TMC3    C810694   2.459   2.664  13.220  0.5197 -0.5581 -0.9633
  723TMC3    O110695   2.482   3.157  13.088 -0.6918 -0.4343 -0.5530
  723TMC3    O210696   2.363   2.704  13.283  0.2213  0.6564  0.2895
  724TMC3    C110697   3.387   0.568  10.641 -0.1475 -0.7423  0.0787
  724TMC3    C210698   3.311   0.653  10.560 -0.7562 -0.8399  0.5248
  724TMC3    C310699   3.379   0.758  10.500 -0.3086 -0.0960 -0.8019
  724TMC3    C410700   3.518   0.579  10.654 -0.0227  0.1971 -0.2090
  724TMC3    C510701   3.581   0.683  10.595 -0.0460  0.2608 -0.1765
  724TMC3    C610702   3.516   0.770  10.516 -0.2656  0.3909  0.0544
  724TMC3     C10703   3.313   0.452  10.700  0.0396 -0.0292 -0.1420
  724TMC3     O10704   3.368   0.386  10.788 -0.1589 -0.1247 -0.0458
  724TMC3     H10705   3.203   0.657  10.559 -0.7375 -0.2707  0.7918
  724TMC3    H110706   3.573   0.513  10.720 -2.5516 -2.0406 -0.3474
  724TMC3    H210707   3.573   0.846  10.465  1.0293 -0.4723  0.1941
  724TMC3    C710708   3.715   0.726  10.636  0.3430 -0.2191 -0.4275
  724TMC3    C810709   3.305   0.865  10.436  0.4386  0.2651 -0.1985
  724TMC3    O110710   3.750   0.825  10.576  0.2879 -0.8185  0.3820
  724TMC3    O210711   3.182   0.855  10.413  0.0769 -0.2687 -0.2544
  725TMC3    C110712   4.629   4.686  12.924  1.2785  0.5869  0.4994
  725TMC3    C210713   4.618   4.673  12.784  0.3256 -0.2946 -0.2832
  725TMC3    C310714   4.523   4.579  12.746 -0.2929  0.3241 -0.5878
  725TMC3    C410715   4.542   4.634  13.018  1.0187 -0.3622  0.4728
  725TMC3    C510716   4.453   4.543  12.968 -0.4884 -0.0113 -0.5719
  725TMC3    C610717   4.440   4.516  12.836 -0.8734 -0.2570 -0.0541
  725TMC3     C10718   0.032   0.025  12.967 -0.1506  0.2332  0.0220
  725TMC3     O10719   0.096   0.085  12.885  0.2064  0.2076 -0.5292
  725TMC3     H10720   4.695   4.716  12.722 -0.3202 -2.3895 -2.5624
  725TMC3    H110721   4.538   4.645  13.126 -3.1682 -0.2631  0.3030
  725TMC3    H210722   4.383   4.429  12.805  0.6511 -0.0076 -3.6286
  725TMC3    C710723   4.388   4.454  13.067 -0.1042 -0.2253  0.2814
  725TMC3    C810724   4.481   4.558  12.611 -0.4384  0.7714  0.1953
  725TMC3    O110725   4.273   4.425  13.035  0.3359  0.3574 -0.1646
  725TMC3    O210726   4.391   4.480  12.585 -0.3762 -0.5356 -0.3195
  726MPD2     C10727   3.440   1.511  11.196 -0.0299 -0.2626  1.1095
  726MPD2    C110728   3.361   1.576  11.105  0.4945  0.0731 -0.0704
  726MPD2    C210729   3.283   1.506  11.018  0.3880  0.4911  0.1015
  726MPD2    C310730   3.271   1.369  11.029 -0.3616  0.1215  0.7558
  726MPD2    C410731   3.364   1.302  11.109  0.6393 -1.0728 -0.0031
  726MPD2    C510732   3.454   1.377  11.187  0.5163  0.0093 -0.5447
  726MPD2     H10733   3.220   1.558  10.947 -1.7426 -0.0638  1.5604
  726MPD2    H110734   3.373   1.194  11.108 -1.1043 -1.2320  1.5062
  726MPD2    H210735   3.498   1.567  11.268  2.2339  0.7515 -1.5070
  726MPD2    H310736   3.531   1.329  11.246 -0.4540 -1.7312 -0.6976
  726MPD2     N10737   3.164   1.301  10.954 -0.2304  0.4200  0.0246
  726MPD2    H510738   3.164   1.203  10.980 -0.4775  0.4874  0.2710
  726MPD2    N110739   3.349   1.722  11.094  0.2414  0.5032 -0.4978
  726MPD2    H710740   3.290   1.754  11.018 -0.3008  0.7082  0.0010
  727TMC3    C110741   3.390   1.949  11.143 -0.3733 -0.0918  0.7034
  727TMC3    C210742   3.500   2.023  11.183 -0.1584 -0.3715  0.2478
  727TMC3    C310743   3.526   2.133  11.117  0.0204 -0.6852  0.1279
  727TMC3    C410744   3.309   1.988  11.035 -0.3058 -0.0396  0.6907
  727TMC3    C510745   3.334   2.105  10.982 -0.6229  0.3511 -0.6544
  727TMC3    C610746   3.448   2.171  11.013 -0.2333 -0.3257  0.0659
  727TMC3     C10747   3.405   1.813  11.186  0.3098  0.8946  0.3801
  727TMC3     O10748   3.465   1.788  11.291  0.2377 -0.7461  0.1505
  727TMC3     H10749   3.569   1.999  11.264 -0.1382 -0.8602  0.0864
  727TMC3    H110750   3.220   1.930  11.012 -1.0257  1.0367  0.8004
  727TMC3    H210751   3.484   2.257  10.959  2.7806 -2.5866 -1.5425
  727TMC3    C710752   3.243   2.146  10.881  0.0827 -0.6343 -0.5031
  727TMC3    C810753   3.664   2.125  11.076  0.5608 -0.5178 -0.3654
  727TMC3    O110754   3.160   2.069  10.847 -0.0921  0.0327  0.6006
  727TMC3    O210755   3.701   2.036  11.005  0.3360 -0.3317  0.3125
  728TMC3    C110756   1.965   4.682  15.833 -0.4897 -0.0642  0.1977
  728TMC3    C210757   2.097   4.715  15.830  0.3267 -0.2867 -0.7517
  728TMC3    C310758   2.156   0.032  15.711  0.2094  0.3396 -0.3901
  728TMC3    C410759   1.885   4.702  15.730 -0.3788  0.1116 -0.0449
  728TMC3    C510760   1.944   0.022  15.612 -0.0915  0.7055 -0.4455
  728TMC3    C610761   2.075   0.045  15.599  1.3433  0.0499  0.0630
  728TMC3     C10762   1.910   4.652  15.962  0.3230  0.1685  0.3825
  728TMC3     O10763   1.969   4.678  16.069  0.1348 -0.1635  0.3853
  728TMC3     H10764   2.156   4.691  15.917 -2.8327 -0.9975  1.2251
  728TMC3    H110765   1.777   4.687  15.728 -0.4384  0.4330  0.8319
  728TMC3    H210766   2.115   0.071  15.502 -0.4993 -1.1105 -1.0124
  728TMC3    C710767   1.852   0.036  15.496 -0.0737  0.1263  0.1129
  728TMC3    C810768   2.296   4.721  15.689  0.6820  0.2024 -0.0155
  728TMC3    O110769   1.736   0.014  15.515  0.3963 -0.2320  0.4029
  728TMC3    O210770   2.332   4.704  15.571  0.0567 -0.7556  0.2775
  729MPD2     C10771   4.025   1.042  17.196 -0.3043 -0.6086  0.2582
  729MPD2    C110772   4.167   1.037  17.201  0.4430  0.2482  0.0998
  729MPD2    C210773   4.230   1.059  17.326 -0.8162  0.7626  0.3969
  729MPD2    C310774   4.143   1.072  17.434  0.3176 -0.2673 -0.3643
  729MPD2    C410775   4.011   1.095  17.424 -0.2512  0.7368  0.2745
  729MPD2    C510776   3.951   1.076  17.299  0.1779 -0.3911  0.1232
  729MPD2     H10777   4.337   1.065  17.342 -0.5992 -0.3192 -0.6263
  729MPD2    H110778   3.950   1.109  17.512 -0.0720  1.6385  0.2541
  729MPD2    H210779   3.975   1.032  17.101  1.7202  3.5853 -1.2597
  729MPD2    H310780   3.845   1.072  17.276  0.5913  0.7685 -1.9812
  729MPD2     N10781   4.193   1.088  17.563 -0.5352  0.5675 -0.1349
  729MPD2    H510782   4.131   1.118  17.637  1.5984 -0.3590  2.0267
  729MPD2    N110783   4.230   1.026  17.079  0.5798 -0.2184 -0.0036
  729MPD2    H710784   4.169   1.016  16.999  0.3096  1.0092  0.0611
  730TMC3    C110785   4.377   1.136   0.023 -1.3212  0.2064 -0.1039
  730TMC3    C210786   4.495   1.084   0.075  0.1291  0.3529  0.2160
  730TMC3    C310787   4.591   1.172   0.120 -0.4042  1.1282 -0.2709
  730TMC3    C410788   4.360   1.276   0.015 -0.0682  0.3183 -0.1030
  730TMC3    C510789   4.459   1.361   0.054 -0.3612 -0.1532 -0.4621
  730TMC3    C610790   4.575   1.307   0.110 -0.1339  0.3958  0.3934
  730TMC3     C10791   4.320   1.064  17.598 -0.0023 -0.5309 -0.1698
  730TMC3     O10792   4.387   0.972  17.548  0.2594 -0.8438  0.1132
  730TMC3     H10793   4.510   0.977   0.068 -0.3577  0.2864  0.2141
  730TMC3    H110794   4.270   1.315  17.657 -0.5861 -1.3289 -0.4815
  730TMC3    H210795   4.662   1.369   0.131 -0.3625  0.9072 -0.1853
  730TMC3    C710796   4.467   1.488  17.679 -0.1437 -0.3118  0.2313
  730TMC3    C810797   4.716   1.129   0.176  1.0988  0.1410 -0.3180
  730TMC3    O110798   4.407   1.494  17.572 -0.3232  0.2895  0.2160
  730TMC3    O210799   4.714   1.025   0.244 -0.2408  0.2706  0.3122
  731MPD2     C10800   4.263   3.452  12.176 -0.0385  0.7604  0.0302
  731MPD2    C110801   4.391   3.480  12.212 -0.4406 -0.7452  0.3501
  731MPD2    C210802   4.431   3.476  12.345  0.0842 -0.4409  0.7704
  731MPD2    C310803   4.340   3.441  12.446  0.1146  0.1290 -0.3160
  731MPD2    C410804   4.207   3.411  12.406 -0.5549  0.0577  0.0684
  731MPD2    C510805   4.173   3.410  12.271 -0.7610  0.0466 -0.3523
  731MPD2     H10806   4.535   3.487  12.373  0.1316  0.6727  0.1403
  731MPD2    H110807   4.134   3.380  12.479 -0.7355 -1.7618 -0.9022
  731MPD2    H210808   4.226   3.460  12.074  0.5333  0.1007 -0.2288
  731MPD2    H310809   4.071   3.393  12.239 -0.3773 -0.6383 -1.2002
  731MPD2     N10810   4.389   3.455  12.579  0.2798 -0.2405  0.4678
  731MPD2    H510811   4.484   3.486  12.594  0.6362 -0.1868 -1.9789
  731MPD2    N110812   4.467   3.529  12.106  0.0572  0.4111 -0.2234
  731MPD2    H710813   4.424   3.539  12.015 -0.0395  0.6625 -0.1524
  732TMC3    C110814   4.622   3.636  11.984 -0.1415 -0.2582 -0.1890
  732TMC3    C210815   4.561   3.578  11.880  0.0594 -0.3501  0.7438
  732TMC3    C310816   4.545   3.646  11.759 -0.3254  0.2512 -0.8945
  732TMC3    C410817   4.675   3.762  11.969 -0.7933  0.3188  0.3924
  732TMC3    C510818   4.654   3.830  11.858 -0.9164 -1.0426 -0.4568
  732TMC3    C610819   4.584   3.774  11.756  0.5858  0.3573  0.3130
  732TMC3     C10820   4.588   3.599  12.113  0.1268  0.5344 -0.3874
  732TMC3     O10821   4.656   3.637  12.211 -0.5070 -0.4565 -0.3762
  732TMC3     H10822   4.529   3.475  11.879  1.8409 -0.8744 -0.8452
  732TMC3    H110823   0.005   3.798  12.058 -1.5458 -0.1343  1.0170
  732TMC3    H210824   4.561   3.835  11.670 -1.1395  0.3221  0.7358
  732TMC3    C710825   4.672   3.975  11.864  0.3557 -0.0086 -0.5248
  732TMC3    C810826   4.435   3.591  11.688  0.4896  0.6286  0.4883
  732TMC3    O110827   4.619   4.038  11.774  0.0680  0.1632 -0.3755
  732TMC3    O210828   4.445   3.480  11.642 -0.1965 -0.6085  0.4265
  733TMC3    C110829   0.798   2.336  12.884 -0.4557 -0.3811  0.2583
  733TMC3    C210830   0.907   2.323  12.960 -0.4208  0.3797 -0.1982
  733TMC3    C310831   1.031   2.376  12.934 -0.4793 -0.5960 -0.5850
  733TMC3    C410832   0.805   2.418  12.777  0.6836  0.2724 -0.0006
  733TMC3    C510833   0.924   2.473  12.745  0.0915 -0.1811  0.8340
  733TMC3    C610834   1.039   2.451  12.821 -0.3852  0.2466 -0.1607
  733TMC3     C10835   0.668   2.319  12.950 -1.0504  0.1304 -0.0097
  733TMC3     O10836   0.668   2.314  13.074  0.2857 -0.0785 -0.1281
  733TMC3     H10837   0.892   2.257  13.046  0.4383  0.1813 -0.2006
  733TMC3    H110838   0.719   2.448  12.718 -1.1149 -0.3180  2.3210
  733TMC3    H210839   1.132   2.482  12.776  0.2031 -0.7858  0.3311
  733TMC3    C710840   0.921   2.594  12.662  0.0674 -0.2754 -0.5905
  733TMC3    C810841   1.094   2.433  13.051  0.6359  0.0184  0.6418
  733TMC3    O110842   0.812   2.627  12.612  0.1556 -0.4351  0.0151
  733TMC3    O210843   1.028   2.412  13.155  0.2522 -0.4745  0.0123
  734MPD2     C10844   2.552   0.241  12.507  0.4067  0.4000 -0.0686
  734MPD2    C110845   2.479   0.138  12.455 -0.0304  0.9058  0.1152
  734MPD2    C210846   2.498   0.097  12.324 -0.3640 -0.1166  0.3546
  734MPD2    C310847   2.573   0.169  12.241 -0.1434 -0.2595 -0.2437
  734MPD2    C410848   2.632   0.280  12.284  0.6149 -0.8039 -0.0981
  734MPD2    C510849   2.629   0.311  12.416 -1.0744  0.5584  0.1916
  734MPD2     H10850   2.461   0.003  12.285  2.5826 -0.8096 -0.8236
  734MPD2    H110851   2.696   0.332  12.213  2.4634 -0.0824  2.0850
  734MPD2    H210852   2.546   0.254  12.615 -1.2508  1.3808 -0.2785
  734MPD2    H310853   2.681   0.402  12.445  0.9463 -1.0929  1.7759
  734MPD2     N10854   2.587   0.111  12.117 -0.5416 -0.3360  0.0900
  734MPD2    H510855   2.552   0.016  12.118 -2.3430  0.3382 -0.1366
  734MPD2    N110856   2.394   0.066  12.545 -0.1950 -0.2006  0.0651
  734MPD2    H710857   2.410   0.082  12.644  2.9245  3.3991 -1.0187
  735TMC3    C110858   2.248   4.614  12.611 -0.3320  0.1559  0.3798
  735TMC3    C210859   2.156   4.528  12.559 -0.0934  0.1653  0.1368
  735TMC3    C310860   2.161   4.388  12.573 -0.1312 -0.1723 -0.0629
  735TMC3    C410861   2.350   4.560  12.680  0.6399  0.2156  0.2452
  735TMC3    C510862   2.346   4.424  12.708  0.5486 -0.2334 -0.7680
  735TMC3    C610863   2.253   4.334  12.658  0.3163  0.1145  0.1232
  735TMC3     C10864   2.298   4.695  12.501  0.2598 -0.6346 -0.4451
  735TMC3     O10865   2.258   4.673  12.389  0.2378 -0.8018  0.1129
  735TMC3     H10866   2.075   4.573  12.501 -0.2892 -0.9526 -0.4616
  735TMC3    H110867   2.430   4.627  12.711 -0.4311  1.9507 -0.7882
  735TMC3    H210868   2.264   4.226  12.665  1.0198  0.2222  0.6507
  735TMC3    C710869   2.473   4.362  12.695 -0.6630  0.6628  0.5328
  735TMC3    C810870   2.161   4.313  12.450 -0.2559  0.3888 -0.6423
  735TMC3    O110871   2.542   4.423  12.614 -0.0249 -0.1196  0.1059
  735TMC3    O210872   2.146   4.192  12.443  0.6102 -0.1589  0.3667
  736MPD2     C10873   2.645   4.083  12.873 -0.0840  0.0310 -0.2866
  736MPD2    C110874   2.622   4.175  12.768 -0.0286  0.2067  0.3085
  736MPD2    C210875   2.724   4.198  12.681 -1.0049  0.3374 -0.3922
  736MPD2    C310876   2.831   4.115  12.672  0.0214 -0.2985  0.3043
  736MPD2    C410877   2.860   4.035  12.778 -0.6003 -0.0848  0.3513
  736MPD2    C510878   2.766   4.017  12.879  0.3512  0.2337  0.3957
  736MPD2     H10879   2.711   4.272  12.603  2.0021 -0.7273 -1.9193
  736MPD2    H110880   2.953   3.979  12.779 -0.7402 -0.3354 -1.8649
  736MPD2    H210881   2.569   4.066  12.949  0.7106  1.7772  0.9020
  736MPD2    H310882   2.787   3.945  12.957 -0.7972 -0.3832  0.1367
  736MPD2     N10883   2.931   4.122  12.571 -0.8016 -0.4558 -0.2214
  736MPD2    H510884   3.020   4.075  12.582 -1.4217 -0.8278  3.0825
  736MPD2    N110885   2.499   4.251  12.769 -0.0784  0.3523 -0.5229
  736MPD2    H710886   2.420   4.213  12.820 -0.0403 -1.3781 -1.7618
  737TMC3    C110887   3.023   4.170  12.361 -0.3251  0.5849  0.0265
  737TMC3    C210888   3.063   4.276  12.287  0.5627  0.7026  0.6332
  737TMC3    C310889   3.176   4.257  12.210  0.0526  0.2920  0.2588
  737TMC3    C410890   3.100   4.056  12.374 -0.3984  0.3047 -0.3179
  737TMC3    C510891   3.214   4.050  12.301 -0.2156 -0.5980 -0.2988
  737TMC3    C610892   3.255   4.148  12.218 -0.0107 -0.2279 -0.2566
  737TMC3     C10893   2.913   4.190  12.452  0.3175  1.0645  0.5395
  737TMC3     O10894   2.829   4.267  12.418 -0.0136  0.4966  0.0752
  737TMC3     H10895   3.000   4.364  12.282 -0.5888 -0.0288  2.3357
  737TMC3    H110896   3.077   3.974  12.441  3.7201 -1.1367 -0.6860
  737TMC3    H210897   3.359   4.152  12.186  0.4495 -0.7478  1.1571
  737TMC3    C710898   3.281   3.927  12.293  0.1226  0.7385 -0.2329
  737TMC3    C810899   3.229   4.375  12.141  0.3045 -0.1325  0.4385
  737TMC3    O110900   3.282   3.852  12.388 -0.3828  0.2071  0.0482
  737TMC3    O210901   3.168   4.481  12.151 -0.0975  0.3446  0.8403
  738MPD2     C10902   3.756   3.350  15.374  0.3564  0.2285 -0.4498
  738MPD2    C110903   3.760   3.232  15.304 -0.4156  0.9215 -0.4548
  738MPD2    C210904   3.871   3.205  15.218  0.0443 -0.5499 -1.5054
  738MPD2    C310905   3.977   3.292  15.201 -0.4166 -0.1711  0.1647
  738MPD2    C410906   3.976   3.397  15.289 -0.2639  0.5980  0.6796
  738MPD2    C510907   3.863   3.431  15.365 -0.2220  0.0422  0.0343
  738MPD2     H10908   3.874   3.114  15.160  0.7756 -2.2139  1.1589
  738MPD2    H110909   4.055   3.470  15.281  0.2360 -0.0509 -0.3193
  738MPD2    H210910   3.673   3.378  15.438 -1.3242 -2.2067 -1.5391
  738MPD2    H310911   3.864   3.521  15.426  0.3529  1.1046 -1.5392
  738MPD2     N10912   4.088   3.274  15.113 -0.1281  0.0352 -0.4556
  738MPD2    H510913   4.140   3.359  15.094 -1.5096  1.5064  2.2984
  738MPD2    N110914   3.655   3.139  15.308  0.4627  0.8339  0.3534
  738MPD2    H710915   3.666   3.058  15.247 -3.4734  0.8135 -0.2935
  739TMC3    C110916   4.200   3.192  14.935  0.1734 -0.4909  0.8599
  739TMC3    C210917   4.162   3.147  14.810 -0.4524 -0.1705  0.1836
  739TMC3    C310918   4.241   3.182  14.703  0.6239 -0.2316 -0.0532
  739TMC3    C410919   4.303   3.280  14.950 -0.0204 -0.2701 -0.1196
  739TMC3    C510920   4.386   3.302  14.839  0.3554 -0.7432  0.7526
  739TMC3    C610921   4.355   3.257  14.713 -0.6430 -0.4736  0.7010
  739TMC3     C10922   4.110   3.167  15.038 -0.6624 -0.4697  0.6213
  739TMC3     O10923   4.061   3.052  15.048 -0.6168  0.5943  0.1136
  739TMC3     H10924   4.068   3.093  14.805 -0.4945  0.0183 -1.0027
  739TMC3    H110925   4.321   3.332  15.043 -2.0440  0.6187 -0.2146
  739TMC3    H210926   4.426   3.260  14.631  1.7138  0.7127  2.8113
  739TMC3    C710927   4.500   3.396  14.847  0.6681 -0.5739 -0.1367
  739TMC3    C810928   4.164   3.211  14.588 -0.6193 -0.4597 -0.4474
  739TMC3    O110929   4.547   3.447  14.745 -0.3737 -0.5986  0.6208
  739TMC3    O210930   4.050   3.187  14.618 -0.0099 -0.4715  0.5775
  740TMC3    C110931   4.160   4.577  14.474  0.2084 -0.3518 -0.1088
  740TMC3    C210932   4.172   4.485  14.578  0.0374  0.7330  0.8750
  740TMC3    C310933   4.304   4.460  14.627 -0.6696  0.2044 -0.1413
  740TMC3    C410934   4.268   4.628  14.402  0.3501 -0.3578 -0.1996
  740TMC3    C510935   4.391   4.585  14.443  0.6559  0.5888 -0.1493
  740TMC3    C610936   4.405   4.515  14.561  0.5813 -0.0765 -0.7329
  740TMC3     C10937   4.028   4.625  14.439 -0.0526  0.2507  0.0818
  740TMC3     O10938   4.015   4.701  14.347 -0.8026  0.2839  0.0230
  740TMC3     H10939   4.087   4.441  14.629 -0.2693  0.1849 -0.1168
  740TMC3    H110940   4.250   4.712  14.337  0.9974  0.1186  0.2368
  740TMC3    H210941   4.503   4.480  14.593  1.2824  2.2160 -0.3141
  740TMC3    C710942   4.490   4.559  14.343 -0.2921 -0.7829  0.0742
  740TMC3    C810943   4.320   4.408  14.764  0.0968  0.5922  0.4887
  740TMC3    O110944   4.585   4.490  14.377 -0.6096 -0.4170  0.1229
  740TMC3    O210945   4.219   4.348  14.797 -0.1951  0.2811 -0.4420
  741TMC3    C110946   3.615   4.185  14.109 -0.0776 -0.4689  0.5788
  741TMC3    C210947   3.542   4.133  14.214  0.1691  0.9057  0.0502
  741TMC3    C310948   3.589   4.028  14.280  0.3280 -0.2223  0.2780
  741TMC3    C410949   3.726   4.117  14.070  0.1084  0.1516 -0.2860
  741TMC3    C510950   3.771   4.011  14.144 -0.6178 -0.6044 -0.2676
  741TMC3    C610951   3.702   3.953  14.241  0.0542  0.1180  0.2436
  741TMC3     C10952   3.568   4.280  14.008  0.1552  0.2220 -0.6038
  741TMC3     O10953   3.638   4.314  13.913 -1.4368  0.1641  0.6339
  741TMC3     H10954   3.462   4.193  14.258  1.1811  0.8041  2.0373
  741TMC3    H110955   3.783   4.156  13.986 -0.1473  1.5643  0.1913
  741TMC3    H210956   3.729   3.854  14.275 -4.7099 -1.1693  0.1726
  741TMC3    C710957   3.913   3.983  14.119  0.0384 -0.3377 -0.2706
  741TMC3    C810958   3.490   3.953  14.356 -0.2929  0.6187  0.0986
  741TMC3    O110959   3.961   4.008  14.008  0.2681  0.2273 -0.9240
  741TMC3    O210960   3.370   3.984  14.360  1.0341 -0.5304  0.4162
  742TMC3    C110961   3.520   2.504  15.332 -0.7443  0.4361 -0.1602
  742TMC3    C210962   3.454   2.494  15.217 -0.0247 -0.2955 -0.6611
  742TMC3    C310963   3.535   2.475  15.108 -0.4130  0.9071 -0.5562
  742TMC3    C410964   3.655   2.526  15.347 -0.0605 -0.3618  0.1750
  742TMC3    C510965   3.726   2.504  15.234 -0.3251 -0.1090 -0.8615
  742TMC3    C610966   3.668   2.487  15.111 -0.5866 -0.5452 -0.0149
  742TMC3     C10967   3.462   2.520  15.460 -0.2349 -0.2861  0.1891
  742TMC3     O10968   3.352   2.575  15.449  0.5330  0.0910  0.1674
  742TMC3     H10969   3.347   2.487  15.201 -0.2307  0.5218  0.3999
  742TMC3    H110970   3.709   2.518  15.441  2.9130 -1.9077 -1.6626
  742TMC3    H210971   3.717   2.481  15.014  0.8210 -1.4896  0.7405
  742TMC3    C710972   3.865   2.475  15.235 -0.7792  0.1597  0.5618
  742TMC3    C810973   3.478   2.403  15.000 -0.0414 -0.4116  0.1833
  742TMC3    O110974   3.901   2.391  15.151 -0.5166  0.1056  0.0692
  742TMC3    O210975   3.534   2.302  14.969  0.4531 -0.6391 -0.1655
  743MPD2     C10976   3.412   3.756   2.003  0.1772  0.1155  0.1162
  743MPD2    C110977   3.345   3.671   1.916  0.3958 -0.0278 -0.5827
  743MPD2    C210978   3.419   3.584   1.835  0.3352  0.7058  0.4124
  743MPD2    C310979   3.549   3.574   1.848  0.1179 -0.2912  0.0063
  743MPD2    C410980   3.611   3.643   1.953  0.7662  0.3047 -0.2813
  743MPD2    C510981   3.547   3.738   2.023 -0.2633 -0.1241 -0.4771
  743MPD2     H10982   3.382   3.515   1.760  2.6707  1.1731 -1.1546
  743MPD2    H110983   3.717   3.637   1.972  0.4800  0.3942  1.3200
  743MPD2    H210984   3.364   3.843   2.046  1.2450 -0.1486  1.8125
  743MPD2    H310985   3.611   3.805   2.080 -1.2256  0.4513 -0.0893
  743MPD2     N10986   3.618   3.482   1.758 -1.0124  0.3002 -0.0164
  743MPD2    H510987   3.561   3.443   1.684 -0.3964  3.0262 -1.9193
  743MPD2    N110988   3.206   3.679   1.904 -0.5439  0.3632 -0.1184
  743MPD2    H710989   3.168   3.747   1.969 -2.3680 -0.1827 -0.5996
  744TMC3    C110990   2.989   3.648   1.810  0.1455  0.4376  0.3082
  744TMC3    C210991   2.919   3.735   1.887  0.0445  0.1663 -0.8871
  744TMC3    C310992   2.782   3.737   1.887 -0.0668 -0.2553  0.6753
  744TMC3    C410993   2.914   3.565   1.729 -0.0275  0.1966 -0.1374
  744TMC3    C510994   2.778   3.572   1.722 -0.1009  0.0835 -0.4607
  744TMC3    C610995   2.707   3.657   1.801 -0.1303 -0.3681  0.0810
  744TMC3     C10996   3.129   3.613   1.811 -0.2444  0.3086 -0.0366
  744TMC3     O10997   3.169   3.546   1.717 -0.2986 -0.6489 -0.0066
  744TMC3     H10998   2.973   3.818   1.931  1.4342  0.1405 -2.5300
  744TMC3    H110999   2.962   3.492   1.665  2.3030  1.2380  0.4479
  744TMC3    H211000   2.599   3.657   1.800 -0.1181 -0.3801 -2.0782
  744TMC3    C711001   2.705   3.521   1.605 -0.3401  0.0388 -0.2842
  744TMC3    C811002   2.721   3.834   1.981 -0.4188 -0.0160  0.2504
  744TMC3    O111003   2.760   3.563   1.504 -0.6755  0.5791 -0.3149
  744TMC3    O211004   2.603   3.854   1.965 -0.2488 -0.0821 -0.2618
  745TMC3    C111005   3.927   2.110  13.277  0.4129 -0.1186 -0.1293
  745TMC3    C211006   3.822   2.117  13.367  0.5913 -0.4116 -0.0581
  745TMC3    C311007   3.776   2.245  13.406 -0.1145 -0.4340  0.6723
  745TMC3    C411008   3.957   2.222  13.211  0.6486 -0.2432  0.3285
  745TMC3    C511009   3.917   2.345  13.250  0.3233  0.0132 -0.6244
  745TMC3    C611010   3.818   2.361  13.350 -0.3824  0.5946 -0.1112
  745TMC3     C11011   4.040   2.077  13.361 -0.0352  0.9744  0.2542
  745TMC3     O11012   4.021   2.059  13.484  0.1702 -0.0794 -0.1774
  745TMC3     H11013   3.779   2.031  13.417  2.7408 -0.7592  1.1663
  745TMC3    H111014   4.041   2.215  13.143 -1.3449 -2.6182 -1.8981
  745TMC3    H211015   3.789   2.461  13.381 -0.6752  0.6157 -0.4479
  745TMC3    C711016   4.016   2.449  13.229  0.0948 -0.4679  0.1937
  745TMC3    C811017   3.725   2.250  13.540  0.5468  0.3785 -0.0908
  745TMC3    O111018   4.125   2.414  13.187  0.1165  0.0561  0.5272
  745TMC3    O211019   3.635   2.327  13.563 -0.8826  0.3283 -0.5561
  746TMC3    C111020   1.496   3.829  11.116 -0.6648  0.6804 -0.6361
  746TMC3    C211021   1.511   3.762  10.999 -0.3886 -0.5527  0.0307
  746TMC3    C311022   1.445   3.645  10.984 -0.1731  0.6578 -0.0687
  746TMC3    C411023   1.433   3.784  11.223 -0.5719 -0.0995 -0.5658
  746TMC3    C511024   1.383   3.656  11.206 -0.0891  0.3770  0.5816
  746TMC3    C611025   1.388   3.586  11.095  0.7944  0.1751 -0.7278
  746TMC3     C11026   1.524   3.972  11.131 -0.8404 -0.0664 -0.1828
  746TMC3     O11027   1.468   4.028  11.224  0.2094 -0.2103  0.1229
  746TMC3     H11028   1.569   3.817  10.925  1.8575 -1.0212  1.4468
  746TMC3    H111029   1.425   3.828  11.322  0.0111 -1.0019 -0.1158
  746TMC3    H211030   1.356   3.483  11.085 -0.5304  0.2018  3.1791
  746TMC3    C711031   1.264   3.611  11.290 -0.4194 -0.5070  0.3681
  746TMC3    C811032   1.426   3.583  10.855 -0.2051 -0.3576  0.1850
  746TMC3    O111033   1.200   3.515  11.247 -0.9922  0.4340  0.2572
  746TMC3    O211034   1.338   3.497  10.848  0.2072 -0.2568  0.0567
  747TMC3    C111035   3.716   3.640  11.362 -0.1414  0.1066  0.2148
  747TMC3    C211036   3.625   3.614  11.464  0.2241  0.5907 -0.3728
  747TMC3    C311037   3.643   3.668  11.591  0.4897  0.2902 -0.1773
  747TMC3    C411038   3.825   3.714  11.395 -0.8897 -0.6865  0.2805
  747TMC3    C511039   3.854   3.754  11.521  0.4552 -0.3108  0.8905
  747TMC3    C611040   3.757   3.735  11.618  0.3992 -0.1223 -0.1538
  747TMC3     C11041   3.663   3.642  11.234  0.0145  0.2419  0.2956
  747TMC3     O11042   3.539   3.633  11.214  0.6236 -0.9476 -0.1418
  747TMC3     H11043   3.532   3.563  11.440  1.1645 -2.1602  1.8035
  747TMC3    H111044   3.893   3.740  11.314 -1.4128  0.4186  0.1925
  747TMC3    H211045   3.778   3.768  11.719  0.5112  0.8453 -0.4892
  747TMC3    C711046   3.973   3.835  11.529 -0.1280  0.5407 -0.3188
  747TMC3    C811047   3.582   3.606  11.709 -0.3340  0.1087 -0.2919
  747TMC3    O111048   3.979   3.912  11.624 -0.6280 -0.4151  0.0538
  747TMC3    O211049   3.578   3.486  11.716 -0.3913 -0.1585  0.1096
  748MPD2     C11050   0.849   0.126   1.749  0.3309  0.5992 -0.1822
  748MPD2    C111051   0.917   0.217   1.820  0.5093  0.0944 -0.2673
  748MPD2    C211052   1.054   0.226   1.801  0.0461 -0.1301  0.6386
  748MPD2    C311053   1.120   0.155   1.703  0.4010  0.6555  0.0309
  748MPD2    C411054   1.054   0.060   1.631 -0.0234  0.5245  0.1605
  748MPD2    C511055   0.920   0.042   1.663  0.3526  0.2324  0.4984
  748MPD2     H11056   1.098   0.303   1.863 -0.9999 -0.2726  1.5650
  748MPD2    H111057   1.103   0.009   1.549  1.3673 -0.9552  1.9173
  748MPD2    H211058   0.743   0.103   1.754  1.2496 -3.4909  0.6888
  748MPD2    H311059   0.856   4.695   1.609 -0.4485  1.9146 -0.6353
  748MPD2     N11060   1.253   0.177   1.679 -0.2179  0.2719 -0.6388
  748MPD2    H511061   1.296   0.246   1.740  0.5067  0.0139 -0.8568
  748MPD2    N111062   0.832   0.309   1.888  0.6433 -0.5932 -0.6958
  748MPD2    H711063   0.735   0.279   1.881  1.7936 -4.4702  0.4959
  749TMC3    C111064   1.468   0.188   1.592  1.2026  0.2682 -0.5608
  749TMC3    C211065   1.524   0.204   1.721 -0.4367 -0.1080 -0.9767
  749TMC3    C311066   1.660   0.223   1.726 -0.3342 -0.0627  0.5195
  749TMC3    C411067   1.536   0.206   1.476  0.2064  0.3179 -0.2302
  749TMC3    C511068   1.669   0.242   1.489 -0.6780 -0.5372 -0.2382
  749TMC3    C611069   1.735   0.245   1.611  0.7289 -0.2569 -0.4685
  749TMC3     C11070   1.340   0.119   1.586  0.2586  0.4042 -0.1373
  749TMC3     O11071   1.320   0.030   1.511 -0.3987 -0.1044 -0.2186
  749TMC3     H11072   1.481   0.157   1.809  2.6050 -1.2995 -0.1495
  749TMC3    H111073   1.492   0.192   1.378  0.2155 -0.1715 -0.1643
  749TMC3    H211074   1.840   0.273   1.612  0.7487 -0.3634  1.3149
  749TMC3    C711075   1.741   0.275   1.365 -0.1938  0.9201 -0.0246
  749TMC3    C811076   1.719   0.164   1.847 -0.0724  0.1575  0.4994
  749TMC3    O111077   1.836   0.350   1.374  0.2533  0.1952 -0.7935
  749TMC3    O211078   1.665   0.182   1.959  0.4977  0.2242  0.0646
  750MPD2     C11079   2.185   1.102  11.257 -0.0846  0.5306 -0.1531
  750MPD2    C111080   2.061   1.147  11.226 -1.0463  0.2079  0.4368
  750MPD2    C211081   1.986   1.071  11.142  0.1336  0.0623 -0.7880
  750MPD2    C311082   2.031   0.955  11.087 -0.2072 -0.7756  0.6247
  750MPD2    C411083   2.161   0.917  11.104 -0.1561  0.2039  0.1324
  750MPD2    C511084   2.231   0.984  11.197  0.2127  0.0301  0.5288
  750MPD2     H11085   1.884   1.101  11.124 -0.1568 -0.7091 -0.4478
  750MPD2    H111086   2.213   0.837  11.052 -0.8157  0.2535 -0.6101
  750MPD2    H211087   2.252   1.152  11.326 -0.6063  0.0112  0.7320
  750MPD2    H311088   2.330   0.943  11.214  0.5938  1.7819  2.4929
  750MPD2     N11089   1.946   0.880  10.991 -0.2227  0.3559  0.2068
  750MPD2    H511090   1.988   0.821  10.920 -1.9910  1.0230 -1.3684
  750MPD2    N111091   2.013   1.277  11.266  0.0337 -0.2946  0.4313
  750MPD2    H711092   1.920   1.315  11.248  0.1966  0.0964  0.4153
  751TMC3    C111093   1.757   0.773  10.915  0.0450 -0.6960  0.2130
  751TMC3    C211094   1.652   0.699  10.961  0.3245 -0.4801 -0.2749
  751TMC3    C311095   1.576   0.632  10.867 -0.0659  0.4188 -0.1087
  751TMC3    C411096   1.790   0.784  10.787 -0.0137  0.1058 -0.0588
  751TMC3    C511097   1.715   0.714  10.695  0.0817 -0.6730  0.2837
  751TMC3    C611098   1.606   0.639  10.732 -0.7271  0.3953  0.3221
  751TMC3     C11099   1.817   0.858  11.009  0.6914  0.2103 -0.3702
  751TMC3     O11100   1.755   0.891  11.109  0.3973  0.0011 -0.2425
  751TMC3     H11101   1.643   0.677  11.066  0.6546 -0.8888 -0.3328
  751TMC3    H111102   1.878   0.842  10.760  0.1169 -0.4429 -0.7908
  751TMC3    H211103   1.536   0.593  10.664  0.0298 -2.3238  1.3917
  751TMC3    C711104   1.772   0.687  10.565 -0.0088 -0.1517  0.0967
  751TMC3    C811105   1.467   0.543  10.907 -0.2504 -0.9435  0.0938
  751TMC3    O111106   1.892   0.674  10.560  0.3922  0.2547 -0.2041
  751TMC3    O211107   1.434   0.457  10.823  0.1010 -0.6063  0.2419
  752TMC3    C111108   0.192   0.578  17.556 -0.2039 -0.2465  0.1601
  752TMC3    C211109   0.260   0.522  17.661  0.4216  0.2428 -0.2763
  752TMC3    C311110   0.203   0.518   0.100 -0.3154  0.3300 -0.3673
  752TMC3    C411111   0.063   0.613  17.577 -0.5360 -0.3056  0.2002
  752TMC3    C511112   0.008   0.614   0.019  0.1346  0.4158  0.6661
  752TMC3    C611113   0.078   0.575   0.125 -0.1539  0.0425 -0.2443
  752TMC3     C11114   0.246   0.577  17.421 -0.6373 -0.2778 -0.7424
  752TMC3     O11115   0.341   0.508  17.403  0.5628 -0.0878  0.5368
  752TMC3     H11116   0.363   0.499  17.638  0.3605 -0.4577  0.1631
  752TMC3    H111117   4.720   0.633  17.493  1.6233 -3.0214 -2.1041
  752TMC3    H211118   0.021   0.553   0.214 -0.1672 -0.7261 -0.4386
  752TMC3    C711119   4.596   0.666   0.035 -0.0790  0.6373 -0.5840
  752TMC3    C811120   0.280   0.469   0.212  0.0629 -0.3873 -1.1517
  752TMC3    O111121   4.523   0.647  17.623  0.1137  0.0686  0.0043
  752TMC3    O211122   0.388   0.409   0.181 -0.2012  0.1222  0.5279
  753TMC3    C111123   2.274   2.277  13.659 -0.5485 -0.1869  0.1463
  753TMC3    C211124   2.404   2.238  13.676 -0.0055 -0.4764 -0.5723
  753TMC3    C311125   2.437   2.106  13.655  0.5489 -0.4205 -0.3829
  753TMC3    C411126   2.172   2.184  13.633 -0.6933 -0.5945 -0.2643
  753TMC3    C511127   2.209   2.054  13.609  0.0108  0.0774  0.3046
  753TMC3    C611128   2.338   2.014  13.617  0.3508  0.1035  0.1381
  753TMC3     C11129   2.237   2.412  13.642  0.7864  0.3203  0.2812
  753TMC3     O11130   2.122   2.432  13.599  0.0352 -0.6732  0.5915
  753TMC3     H11131   2.482   2.313  13.683  0.0098 -0.4533 -0.9957
  753TMC3    H111132   2.070   2.219  13.621  0.0885  1.9994  0.5609
  753TMC3    H211133   2.363   1.908  13.615  1.1402  0.2627  1.7870
  753TMC3    C711134   2.108   1.975  13.548 -0.0564 -0.2515 -0.2559
  753TMC3    C811135   2.562   2.058  13.719 -0.3224 -0.0508 -0.0485
  753TMC3    O111136   1.994   2.011  13.571 -0.0569 -0.0410 -0.3975
  753TMC3    O211137   2.603   1.950  13.686  0.4010  0.1805 -0.0411
  754MPD2     C11138   1.434   0.295  13.117  0.6180  0.2246  0.7382
  754MPD2    C111139   1.337   0.203  13.098  0.8102  0.3675  1.1832
  754MPD2    C211140   1.215   0.249  13.048  0.7373 -0.0457 -0.3992
  754MPD2    C311141   1.188   0.384  13.042 -0.2418  0.0614 -0.1052
  754MPD2    C411142   1.292   0.474  13.059 -0.1613 -0.2970  0.2566
  754MPD2    C511143   1.411   0.426  13.109  0.2982 -0.0826  0.4374
  754MPD2     H11144   1.134   0.180  13.025 -1.6222  1.8799  2.1336
  754MPD2    H111145   1.274   0.581  13.055 -1.1531 -0.4642  0.1309
  754MPD2    H211146   1.531   0.258  13.150  1.1854  0.9546 -0.0834
  754MPD2    H311147   1.486   0.501  13.132 -1.6481  2.0951 -0.2633
  754MPD2     N11148   1.060   0.437  13.024  0.8353 -0.0181 -0.3527
  754MPD2    H511149   1.056   0.537  13.038  1.5593 -0.2397  1.4635
  754MPD2    N111150   1.368   0.057  13.113  0.1169  0.4086 -0.3650
  754MPD2    H711151   1.465   0.028  13.121  1.3174  4.7529  0.6204
  755MPD2     C11152   0.971   1.055  13.537  0.4030  0.6382 -0.1782
  755MPD2    C111153   0.849   1.006  13.563  0.2743 -0.6852 -0.5492
  755MPD2    C211154   0.792   0.913  13.480 -0.2594 -0.1042 -0.3803
  755MPD2    C311155   0.860   0.866  13.368  0.2324 -0.0999 -0.0203
  755MPD2    C411156   0.980   0.923  13.336 -0.2260 -1.0853  0.0317
  755MPD2    C511157   1.031   1.009  13.426 -0.2992 -0.2082 -0.3002
  755MPD2     H11158   0.694   0.873  13.501 -0.9434  2.7182  1.7533
  755MPD2    H111159   1.036   0.894  13.248 -1.6565  0.6642 -1.4514
  755MPD2    H211160   1.016   1.140  13.588 -1.7993  1.3568  0.6012
  755MPD2    H311161   1.128   1.052  13.405  0.0288 -1.7804 -1.9739
  755MPD2     N11162   0.808   0.770  13.276  0.1835 -0.0930 -0.5221
  755MPD2    H511163   0.871   0.749  13.200  0.8018 -2.1968  0.5841
  755MPD2    N111164   0.777   1.061  13.672 -0.1473  0.4114 -0.1116
  755MPD2    H711165   0.681   1.028  13.677 -0.2888  0.9234  0.5563
  756MPD2     C11166   1.979   0.761   9.611  0.8190 -0.0031 -0.2399
  756MPD2    C111167   1.927   0.873   9.667 -0.3790 -0.1383  0.4668
  756MPD2    C211168   1.789   0.877   9.707  0.1747 -0.2178 -0.5925
  756MPD2    C311169   1.708   0.764   9.674 -0.3918 -0.5424 -0.6667
  756MPD2    C411170   1.771   0.660   9.609  0.4352  0.3494  0.7995
  756MPD2    C511171   1.902   0.659   9.576  0.0229  0.0642  0.2194
  756MPD2     H11172   1.749   0.964   9.758  2.2519  0.2795  0.2090
  756MPD2    H111173   1.722   0.564   9.593  0.8620  0.1841  0.4934
  756MPD2    H211174   2.073   0.763   9.556 -0.7078  3.6891 -2.7403
  756MPD2    H311175   1.942   0.572   9.524  0.7473 -1.0309  2.5960
  756MPD2     N11176   1.574   0.769   9.719  0.5404  0.0589 -0.1030
  756MPD2    H511177   1.550   0.840   9.787 -0.0200  0.0677 -0.3096
  756MPD2    N111178   2.010   0.992   9.679  0.2944  0.1766 -0.1097
  756MPD2    H711179   1.961   1.078   9.706 -0.2302  0.0489 -0.6443
  757MPD2     C11180   0.891   0.969  10.411 -0.1389  0.2818  0.2024
  757MPD2    C111181   0.826   0.885  10.330  0.2987  0.2459 -0.1694
  757MPD2    C211182   0.900   0.826  10.226  0.0530  0.2890 -0.6792
  757MPD2    C311183   1.024   0.871  10.191 -0.0180 -0.1021 -0.1270
  757MPD2    C411184   1.082   0.967  10.270  0.3929  0.5170 -0.0799
  757MPD2    C511185   1.017   1.013  10.382  0.1564  0.7340  0.1909
  757MPD2     H11186   0.865   0.750  10.157 -0.6282  0.7413 -0.8357
  757MPD2    H111187   1.188   0.989  10.263  0.5488  0.3016  1.6643
  757MPD2    H211188   0.842   0.990  10.506  1.1740 -1.7443  1.3096
  757MPD2    H311189   1.066   1.081  10.450 -0.2981  0.8285  0.4246
  757MPD2     N11190   1.079   0.822  10.068 -0.6248 -0.0990  1.0135
  757MPD2    H511191   1.023   0.758  10.012  1.3399 -1.8830  1.0544
  757MPD2    N111192   0.694   0.841  10.358 -0.4331 -0.2900 -0.0246
  757MPD2    H711193   0.646   0.886  10.435  2.1769  0.2542  1.3143
  758MPD2     C11194   1.224   0.449  16.251  0.9239  0.3614 -0.7383
  758MPD2    C111195   1.327   0.417  16.336 -0.0813  0.7133  0.1325
  758MPD2    C211196   1.295   0.419  16.472  0.0878  0.0047  0.1530
  758MPD2    C311197   1.179   0.470  16.522  0.0593  1.2244 -0.3888
  758MPD2    C411198   1.076   0.505  16.432  0.4214  0.0438 -0.6289
  758MPD2    C511199   1.103   0.495  16.300 -0.0732 -0.2533 -0.8071
  758MPD2     H11200   1.379   0.424  16.541  0.3107 -1.4358 -0.0157
  758MPD2    H111201   0.982   0.553  16.458  0.3522 -0.8627  0.8048
  758MPD2    H211202   1.234   0.420  16.147  0.3136  0.6125 -0.8686
  758MPD2    H311203   1.023   0.519  16.231  0.3322  1.4452 -0.6971
  758MPD2     N11204   1.158   0.476  16.666 -0.4354 -0.6186  0.6142
  758MPD2    H511205   1.062   0.489  16.697 -1.5194 -0.6820 -2.6878
  758MPD2    N111206   1.454   0.379  16.286 -0.4096  0.4642 -0.1740
  758MPD2    H711207   1.461   0.407  16.189 -0.3032 -1.6481 -0.7799
  759MPD2     C11208   0.471   3.348   9.777  0.1827  0.5642  0.3274
  759MPD2    C111209   0.351   3.415   9.809 -0.1219  0.8315  0.4432
  759MPD2    C211210   0.301   3.513   9.717  0.3424 -0.4470  0.5406
  759MPD2    C311211   0.369   3.546   9.602 -0.3982  0.2579 -0.2171
  759MPD2    C411212   0.483   3.477   9.567  0.0338  0.0505 -0.2468
  759MPD2    C511213   0.540   3.385   9.660 -0.0599 -0.2769 -0.0817
  759MPD2     H11214   0.213   3.569   9.747  2.1295  4.0298 -2.7140
  759MPD2    H111215   0.548   3.506   9.485  1.3541  2.8164  1.7833
  759MPD2    H211216   0.522   3.265   9.824  0.0189 -0.5336 -1.4558
  759MPD2    H311217   0.638   3.342   9.649 -0.1202 -0.2438 -0.7250
  759MPD2     N11218   0.314   3.648   9.521 -0.0841  0.1140  0.3632
  759MPD2    H511219   0.217   3.671   9.537 -0.7288 -1.0535 -1.8491
  759MPD2    N111220   0.271   3.368   9.917  0.2559 -0.3827 -0.1748
  759MPD2    H711221   0.184   3.421   9.916  0.8362  0.5734 -0.6691
  760MPD2     C11222   4.555   0.932  12.166 -0.7562 -0.7646 -0.2474
  760MPD2    C111223   4.678   0.945  12.103  0.7240 -0.0017  0.0289
  760MPD2    C211224   0.023   0.834  12.044 -0.8050  0.0912  0.1490
  760MPD2    C311225   4.689   0.713  12.062  0.2958 -0.1034 -0.3901
  760MPD2    C411226   4.573   0.699  12.130 -0.3366 -0.3229  0.0885
  760MPD2    C511227   4.510   0.805  12.188 -0.4189 -0.3137 -0.1258
  760MPD2     H11228   0.115   0.839  11.986  0.4749 -0.6899  2.1128
  760MPD2    H111229   4.527   0.602  12.147 -1.2517 -0.2822 -2.2593
  760MPD2    H211230   4.499   1.016  12.205 -1.5723 -0.5947 -1.7685
  760MPD2    H311231   4.413   0.791  12.235  1.2691  0.3700  3.5658
  760MPD2     N11232   0.007   0.584  12.014 -0.9591  0.0039  0.2740
  760MPD2    H511233   4.669   0.504  12.029 -0.1303 -0.8450 -0.9718
  760MPD2    N111234   0.003   1.080  12.080  0.6435  0.1278 -0.0964
  760MPD2    H711235   0.081   1.091  12.016  1.8180 -0.3255  1.2576
  761MPD2     C11236   1.151   0.319  11.244 -0.3075  0.2267 -0.4181
  761MPD2    C111237   1.205   0.277  11.128 -0.4451 -0.7501  0.6562
  761MPD2    C211238   1.285   0.358  11.052 -0.0166 -0.0298  0.1781
  761MPD2    C311239   1.307   0.487  11.093  0.2281 -0.1150  0.4765
  761MPD2    C411240   1.256   0.528  11.216  0.0195  0.6626 -0.8336
  761MPD2    C511241   1.185   0.441  11.293  0.5998 -0.2209 -0.8868
  761MPD2     H11242   1.338   0.312  10.969 -0.0121 -1.5628  1.0210
  761MPD2    H111243   1.264   0.630  11.252 -1.7472  0.2579  0.7561
  761MPD2    H211244   1.069   0.267  11.293  0.1022  0.4778  0.5307
  761MPD2    H311245   1.142   0.474  11.387 -1.8877 -0.4947 -1.9311
  761MPD2     N11246   1.402   0.573  11.025 -0.9745 -0.7626 -0.4722
  761MPD2    H511247   1.434   0.655  11.076  1.2205 -1.2454 -1.0768
  761MPD2    N111248   1.177   0.142  11.086 -0.0333  0.2709  0.0309
  761MPD2    H711249   1.139   0.076  11.153  1.1598 -0.4805 -0.0397
  762MPD2     C11250   1.382   4.653  10.375  0.0123  0.2703 -0.5326
  762MPD2    C111251   1.367   4.538  10.447 -0.5229  0.2093 -0.1425
  762MPD2    C211252   1.425   4.417  10.402 -0.7214  0.5434  0.2746
  762MPD2    C311253   1.508   4.422  10.293 -0.2468  0.2251 -0.5207
  762MPD2    C411254   1.525   4.538  10.227  0.3381  1.0694 -0.1778
  762MPD2    C511255   1.462   4.653  10.264 -0.0183 -0.5320  0.2406
  762MPD2     H11256   1.412   4.322  10.451 -0.0437  1.4594  2.2416
  762MPD2    H111257   1.583   4.531  10.136  0.5781 -1.4384  0.1601
  762MPD2    H211258   1.353   0.030  10.412  0.7993 -0.8547  3.1115
  762MPD2    H311259   1.492   0.024  10.216 -0.9104  0.2878  1.2538
  762MPD2     N11260   1.581   4.307  10.273 -0.2736 -0.0890 -0.1293
  762MPD2    H511261   1.566   4.234  10.343 -0.7989  0.1421 -0.0052
  762MPD2    N111262   1.287   4.557  10.566 -0.2053 -0.1067 -0.1815
  762MPD2    H711263   1.262   4.651  10.595  1.4185  0.0960  0.5950
  763MPD2     C11264   3.303   0.704  16.305 -0.7684  0.0697  0.8580
  763MPD2    C111265   3.187   0.740  16.245  0.0134 -0.2221 -0.1429
  763MPD2    C211266   3.134   0.864  16.267 -0.2211 -0.6268 -0.8181
  763MPD2    C311267   3.194   0.949  16.365  0.1653  0.7026  0.0472
  763MPD2    C411268   3.307   0.902  16.433  0.4154 -0.5049 -0.3520
  763MPD2    C511269   3.363   0.785  16.398  0.4791 -0.6744 -0.0173
  763MPD2     H11270   3.041   0.888  16.216 -0.9321  0.2585  0.8959
  763MPD2    H111271   3.367   0.960  16.502 -0.8400  0.1656  0.1774
  763MPD2    H211272   3.351   0.609  16.282 -0.2655  0.8393 -1.2693
  763MPD2    H311273   3.457   0.755  16.440 -0.1260 -1.6858  0.6100
  763MPD2     N11274   3.145   1.075  16.408  0.0683  0.0585  0.6896
  763MPD2    H511275   3.209   1.137  16.457 -0.7018  0.8925  0.6442
  763MPD2    N111276   3.112   0.656  16.163  0.2559 -0.0576 -0.4092
  763MPD2    H711277   3.047   0.706  16.103 -0.1426  0.8295  0.7521
  764MPD2     C11278   1.403   2.139  17.443 -0.3260 -0.3764  0.6623
  764MPD2    C111279   1.340   2.015  17.450 -0.3309 -0.0153 -0.2855
  764MPD2    C211280   1.387   1.921  17.538 -0.2550 -0.1749  0.7258
  764MPD2    C311281   1.492   1.944  17.627  0.0306  0.5010  0.1856
  764MPD2    C411282   1.558   2.067  17.612  0.6587  0.6528 -0.0513
  764MPD2    C511283   1.512   2.160  17.524 -0.2419 -0.1970  1.1534
  764MPD2     H11284   1.333   1.827  17.542 -1.1282  0.3775  1.7893
  764MPD2    H111285   1.652   2.089  17.661  1.0040 -0.3494 -0.2676
  764MPD2    H211286   1.388   2.222  17.375 -0.0972 -1.3854 -0.6161
  764MPD2    H311287   1.555   2.259  17.514 -2.3535  0.7112  1.0509
  764MPD2     N11288   1.540   1.834   0.022 -0.0418 -0.1535 -0.4542
  764MPD2    H511289   1.486   1.748   0.021 -0.4181  0.0585  1.1462
  764MPD2    N111290   1.236   1.986  17.361 -0.3584  0.0647  0.0959
  764MPD2    H711291   1.201   1.891  17.362  0.7500 -0.3435  0.1938
  765MPD2     C11292   0.416   4.318  16.272 -0.0518 -0.2393 -0.8325
  765MPD2    C111293   0.499   4.410  16.214  0.8227 -0.8134  0.1104
  765MPD2    C211294   0.624   4.381  16.167  0.0039  0.7700  0.2313
  765MPD2    C311295   0.670   4.252  16.192  0.3555  0.1294  0.0016
  765MPD2    C411296   0.584   4.162  16.242  0.1425 -0.3972 -0.5610
  765MPD2    C511297   0.457   4.196  16.283 -0.1535 -0.2804  0.5239
  765MPD2     H11298   0.687   4.452  16.114  0.1272 -0.2601 -1.0262
  765MPD2    H111299   0.618   4.061  16.261  0.5932 -0.3398 -1.0648
  765MPD2    H211300   0.322   4.351  16.314  0.1504 -0.1946 -0.4135
  765MPD2    H311301   0.390   4.122  16.325 -0.9059  0.1482  0.0840
  765MPD2     N11302   0.803   4.223  16.171 -0.1688 -0.1512  0.0247
  765MPD2    H511303   0.859   4.302  16.140  1.8634 -1.2135  1.0365
  765MPD2    N111304   0.444   4.543  16.200 -0.7511  0.1764  0.5437
  765MPD2    H711305   0.346   4.557  16.220 -0.1755  0.6742  3.0288
  766MPD2     C11306   0.044   0.031  15.644  0.1911 -0.1075 -0.1489
  766MPD2    C111307   0.176   0.011  15.682  0.3173  0.4069 -0.6671
  766MPD2    C211308   0.255   4.660  15.592  0.1642  0.2234  0.2908
  766MPD2    C311309   0.210   4.629  15.463 -0.4995 -0.0972 -0.0551
  766MPD2    C411310   0.081   4.662  15.423  0.0263 -0.4601  0.0702
  766MPD2    C511311   0.000   4.711  15.518 -0.0730 -0.0677  0.4109
  766MPD2     H11312   0.356   4.640  15.626  0.1775 -1.2417 -0.6447
  766MPD2    H111313   0.048   4.641  15.321 -0.2205  0.4111 -0.0314
  766MPD2    H211314   4.703   0.088  15.713  0.4885  0.8878 -0.7088
  766MPD2    H311315   4.623   0.027  15.492  0.8872  2.3406  0.2587
  766MPD2     N11316   0.301   4.591  15.357  0.1427  0.3840 -0.1010
  766MPD2    H511317   0.273   4.592  15.260  2.4387  2.2648 -0.7561
  766MPD2    N111318   0.224   0.049  15.809  0.1784  0.8966  0.1788
  766MPD2    H711319   0.318   0.019  15.835  0.6484  0.6153 -1.8166
  767MPD2     C11320   4.636   0.212  15.145 -0.4867 -0.2075 -0.1957
  767MPD2    C111321   0.049   0.194  15.147  0.1483 -0.7209  0.2363
  767MPD2    C211322   0.108   0.105  15.054 -0.3374 -0.4028  0.1975
  767MPD2    C311323   0.032   0.041  14.960 -0.3754 -0.2750  0.8404
  767MPD2    C411324   4.621   0.065  14.964 -0.2250  0.0146 -0.1962
  767MPD2    C511325   4.557   0.149  15.051 -0.2745 -0.8095  0.2153
  767MPD2     H11326   0.214   0.083  15.049 -0.0138  1.3793 -0.9052
  767MPD2    H111327   4.556   0.010  14.898 -0.2734 -0.5125  0.2869
  767MPD2    H211328   4.583   0.280  15.210 -0.6136 -1.0225  0.5588
  767MPD2    H311329   4.454   0.180  15.043  0.0195  0.6854  2.2037
  767MPD2     N11330   0.100   4.683  14.866  0.3321 -0.0561 -0.0565
  767MPD2    H511331   0.202   4.691  14.866  0.2473  1.0722  0.1244
  767MPD2    N111332   0.119   0.271  15.246 -0.5333  0.6400  0.3138
  767MPD2    H711333   0.068   0.335  15.306  0.5121  0.9963  0.8171
  768MPD2     C11334   0.952   3.142  10.919  0.4532 -0.0491 -0.0872
  768MPD2    C111335   0.958   3.201  11.045  1.1945  0.7445  0.3783
  768MPD2    C211336   1.087   3.227  11.099 -0.6849  0.3840 -0.2543
  768MPD2    C311337   1.197   3.188  11.026 -0.2564 -0.2676 -0.2468
  768MPD2    C411338   1.184   3.141  10.899 -0.8601 -0.3040 -0.3097
  768MPD2    C511339   1.063   3.119  10.846  0.0025  0.7828 -0.2613
  768MPD2     H11340   1.092   3.286  11.190 -0.9104 -0.6133  0.4010
  768MPD2    H111341   1.270   3.124  10.836 -0.8707 -0.1988 -0.3535
  768MPD2    H211342   0.857   3.105  10.882  0.0846 -1.1683  1.9514
  768MPD2    H311343   1.056   3.067  10.751 -0.2513 -1.7220  1.1194
  768MPD2     N11344   1.327   3.217  11.077 -0.0354  1.5072 -0.4742
  768MPD2    H511345   1.401   3.216  11.008 -0.1537  0.7741 -0.5857
  768MPD2    N111346   0.846   3.227  11.125 -0.0190  0.0858  0.0047
  768MPD2    H711347   0.858   3.282  11.210 -1.9721  1.4028 -0.5918
  769MPD2     C11348   2.192   1.453  14.764  0.1811 -0.9427 -0.4358
  769MPD2    C111349   2.111   1.398  14.864 -0.3942  0.0640  0.0965
  769MPD2    C211350   2.156   1.394  14.999  0.2454 -0.3633  0.2912
  769MPD2    C311351   2.281   1.451  15.032 -0.5942 -0.5834  0.4053
  769MPD2    C411352   2.371   1.492  14.937  0.2365 -0.0971  0.0884
  769MPD2    C511353   2.324   1.489  14.803  0.4919 -0.0503  0.4825
  769MPD2     H11354   2.086   1.372  15.078  1.0160 -3.2473  0.1780
  769MPD2    H111355   2.468   1.528  14.968  1.0012 -2.5957  0.5845
  769MPD2    H211356   2.175   1.467  14.658  1.2887  1.5897 -0.2742
  769MPD2    H311357   2.388   1.524  14.723  0.0247 -0.8822 -0.2707
  769MPD2     N11358   2.312   1.453  15.169 -0.1512 -0.1704 -0.0902
  769MPD2    H511359   2.256   1.393  15.229  0.9510 -1.2029 -0.0982
  769MPD2    N111360   1.984   1.348  14.821 -0.1988 -0.1799  0.0325
  769MPD2    H711361   1.970   1.365  14.722 -1.2635  0.6491  0.3229
  770MPD2     C11362   1.187   0.779  15.044  0.8280 -0.5557 -1.0260
  770MPD2    C111363   1.315   0.737  14.991  0.6864  0.3730 -0.9452
  770MPD2    C211364   1.404   0.834  14.945 -0.3101 -0.4063  0.5062
  770MPD2    C311365   1.364   0.967  14.934 -0.2515  0.4910 -0.1633
  770MPD2    C411366   1.238   1.005  14.978 -0.4335 -0.9481  0.4321
  770MPD2    C511367   1.156   0.914  15.036  0.5893  0.5295  0.1305
  770MPD2     H11368   1.505   0.810  14.914 -0.5123  1.9009 -1.9446
  770MPD2    H111369   1.208   1.108  14.993 -0.7146 -1.0095  0.2995
  770MPD2    H211370   1.119   0.704  15.083  0.2113  0.5258 -0.0405
  770MPD2    H311371   1.061   0.940  15.081  0.4811 -1.6790  1.1847
  770MPD2     N11372   1.460   1.061  14.896  1.1859 -0.3497 -0.5923
  770MPD2    H511373   1.559   1.037  14.902  1.2945 -0.5302 -3.1677
  770MPD2    N111374   1.376   0.612  15.017 -0.5331 -0.3984 -0.5514
  770MPD2    H711375   1.473   0.601  14.987  0.0426 -0.5265  1.3383
  771MPD2     C11376   2.830   3.686  13.652 -0.1266 -0.0711 -0.4523
  771MPD2    C111377   2.757   3.798  13.646 -0.0834 -0.3867 -0.2063
  771MPD2    C211378   2.646   3.800  13.561 -0.5671 -0.1364 -0.3880
  771MPD2    C311379   2.629   3.707  13.461  0.5341  0.3361  0.0680
  771MPD2    C411380   2.707   3.596  13.471 -0.2265  0.4197 -0.4238
  771MPD2    C511381   2.810   3.588  13.559 -0.2850  1.0397 -0.0029
  771MPD2     H11382   2.588   3.891  13.565 -0.6160 -0.0563 -2.6704
  771MPD2    H111383   2.700   3.511  13.404 -0.3804 -1.6726  2.2515
  771MPD2    H211384   2.905   3.669  13.728  1.1111  3.2681 -0.9431
  771MPD2    H311385   2.874   3.500  13.563 -0.9778  0.4910 -0.9649
  771MPD2     N11386   2.532   3.712  13.356 -0.4116  0.2128 -0.0663
  771MPD2    H511387   2.515   3.633  13.295 -0.3221  0.6093 -0.6049
  771MPD2    N111388   2.780   3.912  13.727  0.0259  0.2826  0.2422
  771MPD2    H711389   2.721   3.994  13.720  1.5646  1.4179  0.4911
  772MPD2     C11390   2.454   4.481  13.992  0.1694  0.2571  0.5015
  772MPD2    C111391   2.473   4.363  13.928  0.4708  0.0165 -0.3829
  772MPD2    C211392   2.366   4.296  13.880  0.0768  0.2339  0.3869
  772MPD2    C311393   2.240   4.360  13.885 -0.3483  0.8636 -0.0723
  772MPD2    C411394   2.221   4.481  13.949  0.3895 -0.3067 -0.0411
  772MPD2    C511395   2.327   4.537  14.005  0.6436 -0.3949  0.6796
  772MPD2     H11396   2.383   4.206  13.823 -0.3049 -0.3071  1.1352
  772MPD2    H111397   2.124   4.530  13.956 -0.0636 -1.3691  0.9721
  772MPD2    H211398   2.542   4.530  14.033 -0.8945  2.2257  0.4193
  772MPD2    H311399   2.310   4.629  14.058  2.0802  1.5952 -2.2865
  772MPD2     N11400   2.139   4.291  13.824  0.3432  0.8706 -0.2069
  772MPD2    H511401   2.165   4.204  13.778 -1.2917  0.5378 -0.5289
  772MPD2    N111402   2.603   4.305  13.905  0.2168 -0.0503 -0.1458
  772MPD2    H711403   2.607   4.213  13.863 -0.2021  0.2245 -0.7897
  773MPD2     C11404   2.177   0.927   0.457  0.5503  0.1416 -1.4214
  773MPD2    C111405   2.105   0.808   0.449  0.6497 -0.1541 -0.2258
  773MPD2    C211406   2.148   0.692   0.516  0.2292  0.2530 -0.4063
  773MPD2    C311407   2.255   0.700   0.598 -0.2576 -0.0890  0.2000
  773MPD2    C411408   2.313   0.821   0.626  0.5944  0.1191 -0.0565
  773MPD2    C511409   2.274   0.932   0.552 -0.5089  0.5162  0.1829
  773MPD2     H11410   2.100   0.596   0.505  2.0344 -0.8361  1.4252
  773MPD2    H111411   2.397   0.827   0.693  0.3195  1.0916  0.2000
  773MPD2    H211412   2.160   1.013   0.393 -0.7766  1.2398  0.4098
  773MPD2    H311413   2.328   1.025   0.565 -0.6229  0.6079 -0.0087
  773MPD2     N11414   2.297   0.579   0.660  0.6676 -1.3188  0.0240
  773MPD2    H511415   2.252   0.497   0.620  0.1858 -1.7995  1.5149
  773MPD2    N111416   1.993   0.796   0.372  0.2180  0.5390  0.0565
  773MPD2    H711417   1.949   0.705   0.378  2.0611 -0.3081  0.7834
  774MPD2     C11418   0.632   4.030  13.227 -0.1570  0.4936 -0.3754
  774MPD2    C111419   0.660   4.103  13.337 -0.1727 -0.6717 -0.0516
  774MPD2    C211420   0.708   4.237  13.322  0.0241  0.3169 -0.1790
  774MPD2    C311421   0.734   4.289  13.198 -0.2903 -0.0095 -0.0649
  774MPD2    C411422   0.706   4.216  13.085  0.4210  0.2036  0.1403
  774MPD2    C511423   0.656   4.088  13.108  0.4534 -0.2405  0.5317
  774MPD2     H11424   0.728   4.296  13.410 -1.3678 -0.6880  0.8243
  774MPD2    H111425   0.716   4.251  12.983  0.4004  0.6016  0.2726
  774MPD2    H211426   0.593   3.929  13.234  0.8206 -0.0243 -2.6979
  774MPD2    H311427   0.632   4.028  13.021 -0.2368 -0.1669  0.6729
  774MPD2     N11428   0.790   4.418  13.190 -0.1083  0.0238 -0.4256
  774MPD2    H511429   0.791   4.474  13.275 -2.2249  0.2379 -0.5381
  774MPD2    N111430   0.649   4.036  13.459  0.4605 -0.7976 -0.3424
  774MPD2    H711431   0.629   3.936  13.452  1.0740 -1.0386  1.3822
  775MPD2     C11432   2.547   1.307  15.851 -0.4326 -0.6344 -0.1525
  775MPD2    C111433   2.522   1.429  15.895  0.0102 -0.6470  0.3382
  775MPD2    C211434   2.604   1.534  15.861 -0.3588 -0.5922 -0.3171
  775MPD2    C311435   2.713   1.513  15.775  0.5039 -0.0208 -0.1564
  775MPD2    C411436   2.734   1.390  15.725  0.4278 -0.7218  0.0725
  775MPD2    C511437   2.650   1.287  15.763  0.7832  0.2454 -0.3103
  775MPD2     H11438   2.581   1.628  15.910  0.6638  0.6138 -2.1271
  775MPD2    H111439   2.823   1.374  15.666  0.2265  2.1545 -0.9764
  775MPD2    H211440   2.485   1.225  15.884  0.2063 -0.5631  1.2598
  775MPD2    H311441   2.679   1.191  15.722 -2.8846 -0.7794 -0.5035
  775MPD2     N11442   2.800   1.618  15.739  1.1320  0.5741  0.5048
  775MPD2    H511443   2.880   1.591  15.683 -0.1896 -0.6164 -0.8051
  775MPD2    N111444   2.400   1.447  15.972 -0.0372  0.4752 -0.1026
  775MPD2    H711445   2.350   1.363  16.001 -0.7346  0.6172 -0.8977
  776MPD2     C11446   1.832   2.058  11.197  0.3445 -0.6834  0.0895
  776MPD2    C111447   1.926   2.021  11.293 -0.2019  0.1497  0.4622
  776MPD2    C211448   2.016   2.112  11.337 -0.3748 -0.0664  1.2186
  776MPD2    C311449   2.011   2.243  11.289  0.2295 -0.3062 -0.7683
  776MPD2    C411450   1.912   2.279  11.200 -0.0482 -0.3385  0.8693
  776MPD2    C511451   1.822   2.187  11.157  0.2804  0.6363  0.0452
  776MPD2     H11452   2.093   2.085  11.409  2.1027  0.8420 -1.1275
  776MPD2    H111453   1.901   2.378  11.157  0.5896 -0.0913  1.2610
  776MPD2    H211454   1.763   1.987  11.154  1.0271  0.5113 -3.0343
  776MPD2    H311455   1.754   2.215  11.077 -0.4464 -0.4569  0.2876
  776MPD2     N11456   2.100   2.347  11.318 -0.0395  0.0641  0.5821
  776MPD2    H511457   2.082   2.439  11.280 -2.4779 -0.1554  1.2215
  776MPD2    N111458   1.909   1.888  11.344 -0.1058 -0.1322  0.1143
  776MPD2    H711459   1.826   1.839  11.315 -0.5363  0.0619  1.0286
  777MPD2     C11460   2.621   4.252   1.082 -0.0969 -0.0060  0.1364
  777MPD2    C111461   2.523   4.191   1.155  0.0801 -0.2950 -0.1366
  777MPD2    C211462   2.466   4.076   1.107 -0.4856  0.5686  0.4782
  777MPD2    C311463   2.499   4.030   0.980 -0.3621 -0.0217 -0.2925
  777MPD2    C411464   2.582   4.099   0.895 -0.0941 -0.2835 -0.1612
  777MPD2    C511465   2.643   4.215   0.951  0.6236  0.5574  1.1727
  777MPD2     H11466   2.392   4.013   1.156  1.6154 -0.4183  2.3968
  777MPD2    H111467   2.597   4.067   0.792  0.1667  0.5374 -0.3832
  777MPD2    H211468   2.664   4.342   1.125  0.4349 -0.7283  1.1491
  777MPD2    H311469   2.708   4.277   0.891  0.5906 -0.2331  0.3185
  777MPD2     N11470   2.445   3.904   0.951 -0.7568 -0.0817  0.5670
  777MPD2    H511471   2.391   3.849   1.017 -0.9922  0.9852  1.2603
  777MPD2    N111472   2.495   4.242   1.280 -0.6388 -0.3744 -0.1181
  777MPD2    H711473   2.562   4.302   1.326 -1.1706  1.8070 -2.1693
  778MPD2     C11474   2.954   4.313  15.300  0.1823  0.1782  0.2024
  778MPD2    C111475   2.976   4.204  15.214 -0.1026 -0.3750  0.3572
  778MPD2    C211476   2.976   4.226  15.083 -0.7463 -0.2247 -0.9387
  778MPD2    C311477   2.977   4.354  15.027 -0.4564  0.8846 -0.2464
  778MPD2    C411478   2.962   4.463  15.114  0.9043  0.3581  0.1307
  778MPD2    C511479   2.956   4.432  15.248  0.0656 -0.1391  0.5155
  778MPD2     H11480   2.993   4.138  15.021 -3.1891 -0.1190 -1.7646
  778MPD2    H111481   2.967   4.567  15.084 -0.3267  0.7548  1.2865
  778MPD2    H211482   2.942   4.296  15.406 -1.2641 -1.0463 -0.1477
  778MPD2    H311483   2.943   4.519  15.313  1.8523 -1.0337  2.0644
  778MPD2     N11484   2.996   4.366  14.888  0.0473  0.3873 -0.2697
  778MPD2    H511485   2.996   4.281  14.833  0.6438 -0.2847  0.7887
  778MPD2    N111486   2.983   4.068  15.262 -0.1583  0.6875  0.3368
  778MPD2    H711487   2.961   3.990  15.200 -3.4350  2.4688 -0.7638
  779MPD2     C11488   2.669   2.904  14.576 -0.3992 -0.0625 -1.2775
  779MPD2    C111489   2.792   2.933  14.524 -0.1848  0.8858  0.6063
  779MPD2    C211490   2.834   3.061  14.505 -0.1917 -0.3656 -0.2490
  779MPD2    C311491   2.748   3.168  14.529 -0.1619 -0.4629 -0.7708
  779MPD2    C411492   2.621   3.133  14.566  0.1851 -0.2662 -0.0342
  779MPD2    C511493   2.581   3.009  14.592 -0.0419 -0.6742  0.1389
  779MPD2     H11494   2.931   3.074  14.459 -0.0591 -0.0694  0.1094
  779MPD2    H111495   2.540   3.198  14.597  1.2396 -0.5911  3.3737
  779MPD2    H211496   2.633   2.802  14.584 -1.2223  0.6541  4.4376
  779MPD2    H311497   2.479   2.989  14.623 -0.0066  1.5839  1.6728
  779MPD2     N11498   2.789   3.305  14.508 -0.0216  0.3116  1.1840
  779MPD2    H511499   2.881   3.324  14.469 -0.5856  0.1899 -0.1970
  779MPD2    N111500   2.888   2.830  14.498  0.4004  0.6392 -0.0483
  779MPD2    H711501   2.977   2.862  14.461  2.0240 -0.8100  2.6201
  780MPD2     C11502   1.637   2.932   1.292 -0.1084 -0.0742  0.0818
  780MPD2    C111503   1.665   2.848   1.194  0.5751 -0.6398 -0.2215
  780MPD2    C211504   1.797   2.839   1.157 -0.0757 -0.7660  0.4516
  780MPD2    C311505   1.894   2.919   1.198 -0.3475  0.2878 -0.0655
  780MPD2    C411506   1.863   3.021   1.288 -0.2511 -0.1060  0.4586
  780MPD2    C511507   1.732   3.023   1.331  0.5151  0.7582  0.3479
  780MPD2     H11508   1.825   2.759   1.089 -0.8168 -0.0785 -0.6721
  780MPD2    H111509   1.929   3.098   1.325  0.5624 -0.6762  0.1906
  780MPD2    H211510   1.537   2.935   1.334 -0.3220 -1.3486 -0.3414
  780MPD2    H311511   1.705   3.110   1.389 -1.0988  0.3233  0.2440
  780MPD2     N11512   2.023   2.893   1.135 -0.1656 -0.3972  0.0384
  780MPD2    H511513   2.027   2.816   1.070 -1.8995 -0.4809  0.0215
  780MPD2    N111514   1.564   2.758   1.155 -0.1891 -0.0143 -0.1034
  780MPD2    H711515   1.477   2.766   1.206 -0.9305 -0.6558 -1.2561
  781MPD2     C11516   4.164   0.173  12.025 -0.3534  0.1300  0.2019
  781MPD2    C111517   4.143   0.039  12.040  0.2883 -0.0036  0.8913
  781MPD2    C211518   4.176   4.680  11.923 -0.1175  0.3644 -0.1309
  781MPD2    C311519   4.250   0.011  11.820 -0.3034  0.2674  0.7787
  781MPD2    C411520   4.273   0.150  11.822  0.1696 -0.0240  1.0009
  781MPD2    C511521   4.226   0.229  11.919  0.1923 -0.9589 -0.8522
  781MPD2     H11522   4.166   4.572  11.932 -2.7528  0.7382  1.3693
  781MPD2    H111523   4.320   0.199  11.737 -0.7908 -2.1047 -0.7212
  781MPD2    H211524   4.145   0.238  12.109 -2.3789  0.7064 -0.6948
  781MPD2    H311525   4.240   0.337  11.921  1.4113 -1.1134 -0.9639
  781MPD2     N11526   4.315   4.657  11.707 -0.0283  0.8085  0.0053
  781MPD2    H511527   4.359   0.003  11.645  0.2969  1.0599  0.5066
  781MPD2    N111528   4.111   4.688  12.155 -0.2897  0.1320  0.1327
  781MPD2    H711529   4.087   4.589  12.148 -1.5519  0.5314 -1.1177
  782MPD2     C11530   2.695   1.010  10.019  0.0729 -0.7730 -0.0639
  782MPD2    C111531   2.674   0.907  10.103  0.0525 -0.6148 -0.1516
  782MPD2    C211532   2.719   0.914  10.232  0.2439  0.3753  0.2375
  782MPD2    C311533   2.791   1.030  10.269 -0.4173 -0.8465 -0.7261
  782MPD2    C411534   2.801   1.137  10.184 -0.1798 -0.7107 -0.0331
  782MPD2    C511535   2.752   1.126  10.058  0.3979 -0.6027  0.3448
  782MPD2     H11536   2.693   0.833  10.299 -0.6415  0.5180  0.0662
  782MPD2    H111537   2.836   1.235  10.215 -1.0171  0.0743 -1.5472
  782MPD2    H211538   2.667   1.006   9.914  1.0343  0.9370 -0.3853
  782MPD2    H311539   2.749   1.211   9.991  0.4054 -0.5859  0.3655
  782MPD2     N11540   2.838   1.036  10.404 -0.0415  0.1599  0.3615
  782MPD2    H511541   2.839   0.956  10.467 -0.1897 -0.0297  0.1231
  782MPD2    N111542   2.604   0.794  10.064  0.7056 -1.0735 -0.2182
  782MPD2    H711543   2.592   0.721  10.133 -0.5404 -0.2097  0.4741
  783MPD2     C11544   1.622   0.665  10.223  0.2860 -0.2658  0.5424
  783MPD2    C111545   1.716   0.648  10.327  0.3025 -0.3676  0.4387
  783MPD2    C211546   1.843   0.601  10.290 -0.5184  0.2102  0.2687
  783MPD2    C311547   1.888   0.606  10.159  0.4853 -0.1333 -0.5961
  783MPD2    C411548   1.796   0.629  10.059 -0.3807 -0.4073  0.1615
  783MPD2    C511549   1.664   0.645  10.091  0.2062 -0.1591  0.4966
  783MPD2     H11550   1.918   0.574  10.363  1.0152  0.7538 -1.0889
  783MPD2    H111551   1.804   0.635   9.951  0.2951  1.3511  0.3227
  783MPD2    H211552   1.518   0.690  10.242  0.8550  1.5562  1.2801
  783MPD2    H311553   1.587   0.640  10.016 -0.6134  2.1838  1.1904
  783MPD2     N11554   2.027   0.586  10.143  0.2625 -0.0625 -0.3700
  783MPD2    H511555   2.079   0.549  10.222  2.3301  1.5900 -0.9684
  783MPD2    N111556   1.683   0.673  10.462 -0.2835 -0.2968 -0.4251
  783MPD2    H711557   1.585   0.698  10.472 -0.0905 -0.5908  2.1209
  784MPD2     C11558   4.537   0.750   1.342 -0.2547 -0.6046  0.2423
  784MPD2    C111559   4.526   0.858   1.430 -0.6940  0.0437 -0.2607
  784MPD2    C211560   4.460   0.969   1.383  0.3374 -0.1531 -0.2826
  784MPD2    C311561   4.396   0.977   1.262 -0.4422  0.4520 -0.3166
  784MPD2    C411562   4.413   0.866   1.177 -0.2145 -0.2363 -0.0583
  784MPD2    C511563   4.475   0.754   1.217  0.3695  0.5027 -0.3845
  784MPD2     H11564   4.461   1.052   1.453 -0.1062  1.1320 -1.8006
  784MPD2    H111565   4.373   0.866   1.076 -2.2162 -1.0879  0.7360
  784MPD2    H211566   4.596   0.664   1.369  1.0838  0.1163 -0.3679
  784MPD2    H311567   4.492   0.672   1.149 -0.5772  2.2166 -2.6890
  784MPD2     N11568   4.331   1.094   1.224 -0.4703  0.0903 -0.2083
  784MPD2    H511569   4.328   1.170   1.291  1.2580  0.4368 -0.5443
  784MPD2    N111570   4.605   0.879   1.540 -0.0135  0.5432 -0.5406
  784MPD2    H711571   4.615   0.976   1.569 -1.2525  0.0138  1.7040
  785MPD2     C11572   0.344   3.570  10.424  0.1141 -0.1064  0.2183
  785MPD2    C111573   0.218   3.579  10.482 -0.0075 -0.8870  1.2169
  785MPD2    C211574   0.114   3.586  10.392  0.4111  0.3979 -0.7961
  785MPD2    C311575   0.126   3.594  10.250  0.5852 -0.1490  0.2348
  785MPD2    C411576   0.253   3.598  10.204  0.4133 -0.4214 -0.2113
  785MPD2    C511577   0.356   3.575  10.285 -0.6904 -0.2066  0.2283
  785MPD2     H11578   0.014   3.591  10.434  0.3680  1.1999 -1.0083
  785MPD2    H111579   0.274   3.619  10.099  1.2291 -2.2547 -0.4047
  785MPD2    H211580   0.433   3.566  10.485 -1.4321 -0.5821  2.4544
  785MPD2    H311581   0.455   3.570  10.239 -0.9731 -1.5093 -0.2539
  785MPD2     N11582   0.002   3.586  10.174  0.1210  0.0631  0.4197
  785MPD2    H511583   4.645   3.563  10.233 -0.1244 -0.8276 -0.2506
  785MPD2    N111584   0.207   3.591  10.624  0.1485 -0.2571 -0.2894
  785MPD2    H711585   0.295   3.596  10.674 -0.4043  1.7822  0.4999
  786MPD2     C11586   3.084   2.326  14.691 -0.0769 -0.7317  0.1606
  786MPD2    C111587   3.202   2.256  14.713 -0.5693  0.6926  0.6619
  786MPD2    C211588   3.291   2.301  14.799 -0.3262  0.9472 -0.1766
  786MPD2    C311589   3.271   2.418  14.861  0.3667  0.2865  0.2231
  786MPD2    C411590   3.152   2.489  14.831 -0.0732 -0.8030 -0.3770
  786MPD2    C511591   3.063   2.446  14.746 -0.2055 -0.2477 -0.7035
  786MPD2     H11592   3.383   2.246  14.813 -0.2651  1.2163  0.4590
  786MPD2    H111593   3.122   2.573  14.892  1.6255  0.1334 -0.8446
  786MPD2    H211594   3.012   2.301  14.614  0.0820 -0.9224  0.0726
  786MPD2    H311595   2.963   2.488  14.735  0.0006  0.2535 -0.6449
  786MPD2     N11596   3.366   2.470  14.953 -0.2451  1.0269  0.2273
  786MPD2    H511597   3.343   2.558  14.998  0.6931 -0.4814  3.6421
  786MPD2    N111598   3.224   2.138  14.644  0.5298  0.1982 -0.0226
  786MPD2    H711599   3.305   2.083  14.669  0.6944  0.3273 -0.2706
  787MPD2     C11600   3.476   1.688  14.958 -0.3834 -0.7886  0.1944
  787MPD2    C111601   3.474   1.642  14.830  0.9655  0.8926  0.4782
  787MPD2    C211602   3.550   1.530  14.804 -0.1959  0.5582 -0.9434
  787MPD2    C311603   3.632   1.467  14.896  0.3579  0.4741 -0.2010
  787MPD2    C411604   3.627   1.513  15.023  0.3771 -0.4289  0.0632
  787MPD2    C511605   3.550   1.623  15.047  0.6717 -0.1629 -0.1599
  787MPD2     H11606   3.552   1.489  14.704  0.7405 -0.3231 -0.5656
  787MPD2    H111607   3.669   1.464  15.110  0.4208 -0.2720  0.1319
  787MPD2    H211608   3.411   1.769  14.991  1.1560  0.6654 -0.3574
  787MPD2    H311609   3.529   1.655  15.149  1.5340  2.8858 -0.9429
  787MPD2     N11610   3.720   1.377  14.846  0.1525  0.5328  0.1875
  787MPD2    H511611   3.707   1.349  14.749  1.1037  1.9896 -0.3701
  787MPD2    N111612   3.394   1.713  14.733  0.2683 -0.4219  0.3000
  787MPD2    H711613   3.360   1.802  14.769  0.2667  0.6688 -2.4278
  788MPD2     C11614   0.586   4.663   1.522 -0.1880  0.0502 -0.4832
  788MPD2    C111615   0.578   4.715   1.395 -0.1305  0.1166  0.5740
  788MPD2    C211616   0.503   0.105   1.373  0.0004 -0.8652  0.1352
  788MPD2    C311617   0.444   0.174   1.474  0.7679 -0.5279 -0.3019
  788MPD2    C411618   0.459   0.130   1.604  0.7335  0.9036 -0.1675
  788MPD2    C511619   0.523   0.007   1.623  0.1391 -0.2191  0.1898
  788MPD2     H11620   0.513   0.146   1.274  0.4517 -2.5005 -0.4923
  788MPD2    H111621   0.413   0.184   1.686  0.6786 -1.2933  1.2673
  788MPD2    H211622   0.648   4.579   1.551 -1.5506 -0.0237  2.2005
  788MPD2    H311623   0.532   4.688   1.723 -0.5167 -0.1252  0.2876
  788MPD2     N11624   0.367   0.291   1.442  0.0491 -0.6400 -0.6988
  788MPD2    H511625   0.325   0.349   1.514  1.4515  1.6269 -1.7155
  788MPD2    N111626   0.633   4.648   1.281 -0.1656  0.1258 -0.2353
  788MPD2    H711627   0.596   4.668   1.189 -0.3208 -1.5250 -0.5333
  789MPD2     C11628   0.792   0.232  16.378 -0.2251 -0.6412 -0.4134
  789MPD2    C111629   0.713   0.134  16.423  0.5836 -0.5737 -1.3565
  789MPD2    C211630   0.590   0.183  16.457 -0.2696 -0.1988  0.3807
  789MPD2    C311631   0.548   0.315  16.450  0.8098 -0.0499 -0.3329
  789MPD2    C411632   0.635   0.410  16.402 -0.8066 -0.3587 -0.3128
  789MPD2    C511633   0.761   0.363  16.367  0.3955  0.3706 -0.8702
  789MPD2     H11634   0.527   0.109  16.504  1.1048 -0.8301  1.2209
  789MPD2    H111635   0.610   0.514  16.389  0.7716 -0.0719 -1.0552
  789MPD2    H211636   0.891   0.205  16.342 -0.1494  3.7428 -3.4310
  789MPD2    H311637   0.830   0.436  16.327  0.5493  0.1566 -0.9961
  789MPD2     N11638   0.431   0.358  16.511 -0.1046  0.1824  0.1805
  789MPD2    H511639   0.392   0.450  16.492  1.1195  0.6958  0.1646
  789MPD2    N111640   0.737   0.000  16.441 -0.2497 -0.2973 -0.0314
  789MPD2    H711641   0.668   4.673  16.497  2.8784 -0.7175  3.4104
  790MPD2     C11642   1.893   2.438  13.361  0.1225  0.3005  0.0203
  790MPD2    C111643   1.830   2.367  13.460 -0.0002 -0.1863  0.5208
  790MPD2    C211644   1.751   2.252  13.427  0.2509  0.0825  0.1926
  790MPD2    C311645   1.733   2.222  13.291 -0.1462 -0.5936  0.5422
  790MPD2    C411646   1.796   2.296  13.192 -0.8942  0.6061  0.0858
  790MPD2    C511647   1.876   2.400  13.237 -0.6950 -0.7819 -0.6507
  790MPD2     H11648   1.692   2.202  13.502  0.0203 -0.2392 -0.2072
  790MPD2    H111649   1.773   2.291  13.087  1.7016  0.6744 -0.4879
  790MPD2    H211650   1.951   2.528  13.377  2.8651 -1.0814 -2.3191
  790MPD2    H311651   1.917   2.471  13.165  0.9167 -1.8123 -0.7466
  790MPD2     N11652   1.635   2.118  13.260 -0.3883  0.1006  0.0799
  790MPD2    H511653   1.601   2.061  13.336  1.5114 -2.6757 -1.1620
  790MPD2    N111654   1.847   2.424  13.592  0.0691  0.2709 -0.2882
  790MPD2    H711655   1.899   2.510  13.602 -0.2017  0.3094  0.8039
  791MPD2     C11656   1.055   2.105  12.725  0.8690 -1.1362  0.6677
  791MPD2    C111657   1.069   1.985  12.790 -0.8360  0.2064 -0.3378
  791MPD2    C211658   0.985   1.880  12.755 -0.1279 -0.5582 -0.4370
  791MPD2    C311659   0.888   1.896  12.651  0.3207  0.3964 -0.0762
  791MPD2    C411660   0.869   2.028  12.602 -0.5818 -0.1967 -0.4329
  791MPD2    C511661   0.950   2.133  12.638  0.0292  0.2988 -0.1065
  791MPD2     H11662   0.998   1.779  12.792  1.6840  0.3480  1.3847
  791MPD2    H111663   0.792   2.043  12.528 -0.6488  0.2433 -0.2758
  791MPD2    H211664   1.124   2.188  12.739 -1.2292  0.5424  1.1781
  791MPD2    H311665   0.937   2.223  12.580 -1.9873  0.8708  1.2248
  791MPD2     N11666   0.815   1.779  12.616 -0.6546  0.2794  0.5600
  791MPD2    H511667   0.859   1.692  12.646 -0.1298  0.5169  0.4930
  791MPD2    N111668   1.182   1.970  12.875  0.6943 -0.9626  0.1231
  791MPD2    H711669   1.242   2.052  12.876  0.3973 -0.7460  0.3428
  792MPD2     C11670   2.364   1.484  11.155 -0.2204 -0.7195 -0.2944
  792MPD2    C111671   2.297   1.577  11.073  0.4592 -0.4712 -0.0508
  792MPD2    C211672   2.230   1.533  10.960 -0.0039 -0.9545 -0.4436
  792MPD2    C311673   2.229   1.400  10.931 -0.6898 -0.3856 -0.0672
  792MPD2    C411674   2.298   1.306  11.012  0.1179  0.0604 -0.6478
  792MPD2    C511675   2.370   1.356  11.121  0.4852 -0.5293  0.3364
  792MPD2     H11676   2.172   1.603  10.901  0.4120  0.5813  0.9653
  792MPD2    H111677   2.288   1.198  11.006 -0.6557 -0.0285  1.9004
  792MPD2    H211678   2.407   1.515  11.249  0.5037 -2.1332 -0.1613
  792MPD2    H311679   2.419   1.281  11.182  1.0832 -0.2224  0.2389
  792MPD2     N11680   2.142   1.348  10.837  0.5698 -0.2240  0.1404
  792MPD2    H511681   2.140   1.247  10.829  0.2377 -0.3394  1.6974
  792MPD2    N111682   2.294   1.709  11.121 -0.9716  0.4955  0.2967
  792MPD2    H711683   2.335   1.723  11.213  4.0202 -0.4966 -1.7868
  793MPD2     C11684   1.848   1.508   9.923 -0.3323 -0.7681  0.1509
  793MPD2    C111685   1.962   1.461   9.986 -0.0675 -0.3321 -0.4303
  793MPD2    C211686   1.955   1.429  10.119 -1.1724 -0.5029  0.4089
  793MPD2    C311687   1.835   1.433  10.187  0.0948  0.1069 -0.8238
  793MPD2    C411688   1.717   1.470  10.118 -0.1489  0.0364  0.6384
  793MPD2    C511689   1.727   1.520   9.988  0.5759 -0.3107 -0.4329
  793MPD2     H11690   2.040   1.401  10.180  0.2961 -1.6037 -2.1712
  793MPD2    H111691   1.616   1.473  10.157 -0.8440  0.3045 -1.1786
  793MPD2    H211692   1.846   1.534   9.818  3.0461  2.4718  0.8805
  793MPD2    H311693   1.636   1.558   9.943 -0.2196  0.1570  1.5519
  793MPD2     N11694   1.850   1.393  10.318  0.0464  0.2314 -0.6247
  793MPD2    H511695   1.941   1.365  10.355  0.4391  0.3725 -1.4796
  793MPD2    N111696   2.081   1.429   9.921  0.1244  0.5302  0.4755
  793MPD2    H711697   2.141   1.372   9.980  2.3444  2.0997 -0.3043
  794MPD2     C11698   1.583   0.839  17.318  0.3206 -0.1351 -0.3058
  794MPD2    C111699   1.493   0.873  17.419 -0.4349  0.0687 -0.4680
  794MPD2    C211700   1.360   0.898  17.382 -0.2245  0.3961 -0.5923
  794MPD2    C311701   1.327   0.921  17.248  0.6130 -0.3579 -0.6627
  794MPD2    C411702   1.433   0.913  17.156 -0.2470 -0.0698  0.6431
  794MPD2    C511703   1.552   0.864  17.186 -0.0477 -0.5034  0.5680
  794MPD2     H11704   1.291   0.921  17.461 -0.9251 -1.6837 -0.5996
  794MPD2    H111705   1.426   0.933  17.050 -2.9689 -0.3074  0.7897
  794MPD2    H211706   1.684   0.810  17.347  1.1138  1.0478 -1.8486
  794MPD2    H311707   1.635   0.858  17.117 -0.8000 -1.9110 -0.2200
  794MPD2     N11708   1.197   0.963  17.204 -0.5511 -0.0775  0.2331
  794MPD2    H511709   1.187   0.983  17.105  1.5472 -0.3534 -0.0399
  794MPD2    N111710   1.528   0.860  17.560  0.5710  0.1280 -0.2234
  794MPD2    H711711   1.453   0.857  17.628  2.6433 -1.1234  1.9953
  795MPD2     C11712   3.910   3.269  13.966  0.3278  0.0820  0.0067
  795MPD2    C111713   3.877   3.166  13.877 -0.0997 -0.8789 -0.3775
  795MPD2    C211714   3.965   3.052  13.857  0.3641  0.6014  0.4503
  795MPD2    C311715   4.085   3.044  13.927  0.1747 -0.3911 -0.1802
  795MPD2    C411716   4.115   3.150  14.016  0.8384  0.4239 -0.9719
  795MPD2    C511717   4.038   3.260  14.032 -0.0682  0.6397 -0.4422
  795MPD2     H11718   3.935   2.979  13.783 -0.6399  1.3272  0.1427
  795MPD2    H111719   4.206   3.140  14.074  0.3385 -0.4544 -0.3459
  795MPD2    H211720   3.846   3.352  13.993  2.0841  1.0717  1.1851
  795MPD2    H311721   4.068   3.332  14.107  1.0783 -0.8087  0.4857
  795MPD2     N11722   4.172   2.927  13.915  0.1282  0.0236  0.0805
  795MPD2    H511723   4.267   2.936  13.951 -0.6063  2.3854  1.4762
  795MPD2    N111724   3.758   3.172  13.806 -0.0283  0.4083 -0.5337
  795MPD2    H711725   3.749   3.101  13.734 -2.1039 -0.8770  0.9631
  796MPD2     C11726   3.446   0.070  16.004  0.0064  0.3281 -0.3608
  796MPD2    C111727   3.456   0.143  16.117  0.8387  0.6088 -0.0785
  796MPD2    C211728   3.465   0.280  16.102  0.3412  0.2831 -0.6136
  796MPD2    C311729   3.462   0.344  15.981  0.3171 -0.0845 -0.1415
  796MPD2    C411730   3.461   0.267  15.868  0.2679  0.2743  0.7794
  796MPD2    C511731   3.443   0.135  15.885 -0.9807  0.4894  0.4931
  796MPD2     H11732   3.480   0.349  16.185  1.3285 -0.3290 -0.2892
  796MPD2    H111733   3.459   0.306  15.767  0.7061  1.0781  1.0839
  796MPD2    H211734   3.431   4.684  16.000 -0.8789  0.4575 -0.5169
  796MPD2    H311735   3.427   0.076  15.796  2.1235  0.6671 -0.1970
  796MPD2     N11736   3.475   0.481  15.981  0.1877 -0.1561  0.0026
  796MPD2    H511737   3.526   0.524  16.058 -0.6497  0.8112  0.0176
  796MPD2    N111738   3.440   0.082  16.243 -0.0687 -0.1007  0.2068
  796MPD2    H711739   3.423   4.703  16.243 -2.0251  0.2475  1.2990
  797MPD2     C11740   4.662   4.335  17.211  0.3002 -0.3440 -0.6463
  797MPD2    C111741   4.624   4.391  17.331 -0.7493  0.5152  0.0544
  797MPD2    C211742   4.490   4.413  17.354  0.7876  0.6396  1.1190
  797MPD2    C311743   4.396   4.381  17.260 -0.9565 -0.2226 -0.0192
  797MPD2    C411744   4.437   4.340  17.137  0.3160  0.2728 -1.0203
  797MPD2    C511745   4.568   4.318  17.112 -0.0271  0.1265 -0.0937
  797MPD2     H11746   4.459   4.460  17.446 -0.4454  3.0066 -0.5068
  797MPD2    H111747   4.376   4.321  17.049 -0.2431 -1.3031 -0.3039
  797MPD2    H211748   0.040   4.302  17.184  0.3686 -1.8666  1.4287
  797MPD2    H311749   4.608   4.278  17.019  0.7851  1.9348 -0.5372
  797MPD2     N11750   4.264   4.421  17.269  0.0706  0.4009  0.5062
  797MPD2    H511751   4.204   4.439  17.189 -2.0564 -0.2599  1.9575
  797MPD2    N111752   4.717   4.428  17.431 -0.0678  0.3847  0.7612
  797MPD2    H711753   4.683   4.461  17.521  1.2008  0.7566  1.1000
  798MPD2     C11754   4.351   0.197   0.053 -0.2833  0.1240 -1.0930
  798MPD2    C111755   4.373   0.091  17.648  0.1637 -0.6580 -0.4826
  798MPD2    C211756   4.494   0.036  17.625 -0.1236 -0.6870  0.0223
  798MPD2    C311757   4.601   0.090   0.009 -0.8184  0.5475 -0.4047
  798MPD2    C411758   4.589   0.196   0.089 -0.6217 -0.2940  0.0281
  798MPD2    C511759   4.465   0.249   0.110 -0.3204 -0.3101  0.1505
  798MPD2     H11760   4.483   4.671  17.559  0.9066 -1.1684  0.4683
  798MPD2    H111761   4.671   0.240   0.146  0.4429 -3.5642  0.9927
  798MPD2    H211762   4.256   0.245   0.072  0.8033  1.3648  1.1504
  798MPD2    H311763   4.460   0.339   0.170 -0.7382  0.2941 -0.7836
  798MPD2     N11764   0.003   0.030  17.669  0.1552 -0.3230 -0.3677
  798MPD2    H511765   4.720   4.666  17.614 -0.2926 -1.0016  0.7109
  798MPD2    N111766   4.263   0.035  17.589  0.1507  0.5100  0.3016
  798MPD2    H711767   4.281   4.692  17.513 -0.4823 -1.6913  1.9934
  799MPD2     C11768   3.950   1.066  14.294  0.3838  0.4207 -0.4510
  799MPD2    C111769   3.839   0.984  14.297  0.4155  0.1640 -0.3826
  799MPD2    C211770   3.718   1.042  14.286 -0.0468 -0.3619  0.3681
  799MPD2    C311771   3.698   1.172  14.266  0.1359 -0.8745  0.7145
  799MPD2    C411772   3.806   1.256  14.270  0.0353  0.3409 -0.1186
  799MPD2    C511773   3.929   1.200  14.289 -0.2159  0.8582  0.7953
  799MPD2     H11774   3.644   0.964  14.273 -0.0727 -0.1294 -0.9251
  799MPD2    H111775   3.785   1.360  14.250  0.2679  0.2068 -1.0414
  799MPD2    H211776   4.050   1.025  14.299  0.8580  1.5861 -0.5166
  799MPD2    H311777   4.019   1.260  14.295  0.5219 -0.3182  1.6052
  799MPD2     N11778   3.581   1.229  14.223 -0.2512 -0.0332  0.1185
  799MPD2    H511779   3.590   1.329  14.207 -0.8179 -0.0259 -0.1639
  799MPD2    N111780   3.836   0.848  14.319  0.1203  0.5799 -0.0305
  799MPD2    H711781   3.752   0.793  14.335  0.8101 -0.1255  1.1619
  800MPD2     C11782   3.776   2.160  14.032  0.7643 -0.1643  0.0828
  800MPD2    C111783   3.894   2.153  13.971  0.1917 -0.2800  0.2883
  800MPD2    C211784   3.906   2.143  13.838 -0.6003  0.3474 -0.0232
  800MPD2    C311785   3.797   2.163  13.758 -0.3098  0.0527  0.0355
  800MPD2    C411786   3.680   2.176  13.819  0.5615 -0.4714  0.0193
  800MPD2    C511787   3.664   2.172  13.952  0.3838 -0.5178  0.2551
  800MPD2     H11788   4.002   2.144  13.788 -0.3214  0.3111  0.5105
  800MPD2    H111789   3.590   2.196  13.763  0.0648  1.5167  1.5255
  800MPD2    H211790   3.755   2.154  14.138 -0.4775 -0.0618 -0.1510
  800MPD2    H311791   3.566   2.171  13.997 -0.1591  0.4325 -0.9048
  800MPD2     N11792   3.809   2.178  13.620  0.0274  0.7308 -0.1197
  800MPD2    H511793   3.895   2.144  13.577 -1.0565  0.6015 -2.1925
  800MPD2    N111794   4.008   2.160  14.058  0.2835  0.4221 -0.4097
  800MPD2    H711795   3.998   2.186  14.155 -1.5906 -0.4587 -0.3641
  801MPD2     C11796   4.209   2.831  14.266  0.1364  0.0372  0.0199
  801MPD2    C111797   4.122   2.732  14.255 -0.4353 -1.0803 -0.4329
  801MPD2    C211798   3.984   2.746  14.277 -0.1589  0.0644  0.1395
  801MPD2    C311799   3.938   2.879  14.290  0.2364  0.0280 -0.4985
  801MPD2    C411800   4.025   2.982  14.309  0.7130  0.6189 -0.4373
  801MPD2    C511801   4.164   2.953  14.294 -0.3833  0.0250  0.8553
  801MPD2     H11802   3.919   2.661  14.259 -1.4729  1.1643 -0.2736
  801MPD2    H111803   3.994   3.084  14.326 -1.2169 -0.3403  1.8367
  801MPD2    H211804   4.316   2.816  14.261  0.4312  1.6778  1.4852
  801MPD2    H311805   4.232   3.037  14.303 -0.7223  0.3150  0.6912
  801MPD2     N11806   3.800   2.906  14.306 -0.5276  0.3258  0.3348
  801MPD2    H511807   3.784   2.999  14.344  1.7842  0.1735  1.6985
  801MPD2    N111808   4.174   2.599  14.228  0.0220 -0.0680  0.2815
  801MPD2    H711809   4.113   2.522  14.253 -0.8083 -0.0857 -1.7367
  802MPD2     C11810   2.891   3.192  17.627 -0.6222  0.2539 -1.3217
  802MPD2    C111811   2.981   3.167   0.041  0.8034  0.5344 -0.4089
  802MPD2    C211812   3.074   3.063   0.020  0.3142  0.4889  0.4203
  802MPD2    C311813   3.070   2.988  17.589 -0.6729 -0.1788  0.6672
  802MPD2    C411814   2.971   3.010  17.490 -0.7453 -0.7213 -0.3798
  802MPD2    C511815   2.884   3.112  17.515 -0.3966 -0.1641 -0.4675
  802MPD2     H11816   3.146   3.034   0.096 -0.4896  0.6396  1.2441
  802MPD2    H111817   2.966   2.954  17.397 -0.6349 -3.5743  1.3139
  802MPD2    H211818   2.811   3.265  17.638  0.5756  1.2077  1.0524
  802MPD2    H311819   2.810   3.129  17.438  1.7073  1.7744 -2.0694
  802MPD2     N11820   3.167   2.884  17.574 -0.2365  0.1481 -0.0227
  802MPD2    H511821   3.221   2.853  17.654 -0.9116  0.2462  0.4766
  802MPD2    N111822   2.980   3.241   0.167  0.0252 -0.4959 -0.2558
  802MPD2    H711823   3.043   3.217   0.242  0.5719  0.1165 -0.5140
  803MPD2     C11824   4.596   1.749  11.851 -0.8799 -0.2928  0.3632
  803MPD2    C111825   4.644   1.772  11.978 -0.8355 -0.2623 -0.0524
  803MPD2    C211826   4.586   1.699  12.081 -0.0233  0.1066  0.7874
  803MPD2    C311827   4.488   1.608  12.054  0.1416  0.2564  0.4071
  803MPD2    C411828   4.446   1.579  11.927  0.5039 -0.1383  0.0986
  803MPD2    C511829   4.504   1.650  11.823  0.0361  0.0806 -0.0623
  803MPD2     H11830   4.614   1.719  12.183 -0.9378  1.9015  0.6877
  803MPD2    H111831   4.366   1.507  11.912  0.8620 -0.5089 -0.0572
  803MPD2    H211832   4.629   1.812  11.769 -0.6789 -1.7315 -0.6567
  803MPD2    H311833   4.478   1.624  11.721 -0.0210 -1.0310  0.2366
  803MPD2     N11834   4.429   1.544  12.166 -0.7577 -0.8290 -0.3463
  803MPD2    H511835   4.481   1.549  12.253 -0.4187  0.4867 -0.6233
  803MPD2    N111836   0.016   1.876  12.007 -0.1599 -0.2871 -0.5508
  803MPD2    H711837   0.042   1.902  12.101  0.1161 -2.4127 -0.0474
  804MPD2     C11838   4.142   3.122  17.250  0.0771  0.0598 -0.0180
  804MPD2    C111839   4.178   3.077  17.374  0.0436 -0.4501 -0.7413
  804MPD2    C211840   4.283   3.137  17.441 -0.1363  0.1428 -0.1448
  804MPD2    C311841   4.354   3.237  17.374  0.7923 -0.1852 -0.5129
  804MPD2    C411842   4.306   3.295  17.255 -0.3919  0.5514 -0.7385
  804MPD2    C511843   4.197   3.233  17.195  0.5724 -0.0389  0.7921
  804MPD2     H11844   4.315   3.107  17.540  0.5351  2.8238  0.4381
  804MPD2    H111845   4.340   3.388  17.211  0.4587  0.2502 -0.7068
  804MPD2    H211846   4.062   3.084  17.187  0.3134 -0.1025 -0.2194
  804MPD2    H311847   4.157   3.270  17.101 -1.7377 -3.1418  0.5534
  804MPD2     N11848   4.462   3.294  17.443 -0.7396 -0.4660  0.4850
  804MPD2    H511849   4.476   3.266  17.540 -0.7387  3.4790  1.6124
  804MPD2    N111850   4.119   2.956  17.432 -0.7304 -0.4185 -0.7730
  804MPD2    H711851   4.140   2.938  17.530 -0.1095 -0.5728 -0.9341
  805MPD2     C11852   2.890   1.135  15.501  0.4497  0.4591 -0.6595
  805MPD2    C111853   2.922   1.252  15.433 -0.2427  0.4038  1.0508
  805MPD2    C211854   3.052   1.298  15.427 -0.4988 -0.9882  0.4338
  805MPD2    C311855   3.158   1.221  15.485  0.3371 -0.3597  1.0779
  805MPD2    C411856   3.132   1.098  15.550  1.0428 -1.0480 -0.7860
  805MPD2    C511857   2.999   1.064  15.559  0.1286 -0.0728  0.3567
  805MPD2     H11858   3.083   1.393  15.386  0.1963 -1.3305  0.1670
  805MPD2    H111859   3.201   1.030  15.598  1.3978 -0.0575  0.1042
  805MPD2    H211860   2.791   1.093  15.504  1.4623 -1.9357 -0.4219
  805MPD2    H311861   2.977   0.972  15.611  1.4505 -0.9812 -0.7142
  805MPD2     N11862   3.289   1.282  15.484  0.3803  0.4205  0.0175
  805MPD2    H511863   3.298   1.379  15.458 -0.1380  0.0468 -1.5445
  805MPD2    N111864   2.826   1.329  15.360  0.6882  0.0609  0.6855
  805MPD2    H711865   2.861   1.404  15.301  2.1532 -0.5418  0.7644
  806MPD2     C11866   3.951   0.770   0.867  0.5425 -0.3367 -0.0947
  806MPD2    C111867   3.968   0.890   0.939  0.2669  0.0764 -0.4882
  806MPD2    C211868   3.976   1.011   0.874 -0.3859  0.1337 -0.3370
  806MPD2    C311869   3.964   1.013   0.738  0.2664  0.2149  0.5942
  806MPD2    C411870   3.937   0.900   0.668 -0.2149  0.5060  0.9841
  806MPD2    C511871   3.944   0.780   0.732  0.6572  0.2019 -0.3318
  806MPD2     H11872   4.005   1.100   0.928  2.9310 -1.5135  0.5919
  806MPD2    H111873   3.923   0.897   0.561 -0.2898 -1.2225  1.0447
  806MPD2    H211874   3.949   0.672   0.913 -0.3191 -0.4890 -0.4537
  806MPD2    H311875   3.930   0.690   0.674  0.0179 -0.8969  1.5365
  806MPD2     N11876   3.965   1.144   0.672 -0.9027  0.0824 -0.1176
  806MPD2    H511877   3.957   1.229   0.728  2.7195  0.1740  0.2441
  806MPD2    N111878   3.968   0.873   1.083  0.5412 -0.5317 -0.3195
  806MPD2    H711879   3.967   0.777   1.118 -2.1411 -0.3615  0.0303
  807MPD2     C11880   3.890   1.128   1.949  0.0995 -0.1803  0.2440
  807MPD2    C111881   3.934   1.005   1.908  0.8722  0.3493  0.5128
  807MPD2    C211882   3.956   0.906   2.006 -0.6032  0.3659  0.3349
  807MPD2    C311883   3.931   0.936   2.135 -0.0886 -0.6373 -0.6014
  807MPD2    C411884   3.884   1.063   2.171  0.3485  0.2531 -0.1906
  807MPD2    C511885   3.867   1.159   2.074  0.1759  0.3016  0.3414
  807MPD2     H11886   3.996   0.806   1.996 -4.4434 -1.2240  0.7593
  807MPD2    H111887   3.863   1.095   2.272 -0.6032  0.5652 -0.4854
  807MPD2    H211888   3.887   1.200   1.868 -1.4801 -1.6798 -1.0304
  807MPD2    H311889   3.800   1.241   2.097  1.7010  1.9168 -0.9488
  807MPD2     N11890   3.934   0.836   2.232  0.7716 -0.3155 -0.3355
  807MPD2    H511891   3.977   0.752   2.194  0.3668 -0.9014  0.4987
  807MPD2    N111892   3.966   0.971   1.775  0.1074  0.7332  0.4162
  807MPD2    H711893   3.999   0.875   1.772  0.5383  0.7976  3.0513
  808MPD2     C11894   3.827   1.874   9.693 -0.2525 -0.0361  0.0476
  808MPD2    C111895   3.886   1.914   9.813 -1.2844 -0.0523  0.2277
  808MPD2    C211896   3.976   2.017   9.817  0.4893 -0.3326  0.3511
  808MPD2    C311897   4.013   2.081   9.701  0.5124  0.2407  0.6210
  808MPD2    C411898   3.979   2.024   9.579 -0.2974 -0.2521  0.0769
  808MPD2    C511899   3.883   1.930   9.585  0.3065 -0.5685  0.7984
  808MPD2     H11900   4.020   2.047   9.911  1.3228  0.4026 -0.2724
  808MPD2    H111901   4.001   2.073   9.484 -0.4556  0.2105  0.2752
  808MPD2    H211902   3.742   1.808   9.680 -1.1338  0.9800  0.6340
  808MPD2    H311903   3.843   1.902   9.489  1.0592 -0.1752  0.3703
  808MPD2     N11904   4.097   2.187   9.702 -0.7623  0.5664  0.0577
  808MPD2    H511905   4.145   2.219   9.618 -0.2606  2.3434  1.0068
  808MPD2    N111906   3.853   1.847   9.939 -0.3309 -0.0081  0.3284
  808MPD2    H711907   3.892   1.882  10.027  0.2411 -0.5560  0.2893
  809MPD2     C11908   0.018   1.850   9.512 -0.6867  1.3245 -0.3624
  809MPD2    C111909   0.020   1.905   9.639 -0.2122 -0.7554  0.5909
  809MPD2    C211910   4.686   2.033   9.648  0.3105 -0.7045  0.4319
  809MPD2    C311911   4.627   2.102   9.535  0.0130  0.3794  0.6868
  809MPD2    C411912   4.634   2.037   9.413  0.1666  0.2235 -0.1981
  809MPD2    C511913   4.681   1.905   9.401  0.8200  0.5819 -0.2614
  809MPD2     H11914   4.691   2.079   9.746  0.5723 -0.0393  0.1123
  809MPD2    H111915   4.587   2.087   9.328  2.3875  0.1314 -1.4890
  809MPD2    H211916   0.053   1.748   9.500  1.2264  1.6582  2.3649
  809MPD2    H311917   4.687   1.854   9.306  1.1606  0.1133  0.0098
  809MPD2     N11918   4.557   2.225   9.539  0.1751 -0.5603  0.0610
  809MPD2    H511919   4.478   2.232   9.477  1.3132  1.5824 -1.1472
  809MPD2    N111920   0.079   1.851   9.757  0.1225 -0.1191  0.0849
  809MPD2    H711921   0.055   1.903   9.841 -0.1924  1.7996 -1.1968
  810MPD2     C11922   4.034   1.166  10.881 -0.0621  0.0124  0.4420
  810MPD2    C111923   3.975   1.283  10.863 -0.0463 -0.1366 -0.2656
  810MPD2    C211924   4.051   1.400  10.878 -0.5821  1.1385  0.2898
  810MPD2    C311925   4.191   1.395  10.899  0.1932  0.2141 -1.0127
  810MPD2    C411926   4.254   1.268  10.898 -0.1176 -0.1465  0.2990
  810MPD2    C511927   4.171   1.159  10.894  0.3831  0.9459 -0.7860
  810MPD2     H11928   4.008   1.499  10.886 -1.8054  0.4929  1.7483
  810MPD2    H111929   4.359   1.248  10.915 -0.1323 -2.5165 -2.3935
  810MPD2    H211930   3.968   1.080  10.872  0.8612 -0.3092 -3.2813
  810MPD2    H311931   4.216   1.061  10.899  0.0092  0.8007 -0.3090
  810MPD2     N11932   4.265   1.508  10.918 -0.1789  0.2898 -0.1191
  810MPD2    H511933   4.361   1.486  10.946 -0.6784 -0.5131  0.9933
  810MPD2    N111934   3.837   1.289  10.840  0.4579 -0.2235 -0.2659
  810MPD2    H711935   3.793   1.199  10.830  0.3336 -0.2402  0.3762
  811MPD2     C11936   3.033   1.570  10.458  0.0550  0.7172 -0.3998
  811MPD2    C111937   3.161   1.608  10.474 -0.4904  0.8499 -0.0001
  811MPD2    C211938   3.210   1.720  10.417  0.4633  0.2262  0.0767
  811MPD2    C311939   3.129   1.797  10.329 -0.4832  0.4526 -0.0686
  811MPD2    C411940   2.989   1.763  10.333 -0.2202 -0.7700 -0.2177
  811MPD2    C511941   2.943   1.643  10.387  0.2631 -0.6149  0.3734
  811MPD2     H11942   3.311   1.757  10.433  0.4601 -1.0883  3.2492
  811MPD2    H111943   2.918   1.825  10.279  1.7510  1.6202 -0.0559
  811MPD2    H211944   3.001   1.474  10.496 -1.6176  1.1967 -0.6191
  811MPD2    H311945   2.838   1.617  10.384  0.2380 -0.5299  0.5248
  811MPD2     N11946   3.178   1.915  10.275 -0.6778  0.1204 -0.1545
  811MPD2    H511947   3.272   1.943  10.300 -0.5972 -0.4174  0.1511
  811MPD2    N111948   3.246   1.523  10.547  0.2206 -0.0863 -0.0315
  811MPD2    H711949   3.203   1.441  10.589  1.0422 -0.3518  0.2945
  812MPD2     C11950   2.414   1.569  12.307 -0.4852  0.0966  0.8902
  812MPD2    C111951   2.410   1.622  12.432  0.1446 -0.1992 -0.5046
  812MPD2    C211952   2.395   1.539  12.538  0.2764  0.1199 -0.0677
  812MPD2    C311953   2.383   1.399  12.522 -0.0661  0.3473  0.1513
  812MPD2    C411954   2.367   1.349  12.396  0.0554 -0.3050  0.5722
  812MPD2    C511955   2.394   1.430  12.286  0.3426  0.1226  0.0130
  812MPD2     H11956   2.386   1.582  12.637  0.6221  2.1138 -0.8995
  812MPD2    H111957   2.347   1.244  12.376 -2.7191  0.1879  0.7918
  812MPD2    H211958   2.430   1.626  12.217 -0.0957 -2.3683 -0.6165
  812MPD2    H311959   2.394   1.385  12.187  0.7495  1.9712 -0.8264
  812MPD2     N11960   2.361   1.321  12.637 -0.0050 -0.3307  0.4824
  812MPD2    H511961   2.360   1.378  12.720  0.2941  0.4200 -0.0327
  812MPD2    N111962   2.409   1.764  12.445  0.1507  0.4469  0.0777
  812MPD2    H711963   2.426   1.815  12.359  2.2017  0.2705  0.3669
  813MPD2     C11964   1.146   3.781  12.792  0.1219  0.4528  0.2312
  813MPD2    C111965   1.239   3.684  12.809 -0.4120  0.2193  0.1978
  813MPD2    C211966   1.207   3.581  12.900  0.8696 -0.0091  0.1659
  813MPD2    C311967   1.091   3.574  12.978  0.4953 -0.4977 -0.0127
  813MPD2    C411968   1.000   3.673  12.953 -0.9527 -0.3693  1.0666
  813MPD2    C511969   1.029   3.771  12.867 -0.2353  0.1394  0.2994
  813MPD2     H11970   1.284   3.516  12.941  0.4661 -0.7869 -0.3120
  813MPD2    H111971   0.906   3.677  13.007 -1.6769 -0.4310 -0.2116
  813MPD2    H211972   1.176   3.864  12.729 -1.1294  1.2634  0.7210
  813MPD2    H311973   0.962   3.856  12.854  0.4217  0.4431 -1.0884
  813MPD2     N11974   1.087   3.489  13.089  0.3054 -0.1305 -0.1575
  813MPD2    H511975   1.156   3.416  13.104  0.0526 -0.4540 -0.5792
  813MPD2    N111976   1.364   3.693  12.752 -0.1009  0.0446  0.0449
  813MPD2    H711977   1.373   3.759  12.675  0.2521  2.1234  1.8708
  814MPD2     C11978   1.978   0.075  12.600 -0.1618 -0.0650  0.6075
  814MPD2    C111979   1.979   0.105  12.467 -0.0655 -0.5256  0.0859
  814MPD2    C211980   2.060   0.197  12.411 -0.8124  0.2263 -0.4058
  814MPD2    C311981   2.144   0.267  12.500  0.9395  0.4990  0.4869
  814MPD2    C411982   2.143   0.244  12.636 -0.1506 -0.0501  0.3864
  814MPD2    C511983   2.057   0.150  12.684 -0.8935 -0.4409 -0.1800
  814MPD2     H11984   2.057   0.217  12.304 -0.4480  0.6943 -0.3290
  814MPD2    H111985   2.218   0.299  12.691  0.1495  0.9560 -1.0185
  814MPD2    H211986   1.923   4.713  12.642  0.9112 -1.7402 -1.2907
  814MPD2    H311987   2.054   0.131  12.791 -3.1639  1.6266  0.1264
  814MPD2     N11988   2.232   0.370  12.465 -0.0202 -0.2337 -0.3548
  814MPD2    H511989   2.269   0.423  12.544 -0.3073 -0.9731  0.2772
  814MPD2    N111990   1.900   0.038  12.379 -0.8046 -0.5652 -0.0207
  814MPD2    H711991   1.908   0.062  12.281  4.6908  0.9581  0.8108
  815MPD2     C11992   2.760   3.741  11.709 -0.2019  0.3613 -0.3037
  815MPD2    C111993   2.683   3.625  11.697  0.4606 -0.3174 -0.0769
  815MPD2    C211994   2.561   3.629  11.756  0.2413  0.3011  0.0465
  815MPD2    C311995   2.513   3.728  11.840  0.3748  0.7595  0.0937
  815MPD2    C411996   2.600   3.833  11.860 -0.0631  0.1134 -0.5432
  815MPD2    C511997   2.716   3.843  11.789 -0.6320  0.4218  0.0412
  815MPD2     H11998   2.506   3.536  11.752 -3.6570  2.5253  1.8048
  815MPD2    H111999   2.568   3.916  11.922 -4.6599 -1.9747 -0.1279
  815MPD2    H212000   2.861   3.743  11.671  0.8533 -2.4738  2.2764
  815MPD2    H312001   2.775   3.931  11.814  1.7782 -0.9125 -0.9221
  815MPD2     N12002   2.383   3.714  11.900  0.1202 -0.2175  0.1794
  815MPD2    H512003   2.325   3.642  11.858  0.0670 -0.3069  0.4078
  815MPD2    N112004   2.726   3.503  11.637  0.0408  0.3783 -0.4325
  815MPD2    H712005   2.650   3.439  11.614  0.4714 -0.5129  0.6581
  816MPD2     C12006   2.957   2.743   0.225 -0.4964  0.6183  0.0362
  816MPD2    C112007   2.848   2.750   0.144 -0.1745 -0.3963  0.1335
  816MPD2    C212008   2.849   2.675   0.027  0.2698  0.6234  0.5067
  816MPD2    C312009   2.954   2.590   0.006  0.1276  0.5334 -0.3966
  816MPD2    C412010   3.068   2.588   0.087 -0.0866 -0.7018 -0.1356
  816MPD2    C512011   3.062   2.663   0.201  0.0502 -0.1609  0.1699
  816MPD2     H12012   2.763   2.678  17.647  1.4480 -1.0634 -1.0864
  816MPD2    H112013   3.149   2.520   0.063  0.2022  0.2408 -1.8117
  816MPD2    H212014   2.964   2.799   0.317  1.1664  1.0697 -0.3839
  816MPD2    H312015   3.140   2.660   0.276 -0.3139 -0.2673  0.5406
  816MPD2     N12016   2.949   2.531  17.563  0.1859 -0.1754 -0.4112
  816MPD2    H512017   2.876   2.542  17.494  1.8492  3.0752 -1.6584
  816MPD2    N112018   2.740   2.829   0.191  0.4097  0.2175 -0.6132
  816MPD2    H712019   2.760   2.886   0.272  0.6680  0.1537 -0.6315
  817MPD2     C12020   1.975   3.610   9.991 -0.2801  0.2271 -0.2252
  817MPD2    C112021   1.985   3.621   9.853 -0.1807  0.5496 -0.2352
  817MPD2    C212022   1.925   3.726   9.778  0.1884  0.5289 -0.7034
  817MPD2    C312023   1.851   3.822   9.850 -0.0625  0.0052  0.4790
  817MPD2    C412024   1.839   3.811   9.987 -0.2234 -1.1188 -0.5829
  817MPD2    C512025   1.891   3.702  10.054  0.5602  0.7753  0.3838
  817MPD2     H12026   1.935   3.740   9.671  0.9126  2.9622 -0.3338
  817MPD2    H112027   1.789   3.884  10.049  0.2665 -0.0741 -1.4262
  817MPD2    H212028   2.010   3.518  10.037  0.9460  0.7199 -0.1749
  817MPD2    H312029   1.873   3.700  10.161  1.7751 -3.1036  0.5328
  817MPD2     N12030   1.788   3.929   9.774  0.0026  0.1818  0.5896
  817MPD2    H512031   1.810   3.924   9.675  1.2189 -1.0462  0.9127
  817MPD2    N112032   2.035   3.521   9.773 -0.3741  0.4834  0.0429
  817MPD2    H712033   2.038   3.538   9.673  1.3308 -1.9575 -0.3271
  818MPD2     C12034   0.494   3.947   9.909  0.5943  0.1886 -0.3261
  818MPD2    C112035   0.539   3.887  10.023  0.8694 -0.2777 -0.2802
  818MPD2    C212036   0.614   3.768  10.009 -0.1210  0.2994 -0.0691
  818MPD2    C312037   0.648   3.720   9.873 -0.6703  0.0634  0.7523
  818MPD2    C412038   0.604   3.787   9.764  0.5129  0.4795 -0.9256
  818MPD2    C512039   0.524   3.897   9.783 -0.4817  0.3578 -0.6090
  818MPD2     H12040   0.648   3.716  10.098  0.1220 -2.3948 -1.7339
  818MPD2    H112041   0.615   3.738   9.668 -4.8848 -2.0986 -0.2123
  818MPD2    H212042   0.453   4.048   9.917  0.3146  0.0350  0.1846
  818MPD2    H312043   0.474   3.952   9.704 -0.2240  0.1681 -0.9026
  818MPD2     N12044   0.722   3.605   9.852 -0.0777 -0.7021 -0.3294
  818MPD2    H512045   0.757   3.587   9.759 -0.8280 -1.2853 -0.4981
  818MPD2    N112046   0.530   3.949  10.151  0.0255  0.0563 -0.6649
  818MPD2    H712047   0.568   3.889  10.224  2.0411  2.4096  0.1773
  819MPD2     C12048   3.911   1.370  15.371 -0.6137 -0.2100  0.6395
  819MPD2    C112049   3.872   1.239  15.387  0.5829 -0.5857 -0.5153
  819MPD2    C212050   3.926   1.167  15.493  0.6895 -0.1613 -0.2073
  819MPD2    C312051   4.018   1.222  15.587 -0.3058 -0.3496  0.3330
  819MPD2    C412052   4.059   1.349  15.563  0.6142 -1.0057 -0.1365
  819MPD2    C512053   4.005   1.421  15.456 -0.3540 -0.3290  0.0739
  819MPD2     H12054   3.907   1.061  15.507  1.4278 -0.3446 -0.6186
  819MPD2    H112055   4.137   1.406  15.611  2.7659 -3.6929 -0.4082
  819MPD2    H212056   3.869   1.436  15.296 -1.5526 -1.3003  0.2208
  819MPD2    H312057   4.036   1.524  15.440  2.8901 -1.2846  0.1043
  819MPD2     N12058   4.073   1.134  15.683  0.8661 -0.5474  0.1048
  819MPD2    H512059   4.045   1.037  15.684  3.8479 -1.3891  2.0525
  819MPD2    N112060   3.789   1.187  15.282  0.0771 -0.3556 -0.4951
  819MPD2    H712061   3.776   1.252  15.206  1.3398  0.4845  0.0083
  820MPD2     C12062   3.058   1.354  14.625  0.0424  1.0375  0.6293
  820MPD2    C112063   3.060   1.328  14.762  0.4650 -0.0014 -0.4057
  820MPD2    C212064   3.178   1.289  14.827  0.3771  0.3510  0.3550
  820MPD2    C312065   3.292   1.264  14.747 -0.2929  0.2701  0.2749
  820MPD2    C412066   3.278   1.271  14.610 -0.2700  0.0438 -0.0234
  820MPD2    C512067   3.165   1.320  14.554  0.4525  0.2316  0.0206
  820MPD2     H12068   3.190   1.279  14.934 -1.9991 -2.6220  0.3400
  820MPD2    H112069   3.364   1.245  14.548 -0.8131 -1.2540 -0.2268
  820MPD2    H212070   2.970   1.397  14.579  0.0650 -0.3464 -0.7240
  820MPD2    H312071   3.152   1.335  14.448  0.2907  0.3950  0.0636
  820MPD2     N12072   3.405   1.215  14.812 -0.2773 -0.0401 -0.0081
  820MPD2    H512073   3.470   1.162  14.755 -0.5329  0.8088 -1.0823
  820MPD2    N112074   2.942   1.354  14.831 -0.0837 -0.4179  0.3607
  820MPD2    H712075   2.858   1.363  14.774  0.2426  2.4655  0.3563
  821MPD2     C12076   4.037   2.773  13.402 -0.1184  0.1693 -0.3760
  821MPD2    C112077   4.081   2.648  13.357 -0.2166 -0.3847 -0.2596
  821MPD2    C212078   4.221   2.638  13.342  0.0598 -0.2328 -0.2431
  821MPD2    C312079   4.310   2.737  13.377  0.1919  0.4881 -0.2994
  821MPD2    C412080   4.264   2.851  13.432 -0.0257  0.6198 -0.0615
  821MPD2    C512081   4.129   2.867  13.442  0.8643  0.3435  0.0934
  821MPD2     H12082   4.261   2.550  13.293  0.8506  0.7178 -1.3023
  821MPD2    H112083   4.329   2.928  13.473  0.2005 -0.2665  1.2175
  821MPD2    H212084   3.933   2.802  13.403 -0.4877 -1.2038  2.7726
  821MPD2    H312085   4.086   2.956  13.486 -1.1793 -2.0594  2.9379
  821MPD2     N12086   4.448   2.718  13.357 -0.5701 -0.1713  0.3885
  821MPD2    H512087   4.505   2.794  13.392  0.6841  0.7941 -3.7758
  821MPD2    N112088   3.982   2.559  13.300 -0.3326 -0.4958 -0.0632
  821MPD2    H712089   3.891   2.583  13.337 -0.7844  0.9368 -2.1626
  822MPD2     C12090   4.442   2.327  15.830 -0.8951 -0.0676  0.4314
  822MPD2    C112091   4.458   2.296  15.961 -0.4558 -0.5681  0.5839
  822MPD2    C212092   4.390   2.371  16.056 -0.0221  1.0352  0.6758
  822MPD2    C312093   4.332   2.489  16.029  0.1853  0.2720  0.6753
  822MPD2    C412094   4.340   2.527  15.896  0.7588 -0.2980 -0.0037
  822MPD2    C512095   4.382   2.446  15.797 -0.1865 -0.1769  0.1141
  822MPD2     H12096   4.404   2.333  16.157 -1.5462 -1.0429  0.0911
  822MPD2    H112097   4.308   2.628  15.872 -0.3101 -1.1374 -2.0909
  822MPD2    H212098   4.480   2.270  15.747  1.0619  0.0370  1.2636
  822MPD2    H312099   4.366   2.474  15.694  1.1268  0.7268  0.1492
  822MPD2     N12100   4.290   2.571  16.142  0.5551 -0.0322  0.0076
  822MPD2    H512101   4.289   2.523  16.231 -2.9661  2.6401  1.4169
  822MPD2    N112102   4.529   2.177  16.003  0.4041  0.1092  0.3119
  822MPD2    H712103   4.532   2.154  16.102 -0.3230  1.1293  0.5771
  823MPD2     C12104   4.243   2.736  16.974  0.2308 -0.6141  0.2587
  823MPD2    C112105   4.279   2.664  16.863  0.4895 -0.0139  0.4110
  823MPD2    C212106   4.356   2.550  16.869 -0.7909 -0.1499  0.0107
  823MPD2    C312107   4.387   2.501  16.994 -0.0221 -0.5323 -0.3516
  823MPD2    C412108   4.352   2.575  17.108 -0.4129 -0.3455  0.1212
  823MPD2    C512109   4.287   2.698  17.100 -0.0766 -0.0775 -0.0010
  823MPD2     H12110   4.387   2.497  16.780 -0.2156  0.1680  0.0233
  823MPD2    H112111   4.377   2.524  17.201  0.2151  0.3453  0.3315
  823MPD2    H212112   4.181   2.824  16.958 -3.7732 -3.5520 -0.3908
  823MPD2    H312113   4.258   2.746  17.193 -1.4689 -1.2339  0.1542
  823MPD2     N12114   4.449   2.377  17.012 -0.3465  0.0923  0.0637
  823MPD2    H512115   4.462   2.359  17.111  0.8900  0.1291 -0.0982
  823MPD2    N112116   4.251   2.732  16.744 -0.3131  0.1415  0.1807
  823MPD2    H712117   4.214   2.827  16.742  1.5997  0.8854  0.8361
  824MPD2     C12118   4.674   1.386  15.870  0.1692  0.3592  0.0757
  824MPD2    C112119   0.046   1.481  15.841 -0.1798 -0.6352 -0.4128
  824MPD2    C212120   0.155   1.443  15.762 -0.3713  0.3594 -0.3137
  824MPD2    C312121   0.166   1.312  15.716  0.2844  0.2678  0.0447
  824MPD2    C412122   0.060   1.223  15.723  0.0404 -0.0439  0.5561
  824MPD2    C512123   4.671   1.270  15.799  0.0298 -0.1770  0.2567
  824MPD2     H12124   0.240   1.509  15.749 -0.2187 -0.0409 -1.3683
  824MPD2    H112125   0.053   1.119  15.693 -0.9476 -0.0785  0.9057
  824MPD2    H212126   4.582   1.413  15.921 -0.4541 -1.8476  0.0820
  824MPD2    H312127   4.586   1.203  15.810 -1.4559  1.5197 -0.8726
  824MPD2     N12128   0.290   1.273  15.659 -0.1963 -0.0418  0.2855
  824MPD2    H512129   0.362   1.345  15.659 -0.4953  0.2533 -1.0203
  824MPD2    N112130   0.041   1.613  15.886 -0.2259  0.1856 -0.0610
  824MPD2    H712131   0.107   1.682  15.853 -1.8242  2.7213  2.0075
  825MPD2     C12132   1.071   1.321  15.286 -0.9022 -0.1406  0.1181
  825MPD2    C112133   0.953   1.369  15.332 -0.3754  0.2267  0.2392
  825MPD2    C212134   0.930   1.506  15.332 -0.3614  0.1842 -0.2163
  825MPD2    C312135   1.014   1.599  15.264 -0.4130  0.2224  0.7741
  825MPD2    C412136   1.123   1.543  15.203 -0.4674 -0.0606  0.2008
  825MPD2    C512137   1.155   1.407  15.220 -0.4815 -0.0499 -0.1220
  825MPD2     H12138   0.840   1.545  15.378 -1.4149 -1.8313 -0.6000
  825MPD2    H112139   1.182   1.608  15.140 -2.4717  2.1312  0.5973
  825MPD2    H212140   1.091   1.215  15.277 -0.2597 -0.1831  2.1480
  825MPD2    H312141   1.240   1.370  15.165 -0.3796 -0.9043  0.6067
  825MPD2     N12142   0.993   1.735  15.256 -0.5383 -0.1348  0.1023
  825MPD2    H512143   1.066   1.789  15.210  1.2059 -1.0223  1.8167
  825MPD2    N112144   0.863   1.272  15.379 -0.1266 -0.1174  0.3794
  825MPD2    H712145   0.894   1.175  15.381  1.2818  0.2920 -1.4742
  826MPD2     C12146   1.477   1.371  13.798 -0.0709 -0.4743 -0.2430
  826MPD2    C112147   1.405   1.301  13.707  0.9471  0.7261 -0.5301
  826MPD2    C212148   1.284   1.355  13.657  0.4156 -0.0851  0.3888
  826MPD2    C312149   1.238   1.474  13.702  0.3806  0.6797  0.2399
  826MPD2    C412150   1.317   1.555  13.771  0.4938  0.2917  0.2704
  826MPD2    C512151   1.428   1.494  13.826  0.1300 -0.3675  0.3350
  826MPD2     H12152   1.228   1.289  13.592  1.0486  0.1496 -0.3832
  826MPD2    H112153   1.281   1.646  13.818 -1.1315 -1.2114  1.9589
  826MPD2    H212154   1.568   1.331  13.842  0.3084 -1.8185 -2.2895
  826MPD2    H312155   1.481   1.556  13.898 -0.5669 -0.5883  1.0313
  826MPD2     N12156   1.108   1.523  13.678 -0.0163  0.0868  0.0410
  826MPD2    H512157   1.078   1.614  13.712  0.6745  0.6173 -0.7650
  826MPD2    N112158   1.461   1.173  13.683 -0.3514  0.0119 -0.0506
  826MPD2    H712159   1.537   1.141  13.741  0.3399 -0.9571 -1.4817
  827MPD2     C12160   1.666   3.051  10.183 -0.8552 -0.3304 -0.2290
  827MPD2    C112161   1.617   2.962  10.277 -0.1123  1.3447  0.1635
  827MPD2    C212162   1.494   2.906  10.255 -0.2236 -0.1404  0.0497
  827MPD2    C312163   1.432   2.932  10.129 -0.3008  0.6484 -0.2075
  827MPD2    C412164   1.484   3.024  10.038  0.0610  1.0880  0.4456
  827MPD2    C512165   1.605   3.083  10.065 -0.6386  0.3068 -0.6458
  827MPD2     H12166   1.444   2.842  10.326  1.1900 -1.0147  0.2608
  827MPD2    H112167   1.422   3.050   9.952 -0.9710  0.2946  0.9428
  827MPD2    H212168   1.768   3.081  10.200 -1.3917  1.0346  0.5615
  827MPD2    H312169   1.656   3.159  10.007 -0.0749  0.6296  0.2614
  827MPD2     N12170   1.321   2.852  10.103 -0.0569  0.0121 -0.2689
  827MPD2    H512171   1.295   2.789  10.178  2.0149 -2.1950 -1.3848
  827MPD2    N112172   1.693   2.932  10.397  0.2791  0.1755 -0.4670
  827MPD2    H712173   1.775   2.990  10.410 -0.0016 -0.0174  2.0524
  828MPD2     C12174   4.590   2.637  12.795  0.1877 -0.4911  0.0964
  828MPD2    C112175   4.590   2.673  12.663 -0.4750  0.0570  0.0742
  828MPD2    C212176   4.705   2.670  12.597 -1.2203  0.0443  0.0021
  828MPD2    C312177   0.101   2.626  12.653 -0.7760  0.2679  0.3677
  828MPD2    C412178   0.099   2.599  12.789 -0.0385  0.5587 -0.6343
  828MPD2    C512179   4.704   2.606  12.854 -0.2174 -0.8881  0.1363
  828MPD2     H12180   4.701   2.709  12.496  2.3887 -0.1683 -0.2246
  828MPD2    H112181   0.188   2.570  12.845  1.3382  0.6604 -2.7778
  828MPD2    H212182   4.501   2.638  12.856 -0.7935 -1.5621 -1.3327
  828MPD2    H312183   4.706   2.577  12.959  2.8014 -0.3176  0.2385
  828MPD2     N12184   0.215   2.592  12.574 -0.1538 -0.3070  0.0437
  828MPD2    H512185   0.297   2.562  12.626  0.8103  1.0675 -0.6767
  828MPD2    N112186   4.475   2.720  12.589  0.3230 -0.0407  0.2233
  828MPD2    H712187   4.490   2.735  12.490  1.9427 -0.1805  0.4470
  829MPD2     C12188   4.613   3.223  11.942 -0.0679 -0.0202 -0.8108
  829MPD2    C112189   4.492   3.166  11.904  0.2727  0.6368  0.5208
  829MPD2    C212190   4.412   3.110  12.012  0.1221  0.0205 -0.1733
  829MPD2    C312191   4.454   3.104  12.141  0.1101  0.3438 -0.4304
  829MPD2    C412192   4.567   3.167  12.180  1.2046  0.2335 -0.1642
  829MPD2    C512193   4.645   3.226  12.076 -0.4228  0.3707 -0.3548
  829MPD2     H12194   4.316   3.068  11.987  0.3493 -0.7095  0.1718
  829MPD2    H112195   4.604   3.165  12.282  1.9813 -0.7266 -0.4635
  829MPD2    H212196   4.675   3.264  11.863  1.6317  2.2179  1.7261
  829MPD2    H312197   0.019   3.264  12.113  0.5738 -1.2992 -1.2094
  829MPD2     N12198   4.383   3.052  12.252  0.2236  0.9185 -0.0009
  829MPD2    H512199   4.429   3.061  12.343  0.0662 -2.1236  0.3701
  829MPD2    N112200   4.452   3.166  11.770  0.3107 -0.0095 -0.1002
  829MPD2    H712201   4.529   3.184  11.706 -0.0392  1.2481 -0.1801
  830MPD2     C12202   0.023   0.644  15.781 -0.2504  0.3722  0.0623
  830MPD2    C112203   4.651   0.715  15.700 -0.6158 -0.3068  0.9156
  830MPD2    C212204   4.686   0.750  15.570  0.2752 -0.2175 -0.4408
  830MPD2    C312205   0.093   0.726  15.521 -0.1385  0.7533  0.8855
  830MPD2    C412206   0.182   0.660  15.599  0.0824  0.2350  0.1787
  830MPD2    C512207   0.142   0.614  15.720 -0.7782 -0.5351 -0.2096
  830MPD2     H12208   4.615   0.809  15.512 -0.5863  1.9233  2.7879
  830MPD2    H112209   0.282   0.634  15.567  0.3643 -0.2169  1.4376
  830MPD2    H212210   0.004   0.614  15.884  0.6144  2.3817  0.8161
  830MPD2    H312211   0.211   0.559  15.784 -1.5328 -1.5955 -0.3120
  830MPD2     N12212   0.138   0.773  15.394 -0.5170 -0.1862  0.1723
  830MPD2    H512213   0.236   0.765  15.368  0.1123  0.1971  2.4030
  830MPD2    N112214   4.534   0.739  15.769  0.0224 -0.2564 -0.2083
  830MPD2    H712215   4.537   0.732  15.870 -1.8816 -0.2190 -0.1557
  831MPD2     C12216   4.670   2.682  16.374 -0.2922  0.2186 -0.1444
  831MPD2    C112217   4.658   2.571  16.283 -0.3055 -0.2188 -0.5102
  831MPD2    C212218   4.592   2.461  16.330  0.0320  0.8438 -0.4897
  831MPD2    C312219   4.539   2.452  16.459  0.2719  0.2435 -0.4778
  831MPD2    C412220   4.554   2.557  16.540 -0.2678  0.0568  0.4476
  831MPD2    C512221   4.630   2.669  16.502  0.0408  0.7055 -0.0885
  831MPD2     H12222   4.577   2.380  16.259  2.7389 -0.4580  0.4367
  831MPD2    H112223   4.523   2.547  16.643 -0.6275 -0.3679  0.2984
  831MPD2    H212224   0.004   2.769  16.339  0.0184  0.2716  0.4802
  831MPD2    H312225   4.656   2.740  16.579  0.8849 -0.4883  0.7340
  831MPD2     N12226   4.452   2.344  16.493  0.0415 -0.1845  0.3241
  831MPD2    H512227   4.399   2.356  16.578 -0.2879  0.9441 -0.0473
  831MPD2    N112228   4.706   2.585  16.149  0.2788  0.1825 -0.1289
  831MPD2    H712229   4.720   2.677  16.110 -0.8603  0.8659  1.1035
  832MPD2     C12230   3.502   3.170  17.442 -1.2174  0.4587 -0.0533
  832MPD2    C112231   3.476   3.299  17.482  0.2256  0.0125  0.3219
  832MPD2    C212232   3.366   3.357  17.424 -0.3632  0.1300  0.0761
  832MPD2    C312233   3.289   3.294  17.335 -0.2697  0.0588 -0.2213
  832MPD2    C412234   3.320   3.173  17.291 -0.6862  0.6415  0.3172
  832MPD2    C512235   3.432   3.112  17.344  0.0820  0.6490 -0.1042
  832MPD2     H12236   3.338   3.454  17.464  2.2621  0.5424  0.9043
  832MPD2    H112237   3.253   3.117  17.227 -1.1802  1.2055  0.3445
  832MPD2    H212238   3.594   3.125  17.476 -2.4327 -1.6662  0.3990
  832MPD2    H312239   3.475   3.029  17.290 -0.7868  1.5878 -2.2508
  832MPD2     N12240   3.167   3.347  17.287  0.4489  0.4365 -0.2848
  832MPD2    H512241   3.128   3.288  17.214 -1.5813 -0.4728  1.5018
  832MPD2    N112242   3.549   3.349  17.597  0.1674 -0.2013  0.1365
  832MPD2    H712243   3.627   3.295  17.634 -0.1254 -0.8055 -0.1225
  833MPD2     C12244   0.522   0.490  12.724  0.8612 -0.1480  0.1141
  833MPD2    C112245   0.562   0.605  12.663  0.1993 -0.1426 -0.5538
  833MPD2    C212246   0.660   0.600  12.565  0.3621  0.2782  0.7463
  833MPD2    C312247   0.725   0.482  12.544  0.5459  0.1061 -0.3102
  833MPD2    C412248   0.684   0.368  12.600  0.1441  0.3776  0.2350
  833MPD2    C512249   0.584   0.372  12.696  0.4977 -0.4826 -0.2074
  833MPD2     H12250   0.686   0.693  12.516  0.3571  1.3111  2.7033
  833MPD2    H112251   0.739   0.275  12.595 -0.7545 -0.1218 -0.2431
  833MPD2    H212252   0.441   0.500  12.794  1.4215 -2.1031  1.0491
  833MPD2    H312253   0.546   0.279  12.736  1.1460 -0.2517  0.9391
  833MPD2     N12254   0.848   0.467  12.470  0.1847  0.0388 -0.0711
  833MPD2    H512255   0.879   0.373  12.452  0.1086 -0.0154  0.0861
  833MPD2    N112256   0.471   0.710  12.682 -0.0685  0.0388  1.2225
  833MPD2    H712257   0.386   0.702  12.737 -1.5068 -1.6469 -1.2511
  834MPD2     C12258   0.781   4.455  11.982  0.1875 -0.0578 -0.2238
  834MPD2    C112259   0.794   4.543  11.876  0.3217 -0.9868  0.2023
  834MPD2    C212260   0.828   4.672  11.904  0.1518 -0.2122 -0.0753
  834MPD2    C312261   0.830   0.004  12.034 -0.0342  0.4099  0.8277
  834MPD2    C412262   0.809   4.635  12.140  0.1516  0.4797  0.3313
  834MPD2    C512263   0.793   4.500  12.107  0.4167  0.4689 -0.0060
  834MPD2     H12264   0.843   0.025  11.826  1.0792 -0.9906 -0.6342
  834MPD2    H112265   0.822   4.658  12.245 -2.6962  1.1633  0.5296
  834MPD2    H212266   0.762   4.349  11.970 -0.0488 -0.0572  0.1545
  834MPD2    H312267   0.782   4.422  12.182 -1.9633 -0.2302 -1.0868
  834MPD2     N12268   0.868   0.142  12.056 -0.2370  0.7751  0.1060
  834MPD2    H512269   0.901   0.190  11.973  1.6342 -0.8319 -0.0793
  834MPD2    N112270   0.767   4.494  11.743 -0.2325 -0.6657  0.7632
  834MPD2    H712271   0.762   4.394  11.723  1.0987 -0.4162 -0.7734
  835MPD2     C12272   0.772   2.787  10.920  0.7106  0.7580  0.0207
  835MPD2    C112273   0.681   2.837  11.014  0.0735 -1.1115 -0.1478
  835MPD2    C212274   0.713   2.825  11.147  0.1780 -0.1095  0.4794
  835MPD2    C312275   0.845   2.801  11.188 -0.2039  0.0178  0.0373
  835MPD2    C412276   0.932   2.755  11.092 -0.1372  0.9674 -0.0213
  835MPD2    C512277   0.897   2.754  10.960 -0.5298  0.3136 -0.3870
  835MPD2     H12278   0.630   2.852  11.212 -0.8833 -1.1502 -0.4370
  835MPD2    H112279   1.028   2.721  11.128 -1.1173 -1.1419  0.5559
  835MPD2    H212280   0.757   2.789  10.813 -0.1878  0.1510  0.1372
  835MPD2    H312281   0.971   2.717  10.891  1.3875  0.6645  1.4804
  835MPD2     N12282   0.870   2.791  11.323 -0.2768  0.3248 -0.0061
  835MPD2    H512283   0.969   2.790  11.345  0.1644 -3.3515 -2.2432
  835MPD2    N112284   0.554   2.886  10.982 -0.2976  0.1190  0.2647
  835MPD2    H712285   0.508   2.931  11.060 -0.4488 -1.7088  1.2170
  836MPD2     C12286   0.311   2.876  11.759  0.5433  0.9186  0.3469
  836MPD2    C112287   0.411   2.847  11.849  0.2685 -0.3395  0.1018
  836MPD2    C212288   0.386   2.884  11.979  0.5496  0.0550 -0.5059
  836MPD2    C312289   0.264   2.931  12.022  0.3457  0.4340 -0.0957
  836MPD2    C412290   0.155   2.939  11.933  0.5929  0.1349 -0.7964
  836MPD2    C512291   0.190   2.928  11.802 -0.0947  0.6751 -0.4374
  836MPD2     H12292   0.459   2.854  12.054  1.2022  1.1960 -0.6884
  836MPD2    H112293   0.057   2.975  11.963  0.0876 -2.0885  0.1525
  836MPD2    H212294   0.312   2.844  11.656  0.5716 -0.7260  0.8616
  836MPD2    H312295   0.111   2.926  11.728  1.0667  1.3392 -1.7012
  836MPD2     N12296   0.235   2.970  12.157 -0.8734 -0.2641  0.2005
  836MPD2    H512297   0.140   2.981  12.191 -1.2892 -1.7673 -0.4619
  836MPD2    N112298   0.533   2.799  11.793 -0.1072 -0.2144  0.1726
  836MPD2    H712299   0.532   2.789  11.692 -2.1460 -2.5404  0.4097
  837MPD2     C12300   3.590   2.572  10.410 -0.0838  0.0211 -0.0522
  837MPD2    C112301   3.505   2.585  10.309 -0.3055 -0.0554 -0.0577
  837MPD2    C212302   3.502   2.705  10.237  0.6310 -0.0900  0.0102
  837MPD2    C312303   3.597   2.803  10.265 -0.2440  0.0822 -0.3490
  837MPD2    C412304   3.693   2.783  10.362  0.2417 -0.0003  0.1941
  837MPD2    C512305   3.690   2.667  10.435 -0.6597 -0.2975 -0.0871
  837MPD2     H12306   3.427   2.716  10.160  2.5368 -1.3258 -1.9898
  837MPD2    H112307   3.782   2.845  10.364  0.0346  0.3092 -0.1843
  837MPD2    H212308   3.600   2.484  10.472 -0.9696 -0.5300 -0.6873
  837MPD2    H312309   3.775   2.635  10.495 -1.2009 -3.1501 -0.8297
  837MPD2     N12310   3.603   2.900  10.165  0.2660  0.7746 -0.4359
  837MPD2    H512311   3.535   2.901  10.090  1.1240  1.7215 -1.2129
  837MPD2    N112312   3.428   2.481  10.264  0.7464 -0.1011  0.1413
  837MPD2    H712313   3.360   2.509  10.194  3.0049  1.3426 -1.4440
  838MPD2     C12314   1.799   0.446  11.143  0.7854 -0.5898  0.1932
  838MPD2    C112315   1.853   0.538  11.231 -1.0343 -0.0682  1.0465
  838MPD2    C212316   1.782   0.573  11.343  0.5217  0.2433 -0.1992
  838MPD2    C312317   1.660   0.515  11.378  1.1148  0.2471  0.3501
  838MPD2    C412318   1.610   0.422  11.293 -0.7333 -0.7158  0.3580
  838MPD2    C512319   1.677   0.384  11.175  0.3282 -0.4638  0.4307
  838MPD2     H12320   1.829   0.644  11.409 -1.1344  1.4995 -0.3736
  838MPD2    H112321   1.513   0.380  11.314 -2.2045  1.3549 -2.3482
  838MPD2    H212322   1.845   0.392  11.062  2.5937  0.2972  0.6378
  838MPD2    H312323   1.642   0.295  11.123  2.4051 -0.9459 -0.1351
  838MPD2     N12324   1.598   0.564  11.492 -0.4120  0.2412 -0.3942
  838MPD2    H512325   1.649   0.643  11.531  1.3781 -1.4315  0.5888
  838MPD2    N112326   1.982   0.593  11.213 -0.3855  0.6813 -0.6041
  838MPD2    H712327   2.013   0.656  11.287 -2.6418 -1.4365  2.1302
  839MPD2     C12328   1.852   0.415  11.754  0.1597 -0.4136 -0.3280
  839MPD2    C112329   1.889   0.349  11.633 -0.6139  0.0646 -0.0925
  839MPD2    C212330   2.007   0.392  11.567 -0.5087  0.3464  0.3323
  839MPD2    C312331   2.089   0.487  11.612 -0.1948  0.4247 -0.0734
  839MPD2    C412332   2.060   0.540  11.733 -0.3197  0.0041 -0.3006
  839MPD2    C512333   1.935   0.518  11.794  0.3305  0.0713 -0.1565
  839MPD2     H12334   2.033   0.345  11.473 -0.9251 -0.5186  0.6559
  839MPD2    H112335   2.116   0.616  11.786  0.7548 -0.9410 -0.0742
  839MPD2    H212336   1.758   0.397  11.806 -0.0396  0.0519 -0.5269
  839MPD2    H312337   1.921   0.578  11.883  1.4429  1.1575 -0.7123
  839MPD2     N12338   2.203   0.526  11.554  0.0842  0.0367  0.4018
  839MPD2    H512339   2.238   0.614  11.591  0.1862 -0.5752  1.7588
  839MPD2    N112340   1.810   0.249  11.568 -0.6201 -0.0970 -0.6686
  839MPD2    H712341   1.833   0.223  11.473  1.1240  0.5092 -0.4068
  840MPD2     C12342   2.181   3.233  10.644 -0.1836  0.8735 -0.5034
  840MPD2    C112343   2.105   3.188  10.751 -0.1477 -0.0179  0.1756
  840MPD2    C212344   2.105   3.264  10.867  0.2182 -0.1731 -0.9894
  840MPD2    C312345   2.193   3.374  10.889  0.5165 -0.1030  0.5322
  840MPD2    C412346   2.271   3.410  10.786  0.1614  0.4469 -0.5016
  840MPD2    C512347   2.249   3.348  10.664 -0.5028 -0.2578 -0.2322
  840MPD2     H12348   2.043   3.236  10.951  1.3024 -2.3870 -0.9045
  840MPD2    H112349   2.339   3.493  10.793 -1.6132  1.8915 -0.4794
  840MPD2    H212350   2.189   3.191  10.545  2.4629  0.7400 -0.2304
  840MPD2    H312351   2.317   3.381  10.587  1.5895  1.2923  2.2620
  840MPD2     N12352   2.208   3.443  11.010  0.4007 -0.2862  0.0253
  840MPD2    H512353   2.285   3.509  11.012 -0.2016  0.4420 -1.1636
  840MPD2    N112354   2.023   3.071  10.732 -0.0976 -0.1825  0.0381
  840MPD2    H712355   2.035   3.022  10.644  0.1074  0.0834 -0.0819
  841MPD2     C12356   2.087   2.275  14.745 -0.8179 -0.0921 -0.4583
  841MPD2    C112357   2.177   2.233  14.834  0.2859  0.2869 -1.0313
  841MPD2    C212358   2.241   2.327  14.915  0.8431 -0.0230 -0.2738
  841MPD2    C312359   2.205   2.463  14.912 -0.4785  0.5500 -0.2842
  841MPD2    C412360   2.101   2.500  14.825  0.6052 -0.2868  0.0630
  841MPD2    C512361   2.044   2.404  14.745 -0.8861  0.0399  0.3201
  841MPD2     H12362   2.319   2.296  14.984  0.8292  0.5797  0.0030
  841MPD2    H112363   2.066   2.602  14.829 -1.7289 -1.1489  1.3708
  841MPD2    H212364   2.037   2.204  14.680 -2.4514  0.7868 -0.1403
  841MPD2    H312365   1.956   2.433  14.688  0.8983  0.3193 -2.2867
  841MPD2     N12366   2.263   2.555  15.002  0.3316 -0.0358 -0.0997
  841MPD2    H512367   2.321   2.516  15.076 -1.7003 -2.1852  0.4014
  841MPD2    N112368   2.211   2.095  14.825 -0.0715  0.2612  0.1495
  841MPD2    H712369   2.159   2.037  14.760  0.9171  1.6119 -1.8379
  842MPD2     C12370   2.236   3.584  16.703  0.4702  0.3490  0.4190
  842MPD2    C112371   2.121   3.582  16.767 -0.2359  0.7898 -0.2097
  842MPD2    C212372   2.117   3.567  16.904  0.1549  0.5176  0.5173
  842MPD2    C312373   2.232   3.567  16.981  0.5161 -0.1940  0.0446
  842MPD2    C412374   2.352   3.574  16.908  0.5345 -0.6907 -0.4145
  842MPD2    C512375   2.355   3.588  16.773  0.0551  0.3587  0.1942
  842MPD2     H12376   2.018   3.586  16.945 -0.9686 -2.6587 -0.7265
  842MPD2    H112377   2.445   3.582  16.963 -0.3292  1.9404  0.6793
  842MPD2    H212378   2.235   3.597  16.595 -0.4124 -1.7797  0.1880
  842MPD2    H312379   2.446   3.600  16.717 -0.0358  1.3957  0.2590
  842MPD2     N12380   2.244   3.565  17.122 -0.1720 -0.1306  0.0107
  842MPD2    H512381   2.334   3.558  17.168 -1.0082  2.5735  2.0657
  842MPD2    N112382   2.011   3.610  16.682  0.3498  0.0577  0.0542
  842MPD2    H712383   2.026   3.643  16.588 -0.2768  0.8992  0.2516
  843MPD2     C12384   4.296   4.292   0.226 -0.4793  0.7421 -0.1422
  843MPD2    C112385   4.399   4.259   0.309  0.0388 -0.1139 -0.0337
  843MPD2    C212386   4.498   4.355   0.324  0.5606  0.4020  0.1130
  843MPD2    C312387   4.494   4.483   0.259  0.2213  0.6033 -0.1817
  843MPD2    C412388   4.377   4.511   0.190  0.1681 -0.2568 -0.1640
  843MPD2    C512389   4.282   4.419   0.173 -0.8434  0.8076  0.2502
  843MPD2     H12390   4.580   4.333   0.391 -0.6688 -0.3133  1.3895
  843MPD2    H112391   4.378   4.605   0.135  0.0138 -0.7600 -1.0166
  843MPD2    H212392   4.223   4.215   0.202  0.9700 -0.7044  0.1199
  843MPD2    H312393   4.194   4.444   0.114 -1.1395  1.4443  0.9606
  843MPD2     N12394   4.590   4.581   0.283  0.5104  0.0592 -0.4594
  843MPD2    H512395   4.557   4.673   0.257  0.6375  0.4802  0.8695
  843MPD2    N112396   4.404   4.132   0.367 -0.1086 -0.4379  0.6827
  843MPD2    H712397   4.325   4.071   0.348  0.3212 -0.6988 -0.2505
  844MPD2     C12398   3.118   3.682  16.972  0.0618  0.2186  0.1227
  844MPD2    C112399   3.181   3.574  16.918  0.1219 -1.1693 -0.6238
  844MPD2    C212400   3.293   3.527  16.987 -0.1494 -0.0449 -0.2915
  844MPD2    C312401   3.335   3.589  17.104 -0.1513 -0.0712 -0.6531
  844MPD2    C412402   3.256   3.688  17.165 -0.2134 -0.1292 -0.2432
  844MPD2    C512403   3.155   3.737  17.094 -0.4581  0.2569 -0.3076
  844MPD2     H12404   3.357   3.455  16.937  0.9286  1.4341 -1.0271
  844MPD2    H112405   3.272   3.745  17.256  2.5669  0.8429 -1.3506
  844MPD2    H212406   3.032   3.718  16.915 -1.9837  0.5457  3.4366
  844MPD2    H312407   3.094   3.823  17.119 -0.9138  0.6408 -2.7655
  844MPD2     N12408   3.465   3.567  17.148 -0.3581 -0.4682  0.2597
  844MPD2    H512409   3.525   3.491  17.117  0.9538  0.1375  1.3482
  844MPD2    N112410   3.140   3.526  16.795 -0.8228 -0.6165 -0.4413
  844MPD2    H712411   3.060   3.573  16.753 -0.9251 -0.9177 -0.5873
  845MPD2     C12412   3.901   4.290  17.587  0.4769 -0.7598  0.2272
  845MPD2    C112413   3.813   4.265  17.479  0.9962 -0.2507 -0.6984
  845MPD2    C212414   3.800   4.141  17.433  0.7644  0.2817  0.1280
  845MPD2    C312415   3.881   4.035  17.466 -0.4469  0.6221  0.1445
  845MPD2    C412416   3.984   4.067  17.561 -0.3813  0.2578 -0.1588
  845MPD2    C512417   3.987   4.183  17.626 -0.0280 -0.5006 -0.1192
  845MPD2     H12418   3.717   4.118  17.367  0.0989  3.7082 -0.2139
  845MPD2    H112419   4.045   3.988  17.603 -1.8215  0.7473  2.8565
  845MPD2    H212420   3.891   4.382  17.643 -0.8396 -2.2296  2.4004
  845MPD2    H312421   4.057   4.200   0.021 -0.4132  0.4075  0.0121
  845MPD2     N12422   3.854   3.904  17.422  0.6378  0.2532 -0.2040
  845MPD2    H512423   3.786   3.896  17.347 -0.4425  1.2875  0.6706
  845MPD2    N112424   3.721   4.364  17.442 -0.1843  0.1487  0.2681
  845MPD2    H712425   3.728   4.454  17.488  2.4422 -0.2832  0.6945
  846MPD2     C12426   4.644   4.487  13.862 -0.1941 -0.0976 -0.0382
  846MPD2    C112427   4.586   4.612  13.866  0.0300 -0.4627  0.2442
  846MPD2    C212428   4.535   4.649  13.990 -0.3344  0.1630 -0.2067
  846MPD2    C312429   4.533   4.564  14.101 -0.1564 -0.9036 -0.1245
  846MPD2    C412430   4.606   4.447  14.097 -0.4609 -0.7092 -0.1255
  846MPD2    C512431   4.653   4.409  13.976  0.3388  0.3004 -0.2110
  846MPD2     H12432   4.488   0.026  13.999 -0.0348  0.0486  2.5697
  846MPD2    H112433   4.612   4.381  14.183  3.0721 -0.0338  0.1459
  846MPD2    H212434   4.691   4.447  13.772 -0.5368 -1.3694  0.3529
  846MPD2    H312435   4.695   4.310  13.963  0.2164 -0.3493  4.3751
  846MPD2     N12436   4.470   4.617  14.219  0.1677 -0.4165 -0.5160
  846MPD2    H512437   4.398   4.688  14.212 -0.1893 -0.5854  1.6451
  846MPD2    N112438   4.577   4.705  13.758 -0.1477  0.3779  0.0555
  846MPD2    H712439   4.527   0.070  13.772 -0.5882  0.0728  0.3633
  847MPD2     C12440   0.105   0.685  14.178  0.3397 -0.3021 -0.1159
  847MPD2    C112441   0.200   0.758  14.247  0.9047 -0.8012 -0.0169
  847MPD2    C212442   0.274   0.697  14.356 -0.0298  0.1301 -0.1242
  847MPD2    C312443   0.245   0.566  14.395  0.2679 -0.1107 -0.0455
  847MPD2    C412444   0.146   0.500  14.332  0.7048  0.2575 -1.0339
  847MPD2    C512445   0.081   0.555  14.225 -0.5061  0.5384  0.3869
  847MPD2     H12446   0.347   0.752  14.415  1.4153 -1.7880 -0.1270
  847MPD2    H112447   0.113   0.401  14.364 -0.5567  1.3756  1.0707
  847MPD2    H212448   0.051   0.723  14.092 -0.0924  1.0630  0.7596
  847MPD2    H312449   0.015   0.491  14.167  0.4073  0.4468 -0.5375
  847MPD2     N12450   0.305   0.518  14.509  0.0176 -0.0093  0.1423
  847MPD2    H512451   0.369   0.581  14.556  0.4109 -0.2958 -0.0178
  847MPD2    N112452   0.232   0.889  14.209 -0.2105  0.7316 -0.0439
  847MPD2    H712453   0.297   0.940  14.268  3.9883 -2.4750 -1.8818
  848MPD2     C12454   2.709   3.564  16.696  0.1495  0.1770  0.5452
  848MPD2    C112455   2.724   3.650  16.805  0.5450 -0.0433  0.1347
  848MPD2    C212456   2.688   3.783  16.790 -0.0684  0.2972 -0.3508
  848MPD2    C312457   2.655   3.838  16.670  0.1409  0.1448 -0.1453
  848MPD2    C412458   2.635   3.754  16.561 -0.2383  0.2387 -0.0358
  848MPD2    C512459   2.665   3.623  16.578  0.1389 -0.4150 -0.1170
  848MPD2     H12460   2.695   3.842  16.880  1.1046 -1.2334  0.5655
  848MPD2    H112461   2.624   3.787  16.458  1.6993  2.0310  0.3436
  848MPD2    H212462   2.742   3.461  16.690 -0.3979  0.0220  0.1754
  848MPD2    H312463   2.662   3.560  16.490 -0.5036  0.3581 -0.6501
  848MPD2     N12464   2.629   3.978  16.656  0.4110  0.0185  0.0591
  848MPD2    H512465   2.609   4.004  16.560  0.0673  1.6297  0.5629
  848MPD2    N112466   2.757   3.604  16.932 -0.5239 -0.3459 -0.6426
  848MPD2    H712467   2.741   3.662  17.014  0.2570 -0.2347 -0.5699
  849MPD2     C12468   1.608   3.634  14.268  0.3287 -0.1757  0.0468
  849MPD2    C112469   1.740   3.628  14.230 -0.0454  0.1545  0.0701
  849MPD2    C212470   1.832   3.549  14.301 -0.1355 -0.9244  0.6608
  849MPD2    C312471   1.797   3.506  14.424 -0.8319 -0.2264  0.0940
  849MPD2    C412472   1.665   3.519  14.466  1.0093  0.5426  0.1976
  849MPD2    C512473   1.575   3.580  14.391 -0.2961 -0.2961  0.6238
  849MPD2     H12474   1.937   3.553  14.274  0.0211 -0.1858  1.3767
  849MPD2    H112475   1.617   3.479  14.554  1.3868  2.6060  1.3313
  849MPD2    H212476   1.532   3.669  14.199  0.2958 -0.1380  0.1024
  849MPD2    H312477   1.469   3.584  14.413 -0.7777 -2.6179 -1.2295
  849MPD2     N12478   1.890   3.433  14.490  0.4158  0.0403  0.4680
  849MPD2    H512479   1.973   3.407  14.437 -0.5748  0.6886 -1.3696
  849MPD2    N112480   1.780   3.701  14.113 -0.0731  0.1153  0.5862
  849MPD2    H712481   1.705   3.745  14.061  0.8321 -1.1049 -1.7513
  850MPD2     C12482   4.303   1.774  14.675  0.5589  0.2050 -0.0472
  850MPD2    C112483   4.329   1.859  14.780  0.0858  0.2032  0.1184
  850MPD2    C212484   4.464   1.881  14.820 -0.3863 -0.0436 -0.2157
  850MPD2    C312485   4.564   1.807  14.750 -0.3506 -0.3734  0.8341
  850MPD2    C412486   4.535   1.720  14.645 -0.2663 -0.2760 -0.1974
  850MPD2    C512487   4.406   1.706  14.610  0.4697 -0.2626  0.3149
  850MPD2     H12488   4.488   1.953  14.897  1.8323 -1.6926  0.6427
  850MPD2    H112489   4.602   1.663  14.582 -1.1146 -0.4342 -0.9477
  850MPD2    H212490   4.203   1.758  14.636 -0.5711  0.9038  2.5124
  850MPD2    H312491   4.392   1.644  14.522  0.3698  0.8024 -0.4213
  850MPD2     N12492   4.694   1.824  14.801 -0.4875  0.4520  0.1407
  850MPD2    H512493   0.043   1.772  14.749 -0.7643  1.3171 -1.0937
  850MPD2    N112494   4.224   1.925  14.829 -0.9030  0.2842  0.1034
  850MPD2    H712495   4.152   1.939  14.759 -2.0666  1.7301  1.5730
  851MPD2     C12496   0.142   1.717  15.356  0.6749  0.4372  0.1305
  851MPD2    C112497   0.038   1.671  15.278 -0.2156  0.3533  0.4079
  851MPD2    C212498   0.047   1.541  15.227  0.0480  0.2149  0.2062
  851MPD2    C312499   0.156   1.461  15.248 -0.9192 -0.3503 -0.2569
  851MPD2    C412500   0.261   1.512  15.323  0.2018 -0.0731  0.0325
  851MPD2    C512501   0.253   1.636  15.376 -0.3239 -0.2970  0.6312
  851MPD2     H12502   4.685   1.501  15.169  2.1492 -1.0691 -1.8942
  851MPD2    H112503   0.355   1.459  15.334  0.6821  0.2852 -2.2604
  851MPD2    H212504   0.144   1.811  15.410  0.3108  0.7405 -0.3756
  851MPD2    H312505   0.343   1.680  15.419  0.8844  0.1166 -2.3665
  851MPD2     N12506   0.165   1.335  15.178  0.8936 -0.2236 -0.6415
  851MPD2    H512507   0.086   1.311  15.119  0.0021  1.1591 -0.0145
  851MPD2    N112508   4.639   1.747  15.273  0.0938 -0.0879 -0.1028
  851MPD2    H712509   4.632   1.826  15.336  1.2480 -0.4549  0.5067
  852MPD2     C12510   4.293   4.227   9.993 -0.0404 -0.4626 -0.0923
  852MPD2    C112511   4.343   4.162  10.105  0.6013  0.2673  0.0147
  852MPD2    C212512   4.368   4.234  10.220  0.0618 -0.6489 -0.0993
  852MPD2    C312513   4.328   4.360  10.228 -0.8317 -0.1157  0.7719
  852MPD2    C412514   4.266   4.428  10.122  0.4526 -0.2147 -0.1285
  852MPD2    C512515   4.248   4.357  10.001  0.0692  0.2546 -0.4840
  852MPD2     H12516   4.401   4.187  10.312 -0.9534 -1.2759 -0.0563
  852MPD2    H112517   4.231   4.530  10.134  2.9475  0.4560  1.2343
  852MPD2    H212518   4.282   4.173   9.900 -0.1569 -1.0123  0.2396
  852MPD2    H312519   4.198   4.389   9.910  1.8410  1.9635 -0.8398
  852MPD2     N12520   4.364   4.419  10.351  0.5536  0.0836 -0.3256
  852MPD2    H512521   4.426   4.363  10.409 -1.4355 -1.7721 -0.0127
  852MPD2    N112522   4.379   4.027  10.104  0.6130 -0.3238  1.0122
  852MPD2    H712523   4.395   3.999  10.200  1.5360  0.2835  1.0385
  853MPD2     C12524   1.711   4.163  12.447  0.1880  0.4389  0.1018
  853MPD2    C112525   1.588   4.180  12.386 -0.5695  0.0210  1.0092
  853MPD2    C212526   1.573   4.148  12.248 -0.3286 -0.1877 -0.1122
  853MPD2    C312527   1.681   4.142  12.159  0.1249 -0.2509  0.1039
  853MPD2    C412528   1.801   4.136  12.218 -0.1665 -0.3304  0.6232
  853MPD2    C512529   1.822   4.135  12.357  0.3612 -0.3882 -0.5896
  853MPD2     H12530   1.475   4.162  12.203  0.0589  2.2806 -0.2230
  853MPD2    H112531   1.893   4.133  12.161 -0.3301 -0.9146  0.3928
  853MPD2    H212532   1.732   4.150  12.552  1.8031  0.0628 -0.2765
  853MPD2    H312533   1.920   4.118  12.402  0.8150  0.8278 -1.1235
  853MPD2     N12534   1.671   4.131  12.022 -0.7648  0.2597 -0.6398
  853MPD2    H512535   1.756   4.131  11.967 -1.1562 -1.1846 -1.2534
  853MPD2    N112536   1.479   4.200  12.473 -0.3946  0.3552 -0.3617
  853MPD2    H712537   1.479   4.159  12.567  0.9164  2.2429  0.4518
  854MPD2     C12538   2.829   4.143  13.319 -1.3460  1.2401  0.0377
  854MPD2    C112539   2.925   4.165  13.220 -1.6356  0.2313  0.9235
  854MPD2    C212540   3.056   4.126  13.242  0.0119  0.0286 -0.2959
  854MPD2    C312541   3.091   4.060  13.359 -0.4511 -0.3955  0.6164
  854MPD2    C412542   2.987   4.027  13.449 -0.5189  0.2016  0.0475
  854MPD2    C512543   2.863   4.079  13.433  0.2999  0.7228  0.1790
  854MPD2     H12544   3.126   4.142  13.162  1.8298 -1.9544  0.9013
  854MPD2    H112545   3.027   3.971  13.532 -0.0708  2.1797  1.1802
  854MPD2    H212546   2.727   4.177  13.309 -1.9909 -1.0874 -1.1014
  854MPD2    H312547   2.787   4.056  13.507 -1.6989  0.4111 -1.9682
  854MPD2     N12548   3.226   4.008  13.378 -0.0260  0.3646 -0.2272
  854MPD2    H512549   3.227   3.948  13.460 -0.8777 -0.4177 -0.8035
  854MPD2    N112550   2.885   4.240  13.105 -0.3513 -0.0719 -0.3742
  854MPD2    H712551   2.790   4.273  13.103  0.7808  3.3185  2.0082
  855MPD2     C12552   3.307   3.816  14.114 -0.0263  0.3017  0.6403
  855MPD2    C112553   3.393   3.727  14.054  0.6138  0.0334 -0.3427
  855MPD2    C212554   3.449   3.757  13.932  0.1124  0.4622 -0.6440
  855MPD2    C312555   3.434   3.878  13.873 -0.3595  0.6305 -0.1207
  855MPD2    C412556   3.352   3.965  13.935  0.3501 -0.7260 -0.7626
  855MPD2    C512557   3.290   3.940  14.051 -0.0241  0.4341  0.2346
  855MPD2     H12558   3.496   3.675  13.881  0.4419 -0.9110  1.8585
  855MPD2    H112559   3.330   4.058  13.885 -1.2636 -0.8912 -0.3370
  855MPD2    H212560   3.269   3.800  14.214  0.4917 -1.3309  0.5670
  855MPD2    H312561   3.255   4.020  14.114 -0.1145  2.3543 -2.2694
  855MPD2     N12562   3.481   3.907  13.746 -0.3057  0.8601 -0.1164
  855MPD2    H512563   3.430   3.978  13.695 -0.3605  1.4291  0.7288
  855MPD2    N112564   3.424   3.601  14.111  0.0291 -0.4301 -0.3193
  855MPD2    H712565   3.501   3.551  14.068  0.1567 -0.3851 -0.1425
  856MPD2     C12566   0.564   4.653  14.099  0.2717 -0.0576 -0.0897
  856MPD2    C112567   0.651   4.721  14.183  0.0812  0.6237 -0.5654
  856MPD2    C212568   0.649   0.138  14.181  0.2955  0.7889 -0.2547
  856MPD2    C312569   0.565   0.209  14.103 -0.1863 -0.5252 -0.0051
  856MPD2    C412570   0.488   0.143  14.011 -0.0790  0.3089  0.2093
  856MPD2    C512571   0.483   0.007  14.009  0.7899  0.0691 -0.0655
  856MPD2     H12572   0.720   0.181  14.251  1.6839 -0.9975 -0.5638
  856MPD2    H112573   0.423   0.193  13.940  0.6920 -0.5213 -1.0702
  856MPD2    H212574   0.568   4.545  14.098 -0.3045 -0.0742 -0.9482
  856MPD2    H312575   0.420   4.683  13.933 -0.1442  0.0678  0.7083
  856MPD2     N12576   0.553   0.354  14.114 -0.4009 -0.1961 -0.4552
  856MPD2    H512577   0.504   0.404  14.041  0.3848  1.3068  0.0521
  856MPD2    N112578   0.744   4.651  14.267 -0.1132  0.1836  0.4660
  856MPD2    H712579   0.798   4.709  14.330  1.6794 -1.9747  0.9342
  857MPD2     C12580   2.269   2.197  13.253  0.5188  0.0245 -0.4959
  857MPD2    C112581   2.393   2.184  13.193 -0.8389 -0.1046  0.3359
  857MPD2    C212582   2.466   2.300  13.174 -0.3661  0.6183 -0.0904
  857MPD2    C312583   2.422   2.420  13.225 -0.1378 -0.2028  0.2394
  857MPD2    C412584   2.305   2.426  13.303 -0.0048  0.0653  0.2409
  857MPD2    C512585   2.224   2.313  13.311 -0.3265 -0.1349 -0.3898
  857MPD2     H12586   2.564   2.295  13.127 -0.1737 -1.3045  0.4982
  857MPD2    H112587   2.267   2.518  13.346 -2.6223 -1.7447  1.8020
  857MPD2    H212588   2.217   2.103  13.269  0.8220 -0.4253 -2.2059
  857MPD2    H312589   2.137   2.313  13.375  0.7783  0.9933  1.1130
  857MPD2     N12590   2.496   2.535  13.195 -0.0581 -0.2599 -0.5043
  857MPD2    H512591   2.579   2.525  13.136  0.7425  1.0836  0.3898
  857MPD2    N112592   2.426   2.058  13.138 -0.0717 -0.0378  0.4174
  857MPD2    H712593   2.360   1.984  13.159 -2.7866  2.5839  1.0049
  858MPD2     C12594   2.692   1.574  16.876 -0.1247 -0.0373  0.6117
  858MPD2    C112595   2.807   1.498  16.903 -0.2682  0.3800 -0.1237
  858MPD2    C212596   2.861   1.504  17.034 -0.0555  0.1396 -0.9306
  858MPD2    C312597   2.812   1.584  17.135  0.5903 -0.0990  0.7315
  858MPD2    C412598   2.701   1.657  17.106  0.4221  1.0184  0.3644
  858MPD2    C512599   2.645   1.649  16.982  0.7571  0.0462  0.5129
  858MPD2     H12600   2.953   1.448  17.051 -0.2034  0.5743  1.3862
  858MPD2    H112601   2.650   1.735  17.161 -0.2262  0.0136  1.1712
  858MPD2    H212602   2.649   1.590  16.778 -1.1305  0.2357  1.1013
  858MPD2    H312603   2.562   1.717  16.968  1.4457  0.6235 -0.7578
  858MPD2     N12604   2.864   1.600  17.263 -0.2140  0.0755  0.6628
  858MPD2    H512605   2.827   1.668  17.328  1.4926  1.9393 -0.3126
  858MPD2    N112606   2.874   1.433  16.792  0.7365  0.1212  0.1615
  858MPD2    H712607   2.827   1.444  16.703 -1.6713 -0.8390  1.3394
  859MPD2     C12608   1.457   3.695  15.822  0.1238  0.4248 -0.1072
  859MPD2    C112609   1.593   3.689  15.831 -0.8635  0.5786 -0.1128
  859MPD2    C212610   1.650   3.578  15.885 -0.1987 -0.1669  0.3298
  859MPD2    C312611   1.570   3.471  15.914 -1.1722  0.1838  0.0324
  859MPD2    C412612   1.437   3.470  15.887  0.6067  1.2061 -0.5665
  859MPD2    C512613   1.379   3.582  15.838  0.0272  0.4216 -1.1613
  859MPD2     H12614   1.753   3.590  15.913 -0.1904  0.2768  0.1157
  859MPD2    H112615   1.379   3.379  15.899 -0.4935  2.0123  0.1688
  859MPD2    H212616   1.412   3.790  15.795 -0.8276  0.6745  2.4453
  859MPD2    H312617   1.272   3.589  15.824 -0.2738 -1.7861 -0.0311
  859MPD2     N12618   1.627   3.357  15.984  0.1122 -0.1368 -0.0996
  859MPD2    H512619   1.576   3.271  16.002  0.2693 -0.2313 -0.1063
  859MPD2    N112620   1.661   3.800  15.772  0.3646 -0.2638  0.0444
  859MPD2    H712621   1.595   3.873  15.746  0.1574 -1.6229 -3.2773
  860MPD2     C12622   4.149   3.491  11.657  0.0125 -0.3660  0.7897
  860MPD2    C112623   4.192   3.582  11.754 -0.0344  0.3080  0.2760
  860MPD2    C212624   4.107   3.618  11.859  0.6752  0.5924  0.4058
  860MPD2    C312625   3.992   3.550  11.883 -0.5402  0.5885 -0.1564
  860MPD2    C412626   3.940   3.482  11.769  0.9570  0.2426  0.5326
  860MPD2    C512627   4.019   3.455  11.666  0.0359 -0.1449 -0.5130
  860MPD2     H12628   4.128   3.703  11.924 -1.5997  0.9185  0.7353
  860MPD2    H112629   3.842   3.436  11.763  1.3939 -0.5860 -0.2788
  860MPD2    H212630   4.215   3.455  11.579  0.3418 -0.4280  1.1023
  860MPD2    H312631   3.988   3.389  11.585  0.0505  0.5700 -1.0941
  860MPD2     N12632   3.917   3.582  11.996  0.1960  0.7666  0.0359
  860MPD2    H512633   3.952   3.656  12.055  2.8917 -0.7982  0.3944
  860MPD2    N112634   4.318   3.649  11.739  0.2278 -0.4572 -0.0832
  860MPD2    H712635   4.340   3.726  11.802  0.6307 -1.1866  0.6724
  861MPD2     C12636   3.029   2.117  11.358  0.0396  0.0749  0.8954
  861MPD2    C112637   3.103   2.224  11.302  0.4772  0.2952 -0.7029
  861MPD2    C212638   3.063   2.283  11.182  0.6417  0.5039  0.2376
  861MPD2    C312639   2.955   2.232  11.118  0.7458  0.1106  0.1271
  861MPD2    C412640   2.895   2.120  11.166 -0.7080  0.1811 -0.1421
  861MPD2    C512641   2.924   2.071  11.292 -0.2230  0.4522  0.4819
  861MPD2     H12642   3.126   2.363  11.144  0.2892  1.6399  2.0635
  861MPD2    H112643   2.809   2.077  11.116 -0.9749  1.6000 -0.9133
  861MPD2    H212644   3.059   2.055  11.442  1.0238 -0.3246  0.2543
  861MPD2    H312645   2.873   1.983  11.331 -0.1832 -0.8942 -2.4667
  861MPD2     N12646   2.910   2.288  10.992 -0.0387 -0.2064  0.0334
  861MPD2    H512647   2.840   2.229  10.947 -1.4112  0.1259  1.7101
  861MPD2    N112648   3.221   2.266  11.351  0.7455 -0.1937 -0.0963
  861MPD2    H712649   3.266   2.345  11.306  3.2880 -1.7624 -0.3365
  862MPD2     C12650   2.696   2.042  10.384 -0.7276 -0.1983  0.4895
  862MPD2    C112651   2.673   2.047  10.518  0.1458 -0.4148 -0.4198
  862MPD2    C212652   2.633   1.933  10.585  0.2129 -0.3200 -0.2153
  862MPD2    C312653   2.620   1.808  10.516  0.0618  0.4909 -0.5219
  862MPD2    C412654   2.627   1.815  10.379 -0.3930 -0.7071  0.5926
  862MPD2    C512655   2.677   1.930  10.316 -0.7783 -0.0258 -0.9148
  862MPD2     H12656   2.621   1.936  10.692  1.1887  0.4160 -0.1262
  862MPD2    H112657   2.592   1.740  10.309  0.7006  0.1563 -0.8990
  862MPD2    H212658   2.741   2.122  10.326  5.3053 -2.3940  2.2046
  862MPD2    H312659   2.698   1.924  10.210  1.5310  1.1563 -0.5224
  862MPD2     N12660   2.593   1.684  10.579 -0.2987  0.8232 -0.3599
  862MPD2    H512661   2.591   1.600  10.522  0.0179  1.9406 -2.0223
  862MPD2    N112662   2.695   2.162  10.591 -0.8763  0.6579 -0.2151
  862MPD2    H712663   2.694   2.157  10.692 -0.0911 -0.8966 -0.2843
  863MPD2     C12664   1.366   0.457  17.547  0.2163  0.4374  0.7671
  863MPD2    C112665   1.428   0.494  17.434 -0.5417  0.6306  0.1880
  863MPD2    C212666   1.566   0.516  17.438 -0.5623  0.0683  0.8316
  863MPD2    C312667   1.643   0.475  17.544  0.3936 -0.2360 -0.2233
  863MPD2    C412668   1.577   0.432  17.653  0.2307  0.1469 -0.6012
  863MPD2    C512669   1.438   0.422  17.655  0.3826 -0.0692  0.4570
  863MPD2     H12670   1.610   0.568  17.354  2.0477 -0.2669  1.9569
  863MPD2    H112671   1.631   0.375   0.040 -1.1925  2.8152  2.5203
  863MPD2    H212672   1.260   0.436  17.540  0.0116  2.1610 -1.4932
  863MPD2    H312673   1.394   0.377   0.056 -0.4281  0.6087  0.3988
  863MPD2     N12674   1.783   0.492  17.565  0.9245 -0.2713 -0.3883
  863MPD2    H512675   1.834   0.470  17.651 -0.4992 -1.4711  0.1436
  863MPD2    N112676   1.352   0.526  17.321 -0.1313 -0.7289 -0.1909
  863MPD2    H712677   1.252   0.512  17.328 -0.4373 -0.2371 -3.7825
  864MPD2     C12678   1.565   1.942  17.183  0.0977  0.6590 -0.0784
  864MPD2    C112679   1.670   1.870  17.137 -0.1072  0.3071 -0.0389
  864MPD2    C212680   1.740   1.919  17.030 -0.5566  0.3073  0.6541
  864MPD2    C312681   1.714   2.041  16.971  0.6830 -0.3529 -0.7741
  864MPD2    C412682   1.605   2.115  17.017 -0.3206 -0.7845 -0.3116
  864MPD2    C512683   1.534   2.062  17.124  0.2407  0.8119  0.2661
  864MPD2     H12684   1.830   1.867  16.997 -0.9152 -0.7793  1.3872
  864MPD2    H112685   1.575   2.211  16.976  2.8620 -0.0590 -0.9605
  864MPD2    H212686   1.500   1.897  17.257  0.4043  0.0848 -0.1605
  864MPD2    H312687   1.445   2.107  17.166 -1.9732 -4.1053  0.7563
  864MPD2     N12688   1.777   2.091  16.858  0.2298  0.0073 -0.0653
  864MPD2    H512689   1.740   2.180  16.824 -0.0800  0.6606  1.9893
  864MPD2    N112690   1.688   1.748  17.191 -0.5443  0.0274 -0.0880
  864MPD2    H712691   1.620   1.714  17.258 -0.5300 -0.5293 -0.3538
  865MPD2     C12692   1.876   2.049  15.955 -0.6647  0.8818  0.0875
  865MPD2    C112693   1.891   1.997  16.077 -0.1535 -0.1968  0.2240
  865MPD2    C212694   1.845   2.076  16.183 -0.0695  0.3988 -0.1648
  865MPD2    C312695   1.793   2.202  16.175 -0.6434  0.3516 -0.7543
  865MPD2    C412696   1.792   2.257  16.046  0.2395 -0.6977  0.1380
  865MPD2    C512697   1.824   2.176  15.939  0.1505 -0.6067 -0.9502
  865MPD2     H12698   1.860   2.030  16.279 -1.0951 -1.0074 -0.6841
  865MPD2    H112699   1.754   2.350  16.005  2.1826  0.1600  0.2646
  865MPD2    H212700   1.893   1.999  15.861  1.3562  0.1666  0.8370
  865MPD2    H312701   1.809   2.216  15.839 -1.9817  0.4151 -0.2218
  865MPD2     N12702   1.741   2.284  16.274 -0.2806 -0.2815 -0.2928
  865MPD2    H512703   1.700   2.371  16.243 -1.3880 -0.2301  1.2825
  865MPD2    N112704   1.951   1.867  16.097 -0.3365  0.3156  0.2476
  865MPD2    H712705   1.991   1.814  16.021 -0.6202  1.7559 -0.9083
  866MPD2     C12706   4.019   2.768  11.262  0.4075  0.0793  0.5720
  866MPD2    C112707   3.930   2.694  11.326  0.4037  0.8018 -0.3901
  866MPD2    C212708   3.797   2.728  11.337 -0.1094 -0.3231  0.0544
  866MPD2    C312709   3.748   2.820  11.255 -0.5100 -0.6052 -0.9021
  866MPD2    C412710   3.836   2.890  11.174 -0.8208  0.2590 -0.7231
  866MPD2    C512711   3.970   2.875  11.190  0.2569 -0.2604  0.4663
  866MPD2     H12712   3.734   2.671  11.404 -0.3731 -0.5594 -0.3964
  866MPD2    H112713   3.802   2.967  11.105 -0.2962  0.8012 -0.3743
  866MPD2    H212714   4.125   2.749  11.248  0.5200  1.5730 -0.7144
  866MPD2    H312715   4.030   2.942  11.130 -0.1753  2.0884  2.6517
  866MPD2     N12716   3.611   2.843  11.234  0.2834  0.2064 -0.2772
  866MPD2    H512717   3.587   2.920  11.172 -2.8317  1.3296  2.3604
  866MPD2    N112718   3.989   2.574  11.379  0.0924 -0.1886  0.1310
  866MPD2    H712719   4.086   2.551  11.359 -0.2090 -0.6057 -0.8587
  867MPD2     C12720   0.442   1.444  17.098  0.1549  0.0108  0.7714
  867MPD2    C112721   0.568   1.422  17.155 -0.0156  0.3513  0.7191
  867MPD2    C212722   0.654   1.529  17.179  0.0935  0.1741  0.7457
  867MPD2    C312723   0.615   1.654  17.140  0.5803 -0.5152  0.7229
  867MPD2    C412724   0.493   1.676  17.077 -0.5415  0.1742  0.3307
  867MPD2    C512725   0.408   1.571  17.054  0.3066 -0.9373 -0.3465
  867MPD2     H12726   0.746   1.509  17.232  2.2024  1.5873 -2.4245
  867MPD2    H112727   0.465   1.774  17.040  1.8162  0.4965 -0.6105
  867MPD2    H212728   0.379   1.357  17.087  0.3490 -0.0142 -0.1941
  867MPD2    H312729   0.317   1.582  16.996  0.2181 -0.9973 -0.2197
  867MPD2     N12730   0.697   1.763  17.149 -0.9138 -0.2966 -0.4381
  867MPD2    H512731   0.678   1.853  17.108  1.7036  1.1488  1.4681
  867MPD2    N112732   0.609   1.288  17.168  0.4419 -0.1824 -0.0047
  867MPD2    H712733   0.564   1.220  17.108 -0.7647 -1.0745  1.9231
  868MPD2     C12734   2.681   0.850  13.443 -0.1557  0.5127 -0.2032
  868MPD2    C112735   2.655   0.714  13.461 -0.1426  0.1660 -0.2038
  868MPD2    C212736   2.600   0.681  13.580 -0.3723  0.3895  0.3339
  868MPD2    C312737   2.584   0.774  13.679  0.5097 -0.1744  0.0676
  868MPD2    C412738   2.623   0.908  13.663  0.2642  0.0171 -0.2866
  868MPD2    C512739   2.662   0.942  13.541 -0.1560  0.5488 -0.1722
  868MPD2     H12740   2.574   0.578  13.602 -0.1657  0.1471 -0.5535
  868MPD2    H112741   2.623   0.979  13.745  0.5518 -1.9966  1.4435
  868MPD2    H212742   2.731   0.884  13.352 -0.8152 -2.9692 -1.8490
  868MPD2    H312743   2.706   1.039  13.524  1.2375 -0.1129 -0.3659
  868MPD2     N12744   2.539   0.725  13.802 -0.3820 -0.1536  0.6007
  868MPD2    H512745   2.528   0.625  13.811  0.7572 -0.3542 -0.2437
  868MPD2    N112746   2.698   0.627  13.355  0.0222  0.6030 -0.2992
  868MPD2    H712747   2.751   0.670  13.279  1.5455 -0.6657  0.0368
  869MPD2     C12748   4.550   4.078   2.332  0.3668  0.0242  0.1918
  869MPD2    C112749   4.498   3.971   2.267  0.4761  0.0774 -0.3098
  869MPD2    C212750   4.455   3.969   2.140 -0.4185  0.1171 -0.2627
  869MPD2    C312751   4.448   4.088   2.072  0.1872 -0.1128  1.4546
  869MPD2    C412752   4.515   4.188   2.134 -0.3734 -0.8770  0.2597
  869MPD2    C512753   4.572   4.191   2.258  0.5473 -0.6298  0.3872
  869MPD2     H12754   4.442   3.873   2.091  1.3149 -0.0154 -0.4536
  869MPD2    H112755   4.522   4.282   2.081  1.1836  0.0433  2.0965
  869MPD2    H212756   4.584   4.080   2.435  2.1093 -2.1438 -0.3329
  869MPD2    H312757   4.601   4.286   2.301 -1.7508 -0.5375  1.6912
  869MPD2     N12758   4.412   4.106   1.931 -0.2348 -0.1692  0.4118
  869MPD2    H512759   4.424   4.199   1.893 -2.8885  0.9421  2.2865
  869MPD2    N112760   4.505   3.855   2.349  0.0121 -0.5232 -0.1130
  869MPD2    H712761   4.565   3.861   2.430  0.8320  1.1551 -0.8623
  870MPD2     C12762   3.743   2.772   2.297  0.3144 -0.0046 -0.4670
  870MPD2    C112763   3.727   2.660   2.225  0.6443 -0.1396  0.0304
  870MPD2    C212764   3.644   2.660   2.118 -0.3728 -0.1801  0.3261
  870MPD2    C312765   3.558   2.766   2.087  0.9169 -0.2729 -0.1412
  870MPD2    C412766   3.569   2.873   2.174 -0.4615 -0.3950  0.2799
  870MPD2    C512767   3.657   2.875   2.272  0.6522 -0.1729 -0.2167
  870MPD2     H12768   3.624   2.563   2.074  0.3913  0.0228 -0.4526
  870MPD2    H112769   3.512   2.961   2.147  0.4136  0.8788  2.5608
  870MPD2    H212770   3.813   2.773   2.380 -2.6740  1.3540  2.0401
  870MPD2    H312771   3.658   2.962   2.336 -0.2605  0.1242 -0.6127
  870MPD2     N12772   3.483   2.772   1.970 -0.1035 -0.0611  0.1955
  870MPD2    H512773   3.513   2.709   1.897  1.8055 -1.0724  1.8542
  870MPD2    N112774   3.806   2.545   2.258  0.2638 -0.8582 -0.1582
  870MPD2    H712775   3.858   2.556   2.345  0.7024 -0.6589 -0.4497
  871MPD2     C12776   4.482   1.764  16.538  0.0633 -0.3338  0.5141
  871MPD2    C112777   4.513   1.730  16.665 -0.8817 -0.0364 -0.1375
  871MPD2    C212778   4.508   1.595  16.695 -0.3933  0.0551  0.7311
  871MPD2    C312779   4.473   1.499  16.600 -0.5895 -0.6477 -0.6737
  871MPD2    C412780   4.461   1.537  16.473 -0.8091  0.7995 -0.4912
  871MPD2    C512781   4.462   1.670  16.441 -0.0865  0.2520  0.0928
  871MPD2     H12782   4.528   1.552  16.792  1.1780 -0.3270  0.2326
  871MPD2    H112783   4.463   1.462  16.395  3.8167 -1.5227  1.8645
  871MPD2    H212784   4.472   1.868  16.508 -0.0785 -0.9802 -1.6527
  871MPD2    H312785   4.448   1.697  16.337  0.8282  2.3628  0.5185
  871MPD2     N12786   4.477   1.361  16.623  0.5479 -0.2785  0.6396
  871MPD2    H512787   4.478   1.311  16.535  0.7620 -0.1985  0.5964
  871MPD2    N112788   4.559   1.831  16.757 -0.1333 -0.3718  0.0601
  871MPD2    H712789   4.558   1.926  16.720 -0.0306 -1.5332 -2.9303
  872MPD2     C12790   0.785   3.938  14.324 -0.5401 -1.0020 -0.6252
  872MPD2    C112791   0.691   4.003  14.239  0.2972  0.2637  0.3203
  872MPD2    C212792   0.568   4.035  14.294  0.5544  0.0147 -0.0370
  872MPD2    C312793   0.537   4.021  14.426 -0.1477 -0.0056 -0.0323
  872MPD2    C412794   0.642   3.987  14.512  0.2436 -0.1042 -0.1382
  872MPD2    C512795   0.759   3.944  14.453  0.7599  0.3994  0.1955
  872MPD2     H12796   0.492   4.056  14.220 -0.3827 -1.9306  0.3580
  872MPD2    H112797   0.632   3.989  14.620  0.5599  2.4934 -0.1602
  872MPD2    H212798   0.883   3.899  14.297  0.7609  0.4723  1.9176
  872MPD2    H312799   0.838   3.911  14.519 -0.8668 -0.2397  1.7908
  872MPD2     N12800   0.405   4.047  14.487 -0.5702  0.0199 -0.5488
  872MPD2    H512801   0.404   4.046  14.589 -1.2976 -1.0765 -0.5688
  872MPD2    N112802   0.712   4.020  14.100  0.7169  0.1132  0.7452
  872MPD2    H712803   0.633   4.056  14.048  0.9096 -2.0173 -1.0063
  873MPD2     C12804   3.457   4.051   1.603  0.4683 -0.4712 -0.0073
  873MPD2    C112805   3.400   4.126   1.501  0.3832  1.1261  0.5327
  873MPD2    C212806   3.452   4.115   1.368  0.1224 -0.2027 -0.4374
  873MPD2    C312807   3.545   4.013   1.333  0.8696  0.2951  0.0856
  873MPD2    C412808   3.587   3.932   1.441 -0.5195 -0.5048 -0.1929
  873MPD2    C512809   3.544   3.950   1.570 -0.2252 -0.6056  0.4673
  873MPD2     H12810   3.413   4.185   1.295 -0.2384  0.6260  0.5588
  873MPD2    H112811   3.663   3.857   1.422  0.4488  0.2502  0.7104
  873MPD2    H212812   3.409   4.055   1.700  0.2175  1.2233 -0.2003
  873MPD2    H312813   3.581   3.887   1.651  2.6181  2.5154  1.5644
  873MPD2     N12814   3.604   4.007   1.203  0.1232  0.3718  0.5251
  873MPD2    H512815   3.673   3.933   1.196 -0.4787  0.0996 -2.5305
  873MPD2    N112816   3.296   4.204   1.543  0.0794 -0.0070 -0.1094
  873MPD2    H712817   3.285   4.213   1.643 -1.5090  1.4551 -0.4066
  874MPD2     C12818   1.921   4.263  16.262 -0.1487  0.4397  0.6367
  874MPD2    C112819   1.951   4.166  16.354 -0.5396  0.7666  0.6282
  874MPD2    C212820   2.066   4.181  16.424 -0.3943  0.4177  0.4452
  874MPD2    C312821   2.154   4.289  16.398  0.1383 -0.1912 -0.1549
  874MPD2    C412822   2.124   4.383  16.303  0.1468 -0.1215  0.0942
  874MPD2    C512823   2.014   4.363  16.232 -0.7649 -0.3818 -0.0668
  874MPD2     H12824   2.092   4.118  16.508  0.4435  0.8437  0.5112
  874MPD2    H112825   2.182   4.468  16.268  0.0100  1.1454  2.9586
  874MPD2    H212826   1.827   4.258  16.208 -0.4197  0.2340  1.1219
  874MPD2    H312827   1.991   4.441  16.160  0.4706  1.3442  1.4118
  874MPD2     N12828   2.266   4.280  16.483  0.4378  0.0612 -0.3067
  874MPD2    H512829   2.260   4.227  16.569  1.2864  0.4804  0.0155
  874MPD2    N112830   1.865   4.058  16.379  0.1370 -0.3101 -0.5892
  874MPD2    H712831   1.777   4.058  16.327 -0.2290 -0.6726  0.0342
  875MPD2     C12832   3.587   2.662  14.639 -0.6872  0.0920  0.4739
  875MPD2    C112833   3.455   2.683  14.677  0.1032 -0.6650 -0.2119
  875MPD2    C212834   3.427   2.732  14.803  0.1968 -0.0893  0.3231
  875MPD2    C312835   3.533   2.756  14.890 -0.0523  0.2440  0.3733
  875MPD2    C412836   3.667   2.738  14.857  0.2953  0.4886 -0.5217
  875MPD2    C512837   3.690   2.687  14.730  0.2137  0.0790  0.2019
  875MPD2     H12838   3.329   2.764  14.835  0.6884  1.5516  0.1876
  875MPD2    H112839   3.750   2.752  14.924 -0.2944  1.3358  0.0303
  875MPD2    H212840   3.617   2.623  14.542  1.1329  2.0472  0.2451
  875MPD2    H312841   3.792   2.671  14.695  0.2305  1.5152 -0.4248
  875MPD2     N12842   3.503   2.795  15.020 -0.1678 -0.3601  0.3199
  875MPD2    H512843   3.580   2.832  15.075  0.2061 -0.3199 -0.2312
  875MPD2    N112844   3.340   2.652  14.604 -0.1396 -0.4633  0.1625
  875MPD2    H712845   3.251   2.658  14.651 -0.7661 -0.9787 -0.9484
  876MPD2     C12846   1.934   3.884  16.084  0.1693 -0.1372 -0.6497
  876MPD2    C112847   2.067   3.888  16.107  0.5914 -0.8463 -0.0963
  876MPD2    C212848   2.123   3.771  16.152 -0.3351 -0.2686 -0.1036
  876MPD2    C312849   2.051   3.654  16.186  0.2657 -0.2484  0.5043
  876MPD2    C412850   1.915   3.662  16.171  0.4063  0.0443 -0.7381
  876MPD2    C512851   1.858   3.775  16.112 -0.1603 -0.9043  0.5483
  876MPD2     H12852   2.232   3.770  16.154 -0.3908  0.1355  3.5118
  876MPD2    H112853   1.857   3.572  16.182  2.6659 -1.1428  1.3849
  876MPD2    H212854   1.890   3.966  16.030 -0.4971 -0.3360 -0.4105
  876MPD2    H312855   1.754   3.772  16.084  0.4646 -0.4925 -1.8365
  876MPD2     N12856   2.110   3.534  16.236 -0.0858 -0.1538 -0.0790
  876MPD2    H512857   2.211   3.526  16.240  0.0588  2.9429  1.9377
  876MPD2    N112858   2.139   4.007  16.076 -0.4369 -0.0741  0.2140
  876MPD2    H712859   2.090   4.080  16.025 -0.0648 -0.0494 -0.1131
  877MPD2     C12860   2.009   4.418  15.569  0.4507 -0.0995  0.1561
  877MPD2    C112861   2.144   4.401  15.554 -0.6025  0.2437  0.1427
  877MPD2    C212862   2.192   4.396  15.420  0.0757  0.5084 -0.3920
  877MPD2    C312863   2.111   4.395  15.307 -0.9495  0.0267 -1.3929
  877MPD2    C412864   1.974   4.400  15.332  0.3378 -0.7799  0.2367
  877MPD2    C512865   1.929   4.415  15.459  0.1868 -0.2846 -0.9248
  877MPD2     H12866   2.299   4.387  15.410 -0.0408 -1.2756 -0.0816
  877MPD2    H112867   1.898   4.401  15.254  0.8855  1.4094 -0.2775
  877MPD2    H212868   1.951   4.427  15.660 -0.4758 -3.5698 -0.0831
  877MPD2    H312869   1.822   4.393  15.459  0.2286 -0.5140  0.4974
  877MPD2     N12870   2.153   4.387  15.175  0.2675 -0.3528 -0.0533
  877MPD2    H512871   2.087   4.362  15.102  0.6914  0.7988 -0.8272
  877MPD2    N112872   2.230   4.381  15.662  0.6041  0.0086  0.1572
  877MPD2    H712873   2.320   4.349  15.628  0.6395  0.2981 -0.0208
  878MPD2     C12874   1.589   3.513  13.221  0.7728  0.1318 -0.6225
  878MPD2    C112875   1.700   3.593  13.191  0.2696 -0.1342 -0.0534
  878MPD2    C212876   1.778   3.641  13.300  0.0426 -0.2697 -0.1333
  878MPD2    C312877   1.754   3.591  13.424  0.1803  0.2152 -0.2517
  878MPD2    C412878   1.658   3.495  13.448  0.0687 -0.0496 -0.0763
  878MPD2    C512879   1.580   3.464  13.347  0.0977  0.1385 -0.5959
  878MPD2     H12880   1.861   3.711  13.295 -0.2138 -0.0208 -0.8886
  878MPD2    H112881   1.621   3.452  13.540  2.4039 -0.5446  0.6361
  878MPD2    H212882   1.520   3.485  13.143 -0.3043 -1.7219  1.0025
  878MPD2    H312883   1.500   3.395  13.372 -1.1885  0.8251 -2.7583
  878MPD2     N12884   1.838   3.640  13.521  0.2892  0.2170 -0.1199
  878MPD2    H512885   1.901   3.715  13.492  1.0261 -0.1162  0.6047
  878MPD2    N112886   1.725   3.617  13.055  0.0582 -0.1818 -0.4282
  878MPD2    H712887   1.655   3.580  12.991 -1.8075  0.2732  1.3550
  879MPD2     C12888   2.832   4.714  17.543  0.3355 -0.4648  0.4472
  879MPD2    C112889   2.745   0.084  17.491  0.2918  0.6696  0.3990
  879MPD2    C212890   2.688   0.048  17.373  0.2447 -0.4232  0.3931
  879MPD2    C312891   2.727   4.660  17.293  0.0261 -0.8241  0.0382
  879MPD2    C412892   2.814   4.575  17.349 -0.5212  0.4939 -0.5423
  879MPD2    C512893   2.861   4.603  17.476 -0.6316 -0.4281  0.6024
  879MPD2     H12894   2.613   0.114  17.330  0.6493  0.5636  1.2087
  879MPD2    H112895   2.841   4.482  17.301 -1.2664 -0.5285  1.0460
  879MPD2    H212896   2.887   0.011  17.635  0.1522  1.5424  0.1537
  879MPD2    H312897   2.922   4.528  17.526  1.7722  1.3710  0.3791
  879MPD2     N12898   2.678   4.623  17.165  0.2636 -0.2720  0.4771
  879MPD2    H512899   2.703   4.532  17.128  0.0125  0.2913 -1.0831
  879MPD2    N112900   2.697   0.184  17.581 -0.8968  0.4087  0.0879
  879MPD2    H712901   2.743   0.198  17.670  0.0360  0.5576 -0.4136
  880MPD2     C12902   3.680   1.773   0.653  0.1351 -0.3991 -0.8206
  880MPD2    C112903   3.762   1.841   0.742  0.2927  0.3057  0.3325
  880MPD2    C212904   3.846   1.761   0.820 -0.1628 -0.0406 -0.3293
  880MPD2    C312905   3.846   1.622   0.813 -0.8028 -0.5391  0.0755
  880MPD2    C412906   3.769   1.556   0.715 -0.0669  0.1601  0.4985
  880MPD2    C512907   3.691   1.644   0.637 -0.0838 -0.0011  0.3301
  880MPD2     H12908   3.912   1.823   0.880 -2.0981  1.0456  0.6964
  880MPD2    H112909   3.785   1.453   0.684 -0.7857 -0.9288  3.7285
  880MPD2    H212910   3.616   1.825   0.582  0.5500  1.5420  0.2202
  880MPD2    H312911   3.639   1.606   0.550  0.5710 -0.5330  0.1767
  880MPD2     N12912   3.935   1.566   0.913  0.2808  0.7614  1.1160
  880MPD2    H512913   3.990   1.631   0.967  2.8758  0.0748 -0.6659
  880MPD2    N112914   3.767   1.984   0.742 -0.0470  0.0048 -0.2472
  880MPD2    H712915   3.712   2.034   0.673 -2.6826 -0.5882  1.4183
  881MPD2     C12916   3.972   2.887   0.342 -0.6945 -0.4531 -0.7349
  881MPD2    C112917   3.954   2.753   0.299  0.5291  0.6031 -0.0293
  881MPD2    C212918   3.882   2.660   0.383  0.4194  1.0183 -0.2983
  881MPD2    C312919   3.869   2.694   0.516 -0.1462 -0.5985  0.3910
  881MPD2    C412920   3.878   2.825   0.557  0.3592 -0.4872 -0.0282
  881MPD2    C512921   3.934   2.921   0.471  0.2177 -0.2433  0.0897
  881MPD2     H12922   3.862   2.558   0.352  0.5301  1.5527 -2.1381
  881MPD2    H112923   3.854   2.848   0.660 -0.3855 -1.0719 -0.0683
  881MPD2    H212924   4.028   2.961   0.286 -2.3543 -0.7358 -2.7737
  881MPD2    H312925   3.957   3.015   0.519  0.1234  0.6524 -1.6071
  881MPD2     N12926   3.828   2.598   0.613  0.2446 -0.0062 -0.0203
  881MPD2    H512927   3.829   2.631   0.709 -0.1017 -1.6026  0.5309
  881MPD2    N112928   3.968   2.736   0.158 -0.2970  0.0179  0.3782
  881MPD2    H712929   4.016   2.813   0.112  1.4453 -0.4724  1.3704
  882MPD2     C12930   2.159   4.247  14.334 -0.2513  0.3046 -0.3183
  882MPD2    C112931   2.100   4.245  14.452 -0.2218  0.1459  0.3437
  882MPD2    C212932   1.963   4.238  14.457 -0.0917 -0.4210  0.1427
  882MPD2    C312933   1.887   4.233  14.343  0.2916  1.0950 -0.8846
  882MPD2    C412934   1.947   4.217  14.223  0.3741 -0.1580 -0.1146
  882MPD2    C512935   2.083   4.232  14.221 -0.7414 -0.2880  0.0194
  882MPD2     H12936   1.913   4.240  14.553 -0.1535 -0.2601  0.1076
  882MPD2    H112937   1.890   4.193  14.134 -0.3846  0.9996  0.0657
  882MPD2    H212938   2.267   4.251  14.327 -0.1328 -1.4629  0.5902
  882MPD2    H312939   2.129   4.233  14.123 -2.6298  0.6234 -0.8509
  882MPD2     N12940   1.744   4.243  14.346  0.5700 -0.1652  0.4695
  882MPD2    H512941   1.698   4.245  14.256  2.0001 -0.7694 -0.2761
  882MPD2    N112942   2.186   4.257  14.566 -0.4023  0.1697 -0.5014
  882MPD2    H712943   2.285   4.239  14.555  0.0493  3.1879 -1.3769
  883MPD2     C12944   3.899   0.172  16.686  0.2444 -0.8257  0.4331
  883MPD2    C112945   3.944   0.043  16.669  0.2381  0.4081  0.2654
  883MPD2    C212946   4.067   0.014  16.716 -0.1325  0.3170  0.3775
  883MPD2    C312947   4.147   0.105  16.780 -0.1559  0.2938 -0.2194
  883MPD2    C412948   4.104   0.241  16.789  0.4588 -0.4785  0.0402
  883MPD2    C512949   3.975   0.275  16.743  0.9811  0.0100 -0.2810
  883MPD2     H12950   4.108   4.635  16.708 -0.8004 -0.0767  1.7385
  883MPD2    H112951   4.161   0.319  16.838  0.5228 -0.2817 -0.3531
  883MPD2    H212952   3.803   0.198  16.642 -0.9874 -0.1839  3.4526
  883MPD2    H312953   3.929   0.372  16.749  1.5088  0.2352  0.0576
  883MPD2     N12954   4.263   0.056  16.839 -0.2691  0.2773  0.1696
  883MPD2    H512955   4.307   4.687  16.820  0.3166  1.0680 -2.2384
  883MPD2    N112956   3.866   4.659  16.609  0.3179  0.7898 -0.2808
  883MPD2    H712957   3.907   4.567  16.604 -1.0274  0.1089  1.3659
  884MPD2     C12958   1.078   0.007  15.495 -0.2233 -0.5307 -0.4099
  884MPD2    C112959   1.064   0.106  15.403  0.2064  0.2300  0.2108
  884MPD2    C212960   0.941   0.157  15.381  0.1498 -0.8940 -0.4904
  884MPD2    C312961   0.843   0.123  15.467  0.2122 -0.4394 -0.6031
  884MPD2    C412962   0.847   0.019  15.553  0.0432  0.2549 -0.1455
  884MPD2    C512963   0.967   4.684  15.567 -0.3583 -0.0246  0.2997
  884MPD2     H12964   0.930   0.238  15.310  0.7845 -1.1557 -0.8910
  884MPD2    H112965   0.769   4.711  15.623  1.2535  0.2998  1.2170
  884MPD2    H212966   1.171   4.677  15.516 -0.8937 -1.6305 -0.1224
  884MPD2    H312967   0.986   4.595  15.626  1.0686  0.5668  0.7279
  884MPD2     N12968   0.729   0.203  15.453  0.3894  0.5799 -0.1615
  884MPD2    H512969   0.737   0.282  15.389 -1.6583  1.3200  0.4678
  884MPD2    N112970   1.169   0.156  15.325  0.1626 -0.1996  0.2597
  884MPD2    H712971   1.137   0.238  15.275  3.2625  0.7073 -0.2371
  885MPD2     C12972   4.222   0.556   0.606 -0.3347  0.4879 -0.1342
  885MPD2    C112973   4.263   0.440   0.541 -0.4449  0.4054 -0.9061
  885MPD2    C212974   4.240   0.425   0.404  0.4718  0.1246 -0.2679
  885MPD2    C312975   4.161   0.511   0.334 -0.7597 -0.3181 -0.6593
  885MPD2    C412976   4.115   0.628   0.401 -0.1388 -0.4576  0.7749
  885MPD2    C512977   4.148   0.649   0.532  0.1317 -0.3354  0.1048
  885MPD2     H12978   4.265   0.339   0.344  1.1933 -0.5622  1.0142
  885MPD2    H112979   4.062   0.711   0.355  0.4524 -0.1201  0.6962
  885MPD2    H212980   4.253   0.588   0.705 -1.8645 -0.5566  0.6940
  885MPD2    H312981   4.129   0.742   0.584 -0.1812 -0.1788 -0.2833
  885MPD2     N12982   4.144   0.487   0.199 -0.1096 -0.7106  0.4479
  885MPD2    H512983   4.206   0.424   0.150  0.2493 -0.0658  0.0655
  885MPD2    N112984   4.327   0.345   0.617  0.0436 -0.6598  0.1830
  885MPD2    H712985   4.330   0.369   0.715  1.4770  0.7400 -0.2066
  886MPD2     C12986   0.841   3.206  15.299  0.5468 -1.0518  0.3250
  886MPD2    C112987   0.826   3.284  15.408  0.1214  0.1180  0.1330
  886MPD2    C212988   0.810   3.421  15.401  0.4959  0.2785  0.6782
  886MPD2    C312989   0.814   3.482  15.279  0.7381 -0.0966  0.1442
  886MPD2    C412990   0.839   3.400  15.169  0.2516 -0.9570  0.7846
  886MPD2    C512991   0.846   3.268  15.181  0.3959  0.0119  0.8937
  886MPD2     H12992   0.782   3.465  15.496  0.8047  0.2075  0.8017
  886MPD2    H112993   0.836   3.451  15.073  3.0685  0.9478  1.7148
  886MPD2    H212994   0.833   3.098  15.300  0.2782 -1.0450 -0.7410
  886MPD2    H312995   0.867   3.214  15.089  0.4163 -0.0472  0.9331
  886MPD2     N12996   0.796   3.623  15.258  1.0653 -0.5157  0.1852
  886MPD2    H512997   0.785   3.655  15.163 -1.0506  0.7960  0.8856
  886MPD2    N112998   0.843   3.226  15.537 -0.1433 -0.2179  0.0414
  886MPD2    H712999   0.828   3.290  15.614  1.8471  0.9080 -0.5116
  887MPD2     C13000   1.297   3.383  16.216 -0.0214 -0.0055  0.2538
  887MPD2    C113001   1.190   3.416  16.130  0.1501 -0.2991  0.0904
  887MPD2    C213002   1.175   3.548  16.107 -0.1674  0.7762 -0.1482
  887MPD2    C313003   1.252   3.644  16.161 -0.5302 -0.4732 -0.4332
  887MPD2    C413004   1.355   3.612  16.243 -0.7608 -0.1413 -0.4949
  887MPD2    C513005   1.373   3.481  16.275  0.2944  0.3092  0.5893
  887MPD2     H13006   1.092   3.582  16.046  0.8686  1.9141 -0.9431
  887MPD2    H113007   1.428   3.679  16.288  1.2552 -1.1165 -2.3322
  887MPD2    H213008   1.316   3.283  16.254  0.6500  0.3405  0.8385
  887MPD2    H313009   1.447   3.454  16.349  0.5586  1.4062  0.7155
  887MPD2     N13010   1.225   3.772  16.118  0.5825 -0.7776  0.0884
  887MPD2    H513011   1.141   3.785  16.063 -0.2059  1.8678  1.8896
  887MPD2    N113012   1.112   3.310  16.078  0.7547  0.1854  0.0574
  887MPD2    H713013   1.120   3.214  16.110 -0.4270  0.7452  2.0707
  888MPD2     C13014   3.359   3.742  14.963 -0.2460 -0.5891  0.8440
  888MPD2    C113015   3.329   3.791  15.091 -0.2969 -0.5906  0.2482
  888MPD2    C213016   3.345   3.923  15.129  0.5049  0.7620  0.1504
  888MPD2    C313017   3.363   4.017  15.030 -0.2810 -0.1393 -0.3851
  888MPD2    C413018   3.387   3.968  14.896 -0.2073 -0.6681 -0.7824
  888MPD2    C513019   3.384   3.837  14.864  0.1052  0.0242  0.1039
  888MPD2     H13020   3.326   3.941  15.234 -0.4685  0.6233 -0.0036
  888MPD2    H113021   3.412   4.031  14.812  2.1643 -1.9104 -1.0089
  888MPD2    H213022   3.387   3.639  14.944  1.6963  0.1635 -0.3555
  888MPD2    H313023   3.408   3.812  14.761 -2.7588 -0.1352 -0.5092
  888MPD2     N13024   3.362   4.157  15.063  0.1785 -0.1298 -0.7060
  888MPD2    H513025   3.365   4.181  15.162  0.7613  0.8123 -0.9525
  888MPD2    N113026   3.305   3.683  15.176 -0.7136 -0.4081 -0.3713
  888MPD2    H713027   3.296   3.593  15.131 -0.7767  0.7054 -2.5792
  889MPD2     C13028   2.614   3.254  12.693 -0.6454 -0.0468 -0.3484
  889MPD2    C113029   2.569   3.240  12.823  0.5350  0.5731 -0.5896
  889MPD2    C213030   2.545   3.362  12.887 -0.1616  0.6812 -0.4020
  889MPD2    C313031   2.542   3.484  12.828 -0.6257  0.0254  0.1695
  889MPD2    C413032   2.594   3.493  12.701  0.4347  0.7431  0.1579
  889MPD2    C513033   2.620   3.374  12.635  0.6460 -0.4503 -0.0754
  889MPD2     H13034   2.506   3.344  12.987  0.3877  0.9707 -0.1372
  889MPD2    H113035   2.629   3.589  12.664 -0.9651  0.9365 -0.6406
  889MPD2    H213036   2.633   3.169  12.629  1.4694  0.0121  0.2077
  889MPD2    H313037   2.649   3.374  12.530  1.7203 -1.4782  0.2292
  889MPD2     N13038   2.499   3.596  12.902  0.5108 -0.1254  0.9741
  889MPD2    H513039   2.497   3.580  13.002  0.3059  0.9435  1.1422
  889MPD2    N113040   2.598   3.118  12.889 -0.6799 -0.3910 -0.2649
  889MPD2    H713041   2.650   3.046  12.840 -0.1053  0.4386 -0.8900
  890MPD2     C13042   1.723   0.095  14.997 -0.4223 -0.0144 -0.0475
  890MPD2    C113043   1.843   0.158  15.025  0.1523 -0.7351 -0.4882
  890MPD2    C213044   1.907   0.149  15.153  0.8431 -0.4538 -0.5365
  890MPD2    C313045   1.849   0.071  15.245 -0.0654 -0.3669  0.6020
  890MPD2    C413046   1.728   4.720  15.213  0.1217 -0.1063  0.5664
  890MPD2    C513047   1.663   0.019  15.091 -0.2685 -0.1760  0.4646
  890MPD2     H13048   1.999   0.199  15.181 -0.6091  2.5844 -1.1143
  890MPD2    H113049   1.687   4.654  15.288 -0.1708 -0.1263  0.3890
  890MPD2    H213050   1.665   0.105  14.907  1.9254  0.4777 -1.5131
  890MPD2    H313051   1.571   4.684  15.076  0.2418 -1.3596  1.7571
  890MPD2     N13052   1.910   0.074  15.379  0.1666 -0.2801  0.4268
  890MPD2    H513053   1.999   0.122  15.387 -0.6005  1.0020  1.2865
  890MPD2    N113054   1.899   0.229  14.916  0.2067  0.1156  0.6089
  890MPD2    H713055   1.844   0.229  14.831  0.5367  0.6100  0.3928
  891MPD2     C13056   0.374   3.413  16.518 -0.9252 -0.3308  0.0380
  891MPD2    C113057   0.313   3.461  16.631  0.0337 -0.1859  0.4552
  891MPD2    C213058   0.390   3.541  16.714 -0.5118  0.1789  0.2394
  891MPD2    C313059   0.524   3.567  16.689  0.8241  0.6409  0.2341
  891MPD2    C413060   0.587   3.504  16.585  0.5176 -0.7013  0.0033
  891MPD2    C513061   0.509   3.432  16.500 -0.2506  0.4088 -0.4051
  891MPD2     H13062   0.343   3.603  16.790 -0.7354 -0.0942  0.3248
  891MPD2    H113063   0.690   3.526  16.560  0.1267  0.3478 -0.6827
  891MPD2    H213064   0.328   3.349  16.443  0.1368 -0.1603 -0.7540
  891MPD2    H313065   0.563   3.392  16.415  0.1704 -2.2296  1.0876
  891MPD2     N13066   0.596   3.667  16.764  0.5564  0.4254  0.1213
  891MPD2    H513067   0.546   3.737  16.818 -1.3907 -1.3482  0.5605
  891MPD2    N113068   0.172   3.453  16.638 -0.0860  0.2195  0.1909
  891MPD2    H713069   0.113   3.419  16.562  0.2111 -0.4998  0.2803
  892MPD2     C13070   1.141   4.447  15.127  0.7072 -0.6048  0.0727
  892MPD2    C113071   1.061   4.407  15.023 -0.3349  0.7449 -0.8795
  892MPD2    C213072   1.116   4.365  14.907 -0.5209  0.7321  0.4761
  892MPD2    C313073   1.254   4.357  14.890 -0.0370  0.6566  0.0537
  892MPD2    C413074   1.331   4.403  14.997 -0.6286 -0.3541  0.0939
  892MPD2    C513075   1.274   4.447  15.115 -0.5934 -0.7177  0.2844
  892MPD2     H13076   1.054   4.347  14.820 -0.8495 -0.2565  0.9192
  892MPD2    H113077   1.438   4.416  14.982 -0.6602  0.5171  0.6987
  892MPD2    H213078   1.098   4.496  15.214 -2.4941 -0.0388 -1.8269
  892MPD2    H313079   1.334   4.489  15.195  1.7590 -0.7520 -1.4643
  892MPD2     N13080   1.313   4.324  14.762 -0.0929 -0.2884  0.2373
  892MPD2    H513081   1.413   4.338  14.756  0.0297 -1.3841 -0.1797
  892MPD2    N113082   0.915   4.418  15.031 -0.0379  0.1118  0.2135
  892MPD2    H713083   0.872   4.403  14.940  1.9505  0.1568 -0.7275
  893MPD2     C13084   3.279   3.656   2.400 -0.1879 -0.5264  0.4418
  893MPD2    C113085   3.247   3.566   2.299 -0.1256  0.3798  1.2537
  893MPD2    C213086   3.112   3.539   2.279 -0.2650  0.3128  0.5147
  893MPD2    C313087   3.014   3.598   2.361 -0.0867  0.9170 -0.0351
  893MPD2    C413088   3.058   3.661   2.476 -1.0777 -0.8457 -0.1234
  893MPD2    C513089   3.189   3.683   2.496  0.6509  0.0033 -0.3510
  893MPD2     H13090   3.070   3.475   2.202  0.0558  1.4007 -0.5610
  893MPD2    H113091   2.985   3.703   2.545  0.5470  0.2384  0.9383
  893MPD2    H213092   3.382   3.689   2.409 -0.3850  0.2389 -0.1152
  893MPD2    H313093   3.226   3.738   2.582 -0.1083 -1.7199  1.0692
  893MPD2     N13094   2.875   3.584   2.344  0.0902 -0.1126  0.1037
  893MPD2    H513095   2.809   3.627   2.408 -2.6420 -1.1084 -2.0320
  893MPD2    N113096   3.347   3.510   2.221 -0.8328 -0.1440  0.5247
  893MPD2    H713097   3.440   3.547   2.239 -1.0014  1.1863 -1.2755
  894MPD2     C13098   1.502   0.572   1.090 -0.2817 -0.0769  0.0439
  894MPD2    C113099   1.474   0.620   1.216 -0.1365  0.4582  0.0057
  894MPD2    C213100   1.517   0.751   1.238  0.6401  0.1686 -0.0459
  894MPD2    C313101   1.591   0.824   1.148  0.1542 -0.4660  0.2365
  894MPD2    C413102   1.627   0.772   1.031 -0.4282 -1.0712  0.4637
  894MPD2    C513103   1.586   0.639   1.006  0.1319 -0.7216 -0.1785
  894MPD2     H13104   1.494   0.794   1.334 -2.8887 -1.3862 -0.1911
  894MPD2    H113105   1.692   0.822   0.960 -2.3406 -3.2061 -2.8056
  894MPD2    H213106   1.493   0.467   1.065  0.0104 -0.1066  0.0561
  894MPD2    H313107   1.608   0.586   0.914 -0.3832 -0.2489 -0.5773
  894MPD2     N13108   1.624   0.955   1.188  0.1652 -0.1058  0.2627
  894MPD2    H513109   1.610   0.985   1.284 -0.5459  0.0453  0.1089
  894MPD2    N113110   1.389   0.559   1.311 -0.0034  0.0754 -0.0839
  894MPD2    H713111   1.387   0.609   1.399 -0.0838  1.1353 -0.6952
  895MPD2     C13112   0.330   3.837  13.861 -1.1328  0.3306 -0.4304
  895MPD2    C113113   0.244   3.821  13.751 -0.1761 -0.3420 -0.4002
  895MPD2    C213114   0.261   3.708  13.667  0.2719 -0.4567 -0.7403
  895MPD2    C313115   0.375   3.635  13.669  0.4980 -0.2021 -0.7059
  895MPD2    C413116   0.470   3.680  13.761 -0.2663 -0.6872 -0.8675
  895MPD2    C513117   0.455   3.778  13.856 -0.9359  0.6099 -0.1438
  895MPD2     H13118   0.200   3.698  13.578  0.2165 -0.9219 -0.6514
  895MPD2    H113119   0.566   3.630  13.768  1.5258  2.6021 -1.6150
  895MPD2    H213120   0.320   3.920  13.930 -1.4999  1.1462 -1.4555
  895MPD2    H313121   0.540   3.806  13.917 -0.2738  0.9530 -1.2055
  895MPD2     N13122   0.384   3.531  13.578  0.0043  0.7384 -0.0671
  895MPD2    H513123   0.296   3.512  13.532 -0.5016 -2.5738  2.2870
  895MPD2    N113124   0.128   3.907  13.725 -0.9073  0.4502  0.4949
  895MPD2    H713125   0.079   3.907  13.637  1.7974 -0.3493 -0.9982
  896MPD2     C13126   2.900   1.514   2.138 -0.4247 -0.0022 -0.3111
  896MPD2    C113127   2.912   1.487   2.007 -0.2284 -0.4721  0.2874
  896MPD2    C213128   2.833   1.388   1.949  0.4028  0.5906 -0.1763
  896MPD2    C313129   2.722   1.340   2.018 -0.2106  0.0428  0.1218
  896MPD2    C413130   2.699   1.381   2.146  0.3333  0.7893  0.3411
  896MPD2    C513131   2.795   1.454   2.213  0.2685  0.3159 -0.1686
  896MPD2     H13132   2.850   1.364   1.845 -0.2228  1.0973 -0.3963
  896MPD2    H113133   2.619   1.340   2.207  0.8498  1.0148  1.1663
  896MPD2    H213134   2.976   1.577   2.183 -0.2328  0.2650 -1.0208
  896MPD2    H313135   2.780   1.471   2.319 -3.1100  1.0045 -0.7685
  896MPD2     N13136   2.631   1.255   1.949  0.1472 -0.6421 -0.0924
  896MPD2    H513137   2.660   1.219   1.858  1.2087 -2.4779  0.9614
  896MPD2    N113138   3.015   1.559   1.940 -0.3189 -0.1126  0.4634
  896MPD2    H713139   3.081   1.611   1.996  1.0835 -0.5639 -0.7656
  897MPD2     C13140   3.512   3.216  10.441 -0.7968 -0.5843 -0.0352
  897MPD2    C113141   3.593   3.179  10.551 -0.0925 -0.3777 -0.3985
  897MPD2    C213142   3.543   3.177  10.677 -0.0431  0.6659 -0.1762
  897MPD2    C313143   3.407   3.210  10.700  0.0246  0.3873  0.8574
  897MPD2    C413144   3.341   3.264  10.593 -0.1153  0.4622  0.6282
  897MPD2    C513145   3.383   3.255  10.462 -0.2281  0.5081 -0.0402
  897MPD2     H13146   3.587   3.121  10.759 -0.9037 -1.8984 -1.4448
  897MPD2    H113147   3.242   3.308  10.605  0.0665  1.2757 -0.7782
  897MPD2    H213148   3.559   3.208  10.344  1.1652 -1.4359  0.9918
  897MPD2    H313149   3.313   3.288  10.387  0.5365  1.7473 -0.2145
  897MPD2     N13150   3.360   3.205  10.832 -0.8653  0.3031  0.2902
  897MPD2    H513151   3.428   3.194  10.906 -0.7944 -0.8352  0.0532
  897MPD2    N113152   3.724   3.126  10.522 -0.6708  0.1448  0.1026
  897MPD2    H713153   3.755   3.136  10.426 -1.0234 -0.7515 -0.0994
  898MPD2     C13154   1.319   3.873   0.472  0.6611  0.6964  0.0636
  898MPD2    C113155   1.435   3.928   0.430 -0.6810 -0.3414 -0.1373
  898MPD2    C213156   1.438   4.059   0.398  0.2080 -0.1185 -0.4708
  898MPD2    C313157   1.332   4.145   0.425 -0.8576 -0.3703 -0.2549
  898MPD2    C413158   1.219   4.091   0.481  0.1873  0.0280  0.8696
  898MPD2    C513159   1.211   3.952   0.500  0.2018  0.3437  0.3396
  898MPD2     H13160   1.532   4.102   0.364 -0.0445  1.2028  0.5123
  898MPD2    H113161   1.127   4.140   0.508 -0.0892 -0.2958  0.5242
  898MPD2    H213162   1.319   3.767   0.492 -1.9029  0.4411 -1.2971
  898MPD2    H313163   1.125   3.908   0.549 -0.6959 -0.3103 -1.7952
  898MPD2     N13164   1.354   4.282   0.395 -0.3315  0.0370 -0.9893
  898MPD2    H513165   1.445   4.295   0.352  0.5197 -1.1934  0.4492
  898MPD2    N113166   1.561   3.859   0.422  0.1478  0.0501 -0.4862
  898MPD2    H713167   1.639   3.922   0.401 -0.0516  0.9561  1.4927
  899MPD2     C13168   2.328   0.090  17.646 -0.1952  0.3278  0.0132
  899MPD2    C113169   2.276   0.174   0.052  0.3029 -0.3630  0.1999
  899MPD2    C213170   2.244   0.126   0.177  0.2880 -0.0895 -0.7572
  899MPD2    C313171   2.256   4.711   0.204 -0.3416 -0.3320 -0.8218
  899MPD2    C413172   2.322   4.636   0.113  0.2174 -0.4452 -0.6047
  899MPD2    C513173   2.357   4.682  17.674  0.0468 -0.3201 -0.4306
  899MPD2     H13174   2.209   0.190   0.256  0.9596  1.5489 -1.7944
  899MPD2    H113175   2.329   4.531   0.140  0.9755  0.8241  3.9842
  899MPD2    H213176   2.350   0.123  17.546 -3.8161  0.4342 -0.7351
  899MPD2    H313177   2.410   4.623  17.601 -3.0015 -3.2844 -0.2272
  899MPD2     N13178   2.203   4.652   0.324 -0.2338  0.0709  0.1384
  899MPD2    H513179   2.245   4.562   0.348  0.9279  0.3270 -0.9322
  899MPD2    N113180   2.252   0.310   0.016  0.2844  0.3543 -0.1980
  899MPD2    H713181   2.255   0.334  17.604 -0.9791 -0.1072 -0.3575
  900MPD2     C13182   1.550   1.843  12.747 -1.1053 -0.2050 -0.5455
  900MPD2    C113183   1.483   1.739  12.693 -0.0894  0.4605 -1.0339
  900MPD2    C213184   1.384   1.772  12.604 -0.2195 -0.4722  0.3367
  900MPD2    C313185   1.357   1.904  12.566  0.5097 -0.5364  0.2341
  900MPD2    C413186   1.429   2.012  12.618 -0.0899 -1.0355  0.4884
  900MPD2    C513187   1.530   1.977  12.708  0.1041 -0.0457  0.0952
  900MPD2     H13188   1.322   1.702  12.549 -3.5545 -0.3318  3.8913
  900MPD2    H113189   1.424   2.107  12.567  0.1508 -0.8972  0.7260
  900MPD2    H213190   1.635   1.831  12.814 -1.2721 -2.3456 -0.7088
  900MPD2    H313191   1.607   2.049  12.735  0.2388 -0.2508  0.2632
  900MPD2     N13192   1.252   1.920  12.472  0.1571 -0.7938  0.3545
  900MPD2    H513193   1.220   1.834  12.428 -2.3739  0.0962  0.4397
  900MPD2    N113194   1.502   1.608  12.742  0.2107 -0.5561  0.1332
  900MPD2    H713195   1.575   1.595  12.811  0.1809 -0.9705  0.0858
  901MPD2     C13196   1.125   0.603  12.700  0.5771 -0.3674 -0.3467
  901MPD2    C113197   1.260   0.580  12.732 -1.1164 -0.0411 -0.0290
  901MPD2    C213198   1.342   0.687  12.757  0.6813  0.2939  0.2241
  901MPD2    C313199   1.294   0.814  12.740 -0.6550 -0.2891 -0.1222
  901MPD2    C413200   1.165   0.839  12.686  0.3588  0.0175 -0.5002
  901MPD2    C513201   1.088   0.731  12.665  0.1659 -0.4779 -0.2933
  901MPD2     H13202   1.444   0.668  12.787  0.8995 -0.6115 -1.1020
  901MPD2    H113203   1.119   0.936  12.673  1.9716  0.8131 -0.2771
  901MPD2    H213204   1.057   0.520  12.685  0.9671 -0.3458 -2.1664
  901MPD2    H313205   0.988   0.745  12.625  0.5804  1.7950 -0.5168
  901MPD2     N13206   1.369   0.925  12.785  0.7121  0.5070 -0.2929
  901MPD2    H513207   1.454   0.905  12.837 -0.0505  0.4643  0.9415
  901MPD2    N113208   1.301   0.443  12.740  0.6504  0.1678 -0.8066
  901MPD2    H713209   1.223   0.380  12.724  0.0023  0.1226  2.4608
  902MPD2     C13210   4.648   4.415  13.319  1.1285  0.0989 -0.1941
  902MPD2    C113211   4.589   4.392  13.196  0.3814 -0.2799 -0.2565
  902MPD2    C213212   4.661   4.349  13.083  0.1987  0.2236  0.4405
  902MPD2    C313213   0.079   4.338  13.093  0.8279  0.4202 -0.0305
  902MPD2    C413214   0.132   4.347  13.220 -0.0578 -0.2893  0.1984
  902MPD2    C513215   0.060   4.377  13.328 -0.2900 -0.1592 -0.0314
  902MPD2     H13216   4.607   4.316  12.995 -2.0639  2.8689  0.8595
  902MPD2    H113217   0.238   4.328  13.232  0.3157  1.1254 -0.8994
  902MPD2    H213218   4.585   4.434  13.405 -1.0677  0.8746 -1.9646
  902MPD2    H313219   0.121   4.397  13.415 -0.5432  0.2052  0.0605
  902MPD2     N13220   0.168   4.312  12.987 -0.4684 -0.2983 -0.6731
  902MPD2    H513221   0.268   4.306  13.006 -0.8435  0.8352  1.7422
  902MPD2    N113222   4.452   4.432  13.184 -0.2294  0.2845  0.0673
  902MPD2    H713223   4.401   4.445  13.271  1.4811  1.2167  0.9258
  903MPD2     C13224   0.077   4.390  12.146 -0.8236 -0.1417 -0.2785
  903MPD2    C113225   0.128   4.281  12.207 -0.5106 -0.0759  0.6415
  903MPD2    C213226   0.120   4.162  12.140  0.8649  0.3098 -0.3629
  903MPD2    C313227   0.062   4.146  12.013  0.3907  0.0883 -0.2641
  903MPD2    C413228   0.015   4.259  11.953 -0.3903  0.1617  0.6684
  903MPD2    C513229   0.029   4.382  12.020  0.3473  0.0052 -0.1824
  903MPD2     H13230   0.155   4.073  12.191 -0.8592 -0.9699 -1.3750
  903MPD2    H113231   4.688   4.255  11.856  1.0119 -0.5824 -0.0014
  903MPD2    H213232   0.076   4.485  12.198  0.6800  0.1298 -0.7568
  903MPD2    H313233   0.002   4.478  11.976  0.2048 -0.1393 -0.4099
  903MPD2     N13234   0.023   4.016  11.978  0.2074  0.0221 -0.1455
  903MPD2    H513235   0.044   3.940  12.041 -0.8590 -1.4833 -1.6347
  903MPD2    N113236   0.179   4.296  12.338  0.4696 -0.2725  0.1814
  903MPD2    H713237   0.151   4.380  12.387 -0.3787 -0.5762  0.2123
  904MPD2     C13238   4.620   2.862  14.142  0.4368  0.8979 -0.6121
  904MPD2    C113239   4.690   2.976  14.145 -0.4371  0.4749 -0.6531
  904MPD2    C213240   0.107   2.967  14.167 -0.5171 -0.2920 -0.5856
  904MPD2    C313241   0.176   2.848  14.178 -0.2939  0.6972  0.1776
  904MPD2    C413242   0.090   2.735  14.188  0.5378  0.1453  0.5686
  904MPD2    C513243   4.679   2.740  14.165  0.5452 -0.3838 -0.1496
  904MPD2     H13244   0.152   3.064  14.153 -0.1492 -0.4150 -0.2237
  904MPD2    H113245   0.127   2.634  14.194 -0.2430 -0.2826 -1.5343
  904MPD2    H213246   4.514   2.864  14.122  0.4411  1.2226 -0.5949
  904MPD2    H313247   4.617   2.652  14.178  2.6476 -1.7109  0.9700
  904MPD2     N13248   0.320   2.844  14.180 -0.6150 -0.3007  0.1846
  904MPD2    H513249   0.360   2.937  14.188 -2.1289  0.1217  2.7768
  904MPD2    N113250   4.636   3.102  14.107 -0.2542  0.2350  0.5718
  904MPD2    H713251   4.696   3.184  14.117  1.7726 -1.1091 -0.3751
  905MPD2     C13252   4.394   3.200  13.428 -0.5029  0.3934  0.0573
  905MPD2    C113253   4.468   3.293  13.493  0.6049  0.9867  0.5890
  905MPD2    C213254   4.595   3.321  13.442  0.5400  0.7825 -0.2799
  905MPD2    C313255   4.648   3.256  13.329 -0.4909  0.1610  0.3930
  905MPD2    C413256   4.561   3.174  13.266  0.5380 -0.0685  0.1586
  905MPD2    C513257   4.442   3.136  13.319  0.0953 -0.5603  0.4664
  905MPD2     H13258   4.666   3.381  13.496  1.9744  0.0528 -1.3570
  905MPD2    H113259   4.597   3.119  13.180 -0.5376  0.5520 -0.6909
  905MPD2    H213260   4.297   3.165  13.461 -0.9923  1.8900  0.1995
  905MPD2    H313261   4.387   3.052  13.276  1.8389 -0.0531 -2.7036
  905MPD2     N13262   0.062   3.266  13.298 -0.8352  0.1542  0.0273
  905MPD2    H513263   0.086   3.209  13.217  0.1510  0.2205  0.2776
  905MPD2    N113264   4.432   3.344  13.621  1.1172 -0.4580 -0.6300
  905MPD2    H713265   4.342   3.310  13.651  1.6684 -0.2396  1.2922
  906MPD2     C13266   2.216   3.286  11.847  0.6485 -0.1596 -0.0694
  906MPD2    C113267   2.154   3.256  11.729 -0.3112 -0.4669 -0.7567
  906MPD2    C213268   2.064   3.146  11.719 -0.5005  0.4646  0.1263
  906MPD2    C313269   2.056   3.058  11.826 -0.7878 -0.8449  0.1491
  906MPD2    C413270   2.117   3.090  11.950 -0.1840  0.0727  0.8319
  906MPD2    C513271   2.188   3.209  11.956  0.2073  0.1382 -0.3909
  906MPD2     H13272   2.006   3.128  11.630  0.1442 -0.1505 -0.1622
  906MPD2    H113273   2.100   3.024  12.034  1.6586 -0.2346  0.9598
  906MPD2    H213274   2.283   3.372  11.853 -1.2521  1.3884 -1.1107
  906MPD2    H313275   2.242   3.234  12.047  0.7481  1.0368 -0.9620
  906MPD2     N13276   1.978   2.946  11.820 -0.4365 -0.0356 -0.1561
  906MPD2    H513277   1.950   2.897  11.905  2.4038 -1.2058  0.1419
  906MPD2    N113278   2.158   3.344  11.618  1.1095 -0.5363  0.0122
  906MPD2    H713279   2.100   3.319  11.538 -0.2028 -0.9632  1.0876
  907MPD2     C13280   0.837   2.284  15.841 -0.3370  0.4674  0.2064
  907MPD2    C113281   0.936   2.194  15.806  0.3810  0.6629  0.2860
  907MPD2    C213282   1.008   2.130  15.908 -0.0234 -0.1405  0.3365
  907MPD2    C313283   0.983   2.150  16.040  0.0809 -0.0981 -0.0866
  907MPD2    C413284   0.902   2.254  16.077  0.2570  0.1947  0.7281
  907MPD2    C513285   0.825   2.309  15.975  0.2865 -0.0006  0.7282
  907MPD2     H13286   1.079   2.055  15.875  0.7780  1.3074 -1.2188
  907MPD2    H113287   0.880   2.295  16.175  0.9597  2.2522  0.0334
  907MPD2    H213288   0.773   2.318  15.761 -1.8076 -0.4306  1.0147
  907MPD2    H313289   0.758   2.387  16.009  0.1273 -0.0127  0.4344
  907MPD2     N13290   1.054   2.065  16.131  0.1437 -0.5696 -0.3601
  907MPD2    H513291   1.129   2.007  16.094 -2.4221 -3.0517 -1.7042
  907MPD2    N113292   0.960   2.157  15.668  0.1738 -0.0679  0.2930
  907MPD2    H713293   1.015   2.073  15.654  0.4372  0.1621 -0.0443
  908MPD2     C13294   4.091   2.905   9.799  0.2184  0.5225 -0.2918
  908MPD2    C113295   4.021   2.830   9.892  0.3763 -0.0073 -0.2112
  908MPD2    C213296   4.003   2.894  10.013 -0.9409 -0.1779  0.7043
  908MPD2    C313297   4.047   3.022  10.050 -0.3836  0.1397 -0.3712
  908MPD2    C413298   4.113   3.085   9.946 -0.1068 -0.0056  0.0604
  908MPD2    C513299   4.134   3.031   9.824  0.0645  0.6035  0.3518
  908MPD2     H13300   3.960   2.834  10.092 -0.1003 -1.1759  0.4028
  908MPD2    H113301   4.145   3.187   9.965  0.2203 -0.1678  0.3687
  908MPD2    H213302   4.118   2.873   9.699 -1.6492  0.0503 -0.6512
  908MPD2    H313303   4.187   3.084   9.746  1.1788  0.3363  0.9223
  908MPD2     N13304   4.028   3.070  10.178 -0.0402 -0.3094  0.4328
  908MPD2    H513305   3.999   2.997  10.242 -1.7810  0.0358  0.0258
  908MPD2    N113306   3.962   2.705   9.864 -0.0019 -0.6727 -0.4716
  908MPD2    H713307   3.916   2.671   9.948  0.6236  2.7120  1.2320
  909MPD2     C13308   4.147   0.988  12.006  0.3511 -0.6691 -0.6469
  909MPD2    C113309   4.142   1.102  11.933  0.4523  0.2667 -0.2322
  909MPD2    C213310   4.067   1.207  11.990  0.0073  0.5111 -0.2143
  909MPD2    C313311   3.971   1.193  12.091  0.2296  0.2255 -0.1477
  909MPD2    C413312   3.974   1.072  12.153  1.1129  0.1669  0.6467
  909MPD2    C513313   4.061   0.973  12.111 -0.2519  0.4605 -0.3842
  909MPD2     H13314   4.077   1.304  11.942  1.0125  0.2786 -0.4823
  909MPD2    H113315   3.909   1.059  12.239  2.6279  0.8063  1.8794
  909MPD2    H213316   4.227   0.918  11.984  0.1360 -1.2863  0.5981
  909MPD2    H313317   4.065   0.876  12.159 -0.4106 -0.1020 -1.5148
  909MPD2     N13318   3.893   1.299  12.129  0.3347 -0.1467  0.0439
  909MPD2    H513319   3.913   1.381  12.073  1.5046 -0.2992  0.2388
  909MPD2    N113320   4.226   1.120  11.818  0.1877 -0.4331 -0.0761
  909MPD2    H713321   4.223   1.214  11.780  3.0534  0.9466  3.0593
  910MPD2     C13322   0.232   2.809  16.092 -0.0040 -0.2338  0.0798
  910MPD2    C113323   0.306   2.717  16.018 -0.2348  0.3963 -0.7828
  910MPD2    C213324   0.305   2.727  15.877 -0.4741 -0.7876  0.0434
  910MPD2    C313325   0.243   2.829  15.807 -0.0394 -0.8501 -0.0150
  910MPD2    C413326   0.177   2.919  15.882 -0.5919 -0.1702 -0.7716
  910MPD2    C513327   0.165   2.909  16.017  0.8164  0.0912 -0.0059
  910MPD2     H13328   0.366   2.654  15.825  1.2086 -0.3500  1.4145
  910MPD2    H113329   0.121   2.995  15.829  0.8145 -0.2385 -2.3528
  910MPD2    H213330   0.221   2.814  16.199  1.4721  1.2144  0.1575
  910MPD2    H313331   0.114   2.987  16.072 -1.5563 -1.8147  0.5050
  910MPD2     N13332   0.244   2.838  15.668 -0.6077 -0.6118  0.5236
  910MPD2    H513333   0.201   2.918  15.622  0.1660 -0.9701 -0.8130
  910MPD2    N113334   0.379   2.614  16.077  0.0119  0.4344 -0.2141
  910MPD2    H713335   0.442   2.566  16.013  0.6094  1.2840 -0.2636
  911MPD2     C13336   3.298   3.714  16.267 -0.0560 -0.0316  0.4019
  911MPD2    C113337   3.302   3.772  16.388  0.4875 -0.5416 -0.2286
  911MPD2    C213338   3.244   3.895  16.416 -0.0155  0.4383 -0.0584
  911MPD2    C313339   3.190   3.970  16.318 -0.1746 -0.0431 -0.0347
  911MPD2    C413340   3.178   3.911  16.193 -0.0792 -0.0776 -0.0034
  911MPD2    C513341   3.228   3.784  16.178  0.0054  0.6404  0.2088
  911MPD2     H13342   3.238   3.939  16.514  1.8292 -0.8786  0.6380
  911MPD2    H113343   3.128   3.947  16.104 -0.0896  2.5044  1.0297
  911MPD2    H213344   3.329   3.612  16.246  0.7241  0.1340  0.7523
  911MPD2    H313345   3.222   3.746  16.076 -0.1806  1.0596  0.0614
  911MPD2     N13346   3.138   4.101  16.335  0.4658 -0.4660  0.6610
  911MPD2    H513347   3.124   4.156  16.250  1.6573  1.7706  1.8956
  911MPD2    N113348   3.375   3.703  16.488 -0.3058  0.5095 -0.2823
  911MPD2    H713349   3.414   3.617  16.451  0.9737  0.2512  1.6801
  912MPD2     C13350   2.798   3.852  16.027  0.1476 -0.1275 -0.0881
  912MPD2    C113351   2.803   3.912  16.155  0.1701 -0.3872 -0.3889
  912MPD2    C213352   2.846   3.833  16.263 -0.3158 -0.1617 -0.2331
  912MPD2    C313353   2.873   3.697  16.247  0.0719 -0.3318  0.6107
  912MPD2    C413354   2.871   3.646  16.117 -0.8553  0.0469  0.1035
  912MPD2    C513355   2.839   3.723  16.011  0.3233  0.0454 -0.7584
  912MPD2     H13356   2.861   3.863  16.366  0.3744  0.6659 -0.5750
  912MPD2    H113357   2.901   3.544  16.096 -0.9396  0.0827 -0.1932
  912MPD2    H213358   2.773   3.906  15.936  0.6608  1.2733  0.6044
  912MPD2    H313359   2.835   3.689  15.908 -4.2953 -2.5298  0.2909
  912MPD2     N13360   2.910   3.614  16.359 -0.3084  0.4434 -0.4138
  912MPD2    H513361   2.932   3.664  16.445 -0.5770 -1.3260  0.6780
  912MPD2    N113362   2.763   4.045  16.168 -0.2297  0.7011 -0.5355
  912MPD2    H713363   2.751   4.105  16.087 -3.0734  1.7718  0.6726
  913MPD2     C13364   3.913   4.342  10.991  0.0612  0.5212 -0.4201
  913MPD2    C113365   3.849   4.441  11.061 -0.1805 -0.1672 -0.1680
  913MPD2    C213366   3.718   4.480  11.018 -0.3216  0.2871 -0.2470
  913MPD2    C313367   3.664   4.422  10.898 -0.2787 -0.0714 -0.3196
  913MPD2    C413368   3.730   4.316  10.830 -0.8129  1.0166 -0.7186
  913MPD2    C513369   3.851   4.281  10.885  0.0290 -0.0205 -0.0700
  913MPD2     H13370   3.661   4.550  11.077 -0.2067 -0.5239  0.8140
  913MPD2    H113371   3.687   4.268  10.742 -1.5236  1.2975 -0.5258
  913MPD2    H213372   4.011   4.312  11.025  0.0231  2.3852  1.3331
  913MPD2    H313373   3.903   4.199  10.838 -0.9531 -0.9482  0.4520
  913MPD2     N13374   3.553   4.469  10.825 -0.5113 -0.2553 -0.2390
  913MPD2    H513375   3.521   4.419  10.742  0.4778  2.0948 -2.0397
  913MPD2    N113376   3.928   4.498  11.162  0.0001 -0.0861 -0.7677
  913MPD2    H713377   4.016   4.460  11.195 -1.1175 -2.0558 -0.0505
  914MPD2     C13378   1.191   0.094  12.013  1.3242 -0.2625  0.0506
  914MPD2    C113379   1.262   0.208  12.053  0.2516  0.6594 -0.0968
  914MPD2    C213380   1.303   0.205  12.187  0.2116  0.6470 -0.4623
  914MPD2    C313381   1.273   0.097  12.263  0.1034  0.0910  0.3358
  914MPD2    C413382   1.202   4.705  12.223  0.1092  0.0927 -1.0242
  914MPD2    C513383   1.158   4.711  12.094 -0.1762  0.1500 -0.2469
  914MPD2     H13384   1.354   0.290  12.231  0.1138  0.7174 -0.4853
  914MPD2    H113385   1.172   4.623  12.287  0.1821 -0.3062 -1.4989
  914MPD2    H213386   1.152   0.095  11.911 -1.5126 -0.6114  1.1247
  914MPD2    H313387   1.100   4.629  12.052 -0.2497  0.1469 -0.1395
  914MPD2     N13388   1.309   0.104  12.400 -0.3179  0.1359  0.4344
  914MPD2    H513389   1.358   0.187  12.429  2.5282 -2.3059  2.5515
  914MPD2    N113390   1.288   0.319  11.964 -0.2053  0.3370  0.3575
  914MPD2    H713391   1.264   0.307  11.866  0.7627  1.9923 -0.0715
  915MPD2     C13392   4.306   0.112  15.722  0.8375 -0.4356  0.6195
  915MPD2    C113393   4.181   0.158  15.697  0.6290  0.4820 -0.3280
  915MPD2    C213394   4.123   0.243  15.787  0.5081 -0.3947  0.8201
  915MPD2    C313395   4.185   0.291  15.902  0.3849  0.3281 -0.4297
  915MPD2    C413396   4.321   0.258  15.909 -0.3001  0.0491 -0.1480
  915MPD2    C513397   4.378   0.171  15.818 -0.2246 -0.0442  0.0443
  915MPD2     H13398   4.021   0.277  15.772  0.9170  0.9572  1.1620
  915MPD2    H113399   4.381   0.297  15.990  0.0622 -0.7012 -0.0531
  915MPD2    H213400   4.364   0.044  15.660 -0.2504  1.3409 -2.3345
  915MPD2    H313401   4.483   0.147  15.825  0.6089  3.0293 -1.6726
  915MPD2     N13402   4.109   0.369  15.996 -0.3052  0.2034  0.1026
  915MPD2    H513403   4.015   0.398  15.971  0.2967  2.4283  0.3421
  915MPD2    N113404   4.108   0.103  15.591 -0.5716 -0.1344 -0.0741
  915MPD2    H713405   4.151   0.016  15.561  0.4542  0.7745 -1.2490
  916MPD2     C13406   2.412   3.304  15.747 -0.7779  0.1421  0.2212
  916MPD2    C113407   2.409   3.193  15.831  0.5999 -0.1797 -0.6680
  916MPD2    C213408   2.466   3.076  15.790  0.1505  1.0984 -0.5463
  916MPD2    C313409   2.526   3.077  15.662  0.0084 -0.1435  0.4695
  916MPD2    C413410   2.514   3.184  15.576 -0.0298  0.1111  0.3582
  916MPD2    C513411   2.473   3.304  15.627  0.4837 -0.5547  0.1004
  916MPD2     H13412   2.458   2.985  15.849  0.0359  2.0825  0.9698
  916MPD2    H113413   2.542   3.183  15.471 -0.3178 -3.2546  0.3276
  916MPD2    H213414   2.360   3.396  15.772  1.3733  1.2159  0.7051
  916MPD2    H313415   2.469   3.392  15.564 -0.6914 -0.2622  0.5788
  916MPD2     N13416   2.576   2.946  15.625  0.0315  1.0516  0.1073
  916MPD2    H513417   2.551   2.873  15.691  2.8220 -0.1682 -0.1876
  916MPD2    N113418   2.357   3.213  15.967 -0.4939  0.1906  0.5391
  916MPD2    H713419   2.317   3.307  15.974 -2.0342 -0.3745 -0.5794
  917MPD2     C13420   2.987   0.417  11.578  0.1686  0.6923 -0.1019
  917MPD2    C113421   2.907   0.522  11.607 -0.1285  0.4764  0.4143
  917MPD2    C213422   2.969   0.651  11.611 -0.3137  0.1398 -0.9138
  917MPD2    C313423   3.102   0.667  11.576 -0.1186 -0.6721 -0.0354
  917MPD2    C413424   3.176   0.562  11.533  0.0493  0.1941 -0.2464
  917MPD2    C513425   3.119   0.442  11.537  0.3022 -0.4797 -0.3519
  917MPD2     H13426   2.902   0.733  11.636 -1.9047 -1.6969  0.8676
  917MPD2    H113427   3.275   0.578  11.492 -1.0643  1.9022 -2.2738
  917MPD2    H213428   2.944   0.317  11.589  0.7046  0.2174 -2.4521
  917MPD2    H313429   3.174   0.355  11.501 -1.6146 -1.2019 -1.5122
  917MPD2     N13430   3.152   0.796  11.587  0.0935  0.0850  0.3735
  917MPD2    H513431   3.086   0.870  11.606  0.1416 -0.3021  2.0293
  917MPD2    N113432   2.775   0.519  11.658 -0.2443 -0.0108  0.5833
  917MPD2    H713433   2.738   0.607  11.692  1.6370  1.4048 -1.0284
  918MPD2     C13434   2.568   1.064  12.249  0.3280 -0.7098  0.7224
  918MPD2    C113435   2.655   0.960  12.270  0.0209  0.3853  0.0595
  918MPD2    C213436   2.626   0.844  12.201  0.4385 -0.1609  0.2506
  918MPD2    C313437   2.516   0.835  12.118  0.0764  0.2142 -0.2979
  918MPD2    C413438   2.430   0.942  12.098 -0.5269 -0.2768 -0.8414
  918MPD2    C513439   2.454   1.052  12.176  0.0967 -0.0854 -0.1746
  918MPD2     H13440   2.693   0.759  12.195  0.1651 -0.3082 -0.8617
  918MPD2    H113441   2.338   0.950  12.042  0.4418 -0.0713 -2.3888
  918MPD2    H213442   2.570   1.162  12.295 -0.4042 -1.2871  1.9764
  918MPD2    H313443   2.394   1.140  12.157  0.3049  0.1534  0.2704
  918MPD2     N13444   2.503   0.708  12.052  0.2094 -1.3338 -0.4667
  918MPD2    H513445   2.576   0.639  12.066  0.8932 -0.5384 -0.0787
  918MPD2    N113446   2.779   0.971  12.338 -0.3456  0.2270 -0.4024
  918MPD2    H713447   2.830   0.885  12.356  0.3266  0.2567 -2.2227
  919MPD2     C13448   3.373   4.571  11.989  0.5119 -0.7597  0.4002
  919MPD2    C113449   3.366   4.438  11.953  0.2911 -0.4843  0.0771
  919MPD2    C213450   3.430   4.400  11.835  0.4939  0.5011 -0.4053
  919MPD2    C313451   3.504   4.489  11.767 -0.1669  0.5313  0.1498
  919MPD2    C413452   3.496   4.624  11.791 -0.3701  0.3544  0.2475
  919MPD2    C513453   3.445   4.660  11.913  0.7017 -0.0724 -0.4379
  919MPD2     H13454   3.428   4.296  11.804 -0.3594  0.3698  0.0894
  919MPD2    H113455   3.543   4.701  11.732  1.7420 -1.2655 -0.1551
  919MPD2    H213456   3.324   4.607  12.079 -0.0491  0.5973 -0.4609
  919MPD2    H313457   3.445   0.046  11.931  1.0832 -0.2877  0.8414
  919MPD2     N13458   3.581   4.466  11.651  0.6849  0.4934  0.6654
  919MPD2    H513459   3.622   4.549  11.608 -0.7797 -0.2012 -2.0825
  919MPD2    N113460   3.308   4.341  12.031 -0.0808 -0.1944 -0.6314
  919MPD2    H713461   3.305   4.254  11.977  2.4591  1.1774 -2.9911
  920MPD2     C13462   2.959   4.527  10.943 -0.0245  0.3096 -0.5618
  920MPD2    C113463   3.034   4.421  10.906 -0.2826 -0.2788  0.2334
  920MPD2    C213464   3.154   4.401  10.967  0.3753  0.7453 -0.0300
  920MPD2    C313465   3.210   4.485  11.055  0.3981 -0.4030  0.1624
  920MPD2    C413466   3.141   4.599  11.089  0.1586  0.7500 -1.0939
  920MPD2    C513467   3.012   4.615  11.036 -0.0066  1.1085  0.8102
  920MPD2     H13468   3.204   4.312  10.929 -1.0333 -2.0878  4.8363
  920MPD2    H113469   3.175   4.662  11.171 -2.2120  1.1602 -0.4391
  920MPD2    H213470   2.859   4.555  10.913 -1.7552 -2.4124  2.6325
  920MPD2    H313471   2.938   4.692  11.055  0.7614  2.0899 -0.1708
  920MPD2     N13472   3.334   4.443  11.105  0.6269  0.0689 -0.1940
  920MPD2    H513473   3.365   4.352  11.073  0.9269  0.4792 -1.0752
  920MPD2    N113474   2.994   4.324  10.811 -0.2047 -0.1560 -0.5970
  920MPD2    H713475   3.059   4.246  10.807 -0.3314 -0.3821  1.9935
  921MPD2     C13476   4.226   3.627  17.118  0.2601 -0.5155  0.3763
  921MPD2    C113477   4.213   3.545  17.009  0.0419 -0.2252 -0.2941
  921MPD2    C213478   4.086   3.527  16.956 -0.1037 -0.2048 -0.0978
  921MPD2    C313479   3.979   3.608  16.998 -0.2964  0.0066  0.0812
  921MPD2    C413480   3.999   3.698  17.098 -0.4820  0.0701  0.5869
  921MPD2    C513481   4.124   3.707  17.157 -0.6766  0.3960  1.1405
  921MPD2     H13482   4.066   3.460  16.873 -0.9592  2.0620 -1.6973
  921MPD2    H113483   3.921   3.771  17.118  0.1971  1.0203 -0.2230
  921MPD2    H213484   4.319   3.645  17.171 -0.1217  1.5265  0.3739
  921MPD2    H313485   4.130   3.765  17.248  0.9446  0.2308  1.1442
  921MPD2     N13486   3.861   3.588  16.929  0.1132  0.5655 -0.6384
  921MPD2    H513487   3.861   3.510  16.864  0.7070  0.3162 -0.3316
  921MPD2    N113488   4.330   3.493  16.951  0.1376 -0.6024 -0.0790
  921MPD2    H713489   4.415   3.538  16.983 -0.0537  0.3202 -0.8494
  922MPD2     C13490   0.512   1.091   0.218 -0.4430  0.2570 -0.1110
  922MPD2    C113491   0.478   1.167   0.108  0.0374  0.5933 -0.1169
  922MPD2    C213492   0.353   1.193   0.077  0.7315 -0.3659  0.8411
  922MPD2    C313493   0.246   1.151   0.156 -0.7649  0.3333 -0.2562
  922MPD2    C413494   0.282   1.064   0.261 -0.1593  1.1667 -0.1064
  922MPD2    C513495   0.412   1.032   0.287  0.9724 -0.0654  0.4208
  922MPD2     H13496   0.332   1.263  17.685  1.0470 -1.9304 -0.6363
  922MPD2    H113497   0.205   1.023   0.326  0.1341  3.3640  1.6337
  922MPD2    H213498   0.613   1.069   0.250 -0.2364  2.3654  0.6711
  922MPD2    H313499   0.439   0.954   0.357 -1.2689  0.7987  2.2751
  922MPD2     N13500   0.111   1.189   0.123 -0.1218 -0.3828  0.7045
  922MPD2    H513501   0.108   1.255   0.046  1.6576  0.8752  1.7144
  922MPD2    N113502   0.574   1.237   0.028  0.4154 -0.0020  0.1520
  922MPD2    H713503   0.546   1.298  17.639 -0.7085 -1.7711 -0.8297
  923MPD2     C13504   1.475   3.148   8.719 -1.0362  0.2553 -0.2094
  923MPD2    C113505   1.378   3.207   8.791  0.3709  0.7897 -0.7372
  923MPD2    C213506   1.415   3.264   8.916 -0.1188 -0.0037  0.6385
  923MPD2    C313507   1.551   3.280   8.955  0.1862  0.2009 -0.6822
  923MPD2    C413508   1.643   3.218   8.869  0.5382 -0.1239 -0.2969
  923MPD2    C513509   1.606   3.150   8.756  0.3338  0.1386 -0.3396
  923MPD2     H13510   1.337   3.305   8.979 -0.2483 -0.5206  0.8131
  923MPD2    H113511   1.747   3.212   8.900  0.2856 -1.2218  0.3448
  923MPD2    H213512   1.453   3.103   8.623 -0.4295 -0.3655 -0.0520
  923MPD2    H313513   1.678   3.118   8.681 -0.5323 -0.3182 -0.9714
  923MPD2     N13514   1.601   3.346   9.070 -0.0658 -0.7916  0.0200
  923MPD2    H513515   1.698   3.329   9.094  0.6297  0.4812 -1.8240
  923MPD2    N113516   1.241   3.211   8.745 -0.0462  0.0397  0.1678
  923MPD2    H713517   1.223   3.164   8.657  1.3952 -1.1315  0.4937
  924MPD2     C13518   0.906   1.250  16.257 -0.5787  0.0504  0.6116
  924MPD2    C113519   0.956   1.299  16.377 -0.4743 -0.4279  0.3768
  924MPD2    C213520   1.038   1.410  16.376  0.5200  0.0305 -0.5503
  924MPD2    C313521   1.065   1.476  16.257 -0.7450  0.1708  0.3156
  924MPD2    C413522   1.001   1.431  16.141 -0.1485 -0.3345  0.0491
  924MPD2    C513523   0.925   1.319  16.137 -0.0840  0.8177 -0.0894
  924MPD2     H13524   1.079   1.454  16.466 -0.8611  0.8751 -0.3263
  924MPD2    H113525   1.025   1.486  16.050 -1.6142 -2.6955 -1.7724
  924MPD2    H213526   0.839   1.165  16.263 -0.7770  0.3063  1.9532
  924MPD2    H313527   0.892   1.300  16.035  4.1972 -0.4114 -1.2358
  924MPD2     N13528   1.139   1.594  16.253  0.1156 -0.5438 -0.2207
  924MPD2    H513529   1.125   1.652  16.172  2.2590  1.7876  1.0798
  924MPD2    N113530   0.910   1.251  16.499  0.6681 -0.0989  1.0710
  924MPD2    H713531   0.840   1.177  16.491 -0.5331  1.0739  0.6708
  925MPD2     C13532   0.160   4.279  15.162  0.0248  0.2070 -0.6684
  925MPD2    C113533   0.053   4.202  15.113  0.0341  0.6359 -0.2893
  925MPD2    C213534   4.671   4.151  15.199 -0.2105 -0.0538 -0.2557
  925MPD2    C313535   4.674   4.178  15.333 -0.3377 -1.3142 -0.4282
  925MPD2    C413536   0.068   4.243  15.380  0.4787  0.0625  0.5958
  925MPD2    C513537   0.168   4.288  15.297 -0.1542 -0.0179 -0.4287
  925MPD2     H13538   4.587   4.098  15.156 -1.7619  0.7819  1.7263
  925MPD2    H113539   0.084   4.244  15.487  1.3769 -1.3347  0.4693
  925MPD2    H213540   0.232   4.333  15.102  0.2850  0.3696 -0.2060
  925MPD2    H313541   0.251   4.347  15.335  0.5985 -2.2896  1.4048
  925MPD2     N13542   4.570   4.131  15.419 -0.9274 -0.1922  0.0157
  925MPD2    H513543   4.507   4.060  15.382 -1.2184 -0.8703  1.7885
  925MPD2    N113544   0.044   4.174  14.977  0.6665 -0.7464  0.1646
  925MPD2    H713545   4.682   4.122  14.952 -1.1994  1.5532  1.6260
  926MPD2     C13546   3.445   2.313  13.221  0.3170  0.1739 -0.6908
  926MPD2    C113547   3.465   2.427  13.295 -0.1987  0.2434  0.6975
  926MPD2    C213548   3.554   2.527  13.258 -0.1627  0.0164 -0.5059
  926MPD2    C313549   3.608   2.513  13.135  0.0619 -0.3327 -0.5951
  926MPD2    C413550   3.594   2.402  13.055  0.2477 -0.0386  0.2260
  926MPD2    C513551   3.513   2.304  13.103 -0.4415 -0.3556 -0.1352
  926MPD2     H13552   3.568   2.611  13.325 -0.3904  0.8358 -1.4959
  926MPD2    H113553   3.642   2.382  12.960  0.3442  0.7914  0.0944
  926MPD2    H213554   3.379   2.230  13.244  1.6849 -0.6693  0.1623
  926MPD2    H313555   3.504   2.215  13.042 -3.2939  0.4271 -0.8478
  926MPD2     N13556   3.680   2.620  13.084 -0.4799  0.6854 -1.0788
  926MPD2    H513557   3.704   2.616  12.986  0.7258 -1.3083 -0.7089
  926MPD2    N113558   3.394   2.442  13.425  0.3742 -1.0831 -0.9468
  926MPD2    H713559   3.416   2.523  13.483 -0.9142 -0.3245 -1.5247
  927MPD2     C13560   3.250   0.303   0.621 -0.3800  1.1380 -0.2749
  927MPD2    C113561   3.378   0.347   0.588 -0.0683  0.3508  0.4159
  927MPD2    C213562   3.468   0.263   0.527  0.6262 -0.0149 -0.0524
  927MPD2    C313563   3.427   0.141   0.490  0.6490  0.3902 -0.1392
  927MPD2    C413564   3.302   0.096   0.517 -0.1170  0.2144  1.4070
  927MPD2    C513565   3.215   0.180   0.585 -0.1024 -0.4900 -0.4703
  927MPD2     H13566   3.572   0.283   0.504  0.8739 -2.5393 -1.1401
  927MPD2    H113567   3.260   0.004   0.477  1.4137  0.2991 -0.3531
  927MPD2    H213568   3.180   0.377   0.659  1.0025  2.6304 -0.6323
  927MPD2    H313569   3.117   0.142   0.610  0.0252 -0.4241  0.1295
  927MPD2     N13570   3.515   0.077   0.404  0.3602 -0.0432 -0.2248
  927MPD2    H513571   3.599   0.124   0.370 -0.8959  2.1554 -0.2962
  927MPD2    N113572   3.417   0.483   0.623 -0.6491 -0.2495  0.0974
  927MPD2    H713573   3.350   0.532   0.681 -0.9701  0.3646 -0.7921
  928MPD2     C13574   2.405   3.302   1.570  0.7221 -0.6785 -0.2253
  928MPD2    C113575   2.503   3.399   1.530 -0.5274 -0.7475 -0.4319
  928MPD2    C213576   2.518   3.431   1.393 -0.2485 -0.1087 -0.2427
  928MPD2    C313577   2.453   3.363   1.296  0.1192  0.3722 -0.1123
  928MPD2    C413578   2.363   3.274   1.335 -0.2130 -0.1769  0.0796
  928MPD2    C513579   2.342   3.240   1.467  0.1767 -0.4840  0.3755
  928MPD2     H13580   2.594   3.503   1.366 -1.1298  0.4760 -1.1584
  928MPD2    H113581   2.305   3.219   1.262 -1.6457  0.3659  0.8135
  928MPD2    H213582   2.401   3.262   1.671  0.6520  0.3239  0.1705
  928MPD2    H313583   2.289   3.148   1.485  3.3392 -2.4468 -0.4442
  928MPD2     N13584   2.474   3.385   1.160  0.0192  0.4636  0.2372
  928MPD2    H513585   2.414   3.332   1.098 -1.3389  1.4679  0.7138
  928MPD2    N113586   2.584   3.449   1.630 -0.7245  0.1892 -0.1914
  928MPD2    H713587   2.570   3.422   1.727  0.9129  1.1598  0.3195
  929MPD2     C13588   1.601   3.488  10.007 -1.5843  0.3512  0.3473
  929MPD2    C113589   1.526   3.423  10.104 -0.1379 -0.2430 -0.1312
  929MPD2    C213590   1.402   3.384  10.054 -0.5514  0.5418 -0.1417
  929MPD2    C313591   1.358   3.405   9.926  0.2926 -0.1940  0.9975
  929MPD2    C413592   1.430   3.476   9.836  0.0807  0.0677  0.1957
  929MPD2    C513593   1.556   3.512   9.882  0.3456 -0.2777  0.6046
  929MPD2     H13594   1.346   3.311  10.111  0.5687 -0.6757 -0.5902
  929MPD2    H113595   1.398   3.502   9.735  1.9864  1.1740 -0.1279
  929MPD2    H213596   1.697   3.522  10.044 -0.4394  0.2779 -2.5053
  929MPD2    H313597   1.620   3.581   9.828 -0.1896  0.3145  0.7253
  929MPD2     N13598   1.237   3.345   9.880 -0.0006  0.2798 -0.2482
  929MPD2    H513599   1.196   3.280   9.947  1.4195 -1.7194 -1.3087
  929MPD2    N113600   1.571   3.392  10.231  0.3684 -0.7278 -0.4884
  929MPD2    H713601   1.669   3.412  10.248  0.0304  1.6050 -1.2610
  930MPD2     C13602   3.389   0.745  14.102 -0.0360  0.2352 -0.1568
  930MPD2    C113603   3.365   0.818  13.990 -0.2917  0.2667  0.5801
  930MPD2    C213604   3.263   0.770  13.910  0.0604 -0.1677  0.1499
  930MPD2    C313605   3.194   0.648  13.944  0.3356  0.5057  0.3625
  930MPD2    C413606   3.231   0.577  14.059 -0.2041 -0.1882  0.5291
  930MPD2    C513607   3.326   0.630  14.135 -0.5032 -0.1679  0.4596
  930MPD2     H13608   3.245   0.823  13.817 -1.4475 -0.3839  0.3138
  930MPD2    H113609   3.187   0.481  14.083 -0.7977 -0.4527 -1.5508
  930MPD2    H213610   3.472   0.767  14.168 -0.4563  0.7555  0.1980
  930MPD2    H313611   3.354   0.581  14.228 -1.6226 -0.6087  0.5648
  930MPD2     N13612   3.089   0.600  13.865 -0.2448 -0.4759  0.0868
  930MPD2    H513613   3.069   0.502  13.881 -0.2114 -0.5720 -0.4622
  930MPD2    N113614   3.451   0.920  13.956  0.1027 -0.4094 -0.4108
  930MPD2    H713615   3.519   0.939  14.029 -1.3511  0.7612  0.6203
  931MPD2     C13616   3.593   0.971   1.260 -0.4516 -0.0803 -0.2133
  931MPD2    C113617   3.638   0.849   1.211 -0.1125  0.0425 -0.0371
  931MPD2    C213618   3.699   0.750   1.287  0.3289 -0.0427 -0.3821
  931MPD2    C313619   3.699   0.767   1.420  0.2590  0.5878 -0.2938
  931MPD2    C413620   3.642   0.881   1.477 -0.5400 -0.0096  0.1168
  931MPD2    C513621   3.596   0.980   1.390 -0.2315 -0.5375  0.3149
  931MPD2     H13622   3.715   0.652   1.244 -2.2520 -0.9665  0.7970
  931MPD2    H113623   3.626   0.895   1.583 -1.2193  0.1484 -0.0098
  931MPD2    H213624   3.546   1.050   1.201  0.5672  0.4387 -0.3335
  931MPD2    H313625   3.555   1.069   1.436  2.4534 -0.0978  1.8443
  931MPD2     N13626   3.764   0.677   1.504 -0.6450  0.1240 -0.1596
  931MPD2    H513627   3.772   0.694   1.604 -1.4010 -1.2315  0.1438
  931MPD2    N113628   3.638   0.839   1.074 -0.0316  0.1361  0.3550
  931MPD2    H713629   3.598   0.918   1.023 -3.0261 -2.1695 -0.9172
  932MPD2     C13630   0.442   3.920  11.412 -0.4356 -0.1590 -0.4660
  932MPD2    C113631   0.518   3.987  11.509  0.1131  0.0655 -0.1221
  932MPD2    C213632   0.546   3.908  11.622 -0.0251  0.3747  0.5259
  932MPD2    C313633   0.503   3.775  11.638  0.5525  0.3194  1.4001
  932MPD2    C413634   0.409   3.722  11.546 -0.6897  0.4954 -0.0619
  932MPD2    C513635   0.388   3.789  11.430 -1.0806 -0.6108 -0.4859
  932MPD2     H13636   0.611   3.958  11.693  0.1406 -0.3383  0.8749
  932MPD2    H113637   0.367   3.623  11.562 -0.0545 -0.0527 -1.7177
  932MPD2    H213638   0.409   3.967  11.321 -0.5081  2.8731  1.1305
  932MPD2    H313639   0.323   3.753  11.352 -1.9871  0.3861 -0.1828
  932MPD2     N13640   0.541   3.701  11.749 -0.3224 -0.1629  0.2569
  932MPD2    H513641   0.585   3.754  11.823  0.0521 -1.0615  0.6782
  932MPD2    N113642   0.578   4.115  11.496 -0.4984  0.0000 -0.3897
  932MPD2    H713643   0.642   4.141  11.571  0.8320 -1.8853 -0.8793
  933MPD2     C13644   2.865   4.018   2.266  0.1566  0.2746 -0.0987
  933MPD2    C113645   2.769   3.972   2.173 -0.0975 -0.3982 -0.8234
  933MPD2    C213646   2.646   4.040   2.180  0.4802 -0.0566  0.2799
  933MPD2    C313647   2.623   4.144   2.269  0.4795  0.0325  0.0155
  933MPD2    C413648   2.723   4.188   2.355  0.0052 -0.0122 -0.2852
  933MPD2    C513649   2.845   4.118   2.353  0.4496 -1.0899  0.3490
  933MPD2     H13650   2.563   3.996   2.126  2.2610 -2.5291 -0.4356
  933MPD2    H113651   2.702   4.270   2.423 -1.4131 -0.6583  0.0625
  933MPD2    H213652   2.962   3.972   2.275  0.0094 -0.0179  0.0095
  933MPD2    H313653   2.920   4.150   2.425 -0.0459  1.4123 -0.2299
  933MPD2     N13654   2.490   4.193   2.279 -0.0634 -0.6084  0.2153
  933MPD2    H513655   2.421   4.149   2.219  0.4813  0.3796 -1.1235
  933MPD2    N113656   2.803   3.872   2.078  0.2048  0.2428  0.4967
  933MPD2    H713657   2.901   3.845   2.073 -0.3743 -1.6298 -0.6126
  934MPD2     C13658   2.485   1.182   2.443 -0.1254  0.0359 -0.3734
  934MPD2    C113659   2.597   1.125   2.388  0.0820  0.2303 -0.0813
  934MPD2    C213660   2.580   1.019   2.302 -0.0752 -1.0798  0.5614
  934MPD2    C313661   2.453   0.975   2.259  0.2062  0.2769 -0.1987
  934MPD2    C413662   2.344   1.033   2.322  0.6211 -0.7388 -0.5724
  934MPD2    C513663   2.357   1.140   2.408 -0.3314 -0.1608 -0.4149
  934MPD2     H13664   2.663   0.973   2.250  0.3474 -1.2315  1.3831
  934MPD2    H113665   2.244   1.003   2.292 -0.2438 -0.1442  1.7611
  934MPD2    H213666   2.499   1.260   2.517  0.5558  1.7074 -2.2867
  934MPD2    H313667   2.272   1.182   2.460  1.5558  2.8168  0.2687
  934MPD2     N13668   2.423   0.882   2.150 -0.1473  0.0081 -0.0507
  934MPD2    H513669   2.323   0.869   2.137 -0.1792 -0.5623  0.7823
  934MPD2    N113670   2.726   1.154   2.431 -0.4054  0.4856 -0.3377
  934MPD2    H713671   2.802   1.124   2.371 -0.3904 -0.6532  0.2527
  935MPD2     C13672   2.893   0.122   1.676 -0.1803  0.6819 -0.0567
  935MPD2    C113673   2.808   0.165   1.580  0.0651 -0.1474  0.2270
  935MPD2    C213674   2.713   0.260   1.616  0.4845 -0.4818 -0.0398
  935MPD2    C313675   2.717   0.309   1.749 -0.4738  0.4671  0.6896
  935MPD2    C413676   2.813   0.265   1.839 -0.3134 -0.0331 -0.2138
  935MPD2    C513677   2.899   0.173   1.803  0.4571  0.1464  0.0812
  935MPD2     H13678   2.643   0.297   1.542  2.0366  2.7776  0.1209
  935MPD2    H113679   2.806   0.314   1.936  0.3528  0.8525 -0.6125
  935MPD2    H213680   2.968   0.047   1.657 -0.1182  0.2860  1.7873
  935MPD2    H313681   2.983   0.148   1.867  0.1444  1.2378  0.9305
  935MPD2     N13682   2.618   0.402   1.798 -0.2248  0.1056  0.2184
  935MPD2    H513683   2.625   0.418   1.898  2.5227 -0.4379  0.0961
  935MPD2    N113684   2.827   0.122   1.446 -0.1008  0.6811  0.0229
  935MPD2    H713685   2.758   0.153   1.377  0.5355  0.1599 -0.8431
  936MPD2     C13686   0.965   2.857  12.554 -0.1212  0.2564  0.3530
  936MPD2    C113687   1.044   2.800  12.654 -0.1149 -0.5346 -0.2703
  936MPD2    C213688   1.137   2.863  12.725  0.2124 -0.1041 -0.0576
  936MPD2    C313689   1.153   2.997  12.700 -0.2535  0.8338  0.1346
  936MPD2    C413690   1.074   3.059  12.606  0.0522  0.1443 -0.0519
  936MPD2    C513691   0.981   2.990  12.530 -0.1422  0.7377  0.4725
  936MPD2     H13692   1.188   2.821  12.811 -1.3287 -2.8905 -0.5137
  936MPD2    H113693   1.073   3.166  12.592  0.3544  0.3239  1.2724
  936MPD2    H213694   0.894   2.798  12.496  1.6614 -0.0332 -1.5140
  936MPD2    H313695   0.931   3.041  12.448  1.6490  0.8968 -0.5432
  936MPD2     N13696   1.249   3.065  12.782  0.6331 -0.0553 -0.2051
  936MPD2    H513697   1.315   3.017  12.842  0.7312 -0.7087 -0.8388
  936MPD2    N113698   1.034   2.666  12.684  0.0355  0.2166  0.2405
  936MPD2    H713699   1.110   2.630  12.741 -1.9321 -1.6085  1.7153
  937MPD2     C13700   3.376   3.666  12.173  0.2281 -0.0504 -0.1040
  937MPD2    C113701   3.399   3.797  12.119 -0.3947  0.3864 -0.4219
  937MPD2    C213702   3.447   3.801  11.991 -0.1308 -0.1393 -0.8683
  937MPD2    C313703   3.485   3.684  11.923  1.2839  0.0798  0.1746
  937MPD2    C413704   3.464   3.562  11.974 -0.3628 -0.2308  0.0736
  937MPD2    C513705   3.408   3.557  12.099 -0.7708  0.2932  0.1505
  937MPD2     H13706   3.464   3.896  11.941 -2.5750  1.6307  1.6496
  937MPD2    H113707   3.500   3.475  11.919  1.1847  1.5603 -1.7594
  937MPD2    H213708   3.343   3.641  12.273 -0.2593 -0.0617 -0.2693
  937MPD2    H313709   3.405   3.460  12.148  2.0486  0.7271  1.1850
  937MPD2     N13710   3.547   3.704  11.799 -0.5424  0.0029 -0.4277
  937MPD2    H513711   3.550   3.798  11.761 -0.6733  0.2335  0.1440
  937MPD2    N113712   3.331   3.909  12.164 -0.0631  0.4215  1.0191
  937MPD2    H713713   3.341   3.989  12.103  0.1058 -0.7952 -0.5491
  938MPD2     C13714   1.791   0.292   0.854 -0.5367  0.3429  0.1460
  938MPD2    C113715   1.823   0.384   0.945 -0.9138  0.9855  0.0834
  938MPD2    C213716   1.795   0.364   1.081 -0.2064 -0.0910 -0.2741
  938MPD2    C313717   1.736   0.242   1.116 -0.6699 -0.1765 -0.2404
  938MPD2    C413718   1.708   0.144   1.022  0.5272 -0.0710  0.1814
  938MPD2    C513719   1.724   0.175   0.889 -0.0847  0.3823 -0.3340
  938MPD2     H13720   1.815   0.444   1.151 -0.5587  0.2132 -0.5136
  938MPD2    H113721   1.671   0.049   1.061  3.0615 -0.9162  0.5266
  938MPD2    H213722   1.821   0.300   0.750  3.9830 -0.4409  1.4016
  938MPD2    H313723   1.705   0.102   0.811  0.3138 -0.4005  0.2973
  938MPD2     N13724   1.699   0.212   1.247  0.0054 -0.3385 -0.2305
  938MPD2    H513725   1.641   0.131   1.260 -0.1510 -0.6067 -2.6020
  938MPD2    N113726   1.881   0.510   0.918  0.4992  0.0427 -0.0373
  938MPD2    H713727   1.911   0.559   1.002  0.1392 -0.8304  0.5996
  939MPD2     C13728   2.491   1.542   1.683  0.1237  0.0031 -0.6483
  939MPD2    C113729   2.420   1.631   1.606  1.0017 -0.6907 -0.3847
  939MPD2    C213730   2.466   1.658   1.475 -0.2433 -0.3068  0.8432
  939MPD2    C313731   2.585   1.599   1.426  0.3772  0.3018 -0.2349
  939MPD2    C413732   2.652   1.512   1.507  0.7262 -0.0899 -0.3762
  939MPD2    C513733   2.608   1.490   1.635  0.4061 -0.1340 -0.1271
  939MPD2     H13734   2.419   1.724   1.402  1.3065  1.1002  1.1244
  939MPD2    H113735   2.743   1.464   1.473  1.4484 -0.1049  1.5899
  939MPD2    H213736   2.469   1.539   1.789 -0.0185 -0.5958 -0.6915
  939MPD2    H313737   2.672   1.423   1.692  1.3860  1.0867  0.1926
  939MPD2     N13738   2.622   1.628   1.291  0.2804 -0.6667 -0.5172
  939MPD2    H513739   2.585   1.709   1.243 -1.3340 -1.1320 -0.0455
  939MPD2    N113740   2.328   1.718   1.664 -0.1950  0.1231 -0.1609
  939MPD2    H713741   2.302   1.701   1.760  0.4680  1.2035  0.2130
  940MPD2     C13742   1.282   2.167  13.602 -0.2636  0.7618 -0.0107
  940MPD2    C113743   1.373   2.249  13.669 -0.8175  0.4810  0.5522
  940MPD2    C213744   1.434   2.354  13.605 -0.1565 -0.0450  0.1424
  940MPD2    C313745   1.393   2.377  13.474 -0.7106 -0.0664  0.1962
  940MPD2    C413746   1.290   2.310  13.420  0.1719 -0.5351 -0.1452
  940MPD2    C513747   1.243   2.196  13.477 -0.7651  0.4002 -0.0235
  940MPD2     H13748   1.524   2.402  13.642 -1.8871  1.6007  2.2030
  940MPD2    H113749   1.264   2.337  13.319  2.3773  0.1942 -0.5234
  940MPD2    H213750   1.237   2.080  13.649  1.3347 -0.1791 -0.2111
  940MPD2    H313751   1.159   2.143  13.433  0.7028 -0.4562 -1.7713
  940MPD2     N13752   1.456   2.461  13.387 -0.6064 -0.6113 -0.3074
  940MPD2    H513753   1.441   2.457  13.287 -0.6989 -2.1626 -0.2235
  940MPD2    N113754   1.422   2.219  13.797  0.3474 -0.5087  0.1311
  940MPD2    H713755   1.491   2.284  13.834  2.6064 -3.1572  0.5593
  941MPD2     C13756   1.262   1.783  10.100 -0.0717 -0.7524 -0.0465
  941MPD2    C113757   1.318   1.709  10.203  1.1826  0.0933  0.1643
  941MPD2    C213758   1.243   1.630  10.283  0.0455 -0.0849 -0.0511
  941MPD2    C313759   1.108   1.614  10.263 -0.4275  0.5318 -0.5114
  941MPD2    C413760   1.048   1.685  10.161  0.0204 -0.0236  0.7354
  941MPD2    C513761   1.125   1.770  10.086 -0.0090  0.1407  0.0690
  941MPD2     H13762   1.299   1.573  10.355  0.4891  1.2632  0.6798
  941MPD2    H113763   0.942   1.685  10.137  0.1228  1.6792  0.3067
  941MPD2    H213764   1.307   1.850  10.027  0.6287  0.5274  1.5421
  941MPD2    H313765   1.079   1.844  10.021  1.4834 -0.2733 -1.4678
  941MPD2     N13766   1.037   1.522  10.342 -0.0088 -0.4310 -0.7348
  941MPD2    H513767   1.090   1.480  10.419  0.1500 -0.4137 -0.8344
  941MPD2    N113768   1.455   1.722  10.238 -0.2932  0.0818 -0.2391
  941MPD2    H713769   1.486   1.652  10.304 -1.3247 -0.6030 -0.4839
  942MPD2     C13770   0.819   2.886   8.715 -0.1794  0.1994  0.1025
  942MPD2    C113771   0.827   2.962   8.830 -0.1551  0.4592  0.2252
  942MPD2    C213772   0.943   2.966   8.907 -0.3484 -0.4373  0.0255
  942MPD2    C313773   1.048   2.888   8.876  0.0657 -0.0435  0.7162
  942MPD2    C413774   1.039   2.808   8.766 -0.2405 -0.4021 -0.2535
  942MPD2    C513775   0.926   2.807   8.687 -0.2565  0.6003  0.0162
  942MPD2     H13776   0.941   3.030   8.995 -0.7841  1.4619 -1.3749
  942MPD2    H113777   1.129   2.755   8.738 -0.2158  0.3744 -1.6391
  942MPD2    H213778   0.735   2.881   8.647  1.2169 -0.4527 -1.5829
  942MPD2    H313779   0.925   2.745   8.598  1.8995  1.0452 -0.3283
  942MPD2     N13780   1.176   2.895   8.938  0.3043 -0.5498  0.3806
  942MPD2    H513781   1.249   2.833   8.906  0.3891 -0.0566 -0.3878
  942MPD2    N113782   0.713   3.040   8.875 -0.0850  0.1803 -0.6492
  942MPD2    H713783   0.739   3.088   8.961 -0.6742 -1.5594  0.4993
  943MPD2     C13784   3.839   1.302   9.920  0.5889 -0.2708 -0.2080
  943MPD2    C113785   3.821   1.204  10.019  0.0034  0.4454  0.7254
  943MPD2    C213786   3.923   1.190  10.109 -1.0675 -0.0050 -0.1720
  943MPD2    C313787   4.038   1.277  10.118 -0.1735  0.1352 -0.1928
  943MPD2    C413788   4.039   1.380  10.036  0.1807  0.8973 -0.5624
  943MPD2    C513789   3.959   1.373   9.926  0.3269  0.0849 -0.1212
  943MPD2     H13790   3.923   1.103  10.174  0.1088  1.3066  1.5762
  943MPD2    H113791   4.111   1.461  10.032  1.5448 -0.2467  0.7771
  943MPD2    H213792   3.764   1.324   9.845 -0.1654  2.3569  1.3342
  943MPD2    H313793   3.971   1.446   9.847 -1.4768  0.0774 -0.4051
  943MPD2     N13794   4.140   1.276  10.218  0.0341  0.0307  0.4969
  943MPD2    H513795   4.206   1.354  10.216 -1.0800  0.9626  0.1640
  943MPD2    N113796   3.703   1.124  10.019  0.0543  0.4908 -0.4599
  943MPD2    H713797   3.650   1.130   9.933  0.7862 -1.1128 -1.0092
  944MPD2     C13798   3.691   0.277  11.191  0.4938 -0.2576  0.1706
  944MPD2    C113799   3.819   0.328  11.172 -0.3013  0.3435 -0.2601
  944MPD2    C213800   3.854   0.430  11.263 -0.3203  0.2228  0.9102
  944MPD2    C313801   3.777   0.467  11.369  0.3449 -0.7374 -0.0266
  944MPD2    C413802   3.652   0.406  11.387  0.0500  0.1565  0.2049
  944MPD2    C513803   3.613   0.312  11.297  0.3707 -0.3168 -0.4476
  944MPD2     H13804   3.951   0.477  11.250 -0.9298  1.1148 -0.3755
  944MPD2    H113805   3.576   0.435  11.458 -1.5000 -1.0261 -0.9792
  944MPD2    H213806   3.658   0.203  11.120  0.8479 -1.1662  0.9474
  944MPD2    H313807   3.522   0.258  11.319 -1.4338  2.2290 -1.6885
  944MPD2     N13808   3.817   0.571  11.455  0.0447  0.2701 -0.7295
  944MPD2    H513809   3.906   0.610  11.427 -1.3184  3.1577 -1.1541
  944MPD2    N113810   3.907   0.271  11.073  0.6321 -0.1404 -0.4933
  944MPD2    H713811   3.870   0.191  11.022  0.6346 -0.2772 -0.2796
    1TCq1    O113812   2.223   0.994  14.230  1.7597  0.3799 -0.7484
    1TCq1    C113813   2.322   1.078  14.265  0.3817  0.3650  1.2107
    1TCq1    O213814   2.436   1.051  14.309 -0.0640  0.2570  0.4183
    1TCq1    C213815   2.290   1.219  14.252 -0.2199  0.1584 -0.2472
    1TCq1    C313816   2.223   1.249  14.137  0.1559 -0.1825  0.9074
    1TCq1    C413817   2.201   1.384  14.109  0.4277 -0.6215 -0.1988
    1TCq1    C513818   2.264   1.483  14.177  0.1879 -0.2028 -0.2658
    1TCq1    C613819   2.332   1.443  14.295  0.2334 -0.2536 -0.6971
    1TCq1    C713820   2.345   1.310  14.332 -0.0753 -0.7799  1.0669
    1TCq1    C813821   2.391   1.544  14.388  0.5922 -0.8482  0.0492
    1TCq1    O413822   2.483   1.498  14.456 -0.6627 -0.1490  0.2364
    1TCq1    C913823   2.136   1.408  13.980  0.4489  0.1651 -0.0095
    1TCq1    O513824   2.100   1.310  13.910  0.1284  0.1626  0.3333
    1TCq1    O613825   2.144   1.522  13.932  0.3378 -0.7260 -0.2093
    1TCq1    H113826   2.135   1.035  14.214  0.8701 -0.2236  2.4920
    1TCq1    H213827   2.187   1.171  14.071  1.6881  0.8562 -1.1600
    1TCq1    H313828   2.268   1.586  14.144  0.9642 -0.2790 -0.4029
    1TCq1    H413829   2.409   1.279  14.413 -0.7171 -0.7931  1.5678
    2MPD2     C13830   2.445   1.996  14.595  0.6717  0.0409 -0.6757
    2MPD2    C113831   2.343   2.010  14.509 -0.4368 -0.0790  0.3421
    2MPD2    C213832   2.306   1.893  14.450  0.5618  1.1581 -0.1234
    2MPD2    C313833   2.371   1.777  14.461  0.4168  0.4885 -0.3267
    2MPD2    C413834   2.469   1.768  14.556 -0.0065  1.0484 -0.2603
    2MPD2    C513835   2.499   1.875  14.632 -0.4632 -0.4106 -0.4298
    2MPD2     H13836   2.231   1.895  14.371  1.4084  0.0010 -0.9740
    2MPD2    H113837   2.532   1.684  14.584 -0.2221  0.7917 -0.5485
    2MPD2    H213838   2.492   2.083  14.639 -1.8760  0.1580  1.8249
    2MPD2    H313839   2.582   1.875  14.702 -0.0463  0.4282 -0.9259
    2MPD2     N13840   2.331   1.666  14.381 -0.3478  0.0827  0.2765
    2MPD2    H513841   2.256   1.670  14.312 -1.7095  1.1331  1.8115
    2MPD2    N113842   2.288   2.138  14.480  0.0128  0.4176 -0.1821
    2MPD2    H713843   2.343   2.216  14.515 -1.8956  1.9491 -0.5782
    3TMC2    C113844   2.155   2.304  14.389  0.2643  0.3455  0.2310
    3TMC2    C213845   2.022   2.344  14.385 -0.7116 -0.3349  1.0464
    3TMC2    C313846   1.997   2.477  14.361  0.3624 -0.5412 -0.7237
    3TMC2    C413847   2.258   2.388  14.366 -0.0473 -0.4386  0.5870
    3TMC2    C513848   2.221   2.518  14.344  0.6679 -0.5401  0.3374
    3TMC2    C613849   2.095   2.567  14.345 -0.2374 -0.0101 -0.8134
    3TMC2     C13850   2.171   2.162  14.419  0.0203 -0.1317  0.0620
    3TMC2     O13851   2.077   2.085  14.400  0.0093  0.4044  0.3489
    3TMC2     H13852   1.937   2.278  14.396 -0.2601 -1.3006 -1.2911
    3TMC2    H113853   2.363   2.362  14.377  0.1347  0.2466  0.4654
    3TMC2    H213854   2.084   2.674  14.344 -1.1666 -0.0821  2.2628
    3TMC2    C713855   2.328   2.603  14.299 -0.2747  0.0364  0.4172
    3TMC2    C813856   1.863   2.520  14.397 -0.1681 -0.1278  0.5907
    3TMC2    O113857   2.438   2.579  14.343 -0.0495  0.4658  0.5424
    3TMC2    O213858   1.788   2.476  14.481  0.1283 -0.0877 -0.6781
    3TMC2    O513859   1.845   2.633  14.326 -0.3907 -0.2071  0.6381
    3TMC2    H513860   1.920   2.649  14.265 -0.7132  0.5758  0.4492
    4MPD2     C13861   1.288   3.326  14.004 -0.1828  0.2867 -0.4023
    4MPD2    C113862   1.346   3.325  13.879 -0.0225 -0.0423  0.4304
    4MPD2    C213863   1.482   3.358  13.868  0.3698  0.8777 -0.2543
    4MPD2    C313864   1.562   3.382  13.972  0.4968  0.0698 -0.3292
    4MPD2    C413865   1.510   3.369  14.093 -0.0165  1.0149  0.3629
    4MPD2    C513866   1.373   3.352  14.108  0.3021 -0.4390  0.5093
    4MPD2     H13867   1.529   3.361  13.770 -1.0646 -1.0491 -1.0317
    4MPD2    H113868   1.575   3.390  14.177  0.1946  0.0899  0.4238
    4MPD2    H213869   1.188   3.293  14.027  0.2533 -0.7943 -0.0394
    4MPD2    H313870   1.330   3.339  14.206  1.1787  0.7772  1.0505
    4MPD2     N13871   1.693   3.405  13.923  0.1830 -0.0303 -0.1096
    4MPD2    H513872   1.695   3.450  13.832  0.5243 -0.3744 -0.2711
    4MPD2    N113873   1.272   3.265  13.772 -0.0853  0.3511  0.0669
    4MPD2    H713874   1.180   3.227  13.789  0.3733  0.5388  3.0578
    5TCq2    C113875   1.801   3.367  13.997  0.0470  0.6486 -0.2708
    5TCq2    O213876   1.789   3.299  14.097  0.5022  0.3649  0.2377
    5TCq2    C213877   1.929   3.362  13.921  0.5138 -0.5544 -0.1328
    5TCq2    C313878   1.933   3.356  13.787 -0.0694 -0.4161 -0.2486
    5TCq2    C413879   2.053   3.318  13.734 -0.3685  0.5192 -0.0199
    5TCq2    C513880   2.152   3.265  13.814  0.2435 -0.3996 -0.1798
    5TCq2    C613881   2.141   3.271  13.947  1.0052 -0.3149 -0.8861
    5TCq2    C713882   2.026   3.320  14.005 -0.0959 -0.1370 -0.5394
    5TCq2    C813883   2.184   3.164  14.024  0.2734  0.5540 -0.1263
    5TCq2    O413884   2.092   3.091  14.059  0.4731 -0.1748  0.1471
    5TCq2    C913885   2.067   3.296  13.596  0.6091  0.1672 -0.6534
    5TCq2    O513886   2.175   3.258  13.550 -0.1456  0.3903 -0.1556
    5TCq2    O613887   1.955   3.290  13.539 -0.0121 -0.3014 -0.0780
    5TCq2    H213888   1.845   3.367  13.725 -1.8001 -0.2404  2.2545
    5TCq2    H313889   2.242   3.221  13.774 -0.5147  0.5356 -2.9400
    5TCq2    H413890   2.021   3.324  14.113 -3.7363  0.3405 -0.7401
    6MPD1     C13891   4.696   3.889  12.626  0.8088  0.3193 -0.3162
    6MPD1    C113892   4.719   3.765  12.574  0.7805  0.0668  0.0593
    6MPD1    C213893   0.110   3.692  12.623 -0.0225  0.2197 -0.2962
    6MPD1    C313894   0.201   3.761  12.705  0.6002 -0.0660  0.9871
    6MPD1    C413895   0.174   3.883  12.754  0.4405 -0.1443  0.2583
    6MPD1    C513896   0.060   3.950  12.708 -0.4916 -0.4061  0.4319
    6MPD1     H13897   0.119   3.588  12.596 -1.8587  0.3575 -1.4811
    6MPD1    H113898   0.244   3.942  12.814  0.5979  0.5355 -0.5929
    6MPD1    H213899   4.603   3.938  12.603  1.5467  1.6952 -0.3947
    6MPD1    H313900   0.040   4.053  12.736  3.1212  0.4225 -0.0501
    6MPD1     N13901   0.314   3.698  12.758 -0.3722  0.3929 -0.2000
    6MPD1    H513902   0.376   3.742  12.826 -0.6048  1.7794 -0.8779
    6MPD1    N113903   4.623   3.704  12.496  0.0116  0.6792 -0.4137
    6MPD1    H613904   4.554   3.768  12.458 -0.4950  0.2653 -0.1876
    6MPD1    H713905   4.661   3.652  12.418  1.6093  1.6495 -0.2843
    7MPD2     C13906   0.545   3.164  13.155 -0.6504  0.1110 -0.2856
    7MPD2    C113907   0.639   3.253  13.198  0.3204 -0.5739  0.4500
    7MPD2    C213908   0.742   3.210  13.277 -0.1385  0.0170 -0.3629
    7MPD2    C313909   0.740   3.079  13.323  0.0506  0.3772 -0.1903
    7MPD2    C413910   0.659   2.990  13.261  0.1173  0.4934 -0.3915
    7MPD2    C513911   0.560   3.032  13.182  0.2030 -0.4678  1.4129
    7MPD2     H13912   0.812   3.284  13.313  0.6043  0.5812 -2.9292
    7MPD2    H113913   0.666   2.885  13.286 -1.3294  0.5562  0.3126
    7MPD2    H213914   0.467   3.194  13.085 -1.5559  0.0001  0.6735
    7MPD2    H313915   0.485   2.969  13.135 -0.9458  1.4005  0.7218
    7MPD2     N13916   0.832   3.034  13.417 -0.3835  0.9174 -0.3872
    7MPD2    H513917   0.825   2.938  13.449 -0.1293  1.2920  0.7758
    7MPD2    N113918   0.651   3.387  13.155 -0.7036 -0.0528  0.2158
    7MPD2    H713919   0.731   3.446  13.178  0.3668 -2.2196  2.0198
    8TMC3    C113920   1.037   3.064  13.528 -0.0451  0.4382 -0.2064
    8TMC3    C213921   1.105   3.155  13.609  0.1898  0.0840 -0.4097
    8TMC3    C313922   1.212   3.217  13.549 -0.4456 -0.2042  0.2664
    8TMC3    C413923   1.105   3.001  13.421  0.1918 -0.2242  0.1880
    8TMC3    C513924   1.195   3.081  13.360  0.0606  0.3952 -1.3136
    8TMC3    C613925   1.255   3.188  13.423  0.0454 -0.7567  0.2256
    8TMC3     C13926   0.908   3.119  13.494  0.7041 -0.2374  0.0418
    8TMC3     O13927   0.900   3.241  13.515  0.3471 -0.8097 -0.0372
    8TMC3     H13928   1.049   3.204  13.688 -0.3738  0.2453 -0.9066
    8TMC3    H113929   1.052   2.925  13.366 -2.1785  1.5481  0.0152
    8TMC3    H213930   1.317   3.254  13.363  0.1949 -2.6533 -1.7139
    8TMC3    C713931   1.154   3.109  13.221 -0.1009  0.0099  0.1936
    8TMC3    C813932   1.317   3.272  13.640  0.1838  0.4154  0.2278
    8TMC3    O113933   1.164   3.228  13.187 -0.2892  0.0248 -0.4166
    8TMC3    O213934   1.426   3.301  13.598 -0.0489 -0.0072  0.6650
    9TMC3    C113935   0.472   3.533  12.795 -0.4222  0.5473  0.7149
    9TMC3    C213936   0.553   3.436  12.737  0.1207  0.0189 -0.1265
    9TMC3    C313937   0.677   3.413  12.793 -0.6896  0.7564  0.0085
    9TMC3    C413938   0.499   3.588  12.918  0.5739  0.2133  0.1771
    9TMC3    C513939   0.615   3.545  12.982  0.2730  0.4003  0.7265
    9TMC3    C613940   0.714   3.477  12.909 -1.0410  0.8730 -0.0398
    9TMC3     C13941   0.358   3.582  12.719 -0.7948  0.3013  0.1383
    9TMC3     O13942   0.322   3.504  12.632  0.3431 -0.0013 -0.0191
    9TMC3     H13943   0.516   3.388  12.647  1.0399 -2.5971  0.8792
    9TMC3    H113944   0.434   3.657  12.971  1.6959 -0.7436  2.7819
    9TMC3    H213945   0.809   3.464  12.960 -0.9688  0.9143 -0.1628
    9TMC3    C713946   0.556   3.448  13.078  0.0854 -0.1002  0.7311
    9TMC3    C813947   0.702   3.265  12.783 -0.6645 -0.3675  0.3555
    9TMC3    O113948   0.439   3.425  13.055 -0.3309  0.1971 -0.1569
    9TMC3    O213949   0.625   3.194  12.724  0.9616  0.2033 -0.1687
   10MPD2     C13950   0.953   2.875  13.022  0.5597  0.2942  0.2001
   10MPD2    C113951   1.015   2.999  13.050  0.9993 -0.2631  0.3844
   10MPD2    C213952   0.973   3.113  12.978  0.5007 -1.1145  0.1411
   10MPD2    C313953   0.863   3.109  12.899 -0.5747  0.2977 -0.2041
   10MPD2    C413954   0.798   2.988  12.879  0.4495  0.8368 -0.4200
   10MPD2    C513955   0.845   2.872  12.940 -0.2830  0.4859  0.5038
   10MPD2     H13956   1.013   3.209  13.009 -1.7425 -0.5219  1.2299
   10MPD2    H113957   0.712   2.985  12.813 -0.3488  0.7816  0.6363
   10MPD2    H213958   0.984   2.787  13.077 -0.2601  1.1499  2.0325
   10MPD2    H313959   0.780   2.786  12.940 -1.0955  1.1021  1.8815
   10MPD2     N13960   0.812   3.236  12.863 -0.1596 -0.4990  0.1568
   10MPD2    H513961   0.871   3.310  12.900  0.0590 -0.0124 -1.1644
   10MPD2    N113962   1.101   3.004  13.166  0.0619  0.6359 -0.0737
   10MPD2    H713963   1.097   2.916  13.216 -0.9707  0.1938 -0.9204
   11MPD2     C13964   2.499   2.835  14.223 -0.3302  0.2307  0.0180
   11MPD2    C113965   2.366   2.825  14.199 -0.9871 -0.5838  0.3096
   11MPD2    C213966   2.307   2.927  14.128 -0.4791  0.5996  0.7111
   11MPD2    C313967   2.381   3.042  14.093 -0.0707  0.3484  0.6042
   11MPD2    C413968   2.511   3.059  14.125  0.4275 -0.0326 -0.3929
   11MPD2    C513969   2.572   2.949  14.186 -0.3537 -0.5752 -0.0791
   11MPD2     H13970   2.206   2.910  14.093  0.1310 -1.3145 -0.1301
   11MPD2    H113971   2.566   3.146  14.093  0.6001 -0.0391 -0.1054
   11MPD2    H213972   2.551   2.768  14.291 -1.3260 -0.1434  0.4028
   11MPD2    H313973   2.679   2.956  14.204 -0.7225 -0.8919  2.2773
   11MPD2     N13974   2.322   3.153  14.028 -0.2271  0.5574 -0.0525
   11MPD2    H513975   2.392   3.216  13.991  0.0932  0.6374  0.6828
   11MPD2    N113976   2.283   2.717  14.233  0.7507 -0.8373  0.1465
   11MPD2    H713977   2.194   2.706  14.186 -0.1937  0.1838  1.6792
    1MPD1     C13978   4.386   3.797  17.578  0.2771  0.5754  0.4320
    1MPD1    C113979   4.453   3.916  17.590  0.3046 -0.0472 -0.9017
    1MPD1    C213980   4.555   3.947  17.501  0.3794 -0.8780  0.4074
    1MPD1    C313981   4.579   3.858  17.399 -0.3048  0.0031  0.5581
    1MPD1    C413982   4.497   3.745  17.392  0.6009  0.1139  0.1632
    1MPD1    C513983   4.401   3.711  17.483 -0.1202  0.7128 -0.1479
    1MPD1     H13984   4.609   4.041  17.502 -1.3680  0.0920  1.2475
    1MPD1    H113985   4.524   3.684  17.307  0.8536  2.3570 -1.3601
    1MPD1    H213986   4.301   3.769  17.639  0.8086 -0.9726  0.4446
    1MPD1    H313987   4.342   3.620  17.480 -0.0881  0.6626  0.5919
    1MPD1     N13988   4.673   3.878  17.296  0.5299  0.0354  0.3646
    1MPD1    H513989   4.671   3.817  17.214  2.5397  0.1461  0.2486
    1MPD1    N113990   4.427   3.993   0.022 -0.2267  0.1622  0.2163
    1MPD1    H613991   4.334   3.985   0.064  0.1822  0.3640  1.1558
    1MPD1    H713992   4.443   4.089  17.682 -0.5767  0.3703  0.7354
    2MPD1     C13993   0.804   4.338  17.370  0.2254  0.0727 -0.2703
    2MPD1    C113994   0.692   4.403  17.428  0.5059  0.0366 -0.5560
    2MPD1    C213995   0.575   4.361  17.372 -0.0926 -0.2465  0.4826
    2MPD1    C313996   0.566   4.297  17.249  0.1260  0.3394  0.0127
    2MPD1    C413997   0.677   4.258  17.186  0.3029  0.6938 -0.7617
    2MPD1    C513998   0.797   4.284  17.245  0.3729  0.6887 -0.1056
    2MPD1     H13999   0.482   4.393  17.418 -0.8565 -0.3959 -0.9708
    2MPD1    H114000   0.682   4.196  17.097 -1.2040  0.0453 -0.3974
    2MPD1    H214001   0.902   4.349  17.416  1.1754 -2.5374 -1.6694
    2MPD1    H314002   0.890   4.244  17.207 -1.6670 -1.2812 -3.0128
    2MPD1     N14003   0.439   4.260  17.198 -0.0657 -0.8434 -0.3684
    2MPD1    H514004   0.360   4.281  17.258  0.4758  0.4583 -0.1182
    2MPD1    N114005   0.700   4.467  17.553  0.0941  1.3781 -0.7091
    2MPD1    H614006   0.640   4.549  17.558 -1.4178  0.2699 -0.8920
    2MPD1    H714007   0.797   4.492  17.575  0.5953  0.5225 -1.9598
    3TMC3    C114008   0.291   4.115  17.078 -0.5727 -0.2529 -0.4124
    3TMC3    C214009   0.249   4.071  16.957 -0.5859  0.6097 -0.1265
    3TMC3    C314010   0.141   3.983  16.954 -0.4633  0.1699 -0.0005
    3TMC3    C414011   0.231   4.073  17.194  0.2209 -0.1911  0.1638
    3TMC3    C514012   0.116   3.995  17.184 -0.2429  0.3292 -0.0928
    3TMC3    C614013   0.070   3.949  17.065  0.1258 -0.4522 -0.0948
    3TMC3     C14014   0.418   4.192  17.083 -0.2002  0.5080 -0.5766
    3TMC3     O14015   0.482   4.187  16.978 -0.1161  0.1640 -0.1413
    3TMC3     H14016   0.297   4.109  16.867 -0.5705  2.7056  0.7725
    3TMC3    H114017   0.272   4.113  17.285 -0.7135  0.3845  0.3336
    3TMC3    H214018   4.690   3.912  17.048 -0.6537  0.8306  1.7524
    3TMC3    C714019   0.052   3.963  17.308  0.1292  0.2342 -0.5264
    3TMC3    C814020   0.121   3.914  16.827 -1.2118 -0.6615  0.1190
    3TMC3    O114021   0.098   4.020  17.404 -0.2569 -0.1978 -0.2371
    3TMC3    O214022   0.007   3.881  16.813  0.0175 -0.0138 -0.5459
    4MPD1     C14023   0.266   3.763  16.354 -0.0428  0.0301  0.5345
    4MPD1    C114024   0.372   3.821  16.413 -0.2745 -0.5150  0.5308
    4MPD1    C214025   0.363   3.862  16.542 -0.5734  0.6042 -0.6305
    4MPD1    C314026   0.240   3.849  16.615 -0.4087 -0.4553 -0.4351
    4MPD1    C414027   0.134   3.790  16.558  0.1340  0.0265 -0.2680
    4MPD1    C514028   0.151   3.753  16.426  0.3852 -0.0406 -0.0914
    4MPD1     H14029   0.444   3.913  16.593  0.0684 -0.5864 -0.4657
    4MPD1    H114030   0.036   3.791  16.606 -0.1469 -0.1413 -0.8440
    4MPD1    H214031   0.273   3.724  16.253  2.8502  2.7223 -0.2753
    4MPD1    H314032   0.061   3.720  16.375  0.2024  0.4180 -0.0622
    4MPD1     N14033   0.234   3.910  16.745 -0.5533  0.7719 -0.4887
    4MPD1    H514034   0.318   3.958  16.775 -1.8903  0.9680  2.8842
    4MPD1    N114035   0.493   3.808  16.349  0.3118  0.3084 -0.1545
    4MPD1    H614036   0.568   3.869  16.381 -1.1348  2.5953 -1.1046
    4MPD1    H714037   0.534   3.717  16.369  1.5867  0.9220 -0.0038
    1TCq1    O114038   1.883   3.722  12.525  0.3514 -0.2992  0.3296
    1TCq1    C114039   1.902   3.807  12.424 -0.5649 -0.1985 -0.7095
    1TCq1    O214040   2.001   3.878  12.409  0.1277 -0.3021 -0.2698
    1TCq1    C214041   1.782   3.826  12.349  0.5252  0.2611  0.3795
    1TCq1    C314042   1.796   3.819  12.214  0.5005  0.2359  0.4441
    1TCq1    C414043   1.680   3.813  12.138  0.1786  0.2500 -0.2801
    1TCq1    C514044   1.554   3.813  12.202 -0.4900  0.2193 -0.2917
    1TCq1    C614045   1.551   3.815  12.335 -0.0527 -0.5048 -0.2682
    1TCq1    C714046   1.659   3.830  12.410  0.0796 -0.2510 -0.3583
    1TCq1    C814047   1.427   3.835  12.400 -0.0486 -0.5235  0.2031
    1TCq1    O414048   1.413   3.809  12.519 -0.7379 -0.6722  0.1814
    1TCq1    C914049   1.686   3.779  12.006 -0.2362  0.0758 -0.2452
    1TCq1    O514050   1.580   3.749  11.947  0.6316 -0.2372  0.2211
    1TCq1    O614051   1.802   3.769  11.955 -0.1574 -0.0865 -0.0825
    1TCq1    H114052   1.796   3.678  12.510  1.0599 -1.6682  0.2704
    1TCq1    H214053   1.893   3.803  12.167 -0.9818  1.5584 -3.0449
    1TCq1    H314054   1.466   3.800  12.140  1.4243 -0.5727 -2.8336
    1TCq1    H414055   1.648   3.841  12.518  1.7276 -0.4024 -0.1754
    2MPD1     C14056   0.929   3.987  12.365  0.6016  0.3627 -0.1943
    2MPD1    C114057   1.003   4.042  12.262 -0.0967  0.5933  0.0895
    2MPD1    C214058   1.139   4.008  12.249  0.2732  0.2784  0.3801
    2MPD1    C314059   1.205   3.933  12.345 -1.0831 -0.8243  0.3718
    2MPD1    C414060   1.133   3.884  12.445 -0.4715 -0.4508  0.3185
    2MPD1    C514061   1.003   3.910  12.461  0.1759 -0.0588 -0.3126
    2MPD1     H14062   1.198   4.043  12.165 -1.3668  1.0766 -0.4491
    2MPD1    H114063   1.178   3.822  12.521 -0.7058 -0.5322  0.3898
    2MPD1    H214064   0.822   4.000  12.382  0.3440 -2.0617  0.1037
    2MPD1    H314065   0.953   3.868  12.548  2.7888 -2.3038  0.1202
    2MPD1     N14066   1.343   3.905  12.319 -0.6543  0.2644 -0.2028
    2MPD1    H514067   1.389   3.939  12.236 -0.4663  0.6637  0.0641
    2MPD1    N114068   0.938   4.104  12.160 -0.9218 -0.1149 -0.1157
    2MPD1    H614069   0.991   4.179  12.116  1.0300 -2.7854 -2.3219
    2MPD1    H714070   0.847   4.134  12.194 -2.2925 -2.1840 -1.9982
    1TCq1    O114071   3.843   4.516   1.199  0.2069  0.2379 -0.1844
    1TCq1    C114072   3.964   4.476   1.234 -0.2065 -0.2923  0.5030
    1TCq1    O214073   4.053   4.444   1.149  0.2098  0.4959 -0.1908
    1TCq1    C214074   3.921   4.395   1.346  0.5512  0.3420 -0.0634
    1TCq1    C314075   3.885   4.438   1.475  0.4915  0.2778  0.4328
    1TCq1    C414076   3.833   4.345   1.563 -0.4152 -0.1209  0.6551
    1TCq1    C514077   3.846   4.216   1.540  1.0059  0.1801  0.4355
    1TCq1    C614078   3.896   4.179   1.419 -0.3004  0.2155 -0.2031
    1TCq1    C714079   3.921   4.262   1.314  0.2747 -0.5864  0.2610
    1TCq1    C814080   3.918   4.043   1.390 -0.4852  0.3644  0.2535
    1TCq1    O414081   3.920   4.012   1.275  1.0487  0.4191 -0.4839
    1TCq1    C914082   3.822   4.380   1.704 -0.3942 -0.2534  0.6010
    1TCq1    O514083   3.797   4.287   1.783 -0.8196  0.2235  0.4120
    1TCq1    O614084   3.878   4.491   1.735 -0.0018 -0.2711 -0.3716
    1TCq1    H114085   3.771   4.498   1.263 -0.0811  1.3119 -0.2112
    1TCq1    H214086   3.897   4.543   1.498 -1.0197  1.0719 -2.3471
    1TCq1    H314087   3.818   4.138   1.610  0.1252  0.1719  0.0818
    1TCq1    H414088   3.952   4.239   1.213  2.9339  1.7238  0.5501
    2MPD1     C14089   4.101   3.583   1.538  0.5298  0.4251 -0.1028
    2MPD1    C114090   4.118   3.676   1.639 -0.5149 -0.2095 -0.1994
    2MPD1    C214091   4.063   3.800   1.627  0.0044 -0.5109  0.6882
    2MPD1    C314092   4.011   3.843   1.503 -0.0653  0.1334 -0.6103
    2MPD1    C414093   4.016   3.756   1.394 -0.2930 -0.8988 -0.4381
    2MPD1    C514094   4.053   3.627   1.417  0.0124 -0.1177  0.6676
    2MPD1     H14095   4.079   3.868   1.710 -2.5570 -0.0022  0.7754
    2MPD1    H114096   3.987   3.777   1.292  0.0796 -0.8837 -0.5404
    2MPD1    H214097   4.135   3.481   1.552  1.1509  0.3272 -2.2805
    2MPD1    H314098   4.047   3.557   1.334  1.5287  0.9354 -0.3269
    2MPD1     N14099   3.969   3.977   1.501  0.1266 -0.6253 -0.3309
    2MPD1    H514100   3.986   4.034   1.583  0.2657 -1.9561  0.5629
    2MPD1    N114101   4.168   3.626   1.758 -0.8887  0.3628 -0.4844
    2MPD1    H614102   4.244   3.559   1.746 -0.2610  0.1909  4.2993
    2MPD1    H714103   4.208   3.703   1.812  0.1719 -0.8428  0.4260
    1MPD1     C14104   2.618   2.988  11.882 -0.4588 -0.1583 -0.8101
    1MPD1    C114105   2.761   3.002  11.870  0.0838  0.4611  0.0595
    1MPD1    C214106   2.810   3.131  11.882 -0.5428  0.5998 -0.3261
    1MPD1    C314107   2.732   3.242  11.918  0.2667  0.1825  0.1924
    1MPD1    C414108   2.593   3.221  11.937 -0.3774 -0.4932 -0.3482
    1MPD1    C514109   2.541   3.097  11.909  0.3206  0.6878 -0.5806
    1MPD1     H14110   2.917   3.133  11.866 -0.1930 -2.0217  1.7701
    1MPD1    H114111   2.526   3.295  11.978 -0.8359  1.0857 -3.9065
    1MPD1    H214112   2.570   2.896  11.850 -1.1926 -0.2256  0.4794
    1MPD1    H314113   2.433   3.093  11.910  0.3633 -1.1308 -2.2608
    1MPD1     N14114   2.797   3.364  11.948 -0.6049 -0.5966  0.1748
    1MPD1    H514115   2.898   3.371  11.942 -0.6281  0.5090  0.9698
    1MPD1    N114116   2.836   2.903  11.805  0.0912 -0.2803  0.5496
    1MPD1    H614117   2.935   2.917  11.827 -0.0855  1.0940  0.4493
    1MPD1    H714118   2.801   2.810  11.824  0.9334 -0.8939 -0.9269
    2MPD1     C14119   1.961   4.675  10.355 -0.5862 -0.1908 -0.5101
    2MPD1    C114120   1.910   4.554  10.402  0.5893  0.4402  0.7685
    2MPD1    C214121   1.996   4.451  10.443  0.6280 -0.0164  0.3032
    2MPD1    C314122   2.138   4.472  10.430 -0.0845  0.6406  0.1986
    2MPD1    C414123   2.183   4.588  10.381 -0.0254  0.1875  0.9774
    2MPD1    C514124   2.094   4.686  10.335  0.0538 -0.5929 -0.3537
    2MPD1     H14125   1.951   4.355  10.465  1.7565 -0.3865  1.0069
    2MPD1    H114126   2.287   4.611  10.363 -0.3937  0.2456 -1.0022
    2MPD1    H214127   1.902   0.037  10.320  1.0059  1.4092  0.6164
    2MPD1    H314128   2.131   0.047  10.273  0.8993 -1.4793 -1.0308
    2MPD1     N14129   2.238   4.381  10.477 -0.0090 -0.3223  0.6961
    2MPD1    H514130   2.336   4.405  10.477  0.0251 -0.4766 -0.5109
    2MPD1    N114131   1.781   4.545  10.447 -0.3873 -0.1406 -0.6454
    2MPD1    H614132   1.718   4.591  10.382 -2.2595 -1.4199  0.2815
    2MPD1    H714133   1.746   4.452  10.468 -1.0560 -0.2362 -2.1860
    3MPD1     C14134   2.466   3.538  10.157 -0.5093 -0.5022  0.6479
    3MPD1    C114135   2.385   3.645  10.122  0.1637 -0.8931 -0.4130
    3MPD1    C214136   2.386   3.756  10.208  0.5241 -0.1115  0.1463
    3MPD1    C314137   2.444   3.743  10.331 -0.2875  0.6759 -0.3738
    3MPD1    C414138   2.501   3.627  10.366 -0.4953 -0.8266  0.1080
    3MPD1    C514139   2.532   3.523  10.274 -0.3416  0.4330  0.3628
    3MPD1     H14140   2.336   3.850  10.190 -0.9462 -0.9904 -0.3165
    3MPD1    H114141   2.546   3.609  10.463 -0.3927 -1.5869 -0.0790
    3MPD1    H214142   2.475   3.452  10.091 -0.9658 -0.7800  0.9396
    3MPD1    H314143   2.584   3.435  10.311 -0.4110  0.2901  0.1254
    3MPD1     N14144   2.418   3.847  10.420 -0.3302 -0.6017 -0.0057
    3MPD1    H514145   2.371   3.928  10.381 -0.0595 -0.6943 -0.5211
    3MPD1    N114146   2.340   3.653   9.986  0.8065 -0.2305  0.9083
    3MPD1    H614147   2.265   3.719   9.971 -0.0654 -1.3594  0.2891
    3MPD1    H714148   2.292   3.564   9.972 -0.1904  0.6012 -0.9634
    4MPD2     C14149   2.716   4.184  12.055 -0.0693  0.4216 -0.5524
    4MPD2    C114150   2.831   4.118  12.014 -0.3144  0.1580 -0.1245
    4MPD2    C214151   2.912   4.174  11.912  0.2552  0.0569  0.3545
    4MPD2    C314152   2.864   4.297  11.857  0.1790  0.1614 -0.8366
    4MPD2    C414153   2.744   4.363  11.899 -0.1858 -0.3187 -0.2217
    4MPD2    C514154   2.676   4.299  11.995  0.2158  0.6574  0.1724
    4MPD2     H14155   3.000   4.119  11.882  1.3782  2.7162 -1.2304
    4MPD2    H114156   2.716   4.459  11.860 -0.5202 -0.4463 -0.2942
    4MPD2    H214157   2.654   4.142  12.133  0.8267  2.3461  1.1946
    4MPD2    H314158   2.590   4.350  12.037  0.3846  1.9266 -1.0198
    4MPD2     N14159   2.937   4.349  11.746 -0.5585 -0.2514  0.6746
    4MPD2    H514160   2.888   4.424  11.698 -0.2168 -0.8152 -0.5622
    4MPD2    N114161   2.879   3.997  12.059  0.0816  0.6591 -0.2404
    4MPD2    H714162   2.961   3.956  12.015 -0.0312  0.6970 -0.4842
    5TMC3    C114163   2.882   3.788  12.144 -0.2805 -1.0241  0.6021
    5TMC3    C214164   2.790   3.690  12.111 -0.0740 -0.4672  0.1522
    5TMC3    C314165   2.829   3.591  12.022  0.3045 -0.2520 -0.6788
    5TMC3    C414166   3.014   3.786  12.090  0.4153  0.2994 -0.2185
    5TMC3    C514167   3.041   3.696  11.989  0.5342  0.7477  0.4446
    5TMC3    C614168   2.950   3.592  11.956  0.8614  0.2682 -0.7397
    5TMC3     C14169   2.814   3.916  12.148 -0.5160 -0.1172  0.0848
    5TMC3     O14170   2.703   3.924  12.192  0.0504 -0.4888  0.2907
    5TMC3     H14171   2.697   3.687  12.166 -1.7266 -0.6755 -2.6538
    5TMC3    H114172   3.085   3.865  12.114 -1.1358  1.9360 -0.9547
    5TMC3    H214173   2.968   3.512  11.885  1.1870  0.0908 -0.4573
    5TMC3    C714174   3.093   3.765  11.876 -0.5023  1.0249  0.0618
    5TMC3    C814175   2.735   3.476  12.016 -0.1715  0.1908 -0.2866
    5TMC3    O114176   3.093   3.886  11.897 -0.3692 -0.4235  0.0652
    5TMC3    O214177   2.621   3.493  12.064 -0.1007  0.4236  0.0442
    6TMC3    C114178   2.321   4.178  10.572 -0.2247 -0.4066  0.2111
    6TMC3    C214179   2.322   4.048  10.548  0.0979  0.5712 -0.0946
    6TMC3    C314180   2.402   3.973  10.627  0.4135 -0.3994  0.0745
    6TMC3    C414181   2.395   4.237  10.670 -0.0301 -0.2688 -0.5260
    6TMC3    C514182   2.472   4.167  10.749  0.0690 -0.4069 -0.1033
    6TMC3    C614183   2.485   4.033  10.723 -0.3390  0.2644 -0.5196
    6TMC3     C14184   2.207   4.253  10.513 -0.5919  0.3994 -0.6690
    6TMC3     O14185   2.104   4.185  10.513  0.0701 -0.0004  0.3351
    6TMC3     H14186   2.249   4.002  10.481 -1.2627 -0.7307  2.2900
    6TMC3    H114187   2.392   4.345  10.679  1.4253 -0.1415 -1.5623
    6TMC3    H214188   2.554   3.975  10.782 -2.3281  0.2090  1.7598
    6TMC3    C714189   2.549   4.219  10.858  0.6072 -0.8496 -0.0553
    6TMC3    C814190   2.451   3.850  10.557 -0.3760 -0.9256  0.2410
    6TMC3    O114191   2.646   4.155  10.902 -0.3291  0.4256  0.7167
    6TMC3    O214192   2.502   3.763  10.628 -0.5268  0.5420 -0.2756
    7MPD2     C14193   3.321   3.857  11.427 -0.3230 -0.1282 -1.1125
    7MPD2    C114194   3.265   3.942  11.524 -0.3538  0.1811  0.2863
    7MPD2    C214195   3.208   3.885  11.632  0.1558 -0.6752 -0.1070
    7MPD2    C314196   3.187   3.752  11.653  0.4813  0.3131  0.6214
    7MPD2    C414197   3.232   3.669  11.552  0.4092  0.3265 -0.7896
    7MPD2    C514198   3.302   3.722  11.442 -0.1839  0.4342  0.0312
    7MPD2     H14199   3.163   3.952  11.704  2.1785  0.4808  0.0672
    7MPD2    H114200   3.208   3.564  11.558  1.9423  0.0302  0.4218
    7MPD2    H214201   3.373   3.892  11.339 -0.9987  0.3771 -1.3096
    7MPD2    H314202   3.334   3.654  11.364  0.9824 -0.8754  1.6456
    7MPD2     N14203   3.122   3.694  11.763  0.1048 -0.4308 -0.2064
    7MPD2    H514204   3.096   3.596  11.760  0.0453 -0.4386  0.6030
    7MPD2    N114205   3.273   4.086  11.521  0.0835  0.3006  0.4484
    7MPD2    H714206   3.242   4.141  11.600 -2.2410  1.3509 -1.1999
    8TMC3    C114207   3.212   4.280  11.401  0.0369  0.2342  0.5959
    8TMC3    C214208   3.108   4.288  11.314 -0.4762 -0.0130 -0.0887
    8TMC3    C314209   2.986   4.332  11.362 -0.0913  0.2994 -0.5123
    8TMC3    C414210   3.211   4.327  11.526 -0.3350 -0.5948  0.7290
    8TMC3    C514211   3.094   4.375  11.571  0.3061 -0.2815 -0.1925
    8TMC3    C614212   2.983   4.387  11.491 -0.8102 -0.2835  0.4387
    8TMC3     C14213   3.269   4.147  11.397  0.1452 -0.5767 -0.0789
    8TMC3     O14214   3.283   4.098  11.283  0.2114  0.1270 -0.5627
    8TMC3     H14215   3.114   4.244  11.214 -0.3292 -0.4862  0.1258
    8TMC3    H114216   3.300   4.318  11.587  1.0603  2.4371 -0.8064
    8TMC3    H214217   2.882   4.401  11.527 -0.3390  1.9476  0.8769
    8TMC3    C714218   3.066   4.308  11.695  0.6869  0.2387 -0.4567
    8TMC3    C814219   2.875   4.333  11.271 -0.0989  0.5329 -0.3157
    8TMC3    O114220   3.146   4.220  11.733  0.7121  0.0530  0.4733
    8TMC3    O214221   2.900   4.272  11.166  0.6896  0.0301 -0.2519
    9MPD2     C14222   2.543   4.484  11.286 -0.1177 -0.1458  0.3127
    9MPD2    C114223   2.649   4.427  11.227  0.0796  0.6155 -0.4809
    9MPD2    C214224   2.627   4.379  11.095  0.0530 -0.8204  0.0281
    9MPD2    C314225   2.501   4.382  11.042  0.3615 -0.3142 -0.2305
    9MPD2    C414226   2.395   4.433  11.104  0.3100 -0.0676 -0.8009
    9MPD2    C514227   2.418   4.493  11.228  0.1608 -0.6447  0.1874
    9MPD2     H14228   2.708   4.338  11.035  1.1869 -1.8380  2.2503
    9MPD2    H114229   2.296   4.441  11.059  0.4291  0.2420 -1.0057
    9MPD2    H214230   2.560   4.515  11.389 -1.4310  2.1206 -0.1501
    9MPD2    H314231   2.330   4.529  11.278 -0.0367  1.1142 -1.4453
    9MPD2     N14232   2.467   4.312  10.925  0.1295 -0.2512  0.5725
    9MPD2    H514233   2.376   4.333  10.884 -0.3194 -1.1605  1.0976
    9MPD2    N114234   2.764   4.401  11.303  0.1025  0.5573  0.1414
    9MPD2    H714235   2.765   4.440  11.397  1.1048 -2.1614  1.2851
    1MPD1     C14236   1.982   3.160  16.819  0.0352 -0.6016 -0.0310
    1MPD1    C114237   1.937   3.055  16.899  0.2200  0.2790 -0.0709
    1MPD1    C214238   2.036   2.992  16.975  0.1663 -0.1595  0.2672
    1MPD1    C314239   2.172   3.025  16.959 -0.0285 -0.1492 -0.4330
    1MPD1    C414240   2.201   3.123  16.877  0.0702  0.3056  0.6762
    1MPD1    C514241   2.111   3.189  16.805  0.7145  0.6425  1.0003
    1MPD1     H14242   2.001   2.916  17.043  1.2063  0.1701  1.1641
    1MPD1    H114243   2.304   3.154  16.868 -0.0465 -0.3126 -2.6589
    1MPD1    H214244   1.917   3.218  16.754 -0.6753  3.1754  4.0805
    1MPD1    H314245   2.147   3.269  16.742 -0.2252  0.9197  0.8139
    1MPD1     N14246   2.285   2.963  17.020 -0.4382 -0.4980  0.1830
    1MPD1    H514247   2.380   2.987  16.992 -1.0698  2.2707  0.3697
    1MPD1    N114248   1.803   3.028  16.907 -1.2944 -0.1335  0.0668
    1MPD1    H614249   1.745   3.054  16.828 -0.0843  2.4882  0.0650
    1MPD1    H714250   1.792   2.928  16.925 -0.2618 -0.4717 -1.1684
    2MPD1     C14251   2.618   2.076  17.294  0.3057 -0.2896  0.3266
    2MPD1    C114252   2.513   2.120  17.214  0.1212  0.3090 -0.6437
    2MPD1    C214253   2.486   2.257  17.222 -0.1502 -0.0508 -1.1884
    2MPD1    C314254   2.562   2.346  17.296  0.2545 -0.4632 -0.0329
    2MPD1    C414255   2.662   2.297  17.372  0.7378  0.1428  0.0835
    2MPD1    C514256   2.689   2.167  17.364 -0.6160  0.3193  0.2518
    2MPD1     H14257   2.403   2.294  17.163 -0.5722  1.2875  0.2433
    2MPD1    H114258   2.730   2.362  17.427  0.7504  0.5861 -0.4536
    2MPD1    H214259   2.656   1.975  17.299  1.4653  0.0955 -0.7397
    2MPD1    H314260   2.772   2.135  17.426  1.3671 -0.3922 -2.7851
    2MPD1     N14261   2.527   2.486  17.284 -0.2265  0.1435  0.0862
    2MPD1    H514262   2.455   2.522  17.221  0.5647 -0.7880 -1.3547
    2MPD1    N114263   2.453   2.029  17.133 -0.4251  0.8399  0.4481
    2MPD1    H614264   2.374   2.062  17.077 -1.4037  0.1785  1.4445
    2MPD1    H714265   2.415   1.952  17.187  1.4738  0.4166  1.1656
    3TCq2    C114266   2.594   2.587  17.345 -0.2153  0.0321 -0.6693
    3TCq2    O214267   2.694   2.587  17.417 -0.2538 -0.5957 -0.3546
    3TCq2    C214268   2.559   2.724  17.303 -0.3982 -0.1840 -0.9814
    3TCq2    C314269   2.664   2.814  17.279  0.2167 -0.4726  0.1258
    3TCq2    C414270   2.638   2.925  17.209 -0.3951 -0.5632  0.1311
    3TCq2    C514271   2.506   2.953  17.168  0.5761  0.7402 -0.7193
    3TCq2    C614272   2.407   2.860  17.189  0.4294  0.5913 -0.2403
    3TCq2    C714273   2.429   2.742  17.249 -0.0670 -0.1438 -0.5763
    3TCq2    C814274   2.277   2.871  17.123  1.2401  0.8014 -0.0280
    3TCq2    O414275   2.181   2.818  17.176 -0.3089 -0.1961 -0.6596
    3TCq2    C914276   2.741   3.005  17.156 -0.1964 -0.6137 -0.3258
    3TCq2    O514277   2.859   2.982  17.187 -0.0772 -0.1818 -0.1492
    3TCq2    O614278   2.708   3.075  17.061 -0.2311 -0.4520  0.7217
    3TCq2    H214279   2.763   2.790  17.316  0.3345  0.3512  0.3339
    3TCq2    H314280   2.482   3.036  17.104 -0.5544 -1.5672 -3.2740
    3TCq2    H414281   2.352   2.676  17.287 -0.5082  0.5691 -0.2481
    1TCq1    O114282   0.466   1.943  12.950 -0.5519 -0.3867 -0.2763
    1TCq1    C114283   0.471   1.851  12.852  0.0503  0.1518 -0.3684
    1TCq1    O214284   0.371   1.813  12.787  0.5177  0.6832  0.3054
    1TCq1    C214285   0.583   1.756  12.890 -0.2709 -0.8439 -0.2121
    1TCq1    C314286   0.561   1.624  12.885 -0.4078 -0.0499  0.1888
    1TCq1    C414287   0.665   1.544  12.920  0.3658  0.4410 -0.1503
    1TCq1    C514288   0.780   1.598  12.980  0.3640  0.3839 -0.6523
    1TCq1    C614289   0.787   1.735  12.994  0.2816  0.0625  0.2614
    1TCq1    C714290   0.696   1.813  12.943  0.1999 -0.3605  0.3183
    1TCq1    C814291   0.878   1.799  13.091  0.3040 -0.3579 -0.6490
    1TCq1    O414292   0.860   1.919  13.112 -0.5579  0.0015 -0.1687
    1TCq1    C914293   0.658   1.403  12.915 -0.2668 -0.5915 -0.0094
    1TCq1    O514294   0.541   1.354  12.922  0.3616 -0.1064 -0.0595
    1TCq1    O614295   0.765   1.332  12.912 -0.3501  0.8771  0.1664
    1TCq1    H114296   0.543   1.955  13.009 -2.5537  3.5952  1.5057
    1TCq1    H214297   0.477   1.567  12.847  0.1769 -0.6566 -0.1937
    1TCq1    H314298   0.858   1.534  13.020 -0.8971  0.4782  1.9311
    1TCq1    H414299   0.711   1.919  12.928  2.0996 -0.9962 -2.1472
    2MPD2     C14300   1.035   1.838  13.341 -0.1245 -0.1477 -0.0112
    2MPD2    C114301   1.036   1.722  13.265 -0.1610 -0.2882  0.4701
    2MPD2    C214302   1.128   1.626  13.291 -0.3932  0.4292 -0.5725
    2MPD2    C314303   1.232   1.647  13.382  0.0078  0.9028 -0.7113
    2MPD2    C414304   1.236   1.769  13.445 -0.3270 -0.1023 -0.1372
    2MPD2    C514305   1.128   1.856  13.437  0.4789  0.7731  0.2589
    2MPD2     H14306   1.152   1.546  13.223  1.5773 -1.1327  1.9781
    2MPD2    H114307   1.323   1.801  13.501 -0.0333 -0.8538 -0.1657
    2MPD2    H214308   0.962   1.914  13.318 -1.5503 -2.1919 -2.1686
    2MPD2    H314309   1.134   1.955  13.481  3.2341  0.7465 -0.0908
    2MPD2     N14310   1.349   1.565  13.377 -0.0213 -0.5183  0.0349
    2MPD2    H514311   1.342   1.476  13.328 -0.5144  0.1319 -1.0646
    2MPD2    N114312   0.943   1.702  13.161  0.5334  0.8931  0.0800
    2MPD2    H714313   0.937   1.606  13.131  1.4791  0.2910  1.7853
    3TCq1    O114314   1.690   1.195  13.135 -0.5784 -0.0104  0.6557
    3TCq1    C114315   1.572   1.182  13.204  0.2663 -0.2461 -0.3049
    3TCq1    O214316   1.476   1.201  13.132  0.0036 -0.2243  0.0224
    3TCq1    C214317   1.609   1.270  13.312 -0.0001 -0.2407  0.0935
    3TCq1    C314318   1.702   1.233  13.406  0.8547 -0.4571 -0.3957
    3TCq1    C414319   1.731   1.317  13.505  0.8281 -0.4283 -0.4338
    3TCq1    C514320   1.658   1.432  13.517  0.2211  0.3217 -0.1508
    3TCq1    C614321   1.554   1.459  13.427  0.0188  0.2309 -0.4022
    3TCq1    C714322   1.530   1.375  13.320 -0.5484  0.9745  0.2457
    3TCq1    C814323   1.474   1.580  13.436 -0.6821 -0.2872 -0.1044
    3TCq1    O414324   1.506   1.667  13.511  0.7308 -0.0127 -0.0963
    3TCq1    C914325   1.831   1.283  13.598 -0.1959  0.8806 -0.0272
    3TCq1    O514326   1.860   1.361  13.698  0.6130  0.0915 -1.1278
    3TCq1    O614327   1.857   1.160  13.598 -0.1187  0.0553  0.0346
    3TCq1    H114328   1.772   1.189  13.188  1.6286 -0.5057 -2.7777
    3TCq1    H214329   1.749   1.136  13.400  1.1387 -0.4504  1.8286
    3TCq1    H314330   1.690   1.501  13.594  0.3202 -0.4563  0.5043
    3TCq1    H414331   1.465   1.403  13.238  1.7525 -1.4789 -2.3967
    1MPD2     C14332   0.323   2.459  15.281 -0.3669 -0.6760 -0.2616
    1MPD2    C114333   0.253   2.481  15.165  0.1744 -1.1667  0.1392
    1MPD2    C214334   0.305   2.433  15.048 -1.0633  0.6953  0.2321
    1MPD2    C314335   0.427   2.385  15.044  0.4000  0.0588  0.0811
    1MPD2    C414336   0.505   2.380  15.156 -0.0788  0.0414  0.4437
    1MPD2    C514337   0.451   2.413  15.275  0.4751 -0.1825 -0.2986
    1MPD2     H14338   0.253   2.441  14.953 -1.0646 -1.5296  0.0279
    1MPD2    H114339   0.608   2.348  15.156  0.7515  2.7461 -1.0169
    1MPD2    H214340   0.296   2.484  15.383 -1.7995 -2.4516 -0.2151
    1MPD2    H314341   0.507   2.400  15.367  1.4096 -2.2292 -1.1615
    1MPD2     N14342   0.461   2.318  14.923 -0.3352 -0.7003  0.4019
    1MPD2    H514343   0.385   2.311  14.855  0.7706 -1.6127 -0.7389
    1MPD2    N114344   0.121   2.529  15.179 -0.1479  0.2713 -0.1830
    1MPD2    H714345   0.080   2.528  15.272  1.7651  1.9456  0.6786
    2TMC3    C114346   4.633   2.609  15.128 -0.2333 -0.5822  0.5990
    2TMC3    C214347   4.550   2.502  15.150  0.2165  0.4928 -0.4575
    2TMC3    C314348   4.420   2.512  15.106  0.1884 -0.6605 -0.0761
    2TMC3    C414349   4.585   2.725  15.071  0.5611  0.2812 -0.3229
    2TMC3    C514350   4.448   2.725  15.034  0.4750 -0.3880 -0.6454
    2TMC3    C614351   4.365   2.628  15.062  0.7121  0.2571  0.4945
    2TMC3     C14352   0.038   2.562  15.079  0.1762  0.5647  0.5338
    2TMC3     O14353   0.075   2.578  14.963 -0.3560  0.2726 -0.6396
    2TMC3     H14354   4.576   2.405  15.191 -1.7616  0.9420  1.8489
    2TMC3    H114355   4.648   2.811  15.051  0.5704  0.5205  0.7294
    2TMC3    H214356   4.261   2.637  15.035  0.7026 -1.0023  0.1144
    2TMC3    C714357   4.428   2.776  14.904 -0.2675  0.7000 -1.0180
    2TMC3    C814358   4.401   2.413  14.998 -0.0137  0.2213  0.6039
    2TMC3    O114359   4.318   2.769  14.858  0.1531 -0.2599  0.0284
    2TMC3    O214360   4.288   2.412  14.953  0.4516 -0.1462 -0.0901
    3TCq1    O114361   0.048   3.783  14.431 -1.0980 -0.0266  0.9253
    3TCq1    C114362   0.084   3.752  14.554 -0.1144 -0.3315 -0.2820
    3TCq1    O214363   0.075   3.824  14.647  0.1324 -0.0732  0.1459
    3TCq1    C214364   0.151   3.631  14.560  0.7686 -0.0095  0.5688
    3TCq1    C314365   0.260   3.621  14.637  0.5511 -0.0511 -0.6482
    3TCq1    C414366   0.289   3.504  14.696  0.0191 -0.1526  0.0435
    3TCq1    C514367   0.224   3.389  14.657  0.0290 -0.5790  0.0410
    3TCq1    C614368   0.110   3.407  14.569  0.4923  0.6811  0.7793
    3TCq1    C714369   0.073   3.529  14.525 -0.4567  0.5396 -0.8618
    3TCq1    C814370   0.026   3.297  14.528  0.3714  0.3591  0.2229
    3TCq1    O414371   4.672   3.321  14.430 -0.4715 -0.0192  0.0426
    3TCq1    C914372   0.389   3.505  14.800 -0.0045  0.0588 -0.8715
    3TCq1    O514373   0.449   3.617  14.812 -0.8540 -0.4183  0.0538
    3TCq1    O614374   0.406   3.401  14.868 -0.2572 -0.3205 -0.0923
    3TCq1    H114375   0.092   3.736  14.358 -0.2408  0.2582  1.2541
    3TCq1    H214376   0.314   3.712  14.660 -2.0853  1.0038  1.3741
    3TCq1    H314377   0.253   3.294  14.699 -0.4002 -1.1066 -0.8349
    3TCq1    H414378   4.703   3.541  14.467 -0.9996  1.9769  0.2863
    4MPD2     C14379   4.565   3.069  14.520 -0.1330 -0.4639 -0.1036
    4MPD2    C114380   4.651   3.092  14.625 -0.1975 -1.1813  0.6516
    4MPD2    C214381   4.641   3.016  14.733 -0.6180 -0.4396  0.2844
    4MPD2    C314382   4.546   2.909  14.738 -0.0489  0.1243  0.1296
    4MPD2    C414383   4.460   2.887  14.629  0.0992  1.1746 -0.2155
    4MPD2    C514384   4.467   2.977  14.526 -0.2045  0.0987  0.2501
    4MPD2     H14385   4.712   3.034  14.813 -1.4750  0.2006  0.8998
    4MPD2    H114386   4.377   2.819  14.643  1.0797 -0.3055 -1.5655
    4MPD2    H214387   4.577   3.127  14.429 -1.7320  1.0607  0.6545
    4MPD2    H314388   4.385   2.975  14.455  0.6778 -1.1732 -0.7169
    4MPD2     N14389   4.541   2.832  14.860  0.3214  0.2504  0.2741
    4MPD2    H514390   4.627   2.824  14.912  1.2907  1.2714 -1.1563
    4MPD2    N114391   0.026   3.195  14.618  0.1280  0.4152 -0.1993
    4MPD2    H714392   0.087   3.213  14.698 -0.3087  1.2768 -0.0573
    5TMC2    C114393   0.341   2.170  14.634 -0.1977 -0.8366  0.1487
    5TMC2    C214394   0.349   2.032  14.639 -0.1569  0.1789 -0.6504
    5TMC2    C314395   0.468   1.981  14.672 -0.1849  0.4736  0.1830
    5TMC2    C414396   0.439   2.247  14.692  0.3155  0.3057 -0.1601
    5TMC2    C514397   0.542   2.186  14.754 -0.1747 -0.4341 -0.5238
    5TMC2    C614398   0.557   2.051  14.746  0.3145 -0.1771 -0.1806
    5TMC2     C14399   0.215   2.225  14.663 -0.2200  0.5737 -0.0500
    5TMC2     O14400   0.223   2.316  14.743 -0.1320 -0.0750  0.4202
    5TMC2     H14401   0.273   1.970  14.592 -0.3953 -0.0359  0.0262
    5TMC2    H114402   0.444   2.355  14.682 -0.5992  0.4110  0.5078
    5TMC2    H214403   0.644   2.004  14.790 -0.5616 -1.4167  0.2228
    5TMC2    C714404   0.564   2.239  14.888 -0.3125  0.4276 -0.9348
    5TMC2    C814405   0.473   1.837  14.673  0.4929 -0.5798  0.0904
    5TMC2    O114406   0.661   2.208  14.960 -0.8580  0.1013 -0.1723
    5TMC2    O214407   0.374   1.768  14.675  0.3239 -0.1233 -0.0859
    5TMC2    O514408   0.598   1.800  14.630 -0.0973 -0.3036 -0.1460
    5TMC2    H514409   0.657   1.878  14.631 -0.2739 -0.1742 -0.0494
    6MPD2     C14410   4.434   2.238  14.736  0.1553  0.5073  1.0261
    6MPD2    C114411   4.537   2.299  14.809  0.3488 -0.3652 -0.6907
    6MPD2    C214412   4.663   2.258  14.779  0.2582  0.0713  0.2276
    6MPD2    C314413   4.694   2.183  14.668 -0.0490  0.6788 -0.8675
    6MPD2    C414414   4.588   2.122  14.603  0.3064 -0.5337 -0.1622
    6MPD2    C514415   4.459   2.150  14.635  0.5853  0.0837 -0.4149
    6MPD2     H14416   0.019   2.302  14.842  0.1246 -1.1264  1.2129
    6MPD2    H114417   4.609   2.065  14.513  0.6770  0.6980 -0.8629
    6MPD2    H214418   4.330   2.250  14.765 -0.4441  2.7193 -2.0054
    6MPD2    H314419   4.376   2.115  14.575 -0.3907  0.1633  0.8979
    6MPD2     N14420   0.104   2.146  14.630 -0.5956 -0.3786  0.0808
    6MPD2    H514421   0.118   2.075  14.558 -0.1960  0.0884 -0.3017
    6MPD2    N114422   4.523   2.375  14.934  0.4282  0.5511 -0.5857
    6MPD2    H714423   4.612   2.408  14.970 -0.1276  1.7344 -0.3076
  945NH3     N114424   3.284   0.112   8.823 -0.2737 -0.1172  0.3499
  945NH3     H214425   3.290   0.207   8.857 -1.1862 -0.7148  2.2130
  945NH3     H314426   3.381   0.084   8.823  0.3775  2.2325  0.8490
  945NH3     H414427   3.234   0.061   8.896 -0.0607 -1.1921 -0.2560
  946SOD     NA14428   1.355   2.692  14.406  0.1887  0.6531 -0.0537
  947SOD     NA14429   1.912   2.960  14.144  0.1743 -0.4542  0.2087
  948SOD     NA14430   4.063   4.573   1.789  0.5331 -0.5737  0.2154
  949SOD     NA14431   1.187   1.527  12.185  0.3491  0.1241  0.2082
  950SOD     NA14432   1.742   3.227  17.029  0.4487  0.3029 -0.5058
  951SOD     NA14433   2.416   0.045  15.380  0.4281  0.0964 -0.4348
  952SOD     NA14434   2.011   1.748  10.830  0.0814 -0.3657 -0.1955
  953SOD     NA14435   2.720   1.091  14.042 -0.4659 -0.5254  0.0904
  954SOD     NA14436   3.856   2.630  13.764  0.3213 -0.1833 -0.0253
  955SOD     NA14437   0.111   1.162  10.273  0.1147  0.7240  0.1463
  956SOD     NA14438   0.760   1.648   5.011  0.1762 -0.4536  0.2582
  957SOD     NA14439   2.623   3.055   1.902  0.2563 -0.0315 -0.4823
  958SOD     NA14440   4.458   0.604  11.331 -0.2246  0.2255 -0.4520
  959SOD     NA14441   2.572   2.504  14.522  0.1933  0.2418  0.3712
  960SOD     NA14442   1.823   3.710  11.747  0.5474  0.2028  0.0756
  961SOD     NA14443   2.685   2.049   5.140  0.1591 -0.5998  0.2883
  962SOD     NA14444   4.238   0.661  14.782 -0.1457  0.6208 -0.1469
  963SOD     NA14445   3.048   2.896  17.155 -0.0356  0.0628 -0.0323
  964SOD     NA14446   2.006   2.967  11.368  0.0385  0.1861 -0.0241
  965SOD     NA14447   4.005   3.595   1.924 -0.1961 -0.0592 -0.3605
  966SOD     NA14448   1.749   0.564  12.328 -0.1677 -0.4250  0.0271
  967SOD     NA14449   0.442   0.939  10.677 -0.1724  0.7192  0.3268
  968SOD     NA14450   3.063   0.711  10.009 -0.1422 -0.1745 -0.3808
  969SOD     NA14451   0.195   4.405  11.559 -0.3928  0.3257  0.0594
  970SOD     NA14452   1.578   1.117   0.784 -0.1287  0.0185 -0.2936
  971SOD     NA14453   2.055   1.449  13.742 -0.0738 -0.1401 -0.2857
  972SOD     NA14454   0.715   2.297  11.937  0.6173 -0.3248 -0.0214
  973SOD     NA14455   1.537   0.859   0.635 -0.1639  0.3433 -0.1910
  974SOD     NA14456   1.420   1.812  11.786  0.0460 -0.0458 -0.1887
  975SOD     NA14457   0.302   1.455  10.601  0.3311  0.2507 -0.2995
  976SOD     NA14458   0.316   4.717  11.442  0.3356  0.3592  0.5929
  977SOD     NA14459   2.045   4.653  16.566 -0.0156  0.2297 -0.0990
  978SOD     NA14460   3.384   4.537   0.903  0.0275 -0.3375  0.3841
  979SOD     NA14461   0.666   1.973  11.839 -0.3653 -0.3986 -0.5198
  980SOD     NA14462   2.927   0.337  15.439  0.3921  0.0976 -0.2797
  981SOD     NA14463   0.775   1.130  12.825 -0.0642 -0.1301  0.1653
  982SOD     NA14464   1.832   3.012   4.547 -0.1505 -0.3278 -0.4753
  983SOD     NA14465   0.564   1.248   9.713 -0.4806  0.0077  0.3103
  984SOD     NA14466   3.921   1.694  10.741 -0.3196 -0.5486 -0.3725
  985SOD     NA14467   1.627   2.823  14.034  0.4515 -0.0578  0.9688
  986SOD     NA14468   3.313   0.133   1.020  0.1225 -0.0810  0.4060
  987SOD     NA14469   2.232   2.683   8.142  0.1205 -0.0674  0.1802
  988SOD     NA14470   4.313   2.477  13.084 -0.7222  0.2838 -0.0362
  989SOD     NA14471   2.894   0.768  12.897 -0.1534 -0.2289 -0.3822
  990SOD     NA14472   1.165   2.433   0.468 -0.1404 -0.1249 -0.2653
  991SOD     NA14473   1.959   1.160  13.791  0.0677 -0.1438  0.5285
  992SOD     NA14474   0.371   3.174  14.920  0.3511 -0.0743  0.0067
  993SOD     NA14475   2.487   2.193   1.857 -0.4971 -0.0076 -0.3790
  994SOD     NA14476   0.034   1.754  12.996  0.1520  0.8062 -0.0022
  995SOD     NA14477   2.255   2.390  16.299  0.2904 -0.4425  0.0026
  996SOD     NA14478   0.761   0.971   2.458  0.0667 -0.0368 -0.0473
  997SOD     NA14479   4.608   1.220  10.031  0.1036 -0.0185 -0.0564
  998SOD     NA14480   2.307   1.299   2.940  0.8419  0.0848  0.3676
  999SOD     NA14481   2.719   0.807   1.236  0.0537 -0.1603 -0.1199
 1000SOD     NA14482   1.561   0.286  16.699  0.1778  0.0547 -0.2564
 1001SOD     NA14483   3.670   1.544  11.622  0.1507  0.0042  0.4004
 1002SOD     NA14484   2.496   3.938  12.274  0.6720 -0.2136  0.5707
 1003SOD     NA14485   0.976   1.309  12.988  0.1908 -0.1788  0.0424
 1004SOD     NA14486   2.230   3.523  13.251 -0.0657 -0.6051  0.1930
 1005SOD     NA14487   0.316   3.690  12.194 -0.4874 -0.5689  0.0855
 1006SOD     NA14488   2.678   4.615   2.235  0.7290 -0.6450  0.1144
 1007SOD     NA14489   0.019   1.323  10.596 -0.3499  0.1263 -0.1392
 1008SOD     NA14490   4.451   3.207   7.409 -0.0420 -0.3740  0.6966
 1009SOD     NA14491   3.797   3.082   3.129  0.2997 -0.1791  0.5949
 1010SOD     NA14492   3.966   1.038   2.619 -0.3607  0.1852 -0.0056
 1011SOD     NA14493   0.957   1.987  11.781 -0.3327 -0.0641 -0.0273
 1012SOL     OW14494   2.860   4.160   8.608 -0.0938 -0.2487  0.0503
 1012SOL    HW114495   2.930   4.192   8.551  0.3520 -1.9252 -0.3490
 1012SOL    HW214496   2.781   4.183   8.560 -0.3176  1.5513  1.2924
 1013SOL     OW14497   3.959   2.679   1.743  0.7359 -0.3157 -0.1633
 1013SOL    HW114498   4.001   2.721   1.819 -2.2119  0.9290  0.7726
 1013SOL    HW214499   3.964   2.587   1.769  0.4804 -0.3294 -0.1597
 1014SOL     OW14500   0.002   2.887   3.025  0.2487 -0.5796  0.4317
 1014SOL    HW114501   0.076   2.904   2.967  0.6522 -0.8631  0.8725
 1014SOL    HW214502   0.014   2.964   3.080 -0.9979  1.3102 -1.8866
 1015SOL     OW14503   4.072   2.595   2.879  0.8004 -0.4560  0.1562
 1015SOL    HW114504   4.018   2.517   2.885  1.4850 -1.1005 -2.0238
 1015SOL    HW214505   4.004   2.663   2.874  0.7739 -0.3945  1.4965
 1016SOL     OW14506   0.028   0.780   5.494  0.1163 -0.2312 -0.1683
 1016SOL    HW114507   0.046   0.783   5.400 -3.6120 -1.0641 -0.9271
 1016SOL    HW214508   4.659   0.748   5.497  0.7014 -2.0005 -1.3491
 1017SOL     OW14509   3.095   2.563  15.152 -0.2411  0.3590 -0.2016
 1017SOL    HW114510   3.120   2.646  15.112 -1.9588 -0.2543 -2.6062
 1017SOL    HW214511   3.000   2.576  15.146  0.0211  3.0108  1.6360
 1018SOL     OW14512   1.195   3.057   4.453  0.1762 -0.0388  0.0700
 1018SOL    HW114513   1.104   3.081   4.471  0.4226  0.2846  0.8618
 1018SOL    HW214514   1.232   3.145   4.443  1.4067 -0.2577  2.8692
 1019SOL     OW14515   4.565   3.181   4.489 -0.2243  0.3734  0.1561
 1019SOL    HW114516   4.652   3.217   4.507  0.9069 -2.1001 -0.4449
 1019SOL    HW214517   4.560   3.233   4.408 -1.9799 -0.6249 -0.3516
 1020SOL     OW14518   1.969   0.886   4.567  0.1572 -0.2244 -1.0617
 1020SOL    HW114519   1.962   0.795   4.538 -3.5240  0.0961 -1.2632
 1020SOL    HW214520   1.899   0.926   4.515  0.0170  0.1906 -0.5460
 1021SOL     OW14521   1.485   4.255   2.613  0.1355  0.0795  0.7302
 1021SOL    HW114522   1.427   4.311   2.664  1.0590  1.8782 -0.1829
 1021SOL    HW214523   1.541   4.224   2.685  2.8243  1.1715 -0.8739
 1022SOL     OW14524   3.360   3.431  12.927  0.4899 -0.1595  0.4628
 1022SOL    HW114525   3.309   3.360  12.964 -0.2244 -0.4148 -1.0181
 1022SOL    HW214526   3.442   3.398  12.963  0.8457 -2.5219 -2.5309
 1023SOL     OW14527   0.296   2.954   6.607  0.3793 -0.4016  0.3065
 1023SOL    HW114528   0.201   2.953   6.608  0.3992 -0.3077  1.8894
 1023SOL    HW214529   0.318   3.041   6.641 -0.2166  0.3078 -1.1257
 1024SOL     OW14530   1.825   4.494  14.111  0.2647  0.1200  0.8047
 1024SOL    HW114531   1.818   4.410  14.066  1.0674  0.0221  0.8513
 1024SOL    HW214532   1.744   4.492  14.162 -1.5336  0.9124 -2.0366
 1025SOL     OW14533   0.909   0.978   5.426  0.2698 -0.7405 -0.6265
 1025SOL    HW114534   0.945   1.010   5.508 -0.7979  0.1754 -0.5194
 1025SOL    HW214535   0.932   1.046   5.363  1.4201 -0.9688 -0.4427
 1026SOL     OW14536   3.378   2.856   5.781 -0.5755  0.4705  0.7374
 1026SOL    HW114537   3.358   2.864   5.875 -2.9524  0.3786  0.2403
 1026SOL    HW214538   3.287   2.853   5.752 -0.2721  1.4589 -0.3167
 1027SOL     OW14539   3.272   2.690   4.606 -0.5501 -0.2821  0.1885
 1027SOL    HW114540   3.293   2.725   4.520 -0.5156 -0.3924  0.1525
 1027SOL    HW214541   3.294   2.766   4.660 -2.5659 -0.2024  0.8979
 1028SOL     OW14542   2.200   4.480   7.630  0.0641  0.4589  0.0274
 1028SOL    HW114543   2.192   4.423   7.553  0.8439  1.7647 -1.0310
 1028SOL    HW214544   2.232   4.407   7.684  1.7363  1.1274 -0.0549
 1029SOL     OW14545   0.691   2.531   4.209 -0.2301 -0.3193  0.0688
 1029SOL    HW114546   0.737   2.569   4.134  1.0646 -0.7099  0.6492
 1029SOL    HW214547   0.658   2.613   4.245  0.7063 -0.0790  0.3934
 1030SOL     OW14548   3.058   4.139   6.572 -0.0049  0.6164  0.6225
 1030SOL    HW114549   2.970   4.174   6.559  0.2359  0.8827 -0.2662
 1030SOL    HW214550   3.079   4.165   6.662  1.6784  1.4496 -0.0041
 1031SOL     OW14551   1.322   4.458   4.864  0.1971  0.1990 -0.3295
 1031SOL    HW114552   1.273   4.440   4.784  1.8860  1.6058 -1.6849
 1031SOL    HW214553   1.412   4.431   4.845 -0.2776 -1.2723 -0.4605
 1032SOL     OW14554   1.525   2.554  14.469 -0.1448  0.0044  0.3660
 1032SOL    HW114555   1.578   2.574  14.547 -0.9959  4.1772 -0.1207
 1032SOL    HW214556   1.589   2.501  14.422 -0.7365 -2.2522  2.1226
 1033SOL     OW14557   2.654   1.689   4.831 -0.1769  0.3533 -0.0871
 1033SOL    HW114558   2.743   1.660   4.811 -0.0970 -0.5274  1.6543
 1033SOL    HW214559   2.659   1.689   4.926 -0.4952 -1.4255 -0.0718
 1034SOL     OW14560   1.567   3.544   3.195 -0.5970  0.1388 -0.0876
 1034SOL    HW114561   1.641   3.537   3.255 -0.2306  0.7206 -0.4691
 1034SOL    HW214562   1.524   3.619   3.236  1.1007  0.4701  1.0797
 1035SOL     OW14563   1.424   2.714   0.694  0.1921 -0.3119  0.7017
 1035SOL    HW114564   1.424   2.802   0.733 -1.6973 -0.5298  1.2095
 1035SOL    HW214565   1.515   2.690   0.679  0.4902  1.2047  0.0328
 1036SOL     OW14566   0.442   2.251   5.563 -0.0173 -0.1399  0.5178
 1036SOL    HW114567   0.533   2.280   5.565 -0.2712  0.7903 -1.3407
 1036SOL    HW214568   0.395   2.333   5.548  0.9159  0.3128  0.0707
 1037SOL     OW14569   1.455   0.433   4.579  0.0468 -0.4398  0.4021
 1037SOL    HW114570   1.414   0.418   4.664  0.6257 -1.5660  0.4794
 1037SOL    HW214571   1.378   0.420   4.523  0.9662 -4.7320  0.1233
 1038SOL     OW14572   0.863   3.146   5.717 -0.1790  0.2129  0.3933
 1038SOL    HW114573   0.899   3.227   5.681  2.0253 -1.1641 -0.5272
 1038SOL    HW214574   0.787   3.185   5.759 -0.9708 -0.3486 -0.5230
 1039SOL     OW14575   2.562   0.761   4.236 -0.2979 -0.2196  0.1305
 1039SOL    HW114576   2.500   0.817   4.188 -1.5817 -1.6812  0.0709
 1039SOL    HW214577   2.611   0.829   4.281  0.7120 -1.0919  0.3384
 1040SOL     OW14578   1.496   3.590   2.773 -0.0042 -0.0761 -0.6796
 1040SOL    HW114579   1.576   3.543   2.793  1.3860  1.9577 -1.4857
 1040SOL    HW214580   1.505   3.600   2.678  1.6186  0.2485 -0.4888
 1041SOL     OW14581   3.857   1.987  16.364  0.0853  0.0083 -0.2207
 1041SOL    HW114582   3.832   2.079  16.354 -1.0459 -0.3474 -0.7344
 1041SOL    HW214583   3.823   1.977  16.453  0.1357  2.3870  0.0597
 1042SOL     OW14584   1.389   1.685   1.871 -0.2587 -0.2696  0.1577
 1042SOL    HW114585   1.458   1.725   1.925  1.4445 -0.9564 -1.4975
 1042SOL    HW214586   1.324   1.754   1.883 -2.0451 -2.0333  0.5798
 1043SOL     OW14587   2.815   0.835  16.314 -0.2341  0.3066 -0.5580
 1043SOL    HW114588   2.857   0.919  16.332  2.2765 -1.2438  0.8212
 1043SOL    HW214589   2.726   0.852  16.345  0.3135  1.0426  0.6246
 1044SOL     OW14590   3.823   4.165   9.338 -0.6744  0.2898 -0.2483
 1044SOL    HW114591   3.867   4.087   9.371  0.1462  0.0533 -1.8886
 1044SOL    HW214592   3.897   4.210   9.297 -1.3784  0.8611 -0.8894
 1045SOL     OW14593   0.183   1.536  17.310  0.9462  0.4645  0.3872
 1045SOL    HW114594   0.277   1.534  17.292  0.7540  2.7478 -0.9303
 1045SOL    HW214595   0.186   1.571  17.399 -0.4421  0.6512  0.3597
 1046SOL     OW14596   3.855   0.221  16.348  0.2775  0.3319  0.1962
 1046SOL    HW114597   3.824   0.191  16.263 -0.4457  1.9824 -0.1231
 1046SOL    HW214598   3.794   0.172  16.404  1.1850 -0.0325  0.8622
 1047SOL     OW14599   2.059   0.463   5.107  0.0519 -0.2255 -0.6464
 1047SOL    HW114600   2.054   0.455   5.011 -0.6963 -0.4198 -0.5887
 1047SOL    HW214601   1.992   0.531   5.116 -0.9079 -1.3997  1.0135
 1048SOL     OW14602   1.087   4.033   5.161 -0.5783  0.1721  0.1567
 1048SOL    HW114603   1.097   4.038   5.256  0.3629 -3.9265  0.2645
 1048SOL    HW214604   1.066   3.940   5.155  0.1240  0.0486 -0.3864
 1049SOL     OW14605   2.874   4.491   5.674 -0.0307 -0.1987 -0.1709
 1049SOL    HW114606   2.923   4.481   5.756  2.3035  3.5330 -1.1351
 1049SOL    HW214607   2.885   4.586   5.664 -0.5068 -0.1631 -0.3603
 1050SOL     OW14608   2.418   3.562   0.047 -0.4479 -0.0928  0.3044
 1050SOL    HW114609   2.458   3.634   0.096  0.1180  0.7549 -1.4213
 1050SOL    HW214610   2.451   3.490   0.101 -0.3436 -0.8376 -0.7465
 1051SOL     OW14611   0.138   3.054   8.504  0.3095  0.1920 -0.3790
 1051SOL    HW114612   0.067   3.098   8.458 -0.4351 -2.9170 -2.2276
 1051SOL    HW214613   0.124   3.070   8.597  3.8412 -1.0897  0.3697
 1052SOL     OW14614   4.585   1.744   7.438 -0.3728  0.5952 -0.7579
 1052SOL    HW114615   4.665   1.731   7.387 -1.0305 -0.0425 -1.6082
 1052SOL    HW214616   4.531   1.677   7.397  0.2557 -1.3704  1.6612
 1053SOL     OW14617   1.228   2.269   1.560 -0.2062  0.6289 -0.1580
 1053SOL    HW114618   1.223   2.216   1.480 -2.2330  1.2987 -0.4899
 1053SOL    HW214619   1.289   2.334   1.525 -1.4228  0.5189 -2.5325
 1054SOL     OW14620   4.100   4.530   6.439 -0.0866 -0.6420  1.0563
 1054SOL    HW114621   4.057   4.571   6.515  1.8811 -2.3691  3.1144
 1054SOL    HW214622   4.183   4.578   6.437  0.0941 -0.9267  1.7297
 1055SOL     OW14623   3.269   0.866   6.341 -0.6745  0.0994 -0.0120
 1055SOL    HW114624   3.299   0.778   6.364 -3.2990 -0.3085  1.9333
 1055SOL    HW214625   3.351   0.902   6.308  1.8141 -2.8642  2.8424
 1056SOL     OW14626   3.322   3.482  13.858 -0.1820  0.3477 -0.5909
 1056SOL    HW114627   3.323   3.517  13.769 -1.8510 -0.9190 -1.1119
 1056SOL    HW214628   3.299   3.561  13.908 -1.0165 -0.6112  0.5385
 1057SOL     OW14629   1.945   3.216   4.581 -0.4958  0.2975  0.3246
 1057SOL    HW114630   1.956   3.204   4.675  0.2611 -0.2090  0.1744
 1057SOL    HW214631   1.901   3.300   4.567 -0.2561  0.1130 -1.5259
 1058SOL     OW14632   1.119   3.259  11.676 -0.1698 -0.3356 -0.1995
 1058SOL    HW114633   1.133   3.188  11.739  1.6263  0.2360  0.0476
 1058SOL    HW214634   1.064   3.317  11.727 -1.5174 -1.8381  0.0639
 1059SOL     OW14635   3.928   2.268   7.676  0.3490 -0.3724 -0.0973
 1059SOL    HW114636   3.902   2.237   7.590 -1.2163 -0.6940  0.4893
 1059SOL    HW214637   4.015   2.229   7.664  0.1673 -1.4177  1.9192
 1060SOL     OW14638   3.491   3.844   6.076  0.2821 -0.0754  0.2555
 1060SOL    HW114639   3.476   3.767   6.131  1.6635 -0.4751  0.0679
 1060SOL    HW214640   3.419   3.831   6.014 -0.6183 -0.6431  1.4164
 1061SOL     OW14641   2.226   2.696  14.603  0.2734 -0.0550 -0.3411
 1061SOL    HW114642   2.141   2.732  14.578 -0.3039 -0.2702  1.3396
 1061SOL    HW214643   2.229   2.698  14.699 -0.1682 -1.2493 -0.3069
 1062SOL     OW14644   0.343   4.000   3.226 -0.2474 -0.1672  0.1566
 1062SOL    HW114645   0.373   3.929   3.170 -0.5651  0.2489 -0.5421
 1062SOL    HW214646   0.329   4.073   3.166 -1.0302  1.5237  2.3868
 1063SOL     OW14647   3.556   0.976  12.623  0.2829 -0.2724  0.0219
 1063SOL    HW114648   3.619   0.904  12.622 -0.6078 -1.1069  3.4202
 1063SOL    HW214649   3.567   1.023  12.706  1.0574 -0.1541 -0.1423
 1064SOL     OW14650   0.922   1.075   4.340  0.7036  0.1752 -0.1902
 1064SOL    HW114651   0.943   1.039   4.254 -1.3075 -0.0753 -0.5721
 1064SOL    HW214652   0.882   1.158   4.315  2.7613  0.2550 -3.1841
 1065SOL     OW14653   1.410   1.980  11.648 -0.3698 -0.0759 -0.1209
 1065SOL    HW114654   1.445   1.954  11.563  0.7361 -0.9212  0.6027
 1065SOL    HW214655   1.351   2.045  11.610 -0.2421  1.2403  1.8861
 1066SOL     OW14656   2.687   1.025   7.514  0.0699  0.0067  0.0418
 1066SOL    HW114657   2.687   1.117   7.540  2.2517 -0.6353  2.2767
 1066SOL    HW214658   2.772   0.992   7.545  0.4145 -0.5954 -1.5714
 1067SOL     OW14659   3.521   2.967  17.040  0.0496 -0.4663 -0.4884
 1067SOL    HW114660   3.507   3.042  16.983  1.9045 -0.3788 -0.8258
 1067SOL    HW214661   3.608   2.987  17.076 -0.6589  0.4211  0.7227
 1068SOL     OW14662   1.217   0.837   5.858  0.9024 -0.3262 -0.6985
 1068SOL    HW114663   1.202   0.845   5.763 -1.4370 -0.4033 -0.3446
 1068SOL    HW214664   1.131   0.855   5.895  1.2158 -0.6904  0.1819
 1069SOL     OW14665   2.901   1.249   9.035  0.1637 -0.0062  0.0375
 1069SOL    HW114666   2.808   1.241   9.057  0.0086  0.7972 -0.3293
 1069SOL    HW214667   2.930   1.309   9.103 -0.6784 -1.3946  1.6317
 1070SOL     OW14668   0.077   1.878   4.401  0.3262 -0.2303  0.2205
 1070SOL    HW114669   0.014   1.924   4.457  1.2130  0.7349  0.4142
 1070SOL    HW214670   0.017   1.803   4.394 -0.5737  0.5700 -0.7100
 1071SOL     OW14671   1.870   3.400  15.647  0.8526  0.2960  0.1145
 1071SOL    HW114672   1.867   3.494  15.665  2.6386  0.3822 -0.0650
 1071SOL    HW214673   1.779   3.373  15.664  1.2445 -1.8933 -1.2179
 1072SOL     OW14674   1.357   1.993   0.479  0.0641  0.3091 -0.5894
 1072SOL    HW114675   1.262   1.982   0.490 -0.1196  0.1413 -2.3113
 1072SOL    HW214676   1.365   2.003   0.573 -0.6587 -0.8827 -0.4042
 1073SOL     OW14677   0.461   2.009   4.108  0.3206  0.1997 -0.0976
 1073SOL    HW114678   0.502   1.981   4.026  1.4870  0.6293  0.3431
 1073SOL    HW214679   0.498   2.095   4.124  1.3895  0.4291 -3.8496
 1074SOL     OW14680   2.368   3.348  16.495  0.6608  0.4850  0.8591
 1074SOL    HW114681   2.387   3.269  16.443  0.2641  0.8056  0.2191
 1074SOL    HW214682   2.405   3.423  16.449  0.3283 -0.7192 -1.3858
 1075SOL     OW14683   1.542   2.433   4.899 -0.2127 -0.4866 -0.0733
 1075SOL    HW114684   1.530   2.528   4.897 -0.3191 -0.5020 -0.2073
 1075SOL    HW214685   1.620   2.428   4.953  0.7222 -0.7769 -1.4708
 1076SOL     OW14686   2.295   3.968  14.576  0.4397 -0.3747  0.2540
 1076SOL    HW114687   2.384   3.939  14.557  0.7101  0.5637  0.0996
 1076SOL    HW214688   2.257   3.931  14.497  0.0584  2.0768 -0.7063
 1077SOL     OW14689   4.118   4.380  12.119  0.0348 -0.2287 -0.7168
 1077SOL    HW114690   4.057   4.307  12.109 -2.2102  1.6884 -1.0690
 1077SOL    HW214691   4.140   4.413  12.032  0.5001  3.6901  0.8880
 1078SOL     OW14692   2.217   2.670   6.792  0.6369 -0.0095  0.1739
 1078SOL    HW114693   2.161   2.748   6.794 -0.3303 -0.7018  0.0323
 1078SOL    HW214694   2.297   2.695   6.747 -0.8992  0.0884 -2.4675
 1079SOL     OW14695   0.118   0.955   0.572  0.1442  0.2241  0.0130
 1079SOL    HW114696   0.118   0.926   0.664  1.1158 -1.7777 -0.6168
 1079SOL    HW214697   0.165   1.037   0.587  1.9018 -0.8968  0.5350
 1080SOL     OW14698   0.169   1.995   4.729 -0.0171  0.0069  0.1300
 1080SOL    HW114699   0.195   1.905   4.751 -1.7348 -0.8057 -1.1712
 1080SOL    HW214700   0.084   2.002   4.773 -0.0659 -0.1628  0.0614
 1081SOL     OW14701   0.286   0.605   2.808  0.1594 -0.2870  0.2062
 1081SOL    HW114702   0.296   0.513   2.783 -2.4558 -0.5020 -0.0213
 1081SOL    HW214703   0.203   0.643   2.780  0.0186 -0.9801 -0.3062
 1082SOL     OW14704   0.377   3.221  14.059 -0.1921 -0.4361  0.8778
 1082SOL    HW114705   0.399   3.148  14.001 -2.7563  2.4534 -3.7901
 1082SOL    HW214706   0.464   3.257  14.080  0.6484 -0.3375 -2.6680
 1083SOL     OW14707   0.636   3.313   5.827 -0.2772 -0.6246 -0.7272
 1083SOL    HW114708   0.549   3.280   5.851  0.1601 -1.6099 -0.4854
 1083SOL    HW214709   0.648   3.358   5.910 -0.0760  0.9615 -1.6041
 1084SOL     OW14710   3.687   1.144   3.250 -0.3279 -0.0627  0.5018
 1084SOL    HW114711   3.619   1.090   3.210  1.0137 -1.2981 -0.1216
 1084SOL    HW214712   3.632   1.165   3.325 -0.9525  0.1620 -0.0254
 1085SOL     OW14713   2.213   2.222   6.719  0.3952 -0.4269  0.4387
 1085SOL    HW114714   2.178   2.137   6.746  0.7311 -0.0371  2.1539
 1085SOL    HW214715   2.304   2.209   6.748  0.7804  0.3316 -0.4304
 1086SOL     OW14716   3.308   0.678   4.690  0.3600  0.2889  0.0606
 1086SOL    HW114717   3.295   0.772   4.679 -1.7410  0.2032  1.6739
 1086SOL    HW214718   3.286   0.676   4.783  0.1624 -0.3529 -0.0028
 1087SOL     OW14719   0.288   2.670   1.456 -0.2122  0.1525  0.4646
 1087SOL    HW114720   0.280   2.751   1.406  1.0413 -1.5098 -2.4155
 1087SOL    HW214721   0.200   2.636   1.436  0.6445 -1.3561 -0.7162
 1088SOL     OW14722   1.194   1.453   9.597 -0.7687 -0.2463  0.1936
 1088SOL    HW114723   1.145   1.530   9.627 -0.0805  0.0288  0.6124
 1088SOL    HW214724   1.127   1.423   9.535  0.4173 -0.9323 -0.7543
 1089SOL     OW14725   4.265   3.967   8.496  0.3300  0.0781  0.3597
 1089SOL    HW114726   4.257   3.930   8.408  2.3570  0.6004 -0.0343
 1089SOL    HW214727   4.188   3.921   8.530 -1.1858  1.1741 -1.6002
 1090SOL     OW14728   2.562   1.196   5.790  0.0490 -0.2037  0.4914
 1090SOL    HW114729   2.575   1.290   5.794  2.9887 -0.5424 -0.8956
 1090SOL    HW214730   2.522   1.179   5.875  3.7492  0.3126  2.3510
 1091SOL     OW14731   1.172   3.416  15.647 -0.1275  0.0325  0.1407
 1091SOL    HW114732   1.237   3.349  15.666  1.1093  0.9275 -0.9850
 1091SOL    HW214733   1.142   3.432  15.737  0.8698 -1.0093  0.6522
 1092SOL     OW14734   3.737   0.481   3.706  0.5938  0.3610 -0.1673
 1092SOL    HW114735   3.667   0.460   3.767  1.3382 -0.1198  0.5182
 1092SOL    HW214736   3.709   0.568   3.679  0.9461  0.9318  1.3174
 1093SOL     OW14737   0.065   3.429   1.730  0.0412 -0.0700  0.2805
 1093SOL    HW114738   0.060   3.333   1.723  0.0515 -0.0924  0.5818
 1093SOL    HW214739   0.000   3.438   1.801  0.5433  0.1774  0.7102
 1094SOL     OW14740   2.710   2.308   6.329  0.3287  0.1134 -0.0750
 1094SOL    HW114741   2.778   2.373   6.312 -2.4262  2.5752 -1.7260
 1094SOL    HW214742   2.627   2.356   6.336  0.9802  1.1088  1.0081
 1095SOL     OW14743   3.297   2.984  12.874  0.7033 -0.4508 -0.1115
 1095SOL    HW114744   3.293   2.942  12.960  1.1876  0.8325  0.5446
 1095SOL    HW214745   3.389   2.979  12.851  0.6152 -0.4611 -0.4618
 1096SOL     OW14746   1.880   1.150   6.779 -0.3435 -0.1119 -0.3438
 1096SOL    HW114747   1.966   1.190   6.796 -1.0016  0.9289  0.5371
 1096SOL    HW214748   1.890   1.127   6.687 -1.3625  0.1382 -0.5137
 1097SOL     OW14749   2.844   3.134  16.852 -0.2833 -0.1788 -0.2655
 1097SOL    HW114750   2.802   3.102  16.932 -2.1415  1.2918 -0.6252
 1097SOL    HW214751   2.833   3.229  16.860 -0.8724 -0.1830 -1.0116
 1098SOL     OW14752   0.592   0.830  12.998  0.4852  0.4545 -0.8225
 1098SOL    HW114753   0.566   0.871  13.081 -0.0643  1.7952 -1.6507
 1098SOL    HW214754   0.504   0.808  12.968 -0.1121  0.5101  0.9130
 1099SOL     OW14755   0.528   3.182   8.349 -0.6988  0.1855  0.5577
 1099SOL    HW114756   0.612   3.139   8.366  1.2777  3.1786 -1.7361
 1099SOL    HW214757   0.476   3.104   8.369 -1.0389 -0.1441 -1.6739
 1100SOL     OW14758   1.187   3.216   8.211 -0.7461 -0.3283 -0.1325
 1100SOL    HW114759   1.244   3.165   8.153  0.6450  2.0214 -0.8496
 1100SOL    HW214760   1.258   3.273   8.241  0.1504 -1.2375 -0.5283
 1101SOL     OW14761   1.951   2.478  15.653 -0.2502 -0.7463 -0.0086
 1101SOL    HW114762   1.903   2.542  15.705  1.8341  0.6200  0.2394
 1101SOL    HW214763   2.007   2.445  15.722  1.3013 -1.6924 -1.7212
 1102SOL     OW14764   2.384   2.655   7.039  0.5580 -0.2660 -0.4006
 1102SOL    HW114765   2.393   2.560   7.030  1.0516 -0.1638 -1.0657
 1102SOL    HW214766   2.348   2.675   6.952 -0.0322  2.6083  0.4874
 1103SOL     OW14767   1.999   1.280   4.713 -0.1246 -0.5180 -0.2586
 1103SOL    HW114768   2.004   1.264   4.807 -0.0175  1.5617  0.1029
 1103SOL    HW214769   1.904   1.281   4.700 -0.1230  0.2431 -0.2344
 1104SOL     OW14770   1.161   2.228   1.114 -1.0864 -0.1368 -0.2576
 1104SOL    HW114771   1.151   2.235   1.019  1.2302 -0.9385 -0.5451
 1104SOL    HW214772   1.174   2.134   1.128 -0.0546  0.3001  1.6669
 1105SOL     OW14773   4.050   1.258   9.284  0.8523 -0.2238  0.3402
 1105SOL    HW114774   4.038   1.167   9.311 -0.2727  0.3939  1.9093
 1105SOL    HW214775   4.002   1.296   9.357  0.8846 -0.8474  0.6852
 1106SOL     OW14776   4.082   4.147   9.671  0.3630  0.4736 -0.5616
 1106SOL    HW114777   4.160   4.161   9.724  0.5321 -1.0100 -0.4066
 1106SOL    HW214778   4.110   4.084   9.605  0.8628 -0.7444  0.8164
 1107SOL     OW14779   4.066   3.911  12.451 -0.9130  0.0437 -0.1394
 1107SOL    HW114780   4.053   3.985  12.510  0.1827  1.5802 -1.8416
 1107SOL    HW214781   4.070   3.840  12.515 -3.7100 -0.2907 -0.3145
 1108SOL     OW14782   1.025   4.072   3.873  0.3545  0.7351 -0.7203
 1108SOL    HW114783   1.016   4.025   3.790 -1.1567  0.6302 -0.4920
 1108SOL    HW214784   0.942   4.053   3.916  1.3608 -0.2057  0.8152
 1109SOL     OW14785   3.450   0.306  11.601 -0.3302  0.6300  0.0910
 1109SOL    HW114786   3.501   0.315  11.682 -1.4072 -0.7549  0.9377
 1109SOL    HW214787   3.364   0.297  11.642 -0.8610 -1.1528 -1.3929
 1110SOL     OW14788   3.553   0.315   7.377 -0.2771 -0.3676  0.4945
 1110SOL    HW114789   3.463   0.324   7.346  0.2887  0.8605 -0.7619
 1110SOL    HW214790   3.543   0.358   7.462 -2.1490 -0.4122  0.3061
 1111SOL     OW14791   0.588   1.122   2.512 -0.0466  0.9193 -0.6369
 1111SOL    HW114792   0.497   1.112   2.481  0.4938 -1.2606 -1.5516
 1111SOL    HW214793   0.587   1.147   2.604  0.6372  0.5842 -0.5421
 1112SOL     OW14794   3.856   1.064   3.058 -0.1867 -0.3732 -0.2316
 1112SOL    HW114795   3.792   1.072   3.128  0.5974  3.1980  0.1251
 1112SOL    HW214796   3.828   0.990   3.005 -1.0496  0.3504 -0.7919
 1113SOL     OW14797   1.337   2.735   7.591 -0.0304  0.6418  0.1962
 1113SOL    HW114798   1.313   2.692   7.509 -1.4327 -1.8031  1.8939
 1113SOL    HW214799   1.345   2.654   7.642 -0.2535  0.1032 -0.6365
 1114SOL     OW14800   2.188   4.093   6.606  0.4108 -0.1196  0.1409
 1114SOL    HW114801   2.105   4.113   6.562  0.0113 -0.2699  0.8104
 1114SOL    HW214802   2.196   4.177   6.651  0.0934 -1.3185  2.4333
 1115SOL     OW14803   4.387   0.402   7.726 -0.1726 -0.8628  0.5727
 1115SOL    HW114804   4.463   0.447   7.763  0.6557 -0.2591 -1.8577
 1115SOL    HW214805   4.336   0.471   7.684  1.0273  0.8058  1.8552
 1116SOL     OW14806   4.652   2.367   6.330  0.5556  0.1492  0.2222
 1116SOL    HW114807   4.669   2.309   6.255 -1.3796  0.2072 -0.2724
 1116SOL    HW214808   0.014   2.402   6.363  2.0484 -0.4629 -2.8776
 1117SOL     OW14809   2.144   2.896   8.647  0.5049 -0.2832 -0.1653
 1117SOL    HW114810   2.193   2.898   8.729  1.0907 -0.2283 -0.5186
 1117SOL    HW214811   2.113   2.806   8.649 -1.0897  0.2583 -0.1638
 1118SOL     OW14812   3.212   4.065  14.555 -0.2481  0.2749  0.0246
 1118SOL    HW114813   3.198   3.970  14.560 -0.1930  0.3255  1.0618
 1118SOL    HW214814   3.276   4.069  14.484 -0.6952 -0.0281 -0.3996
 1119SOL     OW14815   1.596   1.432   4.995 -0.1944 -0.7968  0.2575
 1119SOL    HW114816   1.623   1.523   4.979 -2.4583 -0.1889 -0.0688
 1119SOL    HW214817   1.540   1.442   5.072 -0.7166 -0.0710 -0.2206
 1120SOL     OW14818   0.211   2.491   8.796 -0.8342 -0.3313 -0.1233
 1120SOL    HW114819   0.252   2.526   8.876  0.0527  0.1865 -0.8041
 1120SOL    HW214820   0.119   2.469   8.811 -0.6092 -1.7785 -0.8719
 1121SOL     OW14821   2.714   2.233   5.531  0.4029 -0.3439 -0.7396
 1121SOL    HW114822   2.802   2.270   5.521  0.1640 -0.0548 -1.8147
 1121SOL    HW214823   2.679   2.301   5.588  1.3492 -0.6380  0.1837
 1122SOL     OW14824   3.643   2.778   6.715 -0.1260 -0.2198 -0.2626
 1122SOL    HW114825   3.611   2.725   6.642  0.2203 -0.3322 -0.3320
 1122SOL    HW214826   3.688   2.708   6.764 -2.3248 -1.1009  0.4836
 1123SOL     OW14827   1.431   0.802  13.070  0.0515  0.3782 -0.3471
 1123SOL    HW114828   1.474   0.816  13.155 -0.6931 -0.0458  0.1030
 1123SOL    HW214829   1.510   0.798  13.016 -0.0720  2.4454 -0.6838
 1124SOL     OW14830   0.545   3.436   5.236  0.1643  0.8496 -0.3193
 1124SOL    HW114831   0.467   3.426   5.182 -0.1391 -0.5231  0.3734
 1124SOL    HW214832   0.581   3.349   5.223  0.6841  0.9918  0.1485
 1125SOL     OW14833   1.912   0.470   0.432 -0.4335  0.5932  0.1334
 1125SOL    HW114834   1.995   0.425   0.449 -0.2661  1.1863  0.8920
 1125SOL    HW214835   1.875   0.465   0.520 -0.9099 -2.5745 -0.2319
 1126SOL     OW14836   2.005   1.898   2.716 -0.0940 -0.7699  0.2199
 1126SOL    HW114837   2.034   1.840   2.785  1.4858  0.1807  0.3495
 1126SOL    HW214838   2.085   1.946   2.696 -0.2941  0.3117  1.9779
 1127SOL     OW14839   4.702   3.211   6.519  0.3362  0.2166 -0.4206
 1127SOL    HW114840   0.028   3.159   6.584  0.0757  0.0262 -0.3844
 1127SOL    HW214841   0.055   3.235   6.463  1.0729  0.0982  0.5103
 1128SOL     OW14842   4.017   3.754   3.442 -0.0700  0.5598  0.1872
 1128SOL    HW114843   3.929   3.790   3.453 -0.8040 -1.4607  0.9710
 1128SOL    HW214844   4.085   3.815   3.470  0.4584  0.4866 -0.9555
 1129SOL     OW14845   1.752   1.955   8.801 -0.6725  0.3510  0.5904
 1129SOL    HW114846   1.694   2.011   8.852 -1.7183  0.1498 -0.3840
 1129SOL    HW214847   1.755   1.879   8.860 -2.0135  0.6447  1.0223
 1130SOL     OW14848   1.912   3.411   8.948  0.2994 -0.0514 -0.6155
 1130SOL    HW114849   1.892   3.444   8.861 -2.7692 -0.7218 -0.1880
 1130SOL    HW214850   1.985   3.352   8.930 -0.4630 -0.4037 -2.5722
 1131SOL     OW14851   1.650   3.402   4.127  0.0773 -0.6145  0.4121
 1131SOL    HW114852   1.715   3.334   4.107  2.2274  1.5067  0.2086
 1131SOL    HW214853   1.704   3.453   4.188  0.2624  1.3741 -1.4153
 1132SOL     OW14854   4.508   2.724   4.794 -0.2082 -0.1511  0.5615
 1132SOL    HW114855   4.592   2.684   4.816  0.3338  1.1391  0.7918
 1132SOL    HW214856   4.529   2.816   4.780  0.0836 -0.2481  0.3619
 1133SOL     OW14857   4.459   1.640   2.934 -0.6185 -0.2955  0.6026
 1133SOL    HW114858   4.381   1.598   2.971 -4.0402  2.8772 -3.0388
 1133SOL    HW214859   4.520   1.600   2.996 -0.8161  1.3631  1.8833
 1134SOL     OW14860   1.535   3.829  14.626 -0.3814 -0.3557  0.0235
 1134SOL    HW114861   1.544   3.753  14.683  1.7835 -0.5200 -0.5286
 1134SOL    HW214862   1.621   3.869  14.639 -1.2653 -0.0863  5.0505
 1135SOL     OW14863   0.862   4.429   2.187 -0.4653  0.0954 -0.5611
 1135SOL    HW114864   0.800   4.496   2.215 -1.1866  0.1067 -2.2275
 1135SOL    HW214865   0.813   4.350   2.164 -0.7029 -0.4508  1.7696
 1136SOL     OW14866   3.091   3.383   4.202 -0.4003 -0.4087 -0.0972
 1136SOL    HW114867   3.039   3.303   4.203  1.1823 -1.4078  1.2527
 1136SOL    HW214868   3.029   3.451   4.229  0.8399 -0.0426  1.8620
 1137SOL     OW14869   3.122   2.329   6.592  0.5237 -0.2936 -0.2246
 1137SOL    HW114870   3.095   2.246   6.552  1.8334 -0.4103 -0.8547
 1137SOL    HW214871   3.212   2.310   6.617  0.7082 -0.8041 -1.2850
 1138SOL     OW14872   4.364   1.063  13.628  0.7494 -0.0578 -0.0799
 1138SOL    HW114873   4.377   1.068  13.533  1.3169  1.3988  0.0685
 1138SOL    HW214874   4.362   1.154  13.656  0.2736 -0.5045  1.3318
 1139SOL     OW14875   3.193   0.251   1.571  0.0331  1.0140 -0.8522
 1139SOL    HW114876   3.128   0.181   1.576 -0.3431  1.3478 -1.0566
 1139SOL    HW214877   3.168   0.295   1.489  1.2284  0.2879 -1.6090
 1140SOL     OW14878   1.942   3.378   1.875  0.0008 -0.4004 -0.2687
 1140SOL    HW114879   1.956   3.291   1.836  0.5720 -0.7924  0.8241
 1140SOL    HW214880   1.956   3.439   1.802  0.6906 -1.5949 -1.1490
 1141SOL     OW14881   3.449   0.463   5.724  0.3850  0.0431  0.2559
 1141SOL    HW114882   3.519   0.527   5.734  1.8220 -1.3660 -0.8088
 1141SOL    HW214883   3.376   0.506   5.769  2.3903  2.5274  1.0956
 1142SOL     OW14884   0.276   0.616   9.233 -0.1616  0.1993 -0.4017
 1142SOL    HW114885   0.311   0.697   9.269 -1.6372  0.3695  0.6480
 1142SOL    HW214886   0.185   0.644   9.218  0.0627  0.4395 -1.3227
 1143SOL     OW14887   0.643   1.058  16.369 -0.1016  0.6451  0.1727
 1143SOL    HW114888   0.636   0.975  16.322  0.2406  0.7943 -0.1446
 1143SOL    HW214889   0.565   1.049  16.423 -1.3246  2.6087 -1.2945
 1144SOL     OW14890   3.467   2.787  16.805  0.2676  0.1730  0.0015
 1144SOL    HW114891   3.474   2.870  16.852 -1.3033  0.1750  0.2334
 1144SOL    HW214892   3.559   2.765  16.796  0.1927  0.2970 -1.0633
 1145SOL     OW14893   1.998   1.766  15.774 -0.0375 -0.6441  0.4357
 1145SOL    HW114894   1.980   1.766  15.680  0.0524 -0.7884  0.4190
 1145SOL    HW214895   2.062   1.695  15.771  1.7743  0.9435  1.8929
 1146SOL     OW14896   4.547   0.215  11.148 -0.2563 -0.1919 -0.0983
 1146SOL    HW114897   4.577   0.271  11.220  0.6471 -0.5374 -0.1979
 1146SOL    HW214898   4.479   0.173  11.200 -0.1413  1.1603  1.1286
 1147SOL     OW14899   2.426   3.662   3.591 -0.4056  0.3072  0.1271
 1147SOL    HW114900   2.466   3.652   3.505  0.4345  2.3232  0.2973
 1147SOL    HW214901   2.501   3.678   3.648  2.9043 -0.3325 -4.0447
 1148SOL     OW14902   1.634   0.183   3.764  0.4394  0.0594 -0.4133
 1148SOL    HW114903   1.550   0.140   3.781 -0.0552  0.8498 -0.8816
 1148SOL    HW214904   1.615   0.246   3.694  0.8547 -0.2740 -0.8291
 1149SOL     OW14905   2.215   4.033   3.987  0.3216  0.3521 -0.2102
 1149SOL    HW114906   2.223   3.944   4.023  0.8462  0.0370 -1.1200
 1149SOL    HW214907   2.145   4.041   3.922 -1.2549 -0.0110  1.4204
 1150SOL     OW14908   0.920   3.439   3.800 -0.1334 -0.4639 -0.2044
 1150SOL    HW114909   0.855   3.394   3.746  0.2710  0.3811 -1.3915
 1150SOL    HW214910   0.915   3.387   3.880 -1.6416 -0.8301 -0.5306
 1151SOL     OW14911   2.726   0.231   9.550 -0.0023  0.1823  0.0993
 1151SOL    HW114912   2.775   0.176   9.488 -0.5174  0.1660 -0.2918
 1151SOL    HW214913   2.647   0.246   9.498  1.5502  1.3313 -1.9127
 1152SOL     OW14914   0.303   3.335   2.942  0.5724 -0.4481 -0.2826
 1152SOL    HW114915   0.333   3.335   2.851 -2.2242 -1.3668 -1.1832
 1152SOL    HW214916   0.225   3.389   2.943  0.8311 -0.0307 -3.1280
 1153SOL     OW14917   2.371   1.975  10.790 -0.3912  0.3058  0.3122
 1153SOL    HW114918   2.279   1.950  10.782  0.1935 -0.7728 -2.7812
 1153SOL    HW214919   2.392   1.898  10.843 -1.7145 -0.6546 -0.5832
 1154SOL     OW14920   4.059   3.427   0.314 -0.6422  0.4768  0.1112
 1154SOL    HW114921   4.096   3.488   0.377  1.6749 -2.7987  1.9118
 1154SOL    HW214922   4.068   3.478   0.233  0.6266 -0.0751 -0.0938
 1155SOL     OW14923   4.675   1.521   8.690 -0.1221  0.2948  0.3151
 1155SOL    HW114924   0.010   1.573   8.748  0.1911 -1.2136  1.3839
 1155SOL    HW214925   0.011   1.502   8.615 -1.1019 -1.0409 -0.0881
 1156SOL     OW14926   3.453   0.074   5.615  1.0244  0.2054  0.0411
 1156SOL    HW114927   3.391   0.028   5.672 -0.9651  1.3213 -1.2327
 1156SOL    HW214928   3.532   0.060   5.666  0.4507 -2.9227  0.0648
 1157SOL     OW14929   3.662   1.657   7.043  0.3109  0.2613 -0.6931
 1157SOL    HW114930   3.687   1.741   7.080  1.1644 -1.1024  1.8160
 1157SOL    HW214931   3.691   1.589   7.105  0.2969  1.0365  0.1577
 1158SOL     OW14932   2.803   2.165  15.257  0.1226  0.0889 -0.1134
 1158SOL    HW114933   2.720   2.125  15.230  1.3907 -0.2568 -3.5575
 1158SOL    HW214934   2.791   2.256  15.231  0.9559  0.3376  0.3890
 1159SOL     OW14935   1.464   1.745  10.928 -0.3769 -0.7685 -0.0031
 1159SOL    HW114936   1.387   1.801  10.918 -0.7821 -1.0461  1.5970
 1159SOL    HW214937   1.535   1.806  10.947  1.4203 -1.8235 -3.3613
 1160SOL     OW14938   3.579   2.290  10.674  0.6009 -0.2653  0.0729
 1160SOL    HW114939   3.557   2.267  10.584  1.3270 -0.0953 -0.1432
 1160SOL    HW214940   3.673   2.279  10.667  0.9552  2.7712  0.0307
 1161SOL     OW14941   0.807   4.586  16.887 -0.2182 -0.0542 -0.0466
 1161SOL    HW114942   0.804   4.644  16.963 -0.6605  0.0732 -0.1585
 1161SOL    HW214943   0.723   4.542  16.898 -0.4593  0.3550 -0.2181
 1162SOL     OW14944   2.548   2.980   2.567  0.0705 -0.2589  0.7965
 1162SOL    HW114945   2.489   2.905   2.561 -0.4206  0.2221 -0.3922
 1162SOL    HW214946   2.607   2.946   2.634  2.4339  0.2973 -0.9995
 1163SOL     OW14947   1.571   4.666   6.851  0.5395 -0.9202  0.5019
 1163SOL    HW114948   1.484   4.663   6.890 -0.3553  1.0969 -1.3264
 1163SOL    HW214949   1.548   4.675   6.758  2.7641 -1.3496 -0.0836
 1164SOL     OW14950   3.867   3.158   8.733 -0.1568 -0.4537  0.1677
 1164SOL    HW114951   3.941   3.111   8.771  1.1635  0.5205 -1.1624
 1164SOL    HW214952   3.818   3.181   8.811 -0.7911 -1.7153  0.1438
 1165SOL     OW14953   2.582   4.182   8.536 -0.2669 -0.4251 -0.0409
 1165SOL    HW114954   2.512   4.123   8.565  0.7272 -1.3047  0.5383
 1165SOL    HW214955   2.528   4.260   8.520 -1.4404 -0.7507  2.2259
 1166SOL     OW14956   3.966   0.891  11.072 -0.5872  0.4916 -0.2831
 1166SOL    HW114957   3.963   0.868  10.979  0.8287  0.5821 -0.3511
 1166SOL    HW214958   3.890   0.950  11.071 -0.2968  0.8849  0.8576
 1167SOL     OW14959   3.237   0.609  14.773 -0.3493 -0.3625 -0.0689
 1167SOL    HW114960   3.195   0.660  14.842  0.0134 -1.6021  1.0608
 1167SOL    HW214961   3.234   0.522  14.813  2.2892 -0.1136  0.6783
 1168SOL     OW14962   4.710   3.924   0.134  0.3110 -0.4666 -0.1283
 1168SOL    HW114963   0.003   4.005   0.182 -0.6320  0.7717 -1.9630
 1168SOL    HW214964   4.636   3.947   0.079  0.8089  1.2622 -0.0681
 1169SOL     OW14965   1.307   3.925  10.507 -0.1679  0.8051  0.0024
 1169SOL    HW114966   1.242   3.926  10.577 -0.8150 -0.8899 -0.5919
 1169SOL    HW214967   1.268   3.848  10.466 -1.6462  1.7966 -0.4359
 1170SOL     OW14968   0.841   1.869   7.448  0.1524 -0.0770  0.2075
 1170SOL    HW114969   0.793   1.822   7.380  1.5024  2.7560 -2.6808
 1170SOL    HW214970   0.930   1.844   7.425 -0.9275 -1.7218 -2.2137
 1171SOL     OW14971   4.568   2.944   8.455 -0.0335  0.4285  0.1090
 1171SOL    HW114972   4.474   2.941   8.473  0.1298 -0.3894  0.8304
 1171SOL    HW214973   4.592   3.026   8.498 -1.9229  1.3845 -0.6244
 1172SOL     OW14974   2.603   0.676   3.897  0.0269  0.2913  0.3108
 1172SOL    HW114975   2.672   0.742   3.895  0.1613  0.1382 -0.0826
 1172SOL    HW214976   2.525   0.731   3.886  0.0958  0.1825 -0.7053
 1173SOL     OW14977   4.666   3.078   2.342 -0.3433 -0.0126 -0.2923
 1173SOL    HW114978   0.016   3.136   2.314  0.8976 -1.4013 -0.0324
 1173SOL    HW214979   4.604   3.137   2.385  0.0581  1.0838 -1.2087
 1174SOL     OW14980   4.475   4.059   6.403 -0.1397 -0.1064 -0.4768
 1174SOL    HW114981   4.567   4.076   6.381  0.2732  0.8196  1.9957
 1174SOL    HW214982   4.481   3.965   6.415  0.6362 -0.3882 -2.9717
 1175SOL     OW14983   0.132   1.751   3.687  0.3567 -0.0647 -0.2738
 1175SOL    HW114984   0.215   1.788   3.720 -0.9738  3.7113 -1.2075
 1175SOL    HW214985   0.154   1.658   3.686  1.0846  0.0471  3.8920
 1176SOL     OW14986   1.013   3.126   5.353  0.4558 -0.0388  0.1076
 1176SOL    HW114987   0.933   3.135   5.404  1.0943 -1.8446  1.4367
 1176SOL    HW214988   1.000   3.167   5.268  0.9418  0.3644  0.2243
 1177SOL     OW14989   2.802   0.411  10.356 -0.1652 -0.4904  0.7906
 1177SOL    HW114990   2.818   0.420  10.450  1.2536 -0.0612  0.5144
 1177SOL    HW214991   2.718   0.455  10.344  1.8678  3.3970  0.7083
 1178SOL     OW14992   4.307   1.374  13.066 -0.0250 -0.3524  0.4427
 1178SOL    HW114993   4.309   1.410  12.977  1.2695 -0.3628  0.4655
 1178SOL    HW214994   4.218   1.385  13.099 -0.8207 -0.6574 -1.5902
 1179SOL     OW14995   1.059   0.415   7.540  0.0878  0.9295 -0.0510
 1179SOL    HW114996   1.064   0.420   7.635  1.6516  1.8408 -0.1698
 1179SOL    HW214997   0.988   0.475   7.519  0.0974  1.3248  1.0522
 1180SOL     OW14998   2.947   2.744   8.436  0.6564 -0.3626  0.4066
 1180SOL    HW114999   2.855   2.771   8.443  0.9544  0.5978  0.6039
 1180SOL    HW215000   2.975   2.717   8.523 -0.5830 -1.6664  0.4033
 1181SOL     OW15001   2.084   0.491   4.787  0.0908  0.3149 -0.1728
 1181SOL    HW115002   2.136   0.557   4.834 -0.2404 -0.1995  0.9241
 1181SOL    HW215003   2.066   0.535   4.704  1.3011  2.2001  0.5393
 1182SOL     OW15004   4.605   3.709  16.187  0.2379  0.5243 -0.0110
 1182SOL    HW115005   4.613   3.671  16.099  2.6636  0.3154  0.3035
 1182SOL    HW215006   4.588   3.629  16.236 -3.1938  0.7682 -0.8492
 1183SOL     OW15007   0.679   3.669   3.669 -0.2967  0.3074  0.0617
 1183SOL    HW115008   0.641   3.738   3.723  1.2595  0.8112  0.5106
 1183SOL    HW215009   0.593   3.642   3.639 -1.1206  1.8332  1.0580
 1184SOL     OW15010   2.446   2.626   8.973  0.2982  0.9870  0.2805
 1184SOL    HW115011   2.470   2.589   8.887  0.8196 -3.0587  2.1667
 1184SOL    HW215012   2.527   2.609   9.021 -0.4458 -2.9255  0.1461
 1185SOL     OW15013   1.091   0.277   2.168  0.0193  0.2025 -0.1168
 1185SOL    HW115014   1.097   0.319   2.253 -1.8523  0.5531 -0.1590
 1185SOL    HW215015   1.056   0.352   2.120  0.8131 -0.3792 -1.6044
 1186SOL     OW15016   3.470   3.428   5.433  0.3917  0.4397 -0.0930
 1186SOL    HW115017   3.517   3.383   5.362  0.9913 -0.8479  1.1089
 1186SOL    HW215018   3.471   3.521   5.410 -0.5872  0.5237  0.2315
 1187SOL     OW15019   2.790   2.595   0.419 -0.3148  0.6878 -1.2140
 1187SOL    HW115020   2.701   2.570   0.395 -1.2331  1.9355  0.9536
 1187SOL    HW215021   2.825   2.594   0.330  2.4952  0.0981 -0.1017
 1188SOL     OW15022   0.465   3.186   7.668 -0.1546 -0.3326  0.4081
 1188SOL    HW115023   0.476   3.117   7.603  0.1742  1.3852 -1.3637
 1188SOL    HW215024   0.553   3.213   7.691  0.2872 -0.5418 -1.0132
 1189SOL     OW15025   1.488   4.475   8.821 -0.4978 -0.2187  0.0632
 1189SOL    HW115026   1.578   4.445   8.804  0.2016  1.1528  1.4510
 1189SOL    HW215027   1.468   4.408   8.886  2.6928  1.0868  2.3936
 1190SOL     OW15028   0.979   3.845   6.721 -0.5691  0.3623 -0.8691
 1190SOL    HW115029   1.073   3.860   6.720 -0.3032 -1.4258 -1.9813
 1190SOL    HW215030   0.965   3.794   6.642 -1.0268 -0.3907 -0.2970
 1191SOL     OW15031   1.522   3.363   0.738 -0.1718  0.3004 -0.5661
 1191SOL    HW115032   1.428   3.380   0.738 -0.0915  0.7377 -0.8152
 1191SOL    HW215033   1.542   3.415   0.816  0.7104  1.3404 -1.4958
 1192SOL     OW15034   3.493   0.998   6.272  0.6107  0.0067  0.6212
 1192SOL    HW115035   3.554   0.975   6.341  0.9784 -1.1772 -0.0898
 1192SOL    HW215036   3.507   1.093   6.268 -0.0754  0.0981  0.2854
 1193SOL     OW15037   2.241   1.949  16.935  0.9071 -0.5911 -0.4293
 1193SOL    HW115038   2.226   1.878  16.998  2.7066 -2.5904 -2.2179
 1193SOL    HW215039   2.170   1.936  16.872 -0.8295 -1.2058  1.6389
 1194SOL     OW15040   1.316   0.372   9.447  0.4477 -0.3697  0.6822
 1194SOL    HW115041   1.368   0.408   9.375 -1.9896  1.5783 -0.1143
 1194SOL    HW215042   1.350   0.285   9.466 -1.6251 -0.6406  3.0830
 1195SOL     OW15043   2.791   1.942   2.615 -0.2840 -0.4483 -0.4463
 1195SOL    HW115044   2.800   1.962   2.522  3.3344 -2.0610 -0.4352
 1195SOL    HW215045   2.860   1.879   2.631 -1.0116 -0.8336  1.1666
 1196SOL     OW15046   2.259   4.275   1.068  0.1531 -0.3536  0.1153
 1196SOL    HW115047   2.287   4.247   0.981 -0.3248 -0.9298  0.1476
 1196SOL    HW215048   2.297   4.204   1.119  2.1838  0.4061 -0.3466
 1197SOL     OW15049   3.527   1.308   6.301 -0.4448  0.2344 -0.4228
 1197SOL    HW115050   3.621   1.320   6.313 -0.4243 -0.3595  0.0345
 1197SOL    HW215051   3.507   1.395   6.266  1.1381  0.9220  0.4217
 1198SOL     OW15052   1.764   4.000   8.821  0.1315  0.4086 -0.2585
 1198SOL    HW115053   1.829   3.931   8.809 -2.0520 -1.5215 -0.8651
 1198SOL    HW215054   1.776   4.028   8.912  2.7563 -2.1194  0.1591
 1199SOL     OW15055   2.468   3.591   9.736  0.3892  0.0302 -0.0445
 1199SOL    HW115056   2.411   3.615   9.809 -0.4044 -0.1134 -0.6252
 1199SOL    HW215057   2.555   3.584   9.775  0.2940 -2.0151 -0.1969
 1200SOL     OW15058   2.906   0.973   9.052  0.6589  0.3207  0.3210
 1200SOL    HW115059   2.943   1.061   9.059 -1.2803  1.2361 -0.8744
 1200SOL    HW215060   2.966   0.912   9.096  0.3122  0.9241  1.6215
 1201SOL     OW15061   4.015   3.510   4.647 -0.0547  0.0229  0.2869
 1201SOL    HW115062   4.000   3.433   4.592 -3.7376  0.2210  1.0113
 1201SOL    HW215063   3.993   3.576   4.581  2.0663 -1.9305 -2.3636
 1202SOL     OW15064   2.296   4.030   9.247 -0.2736  0.3946 -0.4683
 1202SOL    HW115065   2.290   4.078   9.164  0.8299  1.3739  0.0075
 1202SOL    HW215066   2.234   3.959   9.233  1.0512 -0.5369 -1.5671
 1203SOL     OW15067   4.306   2.763   8.149 -0.0846 -0.3455  0.3030
 1203SOL    HW115068   4.235   2.782   8.211 -0.1835  0.1713  0.0355
 1203SOL    HW215069   4.381   2.751   8.207 -0.7567  0.9042  1.4485
 1204SOL     OW15070   0.172   3.693   7.096  0.1378 -0.5210  0.1808
 1204SOL    HW115071   0.154   3.669   7.186 -1.9637 -0.0514 -0.1076
 1204SOL    HW215072   0.083   3.709   7.065  0.0248 -1.0950  0.2278
 1205SOL     OW15073   2.664   2.113   8.062 -0.3406 -0.1274 -0.0050
 1205SOL    HW115074   2.648   2.022   8.036  0.0991  0.2876 -1.7330
 1205SOL    HW215075   2.685   2.094   8.154 -2.1552  1.3256  0.6888
 1206SOL     OW15076   2.525   0.304   4.954 -0.5378 -0.4806 -0.0072
 1206SOL    HW115077   2.484   0.326   5.038 -1.2488  2.0773 -1.0039
 1206SOL    HW215078   2.498   0.215   4.935  1.9025 -1.1852 -0.1753
 1207SOL     OW15079   2.716   0.423   3.941  0.2759  0.3344 -0.3470
 1207SOL    HW115080   2.652   0.495   3.940  0.2293  0.2954  0.2639
 1207SOL    HW215081   2.788   0.463   3.989  1.7797  0.6599 -2.8419
 1208SOL     OW15082   2.190   2.468   9.482 -0.4973  0.1632  0.2463
 1208SOL    HW115083   2.272   2.504   9.447 -1.1667  0.2333 -1.2754
 1208SOL    HW215084   2.174   2.404   9.412 -0.3011  0.7276 -0.3168
 1209SOL     OW15085   0.672   4.356  10.165 -0.2898  0.0815  0.1768
 1209SOL    HW115086   0.685   4.277  10.112 -1.6489 -0.6646  0.9518
 1209SOL    HW215087   0.648   4.412  10.092  3.4441 -1.5612 -2.3796
 1210SOL     OW15088   0.609   1.902  13.902  0.3583 -1.0384  1.2200
 1210SOL    HW115089   0.516   1.924  13.910  0.6083  0.0353  1.2671
 1210SOL    HW215090   0.599   1.808  13.893  2.5909 -1.0845 -0.7014
 1211SOL     OW15091   4.504   2.659  12.322 -0.6041 -0.0696  0.0363
 1211SOL    HW115092   4.481   2.657  12.229  0.6295 -0.9510 -0.2500
 1211SOL    HW215093   4.543   2.573  12.337  1.4749  0.6665 -1.1970
 1212SOL     OW15094   4.427   1.989  11.693  0.3295  0.0321  0.0799
 1212SOL    HW115095   4.354   1.939  11.654  0.0258  1.9830 -1.8932
 1212SOL    HW215096   4.439   2.056  11.626  1.3420 -0.1363  0.0928
 1213SOL     OW15097   4.169   2.545  10.605  0.0226 -0.4026  0.0315
 1213SOL    HW115098   4.167   2.469  10.664  0.9893 -0.0996  0.4613
 1213SOL    HW215099   4.235   2.522  10.539  1.0139  0.1481  0.8197
 1214SOL     OW15100   2.405   3.404   8.534 -0.3541 -0.0472  0.1472
 1214SOL    HW115101   2.322   3.399   8.581  0.4438 -1.7545  1.3926
 1214SOL    HW215102   2.402   3.331   8.472 -0.9227 -0.3118  0.4875
 1215SOL     OW15103   2.027   4.653   2.773  0.5209 -0.3933 -0.5809
 1215SOL    HW115104   1.962   4.610   2.828 -1.2667  1.4369 -1.2574
 1215SOL    HW215105   1.981   4.651   2.689 -0.6963  1.1173  0.0538
 1216SOL     OW15106   2.538   3.557   9.098 -0.2041 -0.0243 -0.4537
 1216SOL    HW115107   2.629   3.533   9.117 -0.5899 -0.7503  0.5023
 1216SOL    HW215108   2.509   3.535   9.187 -1.9133 -0.7340 -1.2063
 1217SOL     OW15109   0.492   3.966  15.712 -0.4119 -0.5577 -0.4675
 1217SOL    HW115110   0.542   3.960  15.793 -1.6013  1.7881  0.4478
 1217SOL    HW215111   0.567   3.972  15.653 -0.3146 -2.7219 -0.5438
 1218SOL     OW15112   2.278   0.807  15.777  0.3976 -0.6045 -0.0062
 1218SOL    HW115113   2.276   0.760  15.693 -1.9740 -0.1464 -0.2036
 1218SOL    HW215114   2.268   0.898  15.749  1.3840 -0.3646  0.3907
 1219SOL     OW15115   3.323   3.366  11.729 -0.1637 -0.1722 -0.3620
 1219SOL    HW115116   3.380   3.442  11.741 -0.9707  0.2103  1.1420
 1219SOL    HW215117   3.350   3.353  11.638  3.1097  1.7213  0.3268
 1220SOL     OW15118   0.802   0.328  10.151  0.5207  0.2734  0.0292
 1220SOL    HW115119   0.825   0.399  10.092 -0.4018  1.3486  0.9718
 1220SOL    HW215120   0.854   0.255  10.117  0.2142 -0.6717  1.6048
 1221SOL     OW15121   1.519   3.597   3.984  0.2743 -0.1726  0.5639
 1221SOL    HW115122   1.567   3.575   3.904 -0.2024  0.9255 -0.0242
 1221SOL    HW215123   1.548   3.531   4.047  1.0682  0.4543  0.8485
 1222SOL     OW15124   2.366   2.182   6.380 -0.2572 -0.3513  0.5629
 1222SOL    HW115125   2.434   2.157   6.442 -1.0252 -2.9458  0.3656
 1222SOL    HW215126   2.365   2.103   6.326  1.6809 -0.3508  0.5160
 1223SOL     OW15127   3.159   3.242   3.877  0.0946  0.2888  0.1087
 1223SOL    HW115128   3.147   3.147   3.870 -1.5543  0.3968  1.3137
 1223SOL    HW215129   3.194   3.263   3.790 -1.5441  1.3826 -0.2841
 1224SOL     OW15130   1.440   4.528   1.104 -0.1119  0.0888  0.0564
 1224SOL    HW115131   1.434   4.623   1.105  1.9371  0.1786  2.8933
 1224SOL    HW215132   1.530   4.523   1.072  0.2695  3.0472  0.6665
 1225SOL     OW15133   4.172   1.928  13.694 -0.3599  0.3578 -0.1723
 1225SOL    HW115134   4.152   1.995  13.760  1.6766 -0.5369  1.3660
 1225SOL    HW215135   4.115   1.947  13.620 -1.2949 -0.2102  0.3963
 1226SOL     OW15136   1.961   4.043   9.481 -1.1952  0.3019 -0.2848
 1226SOL    HW115137   2.019   4.097   9.427  0.6501 -1.2501  0.1865
 1226SOL    HW215138   2.023   4.035   9.553  0.6226 -0.8875 -1.9848
 1227SOL     OW15139   4.179   3.077  16.805 -0.0253  0.5121 -0.2902
 1227SOL    HW115140   4.086   3.074  16.782 -0.3371  2.3563  0.7622
 1227SOL    HW215141   4.197   3.170  16.811 -0.2935  0.6414 -1.6201
 1228SOL     OW15142   2.048   0.090  16.754 -0.3551  0.0301  0.2193
 1228SOL    HW115143   2.062   0.057  16.843 -0.2107 -1.3753 -0.3340
 1228SOL    HW215144   2.114   0.159  16.762  0.2366 -0.5060 -0.0669
 1229SOL     OW15145   0.486   1.205  13.121 -0.6735  0.5405 -0.3900
 1229SOL    HW115146   0.580   1.192  13.133 -0.7360 -0.4016 -0.9147
 1229SOL    HW215147   0.486   1.268  13.048  1.1557 -1.0593 -1.7646
 1230SOL     OW15148   3.044   3.717   1.481  0.1870  0.4253 -0.0451
 1230SOL    HW115149   2.994   3.762   1.413 -0.8490 -1.5460 -0.5977
 1230SOL    HW215150   2.980   3.646   1.489 -1.2584  1.6156 -1.0082
 1231SOL     OW15151   4.414   1.222   0.379  0.3478  0.0255  0.1513
 1231SOL    HW115152   4.397   1.129   0.394 -1.5935  1.0570  4.3523
 1231SOL    HW215153   4.510   1.219   0.385  0.2587 -0.6577  1.2759
 1232SOL     OW15154   1.753   0.069   2.940 -0.8002  0.9108  0.2144
 1232SOL    HW115155   1.746   4.701   2.975 -1.1898  0.5199 -0.8574
 1232SOL    HW215156   1.829   0.052   2.884 -2.0349 -3.4718 -0.1257
 1233SOL     OW15157   2.259   0.801   4.464  0.4237  0.2993  0.2643
 1233SOL    HW115158   2.274   0.742   4.390  1.8382 -0.4632  1.1627
 1233SOL    HW215159   2.288   0.758   4.545  1.0585  3.2125  1.5788
 1234SOL     OW15160   1.714   1.225   8.220  0.4210 -0.6029 -0.0304
 1234SOL    HW115161   1.765   1.264   8.149 -0.4703  0.6031 -0.0015
 1234SOL    HW215162   1.773   1.228   8.295 -0.2119 -1.4683  0.5073
 1235SOL     OW15163   0.641   0.987   5.195 -0.9043  0.3025 -0.0590
 1235SOL    HW115164   0.736   1.000   5.206 -0.6737 -1.2254 -0.2216
 1235SOL    HW215165   0.605   1.061   5.243  0.9829  1.9611 -1.1845
 1236SOL     OW15166   4.281   2.309   8.378 -0.0515  0.0124 -0.2266
 1236SOL    HW115167   4.342   2.236   8.386 -3.0804 -2.4760  0.0757
 1236SOL    HW215168   4.276   2.313   8.283  0.2827 -0.2347 -0.2528
 1237SOL     OW15169   0.546   4.580   2.885 -0.5131 -0.1451 -0.0170
 1237SOL    HW115170   0.568   4.652   2.944 -1.1342  0.1885 -0.1865
 1237SOL    HW215171   0.626   4.529   2.897  1.1951  2.8208  1.2326
 1238SOL     OW15172   2.480   0.973   5.073  0.2513  0.1149 -0.4454
 1238SOL    HW115173   2.384   0.977   5.070  0.4303  2.8847 -2.4638
 1238SOL    HW215174   2.498   0.880   5.066 -0.0283  0.0446 -0.2480
 1239SOL     OW15175   1.496   3.373   4.599 -0.1182 -0.3429  0.4883
 1239SOL    HW115176   1.501   3.467   4.616 -0.4114 -0.2334 -0.0092
 1239SOL    HW215177   1.465   3.373   4.508 -2.5498 -0.2762  1.3179
 1240SOL     OW15178   4.297   0.942   7.024 -0.2019 -0.5671 -0.4830
 1240SOL    HW115179   4.293   0.881   6.951  0.3684  1.0105 -1.8263
 1240SOL    HW215180   4.231   1.008   7.005 -0.3176 -1.1323 -1.9991
 1241SOL     OW15181   4.179   4.476   8.728 -0.1935  0.5299 -0.1122
 1241SOL    HW115182   4.108   4.520   8.683  0.8566  1.1271 -1.1879
 1241SOL    HW215183   4.177   4.388   8.690 -0.2333  1.4509 -2.1913
 1242SOL     OW15184   0.822   1.330   5.641  0.2174  0.0620  0.2576
 1242SOL    HW115185   0.817   1.326   5.737 -0.6300  1.5111  0.2832
 1242SOL    HW215186   0.783   1.244   5.624 -2.1767  1.0751  0.6052
 1243SOL     OW15187   2.836   2.259   7.116  0.2383 -0.2100  0.4645
 1243SOL    HW115188   2.895   2.254   7.191  3.0176  1.2385 -1.6179
 1243SOL    HW215189   2.861   2.340   7.071 -0.3820 -0.3245 -0.0864
 1244SOL     OW15190   0.334   2.327   1.130 -0.7699  0.2734 -0.4699
 1244SOL    HW115191   0.352   2.378   1.208  0.9156 -2.8720  1.1973
 1244SOL    HW215192   0.375   2.243   1.149 -2.4957 -0.5417 -0.3547
 1245SOL     OW15193   0.860   1.773   9.788  0.4743 -0.5311 -0.2694
 1245SOL    HW115194   0.781   1.799   9.834  0.4520  0.9947 -1.1497
 1245SOL    HW215195   0.832   1.794   9.698 -0.7398 -0.9528  0.0140
 1246SOL     OW15196   2.235   2.432   6.468 -0.3315  0.1017 -0.1130
 1246SOL    HW115197   2.258   2.413   6.559  0.8124 -1.3955 -0.7194
 1246SOL    HW215198   2.303   2.379   6.425 -1.8990 -0.9760 -1.2438
 1247SOL     OW15199   1.562   0.050   7.959  0.7280  0.2638  0.1755
 1247SOL    HW115200   1.518   4.687   7.970 -0.9149  1.2840  1.3699
 1247SOL    HW215201   1.600   0.057   8.046  0.3468 -2.7466  0.5715
 1248SOL     OW15202   3.263   1.103   6.106  0.4470 -0.7258 -0.2075
 1248SOL    HW115203   3.256   1.010   6.088 -1.4546 -0.4814 -0.6469
 1248SOL    HW215204   3.358   1.114   6.116 -0.1237  2.4679  1.8711
 1249SOL     OW15205   3.544   3.996   5.876  0.1157 -0.1519  0.2964
 1249SOL    HW115206   3.639   3.990   5.870 -0.0810 -1.7936 -1.0381
 1249SOL    HW215207   3.529   3.960   5.964 -1.2194 -0.4196 -0.0451
 1250SOL     OW15208   1.114   3.706  15.154 -0.1783  0.3458  0.6397
 1250SOL    HW115209   1.034   3.724  15.104  1.4098  3.4422 -0.7775
 1250SOL    HW215210   1.112   3.611  15.158  2.4919  0.1925 -2.3743
 1251SOL     OW15211   2.952   2.166   8.811 -0.2209  0.4331  0.3951
 1251SOL    HW115212   2.985   2.084   8.848 -0.8404 -0.8749 -1.9804
 1251SOL    HW215213   3.009   2.226   8.859  2.0602 -2.5988  1.4394
 1252SOL     OW15214   1.836   2.069   9.659 -0.3369  0.3190 -0.2361
 1252SOL    HW115215   1.898   2.123   9.611  0.0911 -1.0227 -1.2008
 1252SOL    HW215216   1.891   1.991   9.666  0.0525  0.5945 -0.2179
 1253SOL     OW15217   3.170   3.957   7.911 -0.3935 -0.0575 -1.1747
 1253SOL    HW115218   3.191   3.876   7.958 -1.2612  0.9200  0.8620
 1253SOL    HW215219   3.075   3.950   7.904 -0.3782 -1.0047 -0.4956
 1254SOL     OW15220   3.132   0.277   6.920  0.5381  0.5377  0.1830
 1254SOL    HW115221   3.070   0.341   6.956  0.3161  0.8715 -0.8074
 1254SOL    HW215222   3.094   0.275   6.832 -0.3965 -0.0899  0.5969
 1255SOL     OW15223   4.138   1.599   6.571 -0.6572  0.1039  0.6262
 1255SOL    HW115224   4.167   1.686   6.545  2.5796 -0.9379  0.8158
 1255SOL    HW215225   4.206   1.582   6.636 -1.0099  2.2490  1.5337
 1256SOL     OW15226   0.196   3.992   7.658 -0.0100  0.1307  0.0218
 1256SOL    HW115227   0.180   3.931   7.730  0.1736  2.3497  1.9587
 1256SOL    HW215228   0.198   4.073   7.709 -0.3159  0.5811 -0.6795
 1257SOL     OW15229   1.708   0.927   8.156 -0.1000 -0.4131  0.6369
 1257SOL    HW115230   1.719   1.016   8.190  1.0202  0.0680 -0.9855
 1257SOL    HW215231   1.613   0.924   8.173 -0.6170  0.2960 -2.1103
 1258SOL     OW15232   3.965   4.207   4.210 -1.0610 -0.1239  0.3094
 1258SOL    HW115233   3.944   4.181   4.299 -1.1441  1.9965  0.9080
 1258SOL    HW215234   3.878   4.207   4.169  0.0259 -1.6342 -2.0425
 1259SOL     OW15235   4.006   2.352   4.806 -0.0537 -0.5714 -0.2184
 1259SOL    HW115236   3.982   2.438   4.770  3.9325  0.4948 -0.2787
 1259SOL    HW215237   3.925   2.301   4.798 -0.9259  0.9103 -0.8395
 1260SOL     OW15238   2.367   1.065   2.971  0.3843 -0.0768  0.0613
 1260SOL    HW115239   2.365   0.997   2.903  1.6881 -1.0406  0.9904
 1260SOL    HW215240   2.411   1.016   3.040  0.8065 -2.9558 -2.2292
 1261SOL     OW15241   2.800   0.834   4.038  0.5298  0.0439 -0.1464
 1261SOL    HW115242   2.825   0.925   4.057 -0.6057  0.3923 -0.3024
 1261SOL    HW215243   2.740   0.831   4.112  0.0207 -3.2773 -0.6866
 1262SOL     OW15244   0.855   1.659   3.465  0.1250  0.0981  0.3369
 1262SOL    HW115245   0.774   1.647   3.416 -0.1453  0.6389  0.6512
 1262SOL    HW215246   0.918   1.625   3.401 -0.6108  0.3987 -0.5347
 1263SOL     OW15247   0.892   1.560   0.430 -0.2406 -0.0882  0.0133
 1263SOL    HW115248   0.974   1.513   0.417 -0.2132 -0.2312  0.6727
 1263SOL    HW215249   0.820   1.511   0.389  0.8085 -0.1062 -1.7756
 1264SOL     OW15250   0.769   2.093   9.224 -0.4603 -0.5935 -0.1600
 1264SOL    HW115251   0.822   2.098   9.144  1.1119 -0.8661  0.8561
 1264SOL    HW215252   0.841   2.048   9.269 -1.4469 -1.2283  0.7804
 1265SOL     OW15253   0.817   1.121   8.728 -0.3511 -0.1127 -0.0437
 1265SOL    HW115254   0.862   1.117   8.644 -2.8651  0.6427 -1.4356
 1265SOL    HW215255   0.871   1.187   8.773 -1.2181 -1.1253  2.4908
 1266SOL     OW15256   2.531   1.763   2.328 -0.2692  0.1520  0.1273
 1266SOL    HW115257   2.564   1.712   2.254  1.0190  0.9620  0.1570
 1266SOL    HW215258   2.527   1.848   2.286  0.7972 -0.9642 -2.2473
 1267SOL     OW15259   1.606   1.748   6.781 -0.5097 -0.0840  0.5831
 1267SOL    HW115260   1.594   1.717   6.871 -2.7082 -0.4040  0.1663
 1267SOL    HW215261   1.525   1.797   6.767 -0.4131 -0.7417 -2.1059
 1268SOL     OW15262   1.860   4.363  17.489  0.0429  0.5150 -0.3682
 1268SOL    HW115263   1.874   4.413  17.409  1.2098 -0.0743 -0.5377
 1268SOL    HW215264   1.938   4.392  17.536 -0.6889  2.6978 -0.4863
 1269SOL     OW15265   2.131   1.126   6.236 -0.7545  0.0735  0.3900
 1269SOL    HW115266   2.141   1.033   6.217  0.0870 -0.0859  1.5669
 1269SOL    HW215267   2.220   1.151   6.262 -0.2314 -1.8189  0.4369
 1270SOL     OW15268   3.623   2.930   8.480 -0.0966 -0.1288 -0.0639
 1270SOL    HW115269   3.592   2.952   8.568  0.7430 -0.3215  0.2765
 1270SOL    HW215270   3.715   2.955   8.485 -0.8338  2.2961  1.5829
 1271SOL     OW15271   0.223   0.452   5.615 -0.2305  0.0080 -0.0745
 1271SOL    HW115272   0.176   0.438   5.533  1.2304 -0.1383 -0.8903
 1271SOL    HW215273   0.156   0.436   5.681 -0.6201  0.7167 -0.3089
 1272SOL     OW15274   1.334   2.571   3.988  0.3713  0.5806 -0.2179
 1272SOL    HW115275   1.427   2.547   3.986  0.5314  0.8502  3.3540
 1272SOL    HW215276   1.296   2.484   3.978  2.1968 -0.3116  0.5782
 1273SOL     OW15277   2.946   3.387   5.361 -0.3397 -0.7289 -0.2899
 1273SOL    HW115278   3.009   3.430   5.419 -0.6586  1.0803 -1.2856
 1273SOL    HW215279   3.007   3.323   5.323  0.5503 -0.0837  0.0409
 1274SOL     OW15280   2.506   0.439   5.574  0.5679  0.3379 -0.4064
 1274SOL    HW115281   2.526   0.526   5.538  0.7418  0.6737  0.4939
 1274SOL    HW215282   2.589   0.438   5.621 -1.6386 -0.6203  3.5009
 1275SOL     OW15283   4.115   0.736   7.938 -0.3868  0.3611  0.6637
 1275SOL    HW115284   4.104   0.766   7.848 -1.0196  0.2920  0.7185
 1275SOL    HW215285   4.030   0.762   7.972 -1.4947 -2.1023 -0.1925
 1276SOL     OW15286   3.128   1.957   5.975 -0.0161  0.6968 -0.1960
 1276SOL    HW115287   3.133   2.041   5.930  1.2414  0.2828 -0.8394
 1276SOL    HW215288   3.129   1.992   6.064 -2.2401 -0.4098  0.2658
 1277SOL     OW15289   0.410   1.520   8.385  0.3603 -0.1346  0.2739
 1277SOL    HW115290   0.453   1.503   8.469 -1.7205 -0.0823  1.3708
 1277SOL    HW215291   0.380   1.611   8.393  0.5113 -0.1606  1.1585
 1278SOL     OW15292   1.282   2.831   1.264 -0.0643  0.2995  0.0025
 1278SOL    HW115293   1.271   2.922   1.236  1.0092  0.2892 -0.4420
 1278SOL    HW215294   1.220   2.819   1.336  0.8969  0.1342  0.8156
 1279SOL     OW15295   1.770   4.212  14.841 -0.7735 -0.4778  0.1812
 1279SOL    HW115296   1.732   4.264  14.770  0.0992  1.2255  0.9682
 1279SOL    HW215297   1.791   4.132  14.792  1.9243  0.6418 -0.5288
 1280SOL     OW15298   4.086   3.866   9.124  0.3552 -0.3899  0.3127
 1280SOL    HW115299   4.024   3.907   9.185  1.7977  1.0710  0.8115
 1280SOL    HW215300   4.066   3.774   9.141 -0.7100 -0.8078 -3.2886
 1281SOL     OW15301   0.326   1.897   3.818  0.5126 -0.5446 -0.2666
 1281SOL    HW115302   0.323   1.978   3.766  1.1594 -1.3057 -1.4715
 1281SOL    HW215303   0.255   1.916   3.881  0.5647  0.4703 -0.5067
 1282SOL     OW15304   0.639   3.955  15.953  0.3219 -0.1167  0.6289
 1282SOL    HW115305   0.713   3.919  16.001  0.6200  1.5238  1.4136
 1282SOL    HW215306   0.569   3.900  15.988  2.6132 -1.7307  2.6726
 1283SOL     OW15307   3.150   2.230   1.198  0.3637 -0.5081  0.4269
 1283SOL    HW115308   3.204   2.222   1.119 -0.2405 -1.1562  0.0792
 1283SOL    HW215309   3.070   2.241   1.147  0.4712 -0.5842  0.2380
 1284SOL     OW15310   0.450   4.333  13.102 -0.3868  0.1191  0.0362
 1284SOL    HW115311   0.448   4.409  13.159 -1.2557 -0.4129  0.7215
 1284SOL    HW215312   0.545   4.318  13.096 -0.4151 -0.5999  1.4328
 1285SOL     OW15313   2.323   4.145  13.495 -0.3909  0.2757  0.1239
 1285SOL    HW115314   2.386   4.091  13.448 -0.4445 -2.4652  3.1646
 1285SOL    HW215315   2.268   4.075  13.531  0.2557 -0.1568  0.2767
 1286SOL     OW15316   0.876   3.747  14.977 -0.0909  0.4904 -0.1404
 1286SOL    HW115317   0.904   3.761  14.886 -2.8940 -0.7108 -1.1831
 1286SOL    HW215318   0.805   3.686  14.959  1.0305 -0.7067 -0.5313
 1287SOL     OW15319   2.632   3.272   5.992  0.8476 -0.2313  0.0510
 1287SOL    HW115320   2.671   3.241   6.074  0.3977 -1.3453 -0.1590
 1287SOL    HW215321   2.662   3.360   5.969 -0.5432  1.0469  3.1659
 1288SOL     OW15322   1.460   1.223   8.143  0.3857 -0.3080 -0.2196
 1288SOL    HW115323   1.545   1.223   8.186  0.3229 -1.1509 -0.0874
 1288SOL    HW215324   1.392   1.205   8.208  0.4302 -0.8854 -0.3292
 1289SOL     OW15325   2.195   2.239   3.977 -0.2357  0.6581  0.2147
 1289SOL    HW115326   2.136   2.164   3.981  1.7712 -1.0305 -1.7646
 1289SOL    HW215327   2.242   2.218   3.897  3.0936  0.2649  2.2399
 1290SOL     OW15328   4.664   3.577   4.409  0.0214 -0.1402  0.2148
 1290SOL    HW115329   4.676   3.512   4.478  0.1893  1.1850  1.4366
 1290SOL    HW215330   4.709   3.642   4.463  0.5879 -0.9730  0.7357
 1291SOL     OW15331   0.589   1.534  10.110 -0.0964 -0.4948 -0.9351
 1291SOL    HW115332   0.539   1.453  10.118 -1.4408  0.3012 -1.3623
 1291SOL    HW215333   0.679   1.501  10.100 -0.1590 -1.4960  1.6998
 1292SOL     OW15334   0.599   1.668   5.186  0.7553 -0.7278  0.1436
 1292SOL    HW115335   0.520   1.640   5.138  0.2562 -0.4986  0.8369
 1292SOL    HW215336   0.570   1.663   5.277 -0.7430 -1.4785 -0.3584
 1293SOL     OW15337   2.164   2.374   9.020 -0.2605  0.2402 -0.1144
 1293SOL    HW115338   2.205   2.316   8.957 -0.4706  2.2390 -2.0841
 1293SOL    HW215339   2.241   2.404   9.069 -0.4920 -0.3295  0.5927
 1294SOL     OW15340   3.771   1.115  11.124  0.1946 -0.3050  0.7639
 1294SOL    HW115341   3.747   1.068  11.204 -0.2979  2.7063  2.3472
 1294SOL    HW215342   3.837   1.176  11.156 -1.4771  1.8946  0.0437
 1295SOL     OW15343   0.022   2.733   6.339 -0.1413 -0.3778 -0.3808
 1295SOL    HW115344   0.004   2.825   6.323  2.0103  0.3467  1.3171
 1295SOL    HW215345   0.103   2.720   6.288 -0.3718 -1.9130 -0.3582
 1296SOL     OW15346   1.922   1.298   0.907  0.5577 -0.0701  0.3493
 1296SOL    HW115347   1.964   1.321   0.824 -1.4301  0.9137 -0.3843
 1296SOL    HW215348   1.918   1.203   0.896 -0.3701  0.0392 -0.2514
 1297SOL     OW15349   4.563   2.094  10.482 -0.2789 -0.0647  0.3702
 1297SOL    HW115350   4.644   2.132  10.447 -1.4121  1.9727 -0.0193
 1297SOL    HW215351   4.597   2.028  10.542  0.2321 -0.4450 -0.3299
 1298SOL     OW15352   1.585   1.675   2.481  0.1945  0.4080 -0.5768
 1298SOL    HW115353   1.650   1.745   2.485  1.2579 -0.6072 -0.1933
 1298SOL    HW215354   1.513   1.722   2.524 -0.3935  0.9492 -2.1338
 1299SOL     OW15355   0.465   0.502   6.555  0.5842 -0.2932 -0.4522
 1299SOL    HW115356   0.391   0.441   6.555  0.5841 -0.2818  0.4324
 1299SOL    HW215357   0.521   0.463   6.488  0.2832 -0.9640 -0.3208
 1300SOL     OW15358   4.263   3.849   3.609 -0.1266  0.1510 -0.9257
 1300SOL    HW115359   4.214   3.885   3.683  1.1257  1.4044 -0.6951
 1300SOL    HW215360   4.339   3.907   3.615 -1.0818  1.2506  0.7212
 1301SOL     OW15361   1.651   2.325  14.664  0.0946  0.2605  0.3455
 1301SOL    HW115362   1.687   2.402  14.619  0.4536  0.2066  0.5381
 1301SOL    HW215363   1.701   2.255  14.621 -2.0427 -1.6010  0.8882
 1302SOL     OW15364   2.421   3.050   8.419 -0.1317 -0.7005  0.0472
 1302SOL    HW115365   2.506   3.060   8.462  0.2387  2.4072 -1.4167
 1302SOL    HW215366   2.454   3.062   8.330  0.4741 -1.9867  0.0938
 1303SOL     OW15367   0.884   1.579   1.629 -0.4444  0.2643 -0.2527
 1303SOL    HW115368   0.903   1.540   1.544 -1.1224  0.4499 -0.4983
 1303SOL    HW215369   0.835   1.514   1.679 -1.8742  2.0196  0.6461
 1304SOL     OW15370   4.713   3.393   6.812 -0.2098  0.4154  0.1115
 1304SOL    HW115371   0.008   3.303   6.783  1.5619 -0.5181  3.9424
 1304SOL    HW215372   0.063   3.451   6.784 -1.3683  2.8687  2.2074
 1305SOL     OW15373   1.355   4.609   3.081 -0.0159  0.4652 -0.3722
 1305SOL    HW115374   1.276   4.575   3.124 -0.6858  1.3413 -0.9193
 1305SOL    HW215375   1.320   4.657   3.006  0.5234  0.2731 -0.7459
 1306SOL     OW15376   3.330   2.954   2.476  0.8523 -0.0534 -0.1132
 1306SOL    HW115377   3.330   2.868   2.434 -0.2278 -0.2320  0.2288
 1306SOL    HW215378   3.315   2.999   2.394 -0.2879  0.8275  0.5776
 1307SOL     OW15379   2.030   1.189   3.613 -0.3906 -0.2709  0.5408
 1307SOL    HW115380   2.033   1.096   3.635 -3.5669 -0.8059 -1.2095
 1307SOL    HW215381   2.118   1.224   3.626  0.3022 -1.4141 -1.0172
 1308SOL     OW15382   2.359   3.934  13.719  0.2019  0.0557  0.0609
 1308SOL    HW115383   2.405   3.850  13.715 -1.5353 -0.9059  0.3606
 1308SOL    HW215384   2.291   3.937  13.652  3.1411 -3.7981 -2.9927
 1309SOL     OW15385   1.405   3.667  15.180  0.0929 -0.0103 -0.5461
 1309SOL    HW115386   1.398   3.752  15.136  0.8527  0.0637 -0.5256
 1309SOL    HW215387   1.312   3.652  15.196 -0.1368  0.0013 -1.8041
 1310SOL     OW15388   2.727   0.363  15.986  0.0719 -0.0531  0.0572
 1310SOL    HW115389   2.711   0.454  16.011  0.5870 -0.3560  1.4953
 1310SOL    HW215390   2.783   0.335  16.058  0.4646 -2.6892 -1.2665
 1311SOL     OW15391   3.776   1.393   3.144 -0.5670 -0.3076  0.1342
 1311SOL    HW115392   3.752   1.325   3.207  0.1100 -1.8956 -1.3506
 1311SOL    HW215393   3.743   1.470   3.191 -3.6509 -0.4442 -1.7790
 1312SOL     OW15394   1.171   1.833   8.484  0.1067 -0.1573  0.2346
 1312SOL    HW115395   1.128   1.867   8.562  0.6848 -0.5550  0.7257
 1312SOL    HW215396   1.258   1.813   8.520  0.8895 -1.4436 -2.3827
 1313SOL     OW15397   0.237   4.586  12.733  0.7828  0.0328 -0.0420
 1313SOL    HW115398   0.315   4.552  12.777  0.4502 -0.2210  0.3417
 1313SOL    HW215399   0.188   4.644  12.790  1.4767  0.6502 -0.0682
 1314SOL     OW15400   0.738   3.689   9.317  0.5159 -0.3590  0.2339
 1314SOL    HW115401   0.649   3.653   9.321 -0.1596  1.2910 -0.1164
 1314SOL    HW215402   0.755   3.666   9.226  0.8302  0.7186  0.0229
 1315SOL     OW15403   2.286   1.212   1.311  0.3094  0.2952  0.2245
 1315SOL    HW115404   2.380   1.225   1.305  0.0922  1.3579 -0.8329
 1315SOL    HW215405   2.262   1.280   1.248 -0.8874 -0.0361  0.3142
 1316SOL     OW15406   1.313   3.506   7.047 -0.2693 -0.6206 -0.2392
 1316SOL    HW115407   1.320   3.416   7.078  1.2624  0.1949  1.7621
 1316SOL    HW215408   1.256   3.536   7.118 -0.3984 -0.8505 -0.2469
 1317SOL     OW15409   3.541   0.509  16.632 -0.0729  0.2315  0.0178
 1317SOL    HW115410   3.599   0.526  16.558 -1.3771  0.5153 -0.9409
 1317SOL    HW215411   3.526   0.588  16.683  0.6295  1.4762 -1.7098
 1318SOL     OW15412   4.415   0.643   4.770 -0.0658  0.3203 -0.3695
 1318SOL    HW115413   4.341   0.628   4.829 -0.7662  0.4052 -1.2132
 1318SOL    HW215414   4.380   0.711   4.713  0.5665  0.5751 -0.4422
 1319SOL     OW15415   1.502   1.411   6.020  0.6879 -1.0641 -0.5319
 1319SOL    HW115416   1.450   1.489   6.040 -0.0851 -1.6498 -0.2536
 1319SOL    HW215417   1.520   1.374   6.106 -0.1679 -0.7027 -0.2015
 1320SOL     OW15418   3.571   4.523   3.070 -0.3327  0.7409 -0.0714
 1320SOL    HW115419   3.546   4.431   3.062  2.4215 -0.1349  1.5653
 1320SOL    HW215420   3.659   4.509   3.102  0.5762  0.8300 -2.5077
 1321SOL     OW15421   3.788   1.465   6.003 -0.0677 -0.1693  0.3543
 1321SOL    HW115422   3.805   1.386   6.054  1.1131 -1.4731 -2.0283
 1321SOL    HW215423   3.878   1.484   5.974 -0.1950  2.1223  1.5018
 1322SOL     OW15424   4.697   0.219  10.283 -0.5837  0.1166  0.4783
 1322SOL    HW115425   4.611   0.205  10.244  1.0614 -0.3135 -3.0126
 1322SOL    HW215426   4.673   0.191  10.371  2.0277  1.0083  1.4596
 1323SOL     OW15427   4.456   4.028   7.746  0.2455 -0.2932  0.1655
 1323SOL    HW115428   4.446   4.036   7.651 -0.4357  0.1842  0.2829
 1323SOL    HW215429   4.390   4.093   7.771  0.3778 -0.4165  0.8453
 1324SOL     OW15430   3.996   4.716   8.701 -0.3827  0.4935  0.2232
 1324SOL    HW115431   3.924   0.050   8.671 -0.8905  0.4217  1.3072
 1324SOL    HW215432   3.954   4.635   8.733  0.6425  0.0601  0.4695
 1325SOL     OW15433   2.016   0.785   3.607 -0.4270 -0.0538 -0.2842
 1325SOL    HW115434   1.967   0.716   3.563 -1.3380  1.7090 -2.0347
 1325SOL    HW215435   2.081   0.817   3.544 -0.2221  0.8877  0.4038
 1326SOL     OW15436   4.219   2.399  12.892 -0.2890 -0.0820 -0.0334
 1326SOL    HW115437   4.128   2.382  12.917 -0.4761  2.5066  1.0231
 1326SOL    HW215438   4.218   2.390  12.797 -2.2659  3.3486 -0.3195
 1327SOL     OW15439   0.369   3.433   6.956  0.2489 -0.6362  0.0938
 1327SOL    HW115440   0.352   3.526   6.939 -0.5345 -1.2581 -2.4117
 1327SOL    HW215441   0.460   3.439   6.985  0.4516 -2.1146 -0.2385
 1328SOL     OW15442   4.034   0.595   1.131  0.3092  0.1784  0.3335
 1328SOL    HW115443   3.981   0.562   1.203 -2.1962 -2.1247 -2.5957
 1328SOL    HW215444   4.018   0.528   1.064 -1.4007  0.2817  0.6522
 1329SOL     OW15445   4.615   2.094  12.982 -0.0244  0.3437  0.3653
 1329SOL    HW115446   4.694   2.049  12.951  0.1027 -0.7158  2.2567
 1329SOL    HW215447   4.559   2.016  12.991  1.7637 -1.0225 -0.3701
 1330SOL     OW15448   0.376   1.394   9.844 -0.2023 -0.7574 -0.1730
 1330SOL    HW115449   0.406   1.345   9.920 -0.3440 -2.0328 -0.9291
 1330SOL    HW215450   0.288   1.360   9.831  0.7760 -2.5360 -2.3032
 1331SOL     OW15451   3.279   2.174   2.635 -0.3234  0.1989 -0.6192
 1331SOL    HW115452   3.291   2.112   2.707  2.2445  1.3743 -0.0286
 1331SOL    HW215453   3.316   2.253   2.674  0.1270  0.4844 -1.6103
 1332SOL     OW15454   3.416   2.178  14.274 -0.4217 -0.9923 -0.2020
 1332SOL    HW115455   3.337   2.229  14.254  0.0657  0.1454  0.8040
 1332SOL    HW215456   3.468   2.243  14.321 -1.3259  0.4250 -1.1375
 1333SOL     OW15457   2.389   0.590   4.683  0.1080 -0.5273 -0.2224
 1333SOL    HW115458   2.332   0.515   4.662  0.4860 -1.6576  2.8361
 1333SOL    HW215459   2.350   0.619   4.765 -0.0891  1.0641 -0.8787
 1334SOL     OW15460   1.155   2.821   5.977  0.4018  0.2702 -0.1550
 1334SOL    HW115461   1.196   2.737   5.955  0.2718  0.2533 -0.3353
 1334SOL    HW215462   1.175   2.881   5.905  0.9516 -1.8002 -1.7237
 1335SOL     OW15463   1.837   1.759   9.023 -0.1581  0.2313 -0.4342
 1335SOL    HW115464   1.846   1.684   8.965  1.5447 -1.5063  2.1027
 1335SOL    HW215465   1.898   1.731   9.091 -0.6836 -0.4750 -0.2547
 1336SOL     OW15466   1.058   3.387   7.540  0.0460  0.0147  0.3798
 1336SOL    HW115467   1.109   3.338   7.606 -0.3748  0.2609  0.8861
 1336SOL    HW215468   0.980   3.402   7.593 -0.0923  0.0839  0.1507
 1337SOL     OW15469   2.588   3.360  16.251 -0.5841 -0.3345  0.3628
 1337SOL    HW115470   2.680   3.387  16.255 -1.3966  2.2038  1.6430
 1337SOL    HW215471   2.595   3.266  16.268 -3.1649 -0.9181 -1.8195
 1338SOL     OW15472   1.936   4.295   7.254  0.0174  0.4056  0.3548
 1338SOL    HW115473   1.928   4.391   7.251 -2.3440  0.1678 -0.4697
 1338SOL    HW215474   1.906   4.273   7.343 -0.4843  0.1873  0.1268
 1339SOL     OW15475   1.228   1.743   2.895 -0.9574  0.4851  0.0776
 1339SOL    HW115476   1.198   1.810   2.834 -0.8518 -0.2263 -0.7587
 1339SOL    HW215477   1.271   1.784   2.970  1.2317 -0.0603 -0.8555
 1340SOL     OW15478   1.228   2.794  15.296  0.4992 -0.3873 -0.1198
 1340SOL    HW115479   1.187   2.722  15.247  1.9633 -1.2352 -0.1260
 1340SOL    HW215480   1.201   2.770  15.384  1.5300  2.5397  0.9941
 1341SOL     OW15481   0.497   1.791   3.608 -0.0812  0.3491  0.1167
 1341SOL    HW115482   0.553   1.715   3.627 -0.4489  0.5258  1.8512
 1341SOL    HW215483   0.478   1.823   3.696  0.2279 -0.2130  0.3848
 1342SOL     OW15484   2.870   1.034  13.241  0.1215 -0.3046 -0.3620
 1342SOL    HW115485   2.847   1.127  13.244 -1.1829 -0.6753  1.0618
 1342SOL    HW215486   2.962   1.026  13.265  0.2371 -0.5611 -0.8866
 1343SOL     OW15487   4.651   1.639   8.408 -0.3124  0.6312  0.1805
 1343SOL    HW115488   4.684   1.729   8.403 -0.2576  0.6565  1.0963
 1343SOL    HW215489   0.004   1.594   8.369 -1.2630 -0.0938 -0.7937
 1344SOL     OW15490   0.156   4.688   2.286 -0.1681 -0.4086  0.1895
 1344SOL    HW115491   0.091   4.656   2.223 -0.9924  0.5426  0.5574
 1344SOL    HW215492   0.102   0.009   2.352  1.3899 -0.6499  1.6101
 1345SOL     OW15493   2.853   0.137  15.522 -0.4370 -0.0415 -0.1416
 1345SOL    HW115494   2.851   0.041  15.530 -4.3111  0.1181  1.0308
 1345SOL    HW215495   2.807   0.155  15.604 -1.6219  3.9294 -1.7105
 1346SOL     OW15496   4.307   1.199   7.199  0.0868  0.4732  0.1454
 1346SOL    HW115497   4.229   1.166   7.155 -1.5716  2.6110  1.4984
 1346SOL    HW215498   4.286   1.218   7.290 -0.8254 -0.6592  0.1783
 1347SOL     OW15499   2.568   1.847   5.149 -0.0745 -0.0918  0.2397
 1347SOL    HW115500   2.524   1.771   5.111  2.5448 -1.4104 -0.1722
 1347SOL    HW215501   2.580   1.825   5.241 -1.5072 -0.9803  0.2085
 1348SOL     OW15502   1.649   0.990   7.180 -0.3003  0.1870 -0.5870
 1348SOL    HW115503   1.648   1.037   7.096  0.4977 -1.1382 -1.3465
 1348SOL    HW215504   1.565   1.015   7.217 -0.8888 -4.1974  1.0603
 1349SOL     OW15505   2.048   0.092  13.404 -0.3699  0.0659 -0.4695
 1349SOL    HW115506   1.954   0.091  13.385 -0.5316  0.0591  0.3216
 1349SOL    HW215507   2.062   0.186  13.410 -1.6841  0.3660 -1.9255
 1350SOL     OW15508   0.953   4.627   9.058 -0.0181 -0.4161 -0.1490
 1350SOL    HW115509   0.929   4.600   9.146 -0.5218 -2.2432 -0.8279
 1350SOL    HW215510   0.992   4.713   9.069  0.3276 -0.5935 -0.0083
 1351SOL     OW15511   1.384   2.864   1.721  0.4975  0.1175 -0.0592
 1351SOL    HW115512   1.470   2.823   1.726 -0.1438 -1.2290 -0.3156
 1351SOL    HW215513   1.389   2.918   1.641  4.1964  0.0602  0.1255
 1352SOL     OW15514   3.677   2.912   3.784  0.4683  0.5136 -0.2597
 1352SOL    HW115515   3.625   2.984   3.749 -0.3506 -0.3629 -0.8195
 1352SOL    HW215516   3.761   2.955   3.800 -0.9567  2.4816  1.9145
 1353SOL     OW15517   3.713   2.546  16.401  0.1729 -0.6545 -0.0206
 1353SOL    HW115518   3.642   2.538  16.338 -0.6753  0.7736  0.7732
 1353SOL    HW215519   3.760   2.623  16.368  2.4927 -2.3452 -0.6727
 1354SOL     OW15520   3.043   4.644   4.219  0.0684 -0.0640  0.3773
 1354SOL    HW115521   3.021   4.720   4.164  1.3126 -0.9598 -1.3575
 1354SOL    HW215522   3.023   4.567   4.165  0.0295  0.3040 -0.1376
 1355SOL     OW15523   1.516   0.161   5.332  0.3729  0.1145 -0.3548
 1355SOL    HW115524   1.605   0.156   5.366  0.8625  1.9542 -1.4053
 1355SOL    HW215525   1.499   0.067   5.345  0.4526  0.0901 -0.4302
 1356SOL     OW15526   1.711   0.168  14.682  0.2040  0.0493  0.1099
 1356SOL    HW115527   1.671   0.094  14.637 -1.0064  1.2136 -0.7007
 1356SOL    HW215528   1.659   0.237  14.641  1.4655  0.6317 -0.5114
 1357SOL     OW15529   2.695   3.665  10.991  0.2905 -0.1018  0.6789
 1357SOL    HW115530   2.626   3.646  11.053  0.2101 -1.5486  0.1546
 1357SOL    HW215531   2.760   3.602  11.022  0.0238 -0.6874  0.0539
 1358SOL     OW15532   2.120   3.577   5.842  0.3238 -0.3387 -0.7459
 1358SOL    HW115533   2.181   3.588   5.769  1.0947 -1.4635 -0.2786
 1358SOL    HW215534   2.032   3.588   5.806  0.1585  3.7376  0.9594
 1359SOL     OW15535   0.262   4.294   4.126  0.2817 -0.3715 -0.0587
 1359SOL    HW115536   0.240   4.220   4.069  0.6516  0.9559 -1.9247
 1359SOL    HW215537   0.221   4.362   4.072 -0.0434 -0.5212  0.0020
 1360SOL     OW15538   2.706   2.486  12.942 -0.4419 -0.6157  0.0830
 1360SOL    HW115539   2.783   2.526  12.901 -0.6425 -0.3794 -0.0648
 1360SOL    HW215540   2.695   2.407  12.889 -0.8411  0.1314 -0.9597
 1361SOL     OW15541   2.556   4.060   4.254  0.0131 -0.0122 -0.3529
 1361SOL    HW115542   2.471   4.095   4.227 -0.0778  1.9800  2.5830
 1361SOL    HW215543   2.575   4.114   4.330  0.2720  2.4537 -2.1332
 1362SOL     OW15544   1.853   4.013   7.166 -0.6153 -0.2180  0.3126
 1362SOL    HW115545   1.763   3.989   7.144 -0.2644  0.2043 -1.6381
 1362SOL    HW215546   1.858   4.109   7.161 -1.2183 -0.1065  2.0544
 1363SOL     OW15547   2.617   3.778   4.898 -0.2712 -0.6842 -0.3394
 1363SOL    HW115548   2.658   3.726   4.828  1.8035 -1.5796  1.5447
 1363SOL    HW215549   2.626   3.872   4.883  1.9254 -0.7971  0.2815
 1364SOL     OW15550   2.597   2.467   5.715  0.6690  0.2394  0.3285
 1364SOL    HW115551   2.597   2.525   5.639 -0.1105  1.0046  0.9156
 1364SOL    HW215552   2.508   2.489   5.743  0.9402  0.8955  0.6830
 1365SOL     OW15553   2.545   4.171  11.420  0.4604 -0.2375 -0.4573
 1365SOL    HW115554   2.561   4.153  11.328  0.4658 -1.6428 -0.1710
 1365SOL    HW215555   2.508   4.086  11.441 -0.6318  1.1250  3.2546
 1366SOL     OW15556   4.186   3.153   4.208  0.8039 -0.3030 -0.3054
 1366SOL    HW115557   4.152   3.128   4.122  2.1355 -2.3573 -0.2459
 1366SOL    HW215558   4.281   3.153   4.192  0.4158  0.9700 -2.6147
 1367SOL     OW15559   2.971   0.344   9.039  0.0617 -0.3915 -0.5362
 1367SOL    HW115560   2.951   0.281   9.108 -0.0140  0.8065  0.5133
 1367SOL    HW215561   2.900   0.311   8.983 -0.5735  2.9352 -1.6720
 1368SOL     OW15562   3.720   3.642   4.524  0.1562  0.9067 -0.4435
 1368SOL    HW115563   3.717   3.582   4.598 -2.4014  0.7357 -0.6824
 1368SOL    HW215564   3.678   3.594   4.453  0.5624 -0.2879  0.1286
 1369SOL     OW15565   1.480   4.108   4.414 -0.0502 -0.1164  0.0888
 1369SOL    HW115566   1.491   4.159   4.334  0.1299 -1.2425 -0.6045
 1369SOL    HW215567   1.389   4.080   4.401  0.5390 -1.2213 -1.6310
 1370SOL     OW15568   2.197   1.261   4.267 -0.1653 -0.5459 -0.1096
 1370SOL    HW115569   2.245   1.188   4.305 -0.7040 -1.0810 -0.4398
 1370SOL    HW215570   2.260   1.332   4.283 -0.8976 -0.5813  2.8898
 1371SOL     OW15571   1.212   0.991   1.292  0.1779 -0.1529  0.0595
 1371SOL    HW115572   1.238   1.080   1.267 -1.6520  1.1707  2.8223
 1371SOL    HW215573   1.234   0.986   1.386 -0.9714 -1.2677  0.2691
 1372SOL     OW15574   1.598   0.632   9.327 -0.6462 -0.1271  0.3801
 1372SOL    HW115575   1.593   0.626   9.422 -0.4650 -0.2154  0.3829
 1372SOL    HW215576   1.553   0.717   9.319  2.1783  1.3006 -0.4377
 1373SOL     OW15577   4.142   0.858   5.807  0.0496  0.0154  0.7317
 1373SOL    HW115578   4.049   0.847   5.783  0.3722  0.9052 -0.9068
 1373SOL    HW215579   4.145   0.927   5.872  1.6988 -0.0026  0.6589
 1374SOL     OW15580   2.449   2.757   6.669 -0.0614 -0.0016 -0.3487
 1374SOL    HW115581   2.406   2.760   6.583 -1.4638 -0.6253  0.3188
 1374SOL    HW215582   2.532   2.721   6.640  0.9282  0.5686  1.8110
 1375SOL     OW15583   0.719   1.435   3.867 -0.0571 -0.7151 -0.0164
 1375SOL    HW115584   0.750   1.522   3.841 -0.6864 -0.9468 -1.5031
 1375SOL    HW215585   0.699   1.391   3.785  2.2446 -0.7614 -0.5365
 1376SOL     OW15586   1.227   1.576   4.563  0.5921 -0.4220 -0.0380
 1376SOL    HW115587   1.283   1.527   4.623 -0.1235 -2.2402 -0.8580
 1376SOL    HW215588   1.286   1.596   4.491  1.0761 -0.2981  0.3877
 1377SOL     OW15589   3.892   0.899   0.066 -0.4276  0.1296  0.1716
 1377SOL    HW115590   3.932   0.957   0.131 -2.2403 -0.1212  1.5302
 1377SOL    HW215591   3.838   0.851   0.129 -0.9880  3.3208  2.1115
 1378SOL     OW15592   3.441   0.342   3.568 -0.6623 -0.1438  0.1124
 1378SOL    HW115593   3.409   0.401   3.500  2.7763  1.5865 -0.0183
 1378SOL    HW215594   3.505   0.406   3.597 -1.2954  0.4772  0.1421
 1379SOL     OW15595   1.057   1.991   5.816 -0.0028  0.3049 -0.1422
 1379SOL    HW115596   1.075   2.045   5.893  0.4615  1.2743 -0.9315
 1379SOL    HW215597   0.962   1.998   5.816 -0.0382 -0.2961 -2.6793
 1380SOL     OW15598   0.248   0.388   7.326 -0.1231  0.2862 -0.0786
 1380SOL    HW115599   0.226   0.371   7.234  1.0596 -0.4435 -0.2306
 1380SOL    HW215600   0.330   0.339   7.338 -1.6567 -2.1881  0.2626
 1381SOL     OW15601   3.695   1.846   8.586  0.4265  0.5475  0.1695
 1381SOL    HW115602   3.652   1.812   8.508 -0.3465  0.7215  0.5243
 1381SOL    HW215603   3.756   1.910   8.547  0.1227 -0.0487 -1.2765
 1382SOL     OW15604   1.577   1.387   8.570 -0.0963  0.7880  0.0276
 1382SOL    HW115605   1.614   1.329   8.636 -3.9096  1.2286  2.5415
 1382SOL    HW215606   1.486   1.357   8.572  0.5926 -1.1898  0.6355
 1383SOL     OW15607   2.103   2.833   4.501  0.0322 -0.7644 -0.1924
 1383SOL    HW115608   2.184   2.885   4.502  0.4064 -1.3828  1.3895
 1383SOL    HW215609   2.091   2.843   4.407  1.7285 -1.9635 -0.5435
 1384SOL     OW15610   1.193   3.409   1.281 -0.0585 -0.3072 -0.1327
 1384SOL    HW115611   1.113   3.449   1.249  1.2209  0.4930 -2.3324
 1384SOL    HW215612   1.259   3.466   1.241 -0.1776  0.2824  0.5130
 1385SOL     OW15613   3.416   1.163   9.473  0.2270 -0.3570 -0.2999
 1385SOL    HW115614   3.423   1.072   9.501 -0.8583  0.9795  4.2229
 1385SOL    HW215615   3.509   1.182   9.488 -0.2222  1.7268 -0.1775
 1386SOL     OW15616   3.389   1.995   2.126 -0.1632 -0.3671  0.1079
 1386SOL    HW115617   3.445   2.071   2.111 -1.0758  0.3444  0.3018
 1386SOL    HW215618   3.412   1.940   2.052  1.0657  1.4013 -0.8393
 1387SOL     OW15619   0.185   4.197   5.963  0.2881  0.4894 -0.2474
 1387SOL    HW115620   0.100   4.171   5.927  0.5660 -1.4052  0.4633
 1387SOL    HW215621   0.166   4.272   6.020 -1.2761  0.1581 -0.3226
 1388SOL     OW15622   2.544   2.002   3.983 -0.4661  0.0442 -0.2675
 1388SOL    HW115623   2.509   1.938   4.045 -1.2063 -0.6663 -1.4068
 1388SOL    HW215624   2.541   1.964   3.895 -0.4123 -1.0387  0.1985
 1389SOL     OW15625   3.991   3.121   6.644  0.0802 -0.0319  0.8847
 1389SOL    HW115626   4.031   3.207   6.659 -2.5603  1.6522 -1.8081
 1389SOL    HW215627   3.901   3.145   6.667 -0.3065 -0.8043  0.1941
 1390SOL     OW15628   2.738   3.565   9.984 -0.1258 -0.2512  0.0111
 1390SOL    HW115629   2.776   3.564   9.896  0.0226 -1.9961  0.0891
 1390SOL    HW215630   2.669   3.631   9.975 -0.3371 -0.6442 -1.3076
 1391SOL     OW15631   3.580   4.110   5.588  0.2177  0.1962  0.2484
 1391SOL    HW115632   3.599   4.016   5.591  2.0539  0.5188 -1.2553
 1391SOL    HW215633   3.501   4.098   5.639  1.6617  1.6150  2.8227
 1392SOL     OW15634   3.986   3.694   4.431 -0.0675 -0.3085  0.3902
 1392SOL    HW115635   4.007   3.680   4.339  1.1486  2.6249  0.2255
 1392SOL    HW215636   3.893   3.671   4.434 -0.3088  0.8006  1.3262
 1393SOL     OW15637   1.219   0.108   4.584 -0.1455 -0.2499  0.3304
 1393SOL    HW115638   1.138   0.058   4.593  1.2655 -2.3153  1.7605
 1393SOL    HW215639   1.252   0.101   4.674 -0.5718 -0.6611  0.4561
 1394SOL     OW15640   3.668   2.972  16.355  0.3136 -0.0081 -0.3885
 1394SOL    HW115641   3.635   3.050  16.310 -0.6122 -0.7374 -0.9823
 1394SOL    HW215642   3.595   2.912  16.341  0.3956  0.1803 -1.6861
 1395SOL     OW15643   1.139   3.183   4.824  0.4203 -0.3037  0.5545
 1395SOL    HW115644   1.106   3.230   4.900  0.1305  0.2700  0.0718
 1395SOL    HW215645   1.067   3.121   4.815  1.1578 -1.1740  0.5559
 1396SOL     OW15646   3.978   0.470   5.219 -0.3296 -0.4744  0.1096
 1396SOL    HW115647   3.910   0.459   5.286  0.5249  0.4468  1.1378
 1396SOL    HW215648   4.040   0.518   5.273  0.8674 -0.5065 -1.2575
 1397SOL     OW15649   3.785   1.071  13.450 -0.3472 -0.2557 -0.4721
 1397SOL    HW115650   3.880   1.088  13.453 -0.6629  1.5507 -0.3698
 1397SOL    HW215651   3.777   1.008  13.521  1.0998 -1.4465 -1.3488
 1398SOL     OW15652   1.457   2.858  12.328 -0.1885 -0.1499 -0.3143
 1398SOL    HW115653   1.502   2.852  12.244  0.9718  1.5331  0.1838
 1398SOL    HW215654   1.367   2.870  12.300  0.1724 -0.0801 -1.4365
 1399SOL     OW15655   3.613   4.244  15.831 -0.4269 -0.2418 -0.3756
 1399SOL    HW115656   3.703   4.243  15.866 -0.5339  1.0275 -0.0530
 1399SOL    HW215657   3.624   4.182  15.759  0.9498 -0.0420 -0.3480
 1400SOL     OW15658   2.297   1.586   6.288 -0.2304 -0.1976  0.2365
 1400SOL    HW115659   2.374   1.640   6.305  1.0863 -2.3060  1.0907
 1400SOL    HW215660   2.297   1.592   6.192 -1.1706 -1.5229  0.1496
 1401SOL     OW15661   2.280   0.643   5.739  0.0053 -0.4653  0.0513
 1401SOL    HW115662   2.278   0.688   5.823  0.3046 -1.9060  0.8250
 1401SOL    HW215663   2.337   0.568   5.756 -1.3005 -1.9253 -1.9893
 1402SOL     OW15664   1.904   1.400   2.845 -0.4661 -0.0656  0.0790
 1402SOL    HW115665   1.886   1.374   2.936  1.2576 -1.5597  0.0015
 1402SOL    HW215666   1.817   1.429   2.818 -0.8149 -1.4115 -0.2510
 1403SOL     OW15667   2.873   2.806   0.598 -0.2160  0.1624  0.2022
 1403SOL    HW115668   2.842   2.728   0.552 -0.5808 -0.1496  0.9841
 1403SOL    HW215669   2.853   2.790   0.690  0.9684  1.8187  0.7341
 1404SOL     OW15670   0.957   0.345   0.706 -0.0264  0.2941  0.6187
 1404SOL    HW115671   1.015   0.385   0.642  2.3505  0.1090  2.6300
 1404SOL    HW215672   0.954   0.256   0.674  0.0846  0.8706 -0.9722
 1405SOL     OW15673   3.012   3.045  12.832  0.1134 -0.2225 -0.6587
 1405SOL    HW115674   2.989   2.952  12.841  0.4371 -0.1792  0.6977
 1405SOL    HW215675   3.107   3.052  12.838  0.3028 -1.8617 -1.8143
 1406SOL     OW15676   1.955   4.570  17.309 -0.1657 -0.5372 -0.3310
 1406SOL    HW115677   1.942   4.631  17.381  0.4742 -0.9157  0.1069
 1406SOL    HW215678   2.051   4.571  17.299  0.0378  0.2659  1.7772
 1407SOL     OW15679   2.884   0.300  16.623  0.5744  0.4552 -0.5898
 1407SOL    HW115680   2.805   0.342  16.590  1.4982  1.5248 -1.4347
 1407SOL    HW215681   2.940   0.377  16.616 -1.2572  1.8494  0.2894
 1408SOL     OW15682   3.541   3.037   6.151  0.0479  0.2059  0.2955
 1408SOL    HW115683   3.611   2.971   6.144  1.4609  1.8703 -1.0926
 1408SOL    HW215684   3.479   2.989   6.096  0.5753 -3.4166  2.8629
 1409SOL     OW15685   3.887   1.489  16.462  0.3650 -0.0868  0.2788
 1409SOL    HW115686   3.983   1.495  16.458  0.3882 -1.1647 -1.1191
 1409SOL    HW215687   3.859   1.569  16.418  0.5944  0.2148  0.6871
 1410SOL     OW15688   2.545   1.273   1.329  0.1710 -0.5396 -0.0865
 1410SOL    HW115689   2.610   1.246   1.394 -0.2711  0.1367  0.6314
 1410SOL    HW215690   2.567   1.366   1.321  0.6851 -0.8193 -2.0194
 1411SOL     OW15691   1.368   1.804   7.806 -0.1459 -0.0376  0.1546
 1411SOL    HW115692   1.304   1.734   7.817 -2.3816  1.9041 -0.6390
 1411SOL    HW215693   1.448   1.767   7.844 -0.2863 -0.3442  0.1502
 1412SOL     OW15694   3.230   4.228   9.989 -0.3980 -0.3453 -0.9685
 1412SOL    HW115695   3.143   4.219  10.029 -0.8444  3.0542 -1.1711
 1412SOL    HW215696   3.253   4.138   9.966 -1.0516 -0.8049  0.1920
 1413SOL     OW15697   2.282   0.587   5.257  0.3132 -0.1352  0.9616
 1413SOL    HW115698   2.197   0.546   5.240  0.9764 -0.9680 -0.3927
 1413SOL    HW215699   2.345   0.541   5.201 -1.6365 -0.1683 -1.2160
 1414SOL     OW15700   2.027   2.662   8.628  0.1241 -0.3821  0.4197
 1414SOL    HW115701   2.086   2.603   8.582  0.6783  1.8276 -1.7031
 1414SOL    HW215702   2.035   2.640   8.721  1.5820 -1.5094  0.0221
 1415SOL     OW15703   3.138   4.501   3.885 -0.2323  0.1547 -0.7554
 1415SOL    HW115704   3.119   4.501   3.979  1.6541  1.5026 -0.3939
 1415SOL    HW215705   3.048   4.524   3.861 -0.5070 -0.9029 -0.7649
 1416SOL     OW15706   1.002   3.759   1.336  0.0344  0.1661  0.3260
 1416SOL    HW115707   1.033   3.814   1.264  0.4680  1.0837  1.2231
 1416SOL    HW215708   0.994   3.671   1.298  1.4350  0.7908 -1.3879
 1417SOL     OW15709   2.902   0.140   3.685 -0.0776 -0.4691  0.3492
 1417SOL    HW115710   2.920   0.071   3.621 -1.1809  0.8316 -1.3425
 1417SOL    HW215711   2.935   0.214   3.635  0.9158 -0.9830  0.2338
 1418SOL     OW15712   1.867   3.625   2.196 -0.0417 -0.0766 -0.2561
 1418SOL    HW115713   1.776   3.634   2.222  0.2140  0.5122  0.4365
 1418SOL    HW215714   1.912   3.668   2.269  1.6211 -2.2006 -0.0384
 1419SOL     OW15715   1.409   1.321   9.527  0.3315  0.4664 -0.7394
 1419SOL    HW115716   1.333   1.376   9.549  0.7258  0.9390 -0.5715
 1419SOL    HW215717   1.470   1.345   9.596 -0.2635 -0.1571  0.0126
 1420SOL     OW15718   2.614   3.069   8.636 -0.0315  0.7788  1.0261
 1420SOL    HW115719   2.709   3.071   8.649 -0.0534 -0.1432  1.3541
 1420SOL    HW215720   2.607   3.160   8.666 -2.8889  0.9258 -0.1216
 1421SOL     OW15721   0.502   2.768   8.314 -0.5951  0.5531  0.2697
 1421SOL    HW115722   0.486   2.682   8.353 -0.4565  0.3651 -0.0843
 1421SOL    HW215723   0.470   2.824   8.385 -1.9720  0.4560 -0.2742
 1422SOL     OW15724   0.880   1.602   4.805 -0.1199  0.0983 -0.2461
 1422SOL    HW115725   0.946   1.535   4.823  1.3050  1.3052 -0.9931
 1422SOL    HW215726   0.906   1.633   4.719 -0.6781  0.4390 -0.2924
 1423SOL     OW15727   4.310   1.042   1.718 -0.6151 -0.3775  0.0197
 1423SOL    HW115728   4.259   1.104   1.771 -0.3568 -0.9255  0.8939
 1423SOL    HW215729   4.300   1.093   1.637  1.1232 -0.3388 -0.1703
 1424SOL     OW15730   0.541   3.062  17.366  0.1504 -0.7689  0.2549
 1424SOL    HW115731   0.608   3.100  17.424  1.3970 -1.9142 -0.4215
 1424SOL    HW215732   0.459   3.100  17.396  0.0870  0.4300 -1.4655
 1425SOL     OW15733   4.345   4.185   4.548  1.2350  0.1800  1.1052
 1425SOL    HW115734   4.431   4.204   4.586  1.5402 -0.0779  0.5436
 1425SOL    HW215735   4.324   4.103   4.592  1.2875 -1.6125 -2.2145
 1426SOL     OW15736   2.580   2.739   3.310 -0.2996  0.1981 -0.7512
 1426SOL    HW115737   2.530   2.671   3.354  0.0540  1.2165  1.2391
 1426SOL    HW215738   2.663   2.735   3.357 -0.1398  2.6031 -0.8356
 1427SOL     OW15739   0.175   2.640   2.707  0.3063  0.2199 -0.6544
 1427SOL    HW115740   0.093   2.591   2.707 -0.1554  1.0086  1.7795
 1427SOL    HW215741   0.224   2.593   2.776  2.2427  1.5100 -1.1499
 1428SOL     OW15742   1.454   0.130   9.473  0.4405  0.4053 -0.1467
 1428SOL    HW115743   1.531   0.077   9.450  1.6239  1.6234  1.0044
 1428SOL    HW215744   1.384   0.076   9.437  1.0452  1.0767 -2.3248
 1429SOL     OW15745   2.812   4.327   6.840  0.2736 -0.1839 -0.1662
 1429SOL    HW115746   2.898   4.304   6.876  0.8196 -1.2811 -2.2163
 1429SOL    HW215747   2.795   4.399   6.901  2.0046 -0.9626  1.2275
 1430SOL     OW15748   0.262   1.743   0.766 -0.0006 -0.0462 -0.1071
 1430SOL    HW115749   0.181   1.740   0.818  0.6979  2.8627  1.1404
 1430SOL    HW215750   0.231   1.754   0.676  0.5686  0.4395 -0.2393
 1431SOL     OW15751   2.095   3.911  16.932 -0.4843  0.9165  0.3779
 1431SOL    HW115752   2.048   3.982  16.887 -1.5556 -0.9806 -1.4647
 1431SOL    HW215753   2.050   3.912  17.017 -0.2503  1.9091  0.4905
 1432SOL     OW15754   2.240   4.439  13.539  0.2278 -0.2255 -0.3574
 1432SOL    HW115755   2.249   4.350  13.571  1.5288  0.7610  2.0539
 1432SOL    HW215756   2.153   4.443  13.498  1.4171  0.8995 -2.7106
 1433SOL     OW15757   0.254   3.563   5.767  0.5776  0.3900  0.3413
 1433SOL    HW115758   0.206   3.567   5.850  1.0780  0.1643  0.6412
 1433SOL    HW215759   0.285   3.472   5.772  2.0823  0.9047  0.2310
 1434SOL     OW15760   1.699   2.253   3.434  0.1849  0.8534 -0.0914
 1434SOL    HW115761   1.744   2.232   3.516 -0.9648 -2.2939 -0.2550
 1434SOL    HW215762   1.621   2.200   3.450 -0.6541  1.4943 -2.0572
 1435SOL     OW15763   2.391   2.661   2.248 -0.3233 -0.1853  0.1642
 1435SOL    HW115764   2.387   2.652   2.153 -2.5953  3.6038 -0.1426
 1435SOL    HW215765   2.484   2.673   2.265 -0.0422  0.1761 -1.5998
 1436SOL     OW15766   3.211   0.773   7.294 -0.3769 -0.0527 -0.3450
 1436SOL    HW115767   3.241   0.855   7.254 -0.0078  0.7998  1.6466
 1436SOL    HW215768   3.178   0.725   7.218 -2.3848  0.6711  0.0569
 1437SOL     OW15769   2.414   0.463  16.893 -0.0712 -0.1011 -0.0734
 1437SOL    HW115770   2.441   0.539  16.843  1.5090 -0.1424  0.7179
 1437SOL    HW215771   2.406   0.521  16.969 -0.3107 -0.6545  0.3347
 1438SOL     OW15772   1.213   1.270   5.039 -0.2004  0.6421 -0.5881
 1438SOL    HW115773   1.233   1.229   4.955  1.1166 -0.4946  0.2918
 1438SOL    HW215774   1.119   1.251   5.044  0.1023 -1.3636 -2.3081
 1439SOL     OW15775   0.969   1.370   4.012  0.1334  0.1733 -0.0318
 1439SOL    HW115776   1.005   1.452   4.046 -0.6992  0.4389  0.2175
 1439SOL    HW215777   0.886   1.399   3.974  1.0683  1.4171 -1.1067
 1440SOL     OW15778   0.379   1.552   3.054  0.2079  0.0149  0.4331
 1440SOL    HW115779   0.324   1.629   3.069  0.9190  0.5341  0.3265
 1440SOL    HW215780   0.432   1.571   2.977  1.4332 -2.0902  0.7625
 1441SOL     OW15781   4.416   1.446   8.785 -0.4323 -0.1941 -0.3354
 1441SOL    HW115782   4.496   1.489   8.752 -0.6584  1.0396  0.7410
 1441SOL    HW215783   4.417   1.358   8.747  0.1732  0.7467 -2.5370
 1442SOL     OW15784   0.424   2.307   0.379 -0.6555  0.5518 -0.5864
 1442SOL    HW115785   0.359   2.263   0.434 -0.8228 -0.4878 -1.6302
 1442SOL    HW215786   0.507   2.260   0.387 -0.2118  1.0747 -2.1950
 1443SOL     OW15787   3.547   2.785   9.127 -0.4341  0.1769 -0.3727
 1443SOL    HW115788   3.569   2.720   9.060  0.6285 -2.1478  2.2552
 1443SOL    HW215789   3.614   2.850   9.105  0.2605 -0.6867 -0.8443
 1444SOL     OW15790   0.553   2.203   6.132  0.8479 -0.4311 -0.5940
 1444SOL    HW115791   0.624   2.262   6.159  0.7156 -1.2073  1.5203
 1444SOL    HW215792   0.576   2.178   6.043 -0.8179 -2.3465 -0.4980
 1445SOL     OW15793   3.254   1.521   9.572  0.5002 -0.0495 -0.1959
 1445SOL    HW115794   3.318   1.523   9.643 -0.2078 -0.6035  0.4605
 1445SOL    HW215795   3.309   1.528   9.494  1.0606  0.8555  0.2816
 1446SOL     OW15796   3.186   2.065   9.218  0.1441  0.0780  0.0463
 1446SOL    HW115797   3.224   1.978   9.219 -1.4163 -0.6005  0.2477
 1446SOL    HW215798   3.128   2.068   9.143  1.2550 -1.3823 -0.8652
 1447SOL     OW15799   0.498   1.577  14.458 -0.7348  0.5383  0.2530
 1447SOL    HW115800   0.462   1.661  14.430 -1.2494  0.5329  0.8850
 1447SOL    HW215801   0.429   1.517  14.487  1.3277 -1.4422  1.0191
 1448SOL     OW15802   3.840   2.220   7.428  0.2864  0.1285 -0.1463
 1448SOL    HW115803   3.806   2.309   7.434 -1.0975 -0.2933 -2.0510
 1448SOL    HW215804   3.814   2.197   7.339 -2.0029 -0.3996  0.6637
 1449SOL     OW15805   2.724   0.409  15.354  0.0106  0.2025  0.2252
 1449SOL    HW115806   2.687   0.436  15.438 -1.9319  1.6198 -1.0947
 1449SOL    HW215807   2.719   0.492  15.307  0.9494  0.5765  0.7857
 1450SOL     OW15808   0.236   3.614   8.164 -0.5999  0.0868  0.8450
 1450SOL    HW115809   0.239   3.614   8.069 -0.2134  1.0472  0.8545
 1450SOL    HW215810   0.176   3.544   8.190  0.3457 -0.8111  0.6221
 1451SOL     OW15811   0.980   1.010   4.612 -0.0421 -0.0543  0.3088
 1451SOL    HW115812   0.931   0.938   4.572  1.9770 -1.2503 -0.0122
 1451SOL    HW215813   1.025   1.041   4.534 -1.1362 -0.1556 -0.3689
 1452SOL     OW15814   2.449   1.753   3.009 -0.1179 -0.0008 -0.2189
 1452SOL    HW115815   2.446   1.848   2.997 -1.9666  0.0804  0.9507
 1452SOL    HW215816   2.491   1.745   3.095 -0.2079 -1.7536 -0.3442
 1453SOL     OW15817   3.041   4.377   6.279 -0.3186  0.2128 -0.1201
 1453SOL    HW115818   3.084   4.292   6.269 -0.1051  0.3543 -0.4197
 1453SOL    HW215819   3.084   4.430   6.211 -1.1954 -0.2908 -1.0736
 1454SOL     OW15820   1.668   1.806  14.960  0.0543 -0.2157 -0.3752
 1454SOL    HW115821   1.672   1.878  15.023 -0.3502 -0.6244  0.1111
 1454SOL    HW215822   1.639   1.736  15.018 -0.0757 -1.0713 -1.4853
 1455SOL     OW15823   1.797   3.035  14.565  0.5876 -0.5389 -0.0288
 1455SOL    HW115824   1.713   3.017  14.608 -0.0992  3.3351  0.2604
 1455SOL    HW215825   1.778   3.089  14.487 -0.9060 -1.8986 -0.6083
 1456SOL     OW15826   1.284   0.052   5.203  0.0066  0.7804 -0.3177
 1456SOL    HW115827   1.217   0.044   5.134  0.4342  0.7097 -0.7261
 1456SOL    HW215828   1.296   0.147   5.203 -1.8457  1.0132 -0.3850
 1457SOL     OW15829   3.151   0.928   3.267  0.2447  0.6444 -0.0404
 1457SOL    HW115830   3.126   0.964   3.183  0.4027 -0.4286 -0.5517
 1457SOL    HW215831   3.061   0.944   3.295  0.0472  0.5138 -0.6109
 1458SOL     OW15832   0.381   2.141   6.700  0.4707  0.1362 -0.1513
 1458SOL    HW115833   0.406   2.172   6.613  1.2159 -1.6365 -0.5764
 1458SOL    HW215834   0.451   2.183   6.750 -1.4989  0.7097  2.1562
 1459SOL     OW15835   3.859   0.048   7.966  0.4806  0.2244  0.0889
 1459SOL    HW115836   3.833   0.064   8.056 -0.5794 -0.0447 -0.1693
 1459SOL    HW215837   3.925   0.114   7.946 -0.6193  1.1627 -0.4429
 1460SOL     OW15838   1.175   3.116  14.229 -0.1078 -0.8693 -0.1378
 1460SOL    HW115839   1.089   3.148  14.256 -0.7743 -3.5490  0.9037
 1460SOL    HW215840   1.158   3.060  14.153  1.4631  0.1424 -1.2167
 1461SOL     OW15841   0.997   1.729   0.201 -0.3609  0.4221 -0.0228
 1461SOL    HW115842   0.911   1.768   0.219  1.0922  3.2716  0.8572
 1461SOL    HW215843   1.000   1.658   0.265 -2.2786 -1.4990 -2.0787
 1462SOL     OW15844   1.796   4.620   4.523  0.0312  0.4348  0.3130
 1462SOL    HW115845   1.775   4.554   4.590  0.8727  0.1020  0.2546
 1462SOL    HW215846   1.883   4.649   4.550 -0.2591  2.0443 -0.4964
 1463SOL     OW15847   3.118   2.532   1.886  0.2199  0.1217 -0.1016
 1463SOL    HW115848   3.115   2.544   1.791 -0.4546  0.5920 -0.0158
 1463SOL    HW215849   3.025   2.535   1.906  0.2879 -1.3618  0.4849
 1464SOL     OW15850   2.711   2.846   9.942 -0.1651  0.1766  0.1359
 1464SOL    HW115851   2.728   2.757   9.910 -0.6539 -0.7241  2.3562
 1464SOL    HW215852   2.634   2.834   9.998 -0.4200  1.3388  0.0256
 1465SOL     OW15853   4.487   3.820  14.665  0.4976 -0.3243  0.3039
 1465SOL    HW115854   4.549   3.892  14.663 -0.9678  0.9117 -0.1922
 1465SOL    HW215855   4.410   3.871  14.689 -1.0246 -2.4058 -0.1607
 1466SOL     OW15856   0.199   3.892   5.856  0.4429 -0.1982  0.4118
 1466SOL    HW115857   0.153   3.927   5.932  0.0569  0.5425 -0.1562
 1466SOL    HW215858   0.145   3.815   5.834  0.6734 -0.3225  0.2780
 1467SOL     OW15859   0.240   2.221   1.456  0.2992  0.1169 -0.4135
 1467SOL    HW115860   0.281   2.270   1.528  0.3923 -0.9296  0.2533
 1467SOL    HW215861   0.304   2.223   1.385 -0.3674  1.1994 -0.9735
 1468SOL     OW15862   4.436   2.389   3.459  0.4583  0.7803 -0.3560
 1468SOL    HW115863   4.390   2.472   3.453  1.4932  1.3486 -0.3911
 1468SOL    HW215864   4.356   2.336   3.461  0.4904  0.7479  0.1926
 1469SOL     OW15865   0.588   3.058  10.385  0.3028  0.2386 -0.1369
 1469SOL    HW115866   0.607   3.032  10.295  2.0979 -3.1156  1.2090
 1469SOL    HW215867   0.492   3.063  10.382  0.2385 -2.4028 -2.2518
 1470SOL     OW15868   4.169   3.136   0.739 -0.3229  0.1806  0.6700
 1470SOL    HW115869   4.241   3.188   0.774  0.9174 -0.4917 -0.8859
 1470SOL    HW215870   4.168   3.166   0.648 -1.0774 -0.0747  0.5887
 1471SOL     OW15871   2.782   3.931   8.745  0.2066  0.4909  0.3279
 1471SOL    HW115872   2.755   3.888   8.664  0.7916 -0.6155  0.7250
 1471SOL    HW215873   2.806   4.020   8.717  4.1389 -1.0290 -1.1674
 1472SOL     OW15874   2.053   2.964   5.799  0.0541 -0.2342  0.0487
 1472SOL    HW115875   2.020   2.877   5.820  0.2143  0.1772  1.9607
 1472SOL    HW215876   2.013   3.008   5.874 -1.6110  1.4541 -1.8233
 1473SOL     OW15877   0.174   4.370   2.332 -0.4579 -0.1767 -0.1959
 1473SOL    HW115878   0.162   4.377   2.426  2.3104 -2.4302  0.3387
 1473SOL    HW215879   0.108   4.428   2.295  0.6718  2.1264  1.3860
 1474SOL     OW15880   1.064   0.934  12.105  0.2537 -0.2000 -0.0033
 1474SOL    HW115881   1.009   1.007  12.076  1.5778  1.6407  2.1372
 1474SOL    HW215882   1.140   0.948  12.050  1.9778  0.9724  2.6591
 1475SOL     OW15883   0.426   1.047   5.638  0.4177  0.1027  0.7868
 1475SOL    HW115884   0.386   0.981   5.694  0.1141 -0.2603  0.1413
 1475SOL    HW215885   0.414   1.009   5.551 -0.9027  0.6922  0.7195
 1476SOL     OW15886   2.309   3.916   8.012 -0.1719 -0.9948 -0.0329
 1476SOL    HW115887   2.259   3.961   7.944  1.2002  0.3568 -0.1518
 1476SOL    HW215888   2.377   3.881   7.955 -0.7431 -0.5627 -0.9792
 1477SOL     OW15889   0.321   2.286   9.076  0.3894 -0.0161  0.0625
 1477SOL    HW115890   0.379   2.250   9.142  0.2354  0.9594  0.7290
 1477SOL    HW215891   0.376   2.330   9.011 -0.8769  1.1397 -0.2332
 1478SOL     OW15892   1.617   2.108  11.427 -0.0244  0.0947  0.0494
 1478SOL    HW115893   1.599   2.063  11.345 -2.3239  2.9961 -1.0319
 1478SOL    HW215894   1.703   2.076  11.453  0.0888 -0.6618 -1.2812
 1479SOL     OW15895   2.559   2.898   5.087  0.3160 -0.5268 -0.2238
 1479SOL    HW115896   2.486   2.872   5.144  0.5672 -0.1791  0.2613
 1479SOL    HW215897   2.606   2.950   5.152 -0.3829 -0.5026  0.2621
 1480SOL     OW15898   2.175   0.622  10.427 -0.1641 -0.2908  0.0535
 1480SOL    HW115899   2.236   0.647  10.497  3.4869 -0.2810 -3.1457
 1480SOL    HW215900   2.101   0.588  10.478  0.7055  0.1475  1.6106
 1481SOL     OW15901   2.157   0.375   0.501  0.6257 -0.5118 -0.5443
 1481SOL    HW115902   2.180   0.367   0.409 -0.6538 -0.8391 -0.8252
 1481SOL    HW215903   2.188   0.292   0.537  0.0102 -0.2823  0.5251
 1482SOL     OW15904   0.598   3.718   8.106  0.0017  0.0952 -0.4593
 1482SOL    HW115905   0.645   3.748   8.028 -0.1173 -0.3368 -0.6943
 1482SOL    HW215906   0.670   3.673   8.148  0.9779  2.2299  0.1527
 1483SOL     OW15907   0.913   3.588  10.286  0.1652  0.0372 -0.5272
 1483SOL    HW115908   0.964   3.560  10.209 -2.0146 -0.9382 -1.6090
 1483SOL    HW215909   0.935   3.516  10.345 -0.5429 -1.3304 -1.9150
 1484SOL     OW15910   3.610   4.422  15.480 -0.3665  0.0551 -0.4968
 1484SOL    HW115911   3.593   4.515  15.498 -0.5915 -0.2068  0.6764
 1484SOL    HW215912   3.675   4.403  15.548  0.9604 -0.2139 -1.8425
 1485SOL     OW15913   0.242   1.174   0.655 -0.4259  0.0892 -0.3018
 1485SOL    HW115914   0.172   1.234   0.677  0.3956  0.2742  1.8860
 1485SOL    HW215915   0.264   1.224   0.576 -0.4027  2.0744  0.9654
 1486SOL     OW15916   2.480   1.481   5.519 -0.1845 -0.2515  0.2911
 1486SOL    HW115917   2.516   1.421   5.454 -2.2631 -1.8268  0.6325
 1486SOL    HW215918   2.397   1.489   5.474  0.7469  1.6481 -1.1005
 1487SOL     OW15919   3.311   4.501   1.256 -0.1391  0.6226  0.1226
 1487SOL    HW115920   3.255   4.530   1.184 -1.9044  1.5857  1.8759
 1487SOL    HW215921   3.299   4.406   1.256  3.3545  0.1867 -1.6382
 1488SOL     OW15922   3.073   3.161  10.409 -0.4132 -0.1532  0.3843
 1488SOL    HW115923   3.144   3.109  10.446  0.8771  0.7692 -0.7951
 1488SOL    HW215924   3.043   3.224  10.474  0.6689  0.1356  0.6020
 1489SOL     OW15925   0.275   3.230   2.418 -0.3170  0.3186 -0.0849
 1489SOL    HW115926   0.229   3.292   2.361 -0.6318 -0.3575 -0.5621
 1489SOL    HW215927   0.258   3.269   2.504 -0.2439  1.1897 -0.4730
 1490SOL     OW15928   1.858   2.182   2.023 -0.9237  0.1495  0.0836
 1490SOL    HW115929   1.815   2.117   2.080  0.6197 -0.4195  0.5956
 1490SOL    HW215930   1.824   2.258   2.070  0.3690  0.6652  0.1844
 1491SOL     OW15931   3.245   4.616  10.087 -0.1705 -0.2189 -0.2873
 1491SOL    HW115932   3.310   4.686  10.075 -0.6403 -0.0430 -1.7683
 1491SOL    HW215933   3.282   4.565  10.159 -3.0023 -1.7712  0.0319
 1492SOL     OW15934   4.320   0.836   1.906  0.4544 -0.2591  0.3310
 1492SOL    HW115935   4.335   0.891   1.983  2.8734  0.2867 -0.5195
 1492SOL    HW215936   4.352   0.901   1.843 -2.1191  2.2227  1.6255
 1493SOL     OW15937   2.674   2.693  11.107  0.0639 -0.3735  0.3579
 1493SOL    HW115938   2.726   2.709  11.186 -0.7809 -2.1695  1.2773
 1493SOL    HW215939   2.621   2.770  11.126 -2.4426 -1.7207 -1.1801
 1494SOL     OW15940   0.487   2.740   0.226  0.5406  0.0976 -0.3476
 1494SOL    HW115941   0.566   2.710   0.182  2.2450  1.0958  2.0302
 1494SOL    HW215942   0.413   2.717   0.170 -0.4092  0.7257  0.6457
 1495SOL     OW15943   1.791   1.181   0.395 -0.2435  0.0856 -0.4161
 1495SOL    HW115944   1.822   1.139   0.475 -0.0309 -0.7187 -0.9266
 1495SOL    HW215945   1.876   1.183   0.350  0.6609  2.4777  1.4224
 1496SOL     OW15946   1.138   4.001   7.782  0.4160  0.4812  0.1565
 1496SOL    HW115947   1.084   3.922   7.785  0.8428  0.1263 -1.6264
 1496SOL    HW215948   1.120   4.028   7.692 -2.0230 -2.3162 -0.2298
 1497SOL     OW15949   3.909   2.845  12.087  0.3067  0.2253 -0.0703
 1497SOL    HW115950   3.956   2.822  12.007  1.0460  3.3451 -0.5471
 1497SOL    HW215951   3.834   2.895  12.054 -1.1055 -1.5726  0.4364
 1498SOL     OW15952   2.648   1.460  11.712 -0.3631  0.2875  0.1035
 1498SOL    HW115953   2.578   1.523  11.729  1.1680  1.7289  1.0120
 1498SOL    HW215954   2.681   1.486  11.626 -0.9396 -1.1975 -0.5708
 1499SOL     OW15955   2.538   1.944  11.732 -0.5316 -0.2058  0.5551
 1499SOL    HW115956   2.472   1.979  11.673 -0.8329 -0.6990  0.6047
 1499SOL    HW215957   2.480   1.916  11.803 -0.0912  0.2370  1.0913
 1500SOL     OW15958   4.024   1.956   8.875  0.4022 -0.0946  0.1512
 1500SOL    HW115959   3.963   2.009   8.823  0.9670 -0.2991 -0.7322
 1500SOL    HW215960   4.032   1.882   8.814 -1.9314  0.8566 -1.3236
 1501SOL     OW15961   2.617   0.714   4.564 -0.2560 -0.2975 -0.0457
 1501SOL    HW115962   2.604   0.704   4.470  1.5045 -1.7092 -0.1553
 1501SOL    HW215963   2.538   0.675   4.601 -1.8986  4.5295  1.4330
 1502SOL     OW15964   2.270   1.935   5.144  0.5343  0.0512 -0.0947
 1502SOL    HW115965   2.240   1.846   5.163  1.4963 -0.0726  0.9105
 1502SOL    HW215966   2.337   1.921   5.077  0.2584 -0.8158 -0.1816
 1503SOL     OW15967   3.226   0.294   9.710 -0.0927 -0.2160  0.5116
 1503SOL    HW115968   3.175   0.238   9.769 -1.1717 -1.3562 -1.4947
 1503SOL    HW215969   3.267   0.361   9.764  1.0557 -0.7798  0.3264
 1504SOL     OW15970   3.361   1.234   5.512  0.0956 -0.0003 -0.3933
 1504SOL    HW115971   3.270   1.257   5.535  0.0590 -1.7623  1.1761
 1504SOL    HW215972   3.386   1.286   5.435  0.6928  1.2718  0.6619
 1505SOL     OW15973   2.935   0.260   8.310 -0.3546 -0.0064 -0.3838
 1505SOL    HW115974   2.873   0.333   8.316  1.6764  1.6047  0.6739
 1505SOL    HW215975   2.957   0.251   8.217  0.2859 -0.4435 -0.1853
 1506SOL     OW15976   2.355   3.811   5.455 -0.9693  0.3142 -0.4863
 1506SOL    HW115977   2.382   3.878   5.518  0.6580 -0.9614  0.1681
 1506SOL    HW215978   2.419   3.740   5.453  0.3058  1.4099  1.2858
 1507SOL     OW15979   1.139   3.646  12.136 -0.4253  0.2140  0.1618
 1507SOL    HW115980   1.100   3.561  12.115  1.6120 -1.3185  2.6128
 1507SOL    HW215981   1.229   3.630  12.108 -0.5108  2.1942 -1.2086
 1508SOL     OW15982   0.338   1.151   3.344  0.2731 -0.5539  0.0483
 1508SOL    HW115983   0.311   1.115   3.259 -0.4605  1.3897 -0.5339
 1508SOL    HW215984   0.254   1.157   3.389 -0.4372 -0.1264 -1.3153
 1509SOL     OW15985   0.225   4.006  15.579  0.0816 -0.1499 -0.0220
 1509SOL    HW115986   0.235   4.081  15.521 -0.1945 -1.2957 -1.5571
 1509SOL    HW215987   0.311   3.989  15.617  0.2075  2.4011  0.8051
 1510SOL     OW15988   3.899   1.853   7.329 -0.2027 -0.2764  0.4087
 1510SOL    HW115989   3.955   1.930   7.337 -0.5024  0.1907 -1.7560
 1510SOL    HW215990   3.966   1.785   7.327  0.0867  0.0781 -1.7312
 1511SOL     OW15991   1.251   1.617   5.547  0.0652  0.3195  0.0614
 1511SOL    HW115992   1.189   1.545   5.562 -0.8368  1.2095  0.6142
 1511SOL    HW215993   1.267   1.643   5.638  0.9741 -1.7488  0.4946
 1512SOL     OW15994   1.035   1.996   9.828  0.0324  0.2864  0.2597
 1512SOL    HW115995   0.944   1.971   9.811  0.3224  1.1092 -2.6170
 1512SOL    HW215996   1.075   1.970   9.745 -0.5023 -2.0025  0.7180
 1513SOL     OW15997   3.529   0.754  11.359 -0.4354 -0.4641 -0.0169
 1513SOL    HW115998   3.490   0.668  11.342 -2.0087  0.3827 -0.6139
 1513SOL    HW215999   3.493   0.778  11.444  2.2467  0.1527  0.9399
 1514SOL     OW16000   0.896   1.171   3.385  0.5247 -0.3998 -0.3838
 1514SOL    HW116001   0.915   1.155   3.292 -2.1176 -3.2677 -0.4320
 1514SOL    HW216002   0.808   1.137   3.397  0.7495 -0.6204  0.6156
 1515SOL     OW16003   0.730   1.172   6.384  0.1371  0.1674 -0.1052
 1515SOL    HW116004   0.679   1.099   6.421 -0.2561  0.3154 -0.3653
 1515SOL    HW216005   0.816   1.129   6.388  0.1476  0.0789 -1.5036
 1516SOL     OW16006   0.186   4.546  13.685  1.4432  0.3506 -0.3671
 1516SOL    HW116007   0.168   4.579  13.773  2.3935 -1.3455  0.4656
 1516SOL    HW216008   0.095   4.545  13.653  1.1080 -1.6101  0.6267
 1517SOL     OW16009   2.614   2.489  13.589  0.1509  0.3595 -0.2088
 1517SOL    HW116010   2.669   2.443  13.526  2.7172 -0.2736  2.4411
 1517SOL    HW216011   2.669   2.480  13.668  0.0437  1.1179 -0.0518
 1518SOL     OW16012   1.561   0.344   3.274 -0.3024 -0.4878 -0.3188
 1518SOL    HW116013   1.542   0.253   3.250 -1.2813 -0.3299 -0.1523
 1518SOL    HW216014   1.605   0.358   3.191 -0.5970  1.5229 -0.1231
 1519SOL     OW16015   2.434   3.574   6.821 -0.0178 -0.3352  0.0326
 1519SOL    HW116016   2.401   3.576   6.732 -1.3734 -1.4272  0.5038
 1519SOL    HW216017   2.357   3.619   6.856 -0.7355 -1.4561 -0.0929
 1520SOL     OW16018   1.967   2.281   9.564 -0.6083  0.3250 -0.1275
 1520SOL    HW116019   2.032   2.345   9.596  1.3739 -1.7243 -0.0426
 1520SOL    HW216020   1.949   2.314   9.477  0.4144 -1.6667 -1.0962
 1521SOL     OW16021   0.523   4.224   5.691 -0.0247 -0.3656  0.0239
 1521SOL    HW116022   0.495   4.134   5.709 -2.4311  0.4866  0.6284
 1521SOL    HW216023   0.435   4.262   5.696  1.5869  3.5181 -1.0140
 1522SOL     OW16024   3.715   1.987   7.581 -0.0348 -0.0310 -0.1840
 1522SOL    HW116025   3.781   2.037   7.534 -0.6632  1.0491  0.0935
 1522SOL    HW216026   3.693   1.927   7.510 -1.2023  0.4923 -0.2529
 1523SOL     OW16027   0.870   4.442  13.517 -0.0229 -0.0560 -0.0625
 1523SOL    HW116028   0.955   4.425  13.559  0.5796 -0.2295 -1.3489
 1523SOL    HW216029   0.834   4.495  13.588 -5.0198  0.5505 -3.0466
 1524SOL     OW16030   0.106   3.782   3.476 -0.2681  0.2630  0.8691
 1524SOL    HW116031   0.192   3.754   3.443 -0.6047  0.1308  0.0918
 1524SOL    HW216032   0.119   3.779   3.570 -4.3430  0.4283  1.4236
 1525SOL     OW16033   2.249   0.478  13.071  0.0312 -0.8770  0.2650
 1525SOL    HW116034   2.245   0.572  13.054 -1.9648 -0.5207  2.7631
 1525SOL    HW216035   2.272   0.459  13.162  0.0471 -1.6999  0.0930
 1526SOL     OW16036   2.092   1.024   8.694 -0.3286 -0.0769 -0.4797
 1526SOL    HW116037   2.103   1.025   8.599 -0.2184  1.6128 -0.4396
 1526SOL    HW216038   2.030   0.952   8.704  0.1350 -0.1463  2.0465
 1527SOL     OW16039   1.095   2.579  15.221  0.0963  0.3030 -0.1667
 1527SOL    HW116040   1.111   2.485  15.213  0.3606  0.6609 -3.8918
 1527SOL    HW216041   1.019   2.584  15.279 -1.1614 -0.7307 -1.7097
 1528SOL     OW16042   2.792   2.143   3.484 -0.0280 -0.1215 -0.3140
 1528SOL    HW116043   2.725   2.174   3.545  0.0111  0.9454 -0.8102
 1528SOL    HW216044   2.827   2.222   3.442 -0.6360  0.7151  0.7213
 1529SOL     OW16045   3.566   0.846   6.825 -0.0687  0.5949  0.1439
 1529SOL    HW116046   3.591   0.892   6.905 -2.2107  1.9698  0.0155
 1529SOL    HW216047   3.647   0.796   6.810 -0.5313 -0.6634  1.7849
 1530SOL     OW16048   1.252   3.986   6.102 -0.0020 -0.6327  0.0385
 1530SOL    HW116049   1.323   4.004   6.163 -0.9522  0.4272  0.8490
 1530SOL    HW216050   1.306   3.950   6.031 -1.8733 -0.0954 -1.6756
 1531SOL     OW16051   2.289   0.151   5.745 -0.4357 -0.5461 -0.1231
 1531SOL    HW116052   2.267   0.119   5.657  0.5709 -0.3040 -0.4632
 1531SOL    HW216053   2.380   0.126   5.763 -0.1487 -0.2180 -1.1028
 1532SOL     OW16054   0.337   0.538  13.434  0.2555 -0.2158  0.1712
 1532SOL    HW116055   0.375   0.620  13.466 -0.5126 -0.3073  1.3298
 1532SOL    HW216056   0.259   0.573  13.391  0.3351 -0.2669 -0.0150
 1533SOL     OW16057   2.026   4.551   8.041 -0.1776  0.8284 -0.2635
 1533SOL    HW116058   2.023   4.578   8.133  0.9985  1.1172 -0.3117
 1533SOL    HW216059   1.934   4.539   8.018  0.2505  0.6320 -1.8352
 1534SOL     OW16060   3.763   0.103  16.127 -0.0779  0.1297  0.0308
 1534SOL    HW116061   3.813   0.092  16.046 -1.2701 -0.3534 -0.6420
 1534SOL    HW216062   3.672   0.109  16.098 -0.6817  0.4555  2.0015
 1535SOL     OW16063   0.563   2.959   7.218  0.1931 -0.1253  0.8040
 1535SOL    HW116064   0.657   2.960   7.201  0.1601  1.4869  0.6990
 1535SOL    HW216065   0.529   2.985   7.132 -0.0163 -3.4065 -0.0877
 1536SOL     OW16066   1.932   1.137  17.557  0.0322  0.5549  0.4375
 1536SOL    HW116067   1.985   1.061  17.582  1.2128  0.6617 -1.7011
 1536SOL    HW216068   1.882   1.093  17.487 -2.7778 -0.8174  3.2857
 1537SOL     OW16069   1.768   1.742   8.588 -0.0003  0.2367  0.1829
 1537SOL    HW116070   1.763   1.827   8.632 -1.4251  0.6850 -0.8321
 1537SOL    HW216071   1.785   1.677   8.655 -1.1314 -1.1659 -0.8801
 1538SOL     OW16072   3.206   3.547   0.849  0.1230  0.0482 -0.1230
 1538SOL    HW116073   3.299   3.523   0.841  0.3120 -0.3648  3.6105
 1538SOL    HW216074   3.209   3.594   0.932  0.0461 -0.4323  0.1486
 1539SOL     OW16075   3.417   3.868   5.058  0.4351 -0.3677 -0.2493
 1539SOL    HW116076   3.330   3.896   5.086 -0.2611 -4.0349  1.3112
 1539SOL    HW216077   3.464   3.951   5.059  0.8950 -0.6232 -0.0253
 1540SOL     OW16078   1.026   0.766   3.483 -0.1610 -0.3944  0.1765
 1540SOL    HW116079   1.012   0.740   3.391  1.5382  0.7844 -0.4047
 1540SOL    HW216080   0.964   0.700   3.517  0.9371 -1.2665  0.4891
 1541SOL     OW16081   0.534   0.534   9.898  0.0602 -0.2049 -0.4364
 1541SOL    HW116082   0.491   0.554   9.815  1.4826 -0.2933 -1.2054
 1541SOL    HW216083   0.601   0.474   9.865  0.6185  0.8733 -1.2759
 1542SOL     OW16084   4.026   4.659   5.684 -0.0443  0.4201  0.3269
 1542SOL    HW116085   4.001   4.611   5.605 -0.3256 -2.1204  1.9745
 1542SOL    HW216086   4.014   4.594   5.753 -1.6206 -0.2418 -0.5558
 1543SOL     OW16087   3.474   0.704   4.013 -0.0032  0.0794 -0.0700
 1543SOL    HW116088   3.561   0.731   3.983  0.1590 -0.2188  0.1248
 1543SOL    HW216089   3.416   0.772   3.978  0.7838  0.2496 -1.0510
 1544SOL     OW16090   2.837   3.269   8.302  0.1416  0.2967 -0.2643
 1544SOL    HW116091   2.884   3.280   8.384 -1.8700  1.7494  0.6862
 1544SOL    HW216092   2.888   3.197   8.264 -0.0316 -0.6556  1.3126
 1545SOL     OW16093   0.924   3.100   3.537  0.3233  0.3077  0.1711
 1545SOL    HW116094   0.844   3.049   3.550  1.2550 -1.6044 -1.5567
 1545SOL    HW216095   0.887   3.167   3.480  0.0659  0.3332  0.3667
 1546SOL     OW16096   3.519   2.167   1.500 -0.2582  0.3928 -0.4200
 1546SOL    HW116097   3.485   2.245   1.544 -3.9234 -1.5431  0.1535
 1546SOL    HW216098   3.612   2.171   1.521 -0.4516  1.7791  0.1960
 1547SOL     OW16099   3.195   4.078  17.604  0.4819  0.1087  0.8439
 1547SOL    HW116100   3.272   4.029  17.632  1.4225  0.7989 -0.5088
 1547SOL    HW216101   3.142   4.046  17.677  0.3645 -2.2043 -0.2608
 1548SOL     OW16102   2.907   0.657  14.371 -0.3924  0.4279 -0.1190
 1548SOL    HW116103   2.970   0.607  14.423 -0.1147  0.5196 -0.3672
 1548SOL    HW216104   2.885   0.730  14.430 -1.2077 -0.0566  0.1888
 1549SOL     OW16105   3.992   2.531  15.872  0.0151 -0.3381  0.2850
 1549SOL    HW116106   3.998   2.442  15.838  0.0872 -0.4886  0.6894
 1549SOL    HW216107   4.084   2.533  15.900 -0.1530  0.0799  0.8116
 1550SOL     OW16108   1.451   3.939   5.226 -0.3517 -0.4067  0.1845
 1550SOL    HW116109   1.424   4.022   5.187  0.1229  0.7391  2.2450
 1550SOL    HW216110   1.425   3.886   5.151  1.9869 -1.6914  0.3050
 1551SOL     OW16111   2.758   1.321   6.795  0.0777 -0.1286  0.0328
 1551SOL    HW116112   2.821   1.260   6.757  0.6690  0.8948 -0.6316
 1551SOL    HW216113   2.764   1.291   6.885 -2.1786  0.8525  0.5014
 1552SOL     OW16114   3.737   4.405   6.154 -0.0830  0.8167  0.7785
 1552SOL    HW116115   3.820   4.436   6.191  0.1715 -0.0661  0.9533
 1552SOL    HW216116   3.765   4.378   6.067 -0.8692  0.9323  0.4970
 1553SOL     OW16117   2.362   0.913   4.115  0.1954  0.1083  0.0001
 1553SOL    HW116118   2.358   1.001   4.077 -0.8413  0.2193  0.3626
 1553SOL    HW216119   2.367   0.865   4.032 -0.9909 -2.0974  1.2202
 1554SOL     OW16120   2.884   0.763   2.119 -0.1907  0.0977  0.5162
 1554SOL    HW116121   2.790   0.747   2.122 -0.0645 -0.5080  1.2140
 1554SOL    HW216122   2.898   0.845   2.070 -0.5952 -0.5057 -0.5997
 1555SOL     OW16123   0.139   1.163  17.090 -0.1043  0.2624 -0.0490
 1555SOL    HW116124   0.047   1.162  17.064 -0.8345 -0.6658  2.5729
 1555SOL    HW216125   0.177   1.197  17.009  0.6362 -1.1333 -0.2863
 1556SOL     OW16126   2.674   1.715  13.913  0.6380 -0.1462 -0.5142
 1556SOL    HW116127   2.769   1.725  13.917  0.5354  0.3346  0.4671
 1556SOL    HW216128   2.635   1.731  13.998 -0.8615 -0.8980 -1.0484
 1557SOL     OW16129   4.377   4.173   3.938 -0.0041 -0.2917 -0.1566
 1557SOL    HW116130   4.312   4.241   3.953 -0.2007  0.0790 -2.6417
 1557SOL    HW216131   4.456   4.199   3.985 -0.0713  2.0811 -1.3460
 1558SOL     OW16132   4.268   4.251   0.797 -0.7386  0.2855 -0.0234
 1558SOL    HW116133   4.220   4.174   0.769 -1.7832  1.7556 -2.3075
 1558SOL    HW216134   4.243   4.258   0.889  1.1895 -1.9264  0.6600
 1559SOL     OW16135   1.920   2.591  16.137  0.4632 -0.1260  0.1770
 1559SOL    HW116136   1.828   2.605  16.158 -0.0154 -0.6984 -1.5215
 1559SOL    HW216137   1.959   2.679  16.141 -1.0050  0.5302  0.0593
 1560SOL     OW16138   2.007   1.340   0.673 -0.3939 -0.2029  0.1079
 1560SOL    HW116139   1.945   1.394   0.624 -0.6659 -2.8064 -2.4090
 1560SOL    HW216140   1.977   1.250   0.661  0.8859 -0.4928 -0.8846
 1561SOL     OW16141   1.487   0.861   5.944 -0.3425 -0.5542 -0.3392
 1561SOL    HW116142   1.489   0.956   5.929  0.5294 -0.8390 -2.0674
 1561SOL    HW216143   1.395   0.845   5.926 -1.6036  3.3165  2.5645
 1562SOL     OW16144   2.917   0.498   7.587  0.1914  0.3643 -0.0751
 1562SOL    HW116145   2.985   0.493   7.654 -0.6328 -1.8142  0.6240
 1562SOL    HW216146   2.948   0.577   7.544  0.8503 -0.8730 -1.8449
 1563SOL     OW16147   2.818   2.233   1.618  0.2257 -0.4871 -0.4001
 1563SOL    HW116148   2.798   2.146   1.583  2.6624 -0.2126 -2.4797
 1563SOL    HW216149   2.913   2.239   1.622  0.2986 -1.5445 -0.3832
 1564SOL     OW16150   3.020   4.266   2.654  0.1607 -0.1488  0.2817
 1564SOL    HW116151   2.996   4.342   2.601  0.2121  0.2614  0.8456
 1564SOL    HW216152   3.090   4.307   2.705 -0.0001  2.7061 -1.7339
 1565SOL     OW16153   1.446   2.622   0.076 -0.0421  0.1114 -0.6581
 1565SOL    HW116154   1.422   2.536   0.112 -1.5642 -0.4075 -2.8369
 1565SOL    HW216155   1.416   2.607  17.673 -0.2627 -1.3648 -0.3485
 1566SOL     OW16156   0.176   0.198   5.330 -0.2630  0.5419  0.4060
 1566SOL    HW116157   0.135   0.284   5.318  2.6765  1.8937  0.1696
 1566SOL    HW216158   0.249   0.205   5.268 -0.4821 -2.5093 -0.2213
 1567SOL     OW16159   3.565   1.757   2.289 -0.0442  0.7023  0.1637
 1567SOL    HW116160   3.586   1.747   2.196 -2.0439  0.3154 -0.2272
 1567SOL    HW216161   3.611   1.680   2.323 -0.2708  0.2222 -0.6174
 1568SOL     OW16162   3.896   0.480   4.282 -0.4181 -0.0496 -0.4138
 1568SOL    HW116163   3.893   0.408   4.219  0.3623 -0.7402  0.3415
 1568SOL    HW216164   3.888   0.554   4.221 -1.1495  2.6016  2.9317
 1569SOL     OW16165   1.223   3.530   7.352  0.3112  0.2844 -0.5068
 1569SOL    HW116166   1.303   3.479   7.337  0.9990  1.5766 -1.2764
 1569SOL    HW216167   1.158   3.477   7.398  0.7140  0.3309  0.1146
 1570SOL     OW16168   0.258   2.184  10.534 -0.1969 -0.5389 -0.5034
 1570SOL    HW116169   0.327   2.221  10.478  0.5937 -0.9091  0.2176
 1570SOL    HW216170   0.241   2.252  10.600 -2.3433 -1.4253 -0.1331
 1571SOL     OW16171   2.855   1.942   4.964  0.0528 -0.3731  0.4807
 1571SOL    HW116172   2.920   1.872   4.952  0.7638  0.2868  0.4880
 1571SOL    HW216173   2.827   1.957   4.874  0.6826 -1.6159  0.0759
 1572SOL     OW16174   4.128   3.046   3.960  0.3582 -0.2605  0.2789
 1572SOL    HW116175   4.208   3.050   3.907 -0.4092 -0.2740 -0.8771
 1572SOL    HW216176   4.102   2.954   3.966  1.5774 -0.4468  2.6096
 1573SOL     OW16177   1.811   3.997   3.542 -1.1127  0.0780  0.5698
 1573SOL    HW116178   1.865   3.931   3.498 -0.7582  0.2757  0.7146
 1573SOL    HW216179   1.751   4.001   3.467 -1.8261 -2.1303  1.0142
 1574SOL     OW16180   2.500   3.691   3.335  0.4990  0.2293 -0.4548
 1574SOL    HW116181   2.580   3.644   3.315  0.8194 -0.5863  2.7372
 1574SOL    HW216182   2.494   3.739   3.252 -0.5775 -0.6699 -0.9046
 1575SOL     OW16183   3.237   4.155   3.799 -0.1637  0.0477  0.0377
 1575SOL    HW116184   3.274   4.242   3.784  0.4559  0.1028  1.8294
 1575SOL    HW216185   3.143   4.160   3.784  0.2627  2.3025 -1.8257
 1576SOL     OW16186   0.660   0.280   2.729  0.1592 -0.2126  0.3593
 1576SOL    HW116187   0.582   0.283   2.784  1.1978 -2.2042  1.9311
 1576SOL    HW216188   0.725   0.300   2.796  1.1401  0.7605 -0.8674
 1577SOL     OW16189   0.671   2.248   3.859  0.2928  0.7437 -0.4804
 1577SOL    HW116190   0.757   2.221   3.829 -0.2635 -1.6528  0.0851
 1577SOL    HW216191   0.679   2.344   3.861  0.9479  0.6672  0.4495
 1578SOL     OW16192   1.412   0.866   6.707  0.0708 -0.0407  0.7106
 1578SOL    HW116193   1.489   0.810   6.721  0.7199  1.1292  1.8398
 1578SOL    HW216194   1.440   0.949   6.745  1.8698 -0.2723 -0.1271
 1579SOL     OW16195   2.868   2.248   6.764 -0.0472  0.0705 -0.0918
 1579SOL    HW116196   2.840   2.314   6.827 -0.3608 -1.8722  1.8016
 1579SOL    HW216197   2.951   2.277   6.726 -0.9677 -0.3620 -2.4429
 1580SOL     OW16198   4.037   3.829  16.315 -0.0828 -0.0933 -0.1127
 1580SOL    HW116199   4.017   3.890  16.243  1.8027  0.7177  0.0646
 1580SOL    HW216200   4.129   3.808  16.305  0.1250  0.4915  0.5360
 1581SOL     OW16201   3.566   4.616   8.507  0.1218 -0.1094 -1.0216
 1581SOL    HW116202   3.589   4.572   8.425  0.1915 -1.7517 -0.1263
 1581SOL    HW216203   3.477   4.590   8.529  0.3820 -1.2407 -1.2463
 1582SOL     OW16204   3.096   3.846   3.678  0.7592  0.0381  0.2729
 1582SOL    HW116205   3.101   3.885   3.766  1.7890  0.6911 -0.0725
 1582SOL    HW216206   3.003   3.826   3.663  0.2361  1.4775  1.5925
 1583SOL     OW16207   1.172   4.448   8.967  0.9784  0.2086 -0.1672
 1583SOL    HW116208   1.151   4.538   8.989  1.7806  0.4230 -0.2459
 1583SOL    HW216209   1.220   4.450   8.884 -0.5397 -1.4718 -1.0681
 1584SOL     OW16210   0.713   0.207   7.831 -0.0378 -0.0677  0.2007
 1584SOL    HW116211   0.759   0.140   7.780  0.4190  1.8863 -1.9508
 1584SOL    HW216212   0.786   0.247   7.879 -1.7725  0.1341  2.6911
 1585SOL     OW16213   2.634   1.217   9.068  0.3390  0.0318 -0.5315
 1585SOL    HW116214   2.652   1.268   9.148 -1.2498  0.5411 -0.4954
 1585SOL    HW216215   2.564   1.270   9.030 -0.4299  0.1565  1.0634
 1586SOL     OW16216   0.385   4.558   9.559  0.0792 -0.2289 -0.1837
 1586SOL    HW116217   0.428   4.476   9.583 -0.3308 -0.6144 -0.7611
 1586SOL    HW216218   0.306   4.519   9.521  0.6700 -3.7526  2.3228
 1587SOL     OW16219   3.008   3.984   8.196  0.2028  0.0394 -0.5795
 1587SOL    HW116220   2.961   3.901   8.190 -0.1406  0.1122  1.2590
 1587SOL    HW216221   2.952   4.042   8.144 -0.3072 -2.0276 -2.3338
 1588SOL     OW16222   3.211   1.702   7.699 -0.0510  0.3562  0.3906
 1588SOL    HW116223   3.286   1.652   7.730  0.0164 -1.7415 -3.1887
 1588SOL    HW216224   3.249   1.789   7.686 -0.7970  0.1898 -2.9783
 1589SOL     OW16225   1.258   0.319   5.141 -0.3448  0.0890  0.0505
 1589SOL    HW116226   1.212   0.338   5.223 -1.6548 -1.1083 -0.3953
 1589SOL    HW216227   1.312   0.397   5.153  0.2493 -0.2261 -0.6171
 1590SOL     OW16228   1.954   0.580  12.451  0.4671 -0.6582 -0.1651
 1590SOL    HW116229   1.949   0.557  12.543  0.2104  1.0771  0.2496
 1590SOL    HW216230   2.041   0.619  12.452 -0.1993  0.8094 -0.1685
 1591SOL     OW16231   0.927   2.206  11.397  0.4819  0.4553 -0.4258
 1591SOL    HW116232   0.905   2.299  11.397 -2.6356 -0.2784  2.0880
 1591SOL    HW216233   1.008   2.214  11.446  0.5998  1.7397 -0.8201
 1592SOL     OW16234   1.793   3.774   2.980 -0.3391  0.0918 -0.4110
 1592SOL    HW116235   1.727   3.709   2.956  0.0617  0.7020 -3.1091
 1592SOL    HW216236   1.825   3.793   2.892  2.5923 -0.7704  0.4503
 1593SOL     OW16237   2.222   3.677   3.391  0.5158  0.1030 -0.4883
 1593SOL    HW116238   2.207   3.650   3.482  2.1671 -2.0712 -0.8680
 1593SOL    HW216239   2.310   3.711   3.399  0.6447 -0.7448  1.8389
 1594SOL     OW16240   2.755   3.113   6.839 -0.0456 -0.3978 -0.3176
 1594SOL    HW116241   2.698   3.155   6.775  0.2629  2.0763  1.0512
 1594SOL    HW216242   2.823   3.112   6.772  1.5109  0.2058  1.2446
 1595SOL     OW16243   1.822   1.059   3.278  0.2971  0.3178 -0.4346
 1595SOL    HW116244   1.837   0.980   3.330 -0.7883  1.5302  1.6848
 1595SOL    HW216245   1.761   1.019   3.216  1.2240  1.4434 -2.0744
 1596SOL     OW16246   4.397   0.386  12.142 -0.1334  0.2501 -0.8611
 1596SOL    HW116247   4.430   0.297  12.126  1.7675  0.8814 -0.3611
 1596SOL    HW216248   4.394   0.423  12.054  0.8309 -2.3182 -1.9729
 1597SOL     OW16249   0.293   4.049   5.128  0.1243  0.1138  0.4204
 1597SOL    HW116250   0.349   4.009   5.061  1.2837  1.6436  0.4502
 1597SOL    HW216251   0.269   3.973   5.181  1.2705 -1.9531 -2.0054
 1598SOL     OW16252   1.536   2.908   5.368  0.1952 -0.1336 -0.2540
 1598SOL    HW116253   1.445   2.938   5.363 -1.3955 -4.6619  1.6931
 1598SOL    HW216254   1.538   2.880   5.459  0.6668 -2.1339 -0.8861
 1599SOL     OW16255   1.890   0.589   3.489  0.0984  0.0825  0.0270
 1599SOL    HW116256   1.810   0.550   3.525  0.3574 -0.9826 -0.5299
 1599SOL    HW216257   1.940   0.510   3.468 -0.3502  0.0240 -0.7849
 1600SOL     OW16258   4.365   4.542   2.036  0.4957 -0.1192  0.2938
 1600SOL    HW116259   4.299   4.591   1.986 -0.1966 -0.5415  0.7967
 1600SOL    HW216260   4.310   4.531   2.114 -1.7694 -1.7415 -1.5232
 1601SOL     OW16261   2.152   1.273   6.959 -0.4115  0.7664  0.0633
 1601SOL    HW116262   2.147   1.182   6.929 -1.9302 -0.1088  3.0342
 1601SOL    HW216263   2.231   1.298   6.911  0.3590  1.5018  1.7260
 1602SOL     OW16264   3.616   3.441  10.082 -0.0539 -0.2170  0.2007
 1602SOL    HW116265   3.523   3.418  10.074 -0.4891  1.6318  0.1134
 1602SOL    HW216266   3.624   3.449  10.177 -0.9208  4.7619 -0.1813
 1603SOL     OW16267   2.793   3.808  10.174  0.3157 -0.3063  0.0714
 1603SOL    HW116268   2.749   3.813  10.089 -1.8755 -1.0708  1.1669
 1603SOL    HW216269   2.744   3.869  10.228  1.0734 -1.5055  2.0949
 1604SOL     OW16270   0.703   2.458   8.574  0.3246 -0.0153 -0.4841
 1604SOL    HW116271   0.624   2.493   8.533 -1.1299  0.6731  2.9629
 1604SOL    HW216272   0.672   2.474   8.663 -0.8160 -1.2951 -0.6536
 1605SOL     OW16273   3.918   2.674   5.101  0.1042  0.0124 -0.2935
 1605SOL    HW116274   3.883   2.620   5.031  0.4965  0.4547 -0.8369
 1605SOL    HW216275   3.848   2.664   5.165  0.1390 -1.1926 -0.4469
 1606SOL     OW16276   4.583   1.271  13.337  0.0250 -0.1440 -0.1780
 1606SOL    HW116277   4.534   1.342  13.379  0.4625  0.7570 -1.1812
 1606SOL    HW216278   4.674   1.301  13.346 -0.6521  2.1413 -0.9621
 1607SOL     OW16279   1.043   4.158  15.654  0.2545 -0.4182 -0.3552
 1607SOL    HW116280   0.998   4.230  15.609 -1.0387 -0.8989  0.1489
 1607SOL    HW216281   0.967   4.119  15.698 -0.5300 -0.5867 -1.8731
 1608SOL     OW16282   2.138   4.359   9.060 -0.0728  0.1376 -0.2019
 1608SOL    HW116283   2.231   4.341   9.074  0.2580  1.6804 -0.4058
 1608SOL    HW216284   2.131   4.386   8.968 -1.0507  2.5451  0.5792
 1609SOL     OW16285   4.207   1.146   5.620 -0.2626 -0.3510  0.3132
 1609SOL    HW116286   4.113   1.129   5.625 -0.1146 -1.1378  0.4910
 1609SOL    HW216287   4.233   1.111   5.535 -1.2702 -1.0509  0.2914
 1610SOL     OW16288   1.868   2.764   7.163 -0.1849  0.2436 -0.2769
 1610SOL    HW116289   1.931   2.828   7.196 -0.6624  0.4362  0.2773
 1610SOL    HW216290   1.928   2.695   7.136 -0.2787  0.2736 -0.5659
 1611SOL     OW16291   4.693   0.287   8.163 -0.0857  0.4975  0.6080
 1611SOL    HW116292   4.600   0.305   8.153 -0.1419 -0.1852 -0.0660
 1611SOL    HW216293   4.701   0.291   8.258  1.7756 -0.8833  0.4988
 1612SOL     OW16294   3.860   3.937   6.157 -0.1592 -0.9304  0.5306
 1612SOL    HW116295   3.875   3.965   6.067  2.5995  1.7903  1.8634
 1612SOL    HW216296   3.949   3.907   6.177 -1.4550 -3.5534  2.4286
 1613SOL     OW16297   2.468   1.565  11.981 -0.8230 -0.3306 -0.3297
 1613SOL    HW116298   2.494   1.473  11.973 -0.8288 -0.5636  2.5549
 1613SOL    HW216299   2.555   1.603  11.994  0.3735 -2.1114 -3.1880
 1614SOL     OW16300   0.671   2.310   8.928 -0.3633  0.2649  0.5529
 1614SOL    HW116301   0.623   2.248   8.983 -2.0394  0.5291 -0.6315
 1614SOL    HW216302   0.600   2.337   8.871  1.5323 -1.1519 -2.4623
 1615SOL     OW16303   4.649   3.001   0.160 -0.2359 -0.3437 -0.1929
 1615SOL    HW116304   4.635   2.927   0.218 -2.7340  0.8953  0.7651
 1615SOL    HW216305   4.717   2.955   0.110 -0.4575 -3.1401  2.0768
 1616SOL     OW16306   3.419   2.316  12.625  0.2840  0.0815 -0.1421
 1616SOL    HW116307   3.492   2.257  12.605  0.4894  1.4721 -3.4180
 1616SOL    HW216308   3.431   2.382  12.557 -0.5391  0.3948  0.0272
 1617SOL     OW16309   1.148   2.589   2.568  0.5853  0.0348 -0.3288
 1617SOL    HW116310   1.089   2.528   2.611 -1.8318  1.5636 -1.4523
 1617SOL    HW216311   1.166   2.531   2.494 -0.1740 -0.0917 -0.4105
 1618SOL     OW16312   3.310   0.199  17.177 -0.8414  0.3041  0.2571
 1618SOL    HW116313   3.328   0.211  17.271 -3.7461  0.6279  0.7951
 1618SOL    HW216314   3.237   0.261  17.167 -0.7646  0.1571 -1.0859
 1619SOL     OW16315   2.070   2.036   4.853 -0.0449 -0.6509 -0.1934
 1619SOL    HW116316   2.128   1.963   4.829 -0.3893 -2.0879  3.3119
 1619SOL    HW216317   2.015   2.037   4.775 -1.3291 -1.7703  0.6884
 1620SOL     OW16318   2.352   4.328  11.498  0.3886  0.4551  0.0321
 1620SOL    HW116319   2.382   4.392  11.562  0.2130  2.0020 -1.4414
 1620SOL    HW216320   2.438   4.293  11.475  0.0886 -0.0878 -0.2891
 1621SOL     OW16321   4.380   0.892   7.271 -0.1594  0.5047  0.8085
 1621SOL    HW116322   4.316   0.848   7.326 -0.4203 -1.2609 -0.8983
 1621SOL    HW216323   4.331   0.925   7.196 -0.4683 -3.1915 -0.6108
 1622SOL     OW16324   2.003   0.601   8.070  0.2224 -0.3580 -0.1361
 1622SOL    HW116325   2.055   0.554   8.134 -0.0925  0.2367  0.5598
 1622SOL    HW216326   1.919   0.554   8.071 -0.1485  0.3723  1.7157
 1623SOL     OW16327   1.011   0.718   8.704  0.2063  0.0317  0.4174
 1623SOL    HW116328   0.996   0.624   8.712  2.2815 -0.3047  0.3912
 1623SOL    HW216329   0.965   0.751   8.781  0.0605  1.3996 -0.2571
 1624SOL     OW16330   0.045   0.434   5.335  0.2054 -0.0588  0.3677
 1624SOL    HW116331   4.706   0.457   5.264  1.3317 -0.8999 -0.8514
 1624SOL    HW216332   4.713   0.434   5.414  1.5732 -1.2794  1.2777
 1625SOL     OW16333   2.614   3.902   6.693 -0.0704 -0.2024  0.8191
 1625SOL    HW116334   2.528   3.906   6.735  0.3765  2.2000  1.4889
 1625SOL    HW216335   2.670   3.938   6.761  0.1666 -1.4312  1.2883
 1626SOL     OW16336   3.817   2.948  17.151  1.0724 -0.0074  0.1724
 1626SOL    HW116337   3.903   2.912  17.175  0.4482 -1.0175  0.8427
 1626SOL    HW216338   3.770   2.941  17.234  0.3498  2.7725 -0.0069
 1627SOL     OW16339   3.429   3.416   4.839 -0.2298  0.3220  0.4070
 1627SOL    HW116340   3.338   3.444   4.830  0.1562  1.9658  1.7799
 1627SOL    HW216341   3.482   3.495   4.846 -0.5411  0.4533  1.2473
 1628SOL     OW16342   4.052   0.221   6.810  0.3418 -0.8152 -0.3069
 1628SOL    HW116343   4.034   0.141   6.859  1.8288  0.1863  1.8354
 1628SOL    HW216344   4.103   0.274   6.871  0.7177 -0.2347 -1.1188
 1629SOL     OW16345   0.114   3.513   3.261 -0.4658 -1.2282  0.0476
 1629SOL    HW116346   0.056   3.573   3.214 -0.6166 -0.0611  1.7147
 1629SOL    HW216347   0.050   3.468   3.317  0.7547 -1.5341  1.1943
 1630SOL     OW16348   1.934   1.639  11.011  0.2940 -0.1777  0.0868
 1630SOL    HW116349   1.863   1.583  10.980  2.3598 -2.1072 -1.1569
 1630SOL    HW216350   1.977   1.590  11.081 -0.3746 -0.1346  0.5296
 1631SOL     OW16351   1.156   2.450   3.699  0.7560  0.0619  0.3588
 1631SOL    HW116352   1.066   2.478   3.711 -0.2859 -2.5477 -1.2315
 1631SOL    HW216353   1.208   2.495   3.766  0.7303 -0.4074  0.6964
 1632SOL     OW16354   2.005   1.531  12.212 -0.1082  0.2148  0.0671
 1632SOL    HW116355   1.910   1.541  12.215 -0.0722  0.3071  0.8650
 1632SOL    HW216356   2.026   1.515  12.304  0.2901 -2.6430 -0.5197
 1633SOL     OW16357   0.017   2.217  15.140 -0.0646  0.5080 -0.3737
 1633SOL    HW116358   0.096   2.170  15.167 -0.9936 -1.1407 -0.5303
 1633SOL    HW216359   4.693   2.154  15.083 -1.7458  2.0176 -0.7222
 1634SOL     OW16360   0.154   2.194   0.411  0.0507  0.5977  0.1142
 1634SOL    HW116361   0.060   2.196   0.392 -0.0353 -2.6739  0.1734
 1634SOL    HW216362   0.178   2.109   0.375  1.4500  0.7979  0.5855
 1635SOL     OW16363   0.509   2.313   2.003 -0.0607 -0.0842 -0.6020
 1635SOL    HW116364   0.506   2.396   1.955  0.7620 -1.2038 -2.5914
 1635SOL    HW216365   0.601   2.317   2.028 -0.6175  1.6922  1.1432
 1636SOL     OW16366   0.630   2.032  13.172  0.8310 -0.0695  0.4773
 1636SOL    HW116367   0.715   2.008  13.135  0.0556 -0.6546 -0.9455
 1636SOL    HW216368   0.647   2.110  13.225 -1.6956 -1.2899  3.0689
 1637SOL     OW16369   0.963   4.103   1.105 -0.6499 -0.3368  0.1552
 1637SOL    HW116370   0.968   4.163   1.179 -0.0839 -1.4309  1.0100
 1637SOL    HW216371   1.048   4.060   1.116 -0.3535 -0.0765 -1.1360
 1638SOL     OW16372   1.625   1.837   1.912  0.0820 -0.3734 -0.8959
 1638SOL    HW116373   1.705   1.839   1.965  0.3606  0.9775 -1.3867
 1638SOL    HW216374   1.612   1.747   1.882 -2.1480 -0.4897  0.4143
 1639SOL     OW16375   0.077   4.016   3.386 -0.7416 -0.1531 -0.0687
 1639SOL    HW116376   0.146   4.012   3.320 -0.9056 -2.2239 -0.1241
 1639SOL    HW216377   0.080   3.931   3.431 -1.9028 -0.2653 -0.1964
 1640SOL     OW16378   3.282   2.835   7.116 -0.0783  0.3745  0.0148
 1640SOL    HW116379   3.212   2.774   7.140  1.1938 -0.2549  2.1568
 1640SOL    HW216380   3.289   2.885   7.197 -0.7832  1.7608 -0.7840
 1641SOL     OW16381   0.316   1.789   4.832 -0.0083 -0.3926 -0.0855
 1641SOL    HW116382   0.356   1.710   4.867  0.3298  0.3482  1.2010
 1641SOL    HW216383   0.336   1.777   4.739 -2.5136  1.0486 -0.7989
 1642SOL     OW16384   1.083   0.368   8.973 -0.6312 -0.0880 -0.5959
 1642SOL    HW116385   1.039   0.360   9.058 -0.4293  1.2287 -0.3665
 1642SOL    HW216386   1.141   0.294   8.989  2.2895  1.8170 -2.4962
 1643SOL     OW16387   0.243   4.446   4.638 -0.0069 -0.3178 -0.0337
 1643SOL    HW116388   0.181   4.517   4.622 -0.0753 -1.4004 -4.3639
 1643SOL    HW216389   0.223   4.379   4.573 -0.8094  1.5863 -1.7844
 1644SOL     OW16390   1.567   1.964  15.653  0.2789  0.0411  0.2750
 1644SOL    HW116391   1.559   1.943  15.746  2.8183  0.8064  0.6777
 1644SOL    HW216392   1.483   2.008  15.642  1.2777  1.5452 -1.3449
 1645SOL     OW16393   1.207   1.623   0.682 -0.2306 -0.2342 -0.7467
 1645SOL    HW116394   1.172   1.560   0.745 -1.5690  1.7868  0.5324
 1645SOL    HW216395   1.292   1.586   0.657  0.2287  0.2859  0.0282
 1646SOL     OW16396   3.962   4.029   7.539 -0.0944 -0.1501 -0.3780
 1646SOL    HW116397   4.007   4.056   7.619  3.1519 -0.5407 -2.0438
 1646SOL    HW216398   4.005   4.091   7.479 -0.6132 -1.3733 -2.0278
 1647SOL     OW16399   2.629   2.565   2.427 -0.1701 -0.3687  0.6760
 1647SOL    HW116400   2.624   2.588   2.519 -0.5691 -3.0609  1.3295
 1647SOL    HW216401   2.722   2.583   2.410 -0.0975 -0.2034  1.2827
 1648SOL     OW16402   1.621   3.552   7.816  0.4323  0.4679  0.2217
 1648SOL    HW116403   1.598   3.632   7.864  0.0532  0.5762 -0.1430
 1648SOL    HW216404   1.675   3.597   7.751  1.4728 -0.8102  0.2210
 1649SOL     OW16405   2.995   1.717   5.936  0.2211  0.0096  0.3782
 1649SOL    HW116406   3.046   1.799   5.939 -0.3249  0.3357  0.6433
 1649SOL    HW216407   2.940   1.718   6.014 -0.3225 -0.7389  0.0017
 1650SOL     OW16408   0.521   3.328   8.126 -0.1967 -0.6260 -0.5508
 1650SOL    HW116409   0.592   3.388   8.151 -2.1277  1.8253 -0.9775
 1650SOL    HW216410   0.504   3.280   8.207  2.0797 -1.3694 -0.5059
 1651SOL     OW16411   3.698   1.192   7.950  0.5737  0.1818 -0.1557
 1651SOL    HW116412   3.635   1.248   7.906  1.0006  0.9032  0.1481
 1651SOL    HW216413   3.642   1.137   8.004 -2.2020  2.0217 -1.1772
 1652SOL     OW16414   3.309   2.746   3.043 -0.0962 -0.3841  0.8031
 1652SOL    HW116415   3.352   2.703   3.116  1.7392  2.3583  1.3167
 1652SOL    HW216416   3.303   2.836   3.076  0.5278 -1.1809  3.1019
 1653SOL     OW16417   4.398   0.004  15.297 -0.2576  0.1074 -0.7823
 1653SOL    HW116418   4.352   4.699  15.218  0.2399 -0.6055 -0.8378
 1653SOL    HW216419   4.473   0.038  15.249  0.6954  0.7414  1.1313
 1654SOL     OW16420   0.277   1.109   1.142 -0.0850 -0.4644  0.2185
 1654SOL    HW116421   0.317   1.057   1.073  0.3951  1.8478 -1.2202
 1654SOL    HW216422   0.248   1.039   1.201 -1.1256  0.6925  1.1010
 1655SOL     OW16423   1.904   2.600   3.877 -0.0858 -0.3038  0.5830
 1655SOL    HW116424   1.853   2.646   3.810  1.6346 -0.8689 -1.1173
 1655SOL    HW216425   1.837   2.537   3.905 -2.7798  1.4572 -1.8520
 1656SOL     OW16426   0.712   1.082   5.633 -0.3602 -0.0739 -0.3129
 1656SOL    HW116427   0.763   1.008   5.665 -1.1928  0.7486  2.8545
 1656SOL    HW216428   0.631   1.070   5.682  0.2469  1.3113  1.0347
 1657SOL     OW16429   4.630   4.646   5.057  0.7703 -0.6069 -0.3232
 1657SOL    HW116430   4.668   4.654   5.145 -0.6858 -3.3674  0.5679
 1657SOL    HW216431   4.701   4.596   5.018  0.6781 -0.1208 -1.1046
 1658SOL     OW16432   2.151   0.829  13.646  0.4581  0.1175 -0.2291
 1658SOL    HW116433   2.102   0.877  13.580 -2.7242 -0.2167  1.8917
 1658SOL    HW216434   2.229   0.821  13.591  0.5605 -0.6317  0.0167
 1659SOL     OW16435   3.332   1.932   6.563 -0.2124  0.1698 -0.1469
 1659SOL    HW116436   3.370   1.845   6.554 -2.3014 -0.6508 -0.8889
 1659SOL    HW216437   3.295   1.930   6.652  0.9249  1.7214  0.3740
 1660SOL     OW16438   2.900   3.296   9.332  0.4437 -0.0223  0.3821
 1660SOL    HW116439   2.877   3.378   9.374  0.4490  0.1347  0.0787
 1660SOL    HW216440   2.885   3.230   9.400  3.5873 -1.9217 -0.7293
 1661SOL     OW16441   2.572   1.034   5.321 -0.3123  0.1290  0.4590
 1661SOL    HW116442   2.496   0.977   5.329 -1.4647  1.6771  0.7557
 1661SOL    HW216443   2.560   1.049   5.227  0.6771 -0.9554  0.1695
 1662SOL     OW16444   2.734   3.460   4.042  0.2743  0.3355 -0.2449
 1662SOL    HW116445   2.790   3.483   4.116  1.9412 -1.8733 -0.8449
 1662SOL    HW216446   2.786   3.398   3.991  2.6766  2.5095 -0.4445
 1663SOL     OW16447   0.588   2.207   3.226 -0.2522 -0.3236 -1.0475
 1663SOL    HW116448   0.499   2.176   3.207 -0.3311 -0.4632 -0.4477
 1663SOL    HW216449   0.607   2.146   3.298 -0.7104 -0.0700 -0.7101
 1664SOL     OW16450   1.707   4.063   6.625 -0.6485  0.3754 -0.1854
 1664SOL    HW116451   1.652   4.115   6.684 -0.0445  1.6411 -0.7648
 1664SOL    HW216452   1.652   3.996   6.585 -1.4770  0.8173  0.2120
 1665SOL     OW16453   2.160   3.123  13.319  0.2460 -0.1221 -0.4435
 1665SOL    HW116454   2.146   3.163  13.404  0.5586  0.0546 -0.4755
 1665SOL    HW216455   2.174   3.030  13.339 -1.1975 -0.2599 -0.0594
 1666SOL     OW16456   0.441   0.296   5.603  0.3870 -0.4727 -0.3006
 1666SOL    HW116457   0.353   0.335   5.605  0.4807 -0.3225  1.0192
 1666SOL    HW216458   0.483   0.351   5.537 -1.4082  1.6944  0.3341
 1667SOL     OW16459   1.806   3.215   7.191 -0.2600 -0.4125 -0.7767
 1667SOL    HW116460   1.800   3.143   7.254 -2.4225  2.2563  2.0555
 1667SOL    HW216461   1.779   3.175   7.108 -3.2287  2.3073 -1.1008
 1668SOL     OW16462   2.266   1.550   2.977  0.1749 -0.4351 -0.1941
 1668SOL    HW116463   2.198   1.589   2.922 -0.2806  2.0708  2.1506
 1668SOL    HW216464   2.342   1.607   2.963  0.4720 -0.8207 -0.1560
 1669SOL     OW16465   0.431   3.732  17.034 -0.3168 -0.0038 -0.2371
 1669SOL    HW116466   0.452   3.642  17.058 -2.4196 -0.2012  0.8301
 1669SOL    HW216467   0.338   3.723  17.016 -0.4573 -1.2192  1.1588
 1670SOL     OW16468   4.428   0.744  17.401  0.6701 -0.2316 -0.0659
 1670SOL    HW116469   4.463   0.704  17.481  0.5225 -1.2943 -0.5270
 1670SOL    HW216470   4.403   0.828  17.440 -0.1418 -1.1241  1.3299
 1671SOL     OW16471   3.533   2.186   7.664 -0.2236 -0.4416  0.0271
 1671SOL    HW116472   3.563   2.099   7.638 -0.7036 -0.6091  0.0288
 1671SOL    HW216473   3.589   2.203   7.739  0.7438  1.2739 -1.0726
 1672SOL     OW16474   3.194   0.188   6.033  0.4484  0.8557  0.2428
 1672SOL    HW116475   3.250   0.222   5.964 -0.1075 -0.1573 -0.7043
 1672SOL    HW216476   3.240   0.199   6.117  3.4435  1.7932 -1.5270
 1673SOL     OW16477   3.207   2.613   2.126 -0.1400 -0.0077 -0.2812
 1673SOL    HW116478   3.233   2.615   2.033 -0.8881  1.3919 -0.4578
 1673SOL    HW216479   3.120   2.576   2.113 -0.2004  0.5074 -1.4237
 1674SOL     OW16480   4.099   1.641  16.789  0.2119  0.1946  0.0221
 1674SOL    HW116481   4.109   1.736  16.796 -0.6167  0.2482  0.4898
 1674SOL    HW216482   4.157   1.605  16.855 -2.3168  0.2754  2.2954
 1675SOL     OW16483   2.494   1.148   1.055 -0.0421 -0.0567 -0.0195
 1675SOL    HW116484   2.538   1.065   1.076  1.8438  1.0708  0.4422
 1675SOL    HW216485   2.565   1.184   1.001  0.2665 -2.6353 -1.3499
 1676SOL     OW16486   0.597   3.499   0.722 -0.4347  0.2021 -0.4655
 1676SOL    HW116487   0.632   3.585   0.746  0.4037 -0.1087 -0.6098
 1676SOL    HW216488   0.586   3.452   0.805 -0.3739  0.5858 -0.2355
 1677SOL     OW16489   2.825   3.732   8.424 -0.6669  0.8783 -0.0341
 1677SOL    HW116490   2.747   3.787   8.423 -0.0727  1.7749  1.7814
 1677SOL    HW216491   2.804   3.662   8.486 -1.3668  2.0586  1.0517
 1678SOL     OW16492   0.480   2.452   7.529 -0.6856  0.2990 -0.8531
 1678SOL    HW116493   0.419   2.495   7.469 -3.2355  1.4119  2.5333
 1678SOL    HW216494   0.468   2.505   7.607 -0.3675  0.2758 -0.7888
 1679SOL     OW16495   3.482   1.467   8.550  0.0371  0.3068 -0.6294
 1679SOL    HW116496   3.498   1.447   8.643 -0.9266 -1.5107 -0.8426
 1679SOL    HW216497   3.566   1.491   8.513  0.5892 -1.2128 -0.3587
 1680SOL     OW16498   4.062   1.308   6.766  0.1360 -0.1249 -0.0679
 1680SOL    HW116499   4.145   1.270   6.738 -0.0881  0.3765 -1.4327
 1680SOL    HW216500   4.089   1.354   6.845 -2.7293  1.0226  0.2507
 1681SOL     OW16501   1.074   2.775   4.765 -0.2969 -0.2500  0.7300
 1681SOL    HW116502   1.162   2.741   4.750  0.0241  1.0470 -0.3465
 1681SOL    HW216503   1.063   2.721   4.843  1.1828  1.1586  1.9257
 1682SOL     OW16504   1.532   0.429   2.009  0.0579  0.0980  0.1253
 1682SOL    HW116505   1.566   0.343   1.987  1.0123  0.4288  0.2933
 1682SOL    HW216506   1.477   0.441   1.931 -3.1589  0.6487  2.4703
 1683SOL     OW16507   2.046   1.357   7.520 -0.0226 -0.2494  0.5154
 1683SOL    HW116508   2.073   1.322   7.435 -0.7535 -0.1347  0.2342
 1683SOL    HW216509   1.959   1.392   7.498  0.5258  1.7000  1.4396
 1684SOL     OW16510   3.251   1.338  12.939  0.0162  0.4220 -0.0116
 1684SOL    HW116511   3.213   1.417  12.977 -2.0889  0.4954 -2.2911
 1684SOL    HW216512   3.278   1.381  12.858 -0.2513  2.8761  1.2180
 1685SOL     OW16513   4.684   0.010   2.574  1.0567 -0.6528  0.2873
 1685SOL    HW116514   4.657   0.095   2.539  2.4421 -0.2683  0.1380
 1685SOL    HW216515   0.040   0.039   2.623  1.8572 -0.9599 -0.7863
 1686SOL     OW16516   2.122   1.542   3.526 -0.2966  0.1243 -0.5625
 1686SOL    HW116517   2.182   1.473   3.556 -1.4467 -0.2532  0.8903
 1686SOL    HW216518   2.136   1.523   3.433 -0.8514 -2.7582 -0.0514
 1687SOL     OW16519   0.666   1.327   5.302 -0.1377 -0.1608  0.0556
 1687SOL    HW116520   0.578   1.323   5.263  0.3499 -0.3916 -1.0257
 1687SOL    HW216521   0.664   1.405   5.358  0.6334 -1.4431  1.8796
 1688SOL     OW16522   1.096   2.730   1.763  0.6086  0.3414 -0.3549
 1688SOL    HW116523   1.174   2.757   1.715  0.1922  1.6928 -0.2701
 1688SOL    HW216524   1.113   2.732   1.857  2.9561  1.9102 -0.8326
 1689SOL     OW16525   0.532   2.779   4.828  0.5433  0.5857  0.1852
 1689SOL    HW116526   0.600   2.807   4.888  1.0193  1.7296 -0.8827
 1689SOL    HW216527   0.583   2.788   4.747 -3.0167  0.6782 -2.0847
 1690SOL     OW16528   4.680   4.623   3.536  0.7164  0.3071 -0.1599
 1690SOL    HW116529   4.626   4.701   3.537  0.4691  0.1439 -0.6714
 1690SOL    HW216530   4.658   4.588   3.622  0.4786  0.5063 -0.1429
 1691SOL     OW16531   1.688   1.592   1.671 -0.1010  0.4237 -0.4719
 1691SOL    HW116532   1.713   1.504   1.643  0.0014  0.6070 -0.9470
 1691SOL    HW216533   1.755   1.637   1.619  2.1726 -0.3635  1.7748
 1692SOL     OW16534   0.087   1.445  16.286  0.2656  0.1472  0.3169
 1692SOL    HW116535   0.029   1.495  16.228  0.0900  1.1318  1.3330
 1692SOL    HW216536   0.160   1.434  16.226 -0.3697 -0.4041 -0.3572
 1693SOL     OW16537   0.707   3.773  10.345  0.0466  0.7479 -0.2824
 1693SOL    HW116538   0.688   3.731  10.428  1.4707 -1.4175 -1.0525
 1693SOL    HW216539   0.791   3.734  10.321 -0.1341 -0.1597  0.5960
 1694SOL     OW16540   0.728   0.672   5.867  0.1902  0.1272 -0.6635
 1694SOL    HW116541   0.798   0.627   5.820  2.4640  0.7466  2.1489
 1694SOL    HW216542   0.679   0.591   5.875  0.1915 -0.0700 -2.5041
 1695SOL     OW16543   4.140   1.451  13.412  0.1570 -0.3069 -0.1816
 1695SOL    HW116544   4.233   1.470  13.409  0.0791  0.0221 -0.5085
 1695SOL    HW216545   4.126   1.402  13.330  0.7474 -0.5057 -0.1595
 1696SOL     OW16546   2.715   2.406   4.864 -0.1954  0.3650  0.0752
 1696SOL    HW116547   2.752   2.466   4.929 -0.6734  0.4837  0.2355
 1696SOL    HW216548   2.665   2.335   4.906 -1.1809 -0.2370 -2.1119
 1697SOL     OW16549   4.699   0.047   8.600 -0.2951 -0.1093  0.0269
 1697SOL    HW116550   4.609   0.030   8.570  0.4916  2.0586 -3.5938
 1697SOL    HW216551   4.712   0.021   8.691 -0.5037  1.0955  0.3983
 1698SOL     OW16552   4.369   3.427   1.743  0.2888  0.5495 -0.1709
 1698SOL    HW116553   4.358   3.332   1.741 -0.0527  0.6684 -3.3608
 1698SOL    HW216554   4.431   3.432   1.670  2.6579 -0.2840  1.7671
 1699SOL     OW16555   4.080   3.971   1.060 -0.8945  0.0289 -0.1680
 1699SOL    HW116556   4.160   3.960   1.112 -0.2246  0.7288 -1.0547
 1699SOL    HW216557   4.018   3.994   1.129 -0.2105 -0.8798  0.7538
 1700SOL     OW16558   1.081   1.760   7.584  0.8280 -0.1192  0.4062
 1700SOL    HW116559   1.050   1.693   7.646 -1.5376 -0.2528 -0.9257
 1700SOL    HW216560   1.061   1.841   7.631  1.5674 -0.0588  0.6091
 1701SOL     OW16561   0.770   4.230   6.590 -0.1264  0.3044 -0.3495
 1701SOL    HW116562   0.680   4.216   6.619 -0.7052  1.4403 -1.6206
 1701SOL    HW216563   0.776   4.188   6.504 -0.4483 -2.0809  0.8006
 1702SOL     OW16564   1.346   2.085  15.747 -0.3795 -0.4408  0.0563
 1702SOL    HW116565   1.367   2.172  15.715  0.9722 -1.3584 -1.5376
 1702SOL    HW216566   1.342   2.098  15.841 -1.1605  1.2458 -0.2114
 1703SOL     OW16567   3.977   0.669   6.363 -0.2096  0.0241  0.2626
 1703SOL    HW116568   4.064   0.631   6.374 -0.2426 -0.9160 -2.7017
 1703SOL    HW216569   3.983   0.688   6.269 -0.1383 -0.4976  0.1614
 1704SOL     OW16570   3.130   0.393   2.872 -0.4733 -0.3222  0.4653
 1704SOL    HW116571   3.091   0.314   2.912  1.2339 -0.2248  2.3412
 1704SOL    HW216572   3.096   0.388   2.783 -1.1985  0.4348  0.6974
 1705SOL     OW16573   3.548   2.109   0.588  0.3951  0.2504 -0.0821
 1705SOL    HW116574   3.488   2.107   0.663  0.6625 -1.5145  0.1006
 1705SOL    HW216575   3.484   2.094   0.518  1.4161  1.4527 -1.2514
 1706SOL     OW16576   2.452   4.463  13.353  0.0194  0.0543  0.1205
 1706SOL    HW116577   2.469   4.557  13.341  0.1120  0.1638  1.1210
 1706SOL    HW216578   2.386   4.462  13.422  0.0180 -0.9342  0.0990
 1707SOL     OW16579   2.361   2.595   5.781 -0.2538 -0.5415  0.2064
 1707SOL    HW116580   2.295   2.576   5.716 -0.7642  0.9880  0.2760
 1707SOL    HW216581   2.335   2.685   5.797  2.0258  0.8209 -3.8346
 1708SOL     OW16582   0.882   1.017   6.604 -0.0398  0.2967  0.7884
 1708SOL    HW116583   0.819   0.953   6.636  1.0277 -1.6429 -0.9900
 1708SOL    HW216584   0.943   0.964   6.553 -1.8353 -0.8951 -0.1041
 1709SOL     OW16585   4.651   2.748   5.612 -0.2385  1.0189  0.0794
 1709SOL    HW116586   4.631   2.723   5.522  2.8576 -0.7174 -0.1438
 1709SOL    HW216587   4.615   2.677   5.666  1.7411  0.2581  0.4072
 1710SOL     OW16588   0.197   1.694   2.606 -0.5232 -0.0852  0.1657
 1710SOL    HW116589   0.258   1.726   2.539 -3.0978  0.5986 -1.8355
 1710SOL    HW216590   0.117   1.706   2.556  0.2231 -0.4525 -1.1053
 1711SOL     OW16591   3.848   3.966  12.828 -0.7572 -0.0229  0.4636
 1711SOL    HW116592   3.911   4.033  12.800 -0.1219 -1.4275 -1.4192
 1711SOL    HW216593   3.905   3.905  12.873  1.9413 -0.5867 -3.6896
 1712SOL     OW16594   3.792   2.316  15.673  0.1381  0.6221  0.4258
 1712SOL    HW116595   3.752   2.260  15.607  0.9129 -1.3754  1.6296
 1712SOL    HW216596   3.870   2.265  15.695 -0.7694 -1.3000 -0.7704
 1713SOL     OW16597   1.312   0.568   8.486 -0.5059  0.1596  0.0609
 1713SOL    HW116598   1.341   0.503   8.422  1.1007  0.9314  0.0034
 1713SOL    HW216599   1.373   0.542   8.555 -0.1137  1.9114  0.3772
 1714SOL     OW16600   4.426   3.790   5.984  0.4886  0.2654  0.0281
 1714SOL    HW116601   4.372   3.711   5.988  0.7681  0.0482 -0.4613
 1714SOL    HW216602   4.372   3.858   5.943  0.9655  0.4453 -0.3114
 1715SOL     OW16603   3.218   1.405   6.180  0.3354 -0.2586 -0.0793
 1715SOL    HW116604   3.310   1.404   6.153  0.0532  0.3588 -1.0662
 1715SOL    HW216605   3.214   1.472   6.249 -1.2652 -0.4974  0.0442
 1716SOL     OW16606   0.751   2.052   0.452 -0.1042 -0.1572 -0.1741
 1716SOL    HW116607   0.744   2.139   0.414 -0.4674 -0.5537 -1.0173
 1716SOL    HW216608   0.777   2.075   0.541 -0.5696  2.2490 -0.6728
 1717SOL     OW16609   1.253   0.167   9.045  0.0402  0.4186 -0.0371
 1717SOL    HW116610   1.277   0.094   8.988 -1.8759 -0.3594  0.1564
 1717SOL    HW216611   1.341   0.195   9.069  0.7769  0.2053 -2.4210
 1718SOL     OW16612   1.165   1.896   2.186  0.6087  0.5816 -0.1312
 1718SOL    HW116613   1.259   1.887   2.170  1.1732  1.4200  2.7174
 1718SOL    HW216614   1.165   1.938   2.272  1.0572  0.6709 -0.1757
 1719SOL     OW16615   4.656   0.854  16.048 -0.4359  0.0363 -0.2612
 1719SOL    HW116616   4.718   0.868  15.977  2.2089  1.1738  2.2543
 1719SOL    HW216617   4.645   0.944  16.077  0.9796  0.4278 -0.9294
 1720SOL     OW16618   2.389   2.724  11.895 -0.2589  0.1382  0.3690
 1720SOL    HW116619   2.480   2.721  11.923 -0.2810  3.0319  0.6943
 1720SOL    HW216620   2.385   2.803  11.842  1.7022 -0.6018 -0.8712
 1721SOL     OW16621   1.908   3.226  13.097 -0.0384  0.0883  0.2606
 1721SOL    HW116622   1.862   3.173  13.162 -1.8816  0.5154 -0.7068
 1721SOL    HW216623   1.973   3.264  13.157 -0.1018  0.9530 -0.2207
 1722SOL     OW16624   2.195   2.663   6.027 -0.0892  0.7097  0.6786
 1722SOL    HW116625   2.223   2.652   6.117 -0.2276  0.2047  0.6610
 1722SOL    HW216626   2.244   2.743   6.008  1.0836  0.5301  2.9795
 1723SOL     OW16627   0.373   4.128  11.759  0.3939 -0.0258  0.5770
 1723SOL    HW116628   0.370   4.218  11.724 -4.1647 -0.8174 -1.1045
 1723SOL    HW216629   0.435   4.139  11.830  1.0951  1.6293 -0.2687
 1724SOL     OW16630   2.213   3.593   7.603 -0.3022 -0.0987  0.0304
 1724SOL    HW116631   2.298   3.634   7.591  0.1421 -0.2030  2.7901
 1724SOL    HW216632   2.230   3.551   7.688  1.2071  0.9063  0.2151
 1725SOL     OW16633   2.065   2.462   1.718  0.1328  0.1720 -0.2540
 1725SOL    HW116634   2.060   2.414   1.801 -0.7509  1.0378  0.2005
 1725SOL    HW216635   2.143   2.519   1.719  0.0469  0.2940 -0.4889
 1726SOL     OW16636   1.125   1.197  10.011  0.6463 -0.1272  0.2228
 1726SOL    HW116637   1.147   1.270   9.954  0.6152  1.3383  2.0717
 1726SOL    HW216638   1.210   1.155  10.024  0.0476 -0.1279  4.2235
 1727SOL     OW16639   4.152   3.992   0.809 -0.1369  0.4756 -0.2484
 1727SOL    HW116640   4.124   3.981   0.900 -4.3778 -0.2009 -1.6819
 1727SOL    HW216641   4.097   3.932   0.760  2.8598 -2.6218  0.1236
 1728SOL     OW16642   2.317   1.178   7.333  0.2413 -0.4118  0.5656
 1728SOL    HW116643   2.371   1.099   7.337 -0.7381 -1.1636 -1.2491
 1728SOL    HW216644   2.227   1.146   7.325  0.5110 -0.9451 -0.3138
 1729SOL     OW16645   2.562   2.765  13.535  0.0222  0.4730  0.8496
 1729SOL    HW116646   2.579   2.673  13.554 -1.2541 -0.0472 -0.5599
 1729SOL    HW216647   2.467   2.760  13.527  0.1481 -0.4234 -0.0640
 1730SOL     OW16648   1.672   3.204  15.389 -0.2160  0.1479 -1.2570
 1730SOL    HW116649   1.635   3.116  15.381  0.2785 -0.1959  0.2432
 1730SOL    HW216650   1.682   3.214  15.484  0.5286  1.6957 -1.5002
 1731SOL     OW16651   1.459   1.790   0.350 -0.4093  0.2043 -0.3235
 1731SOL    HW116652   1.401   1.787   0.274 -0.6075 -0.2469 -0.1545
 1731SOL    HW216653   1.404   1.849   0.402 -0.7603  1.4473 -2.1011
 1732SOL     OW16654   2.678   0.267  11.341 -0.1103 -0.4482 -0.2535
 1732SOL    HW116655   2.695   0.236  11.430  2.1238 -3.5506 -1.7439
 1732SOL    HW216656   2.748   0.236  11.283  1.9273  2.1183  0.8320
 1733SOL     OW16657   2.308   1.167   7.781 -0.0694  0.5645 -0.5099
 1733SOL    HW116658   2.216   1.164   7.755 -0.5455  1.6308  1.0251
 1733SOL    HW216659   2.324   1.245   7.728  0.6543  1.0959  0.4847
 1734SOL     OW16660   0.543   4.139   8.712 -0.3222  0.1320  0.6303
 1734SOL    HW116661   0.559   4.094   8.628  1.0010  1.4121  0.2088
 1734SOL    HW216662   0.549   4.233   8.695  1.6954 -0.1210 -0.1505
 1735SOL     OW16663   3.930   3.606   0.560  0.1985 -0.0475 -0.0028
 1735SOL    HW116664   4.020   3.612   0.528  0.8482 -4.4790  0.9785
 1735SOL    HW216665   3.926   3.675   0.626 -2.1785  0.2173 -0.4167
 1736SOL     OW16666   4.138   4.327   3.975  0.2924 -0.1989 -0.0937
 1736SOL    HW116667   4.087   4.265   4.027  1.0936  1.1992  2.3467
 1736SOL    HW216668   4.159   4.390   4.044 -0.3560 -0.4688  0.3457
 1737SOL     OW16669   2.357   4.105   4.494  0.0538  0.1949  0.0036
 1737SOL    HW116670   2.328   4.196   4.490 -0.6898  0.0051  1.3066
 1737SOL    HW216671   2.315   4.080   4.576 -1.4424  2.3767 -0.0815
 1738SOL     OW16672   2.788   2.130   6.054  0.4706  0.0337  0.8150
 1738SOL    HW116673   2.779   2.060   5.989 -1.3173  1.1458 -0.1384
 1738SOL    HW216674   2.699   2.166   6.046  0.9250  1.0621  0.3478
 1739SOL     OW16675   0.912   2.752   0.272  0.3829 -0.0035 -0.3286
 1739SOL    HW116676   0.853   2.731   0.199  0.0962  0.9926 -0.3841
 1739SOL    HW216677   0.898   2.846   0.283 -0.8273 -0.3491  1.1058
 1740SOL     OW16678   0.056   1.541   9.319  0.5538  0.4259  0.5730
 1740SOL    HW116679   4.709   1.500   9.372 -1.1149  2.5252  0.0707
 1740SOL    HW216680   0.054   1.504   9.231  0.4184  0.3787  0.5956
 1741SOL     OW16681   4.148   4.351   4.512  0.4330  0.2532  0.0855
 1741SOL    HW116682   4.086   4.279   4.500  1.8494 -0.6990 -1.5462
 1741SOL    HW216683   4.231   4.304   4.504  0.9516  0.2006  5.6769
 1742SOL     OW16684   0.175   3.676   5.548 -0.2995  0.1631 -1.1375
 1742SOL    HW116685   0.187   3.619   5.623  2.8443  1.2919 -0.7789
 1742SOL    HW216686   0.265   3.679   5.515  0.0664  2.1598  0.0332
 1743SOL     OW16687   3.432   2.582   1.112 -0.0638  0.1979 -0.1766
 1743SOL    HW116688   3.439   2.635   1.192 -0.6650  1.2635 -0.8287
 1743SOL    HW216689   3.525   2.560   1.111 -0.3438 -1.0063  0.5614
 1744SOL     OW16690   1.427   3.936   0.786 -0.1573 -0.4469 -0.1455
 1744SOL    HW116691   1.387   3.851   0.807  1.0466 -0.8744  0.4354
 1744SOL    HW216692   1.389   3.953   0.700  0.3137  0.5159 -0.1549
 1745SOL     OW16693   1.602   2.625  14.105  0.2862 -0.4146  0.6347
 1745SOL    HW116694   1.511   2.597  14.108  0.0940  0.0292 -0.9745
 1745SOL    HW216695   1.653   2.549  14.134  1.6263  0.5840  0.8864
 1746SOL     OW16696   4.078   2.860   8.647 -0.1649 -0.6399 -0.0448
 1746SOL    HW116697   4.003   2.807   8.621  0.5562 -1.0311 -1.3525
 1746SOL    HW216698   4.121   2.822   8.724 -1.1745 -1.9113 -0.1180
 1747SOL     OW16699   2.499   4.028   3.130  0.2430  0.1823  0.9086
 1747SOL    HW116700   2.452   4.102   3.168 -0.2044  0.7141 -0.6924
 1747SOL    HW216701   2.428   3.964   3.123 -0.6945  1.3718 -0.3107
 1748SOL     OW16702   2.964   2.339   5.497 -0.6163  0.3765  0.4123
 1748SOL    HW116703   3.027   2.316   5.429 -1.0223  0.6215 -0.0545
 1748SOL    HW216704   2.977   2.434   5.505 -1.7791  0.3563  2.4322
 1749SOL     OW16705   2.726   1.652   6.870  0.3455 -0.3040 -0.1086
 1749SOL    HW116706   2.702   1.743   6.852 -1.2533 -0.7958 -0.5047
 1749SOL    HW216707   2.658   1.625   6.932  0.8375  1.1499  1.0737
 1750SOL     OW16708   2.492   2.130  16.782  0.3938 -0.3381  0.2766
 1750SOL    HW116709   2.567   2.125  16.723 -0.2087  2.1188 -0.6704
 1750SOL    HW216710   2.461   2.040  16.771 -1.3589  0.2209  0.6104
 1751SOL     OW16711   0.017   2.326  16.662  0.6306 -0.2345  0.0665
 1751SOL    HW116712   0.044   2.355  16.574 -1.5555  2.6028  0.3232
 1751SOL    HW216713   4.647   2.352  16.676  0.6727  0.7770 -1.5235
 1752SOL     OW16714   1.430   0.416  15.945 -0.1052 -0.1784  0.1072
 1752SOL    HW116715   1.493   0.415  15.873  0.5922  1.7925  0.6787
 1752SOL    HW216716   1.384   0.336  15.921  2.4214 -1.4245 -0.4991
 1753SOL     OW16717   2.420   1.851   6.755  0.2796  0.7687 -0.0961
 1753SOL    HW116718   2.377   1.769   6.780 -0.5239  1.5182  0.9736
 1753SOL    HW216719   2.419   1.907   6.833  2.4267  0.4498  0.1617
 1754SOL     OW16720   4.561   3.203   0.597  0.2752  0.8614  0.2277
 1754SOL    HW116721   4.582   3.114   0.626 -2.2399 -0.1669 -1.0840
 1754SOL    HW216722   4.536   3.195   0.505  0.0733  1.4319  0.2328
 1755SOL     OW16723   0.912   0.700   4.557  0.0048 -0.1612  0.2561
 1755SOL    HW116724   0.974   0.658   4.617  0.6865 -1.0289 -1.0762
 1755SOL    HW216725   0.964   0.690   4.478 -1.3077  3.1943 -1.0297
 1756SOL     OW16726   3.739   1.610   5.305  0.2335 -0.7282  0.1412
 1756SOL    HW116727   3.710   1.689   5.351 -0.7556 -1.8150  1.3875
 1756SOL    HW216728   3.748   1.645   5.216 -2.7724 -1.1413 -0.3588
 1757SOL     OW16729   4.465   1.873   4.703 -0.2620 -0.4038 -0.4839
 1757SOL    HW116730   4.386   1.820   4.693 -1.5829  1.1823  1.4795
 1757SOL    HW216731   4.527   1.813   4.744 -0.2360 -0.1750 -0.1848
 1758SOL     OW16732   1.220   0.317  13.817 -0.2182 -0.1054  0.8668
 1758SOL    HW116733   1.226   0.238  13.763 -0.5305  0.2804  0.2618
 1758SOL    HW216734   1.172   0.374  13.756 -0.3456 -0.2889  0.7931
 1759SOL     OW16735   1.081   1.314   2.813 -0.0034 -0.2304  0.6383
 1759SOL    HW116736   0.998   1.266   2.812 -1.4878  2.2955  0.3612
 1759SOL    HW216737   1.055   1.396   2.857  2.5975  1.8340 -1.6558
 1760SOL     OW16738   0.231   2.307   6.963  0.3705  0.4461 -0.2571
 1760SOL    HW116739   0.199   2.329   7.050  0.2796 -2.5491  0.4588
 1760SOL    HW216740   0.263   2.217   6.964 -0.6808  0.0957  2.3290
 1761SOL     OW16741   4.549   4.214  10.981 -0.6002  0.1208 -0.2871
 1761SOL    HW116742   4.525   4.243  10.893  1.6091 -0.1927 -0.9997
 1761SOL    HW216743   4.614   4.146  10.961  1.8233  2.4385 -0.3245
 1762SOL     OW16744   4.573   1.922   2.677 -0.1839  0.7095 -0.1590
 1762SOL    HW116745   4.562   1.907   2.584  1.6250  0.1910 -0.3028
 1762SOL    HW216746   4.544   2.013   2.682 -1.0921  0.4581 -0.8921
 1763SOL     OW16747   4.695   0.158   2.189 -0.0930 -0.1750 -0.3163
 1763SOL    HW116748   0.064   0.128   2.179 -0.2195 -0.1770 -1.4722
 1763SOL    HW216749   4.680   0.209   2.109 -1.5991  0.2938  0.2688
 1764SOL     OW16750   3.675   0.128   0.757  0.1736  0.1690  0.2253
 1764SOL    HW116751   3.682   0.038   0.726  1.0160 -0.4265  2.1762
 1764SOL    HW216752   3.757   0.169   0.729 -0.6001  0.1849 -2.0210
 1765SOL     OW16753   3.449   4.199  10.212  0.5603 -0.7413 -0.0952
 1765SOL    HW116754   3.468   4.107  10.196 -1.7071 -1.4630  1.3496
 1765SOL    HW216755   3.357   4.211  10.189  0.4337 -1.7030 -0.0848
 1766SOL     OW16756   3.291   1.028   7.156 -0.4499  0.0415 -0.3226
 1766SOL    HW116757   3.256   1.048   7.069  0.4559  3.4364  0.0618
 1766SOL    HW216758   3.339   1.110   7.172 -2.1996  0.6528  1.7914
 1767SOL     OW16759   1.944   3.895   4.513 -0.2296 -0.3534  0.4126
 1767SOL    HW116760   1.888   3.972   4.510 -0.3087 -0.4342 -0.2594
 1767SOL    HW216761   1.895   3.846   4.447 -2.2683 -1.0214  2.4334
 1768SOL     OW16762   2.777   2.936   2.729  0.9610 -0.8399  0.4725
 1768SOL    HW116763   2.777   2.860   2.788  1.1174 -1.2263 -0.0252
 1768SOL    HW216764   2.816   3.001   2.787 -0.3473 -0.3751  0.8499
 1769SOL     OW16765   2.689   1.441  17.514  0.1882  0.1578 -0.6171
 1769SOL    HW116766   2.699   1.534  17.495 -0.4644  0.4072  0.3262
 1769SOL    HW216767   2.696   1.439  17.609  1.1610  2.5562 -0.6280
 1770SOL     OW16768   4.566   1.622  12.681 -0.2837 -0.1148  0.5803
 1770SOL    HW116769   4.487   1.644  12.730  0.7839 -0.1583  2.2981
 1770SOL    HW216770   4.631   1.611  12.750 -0.5954  0.7041  1.0046
 1771SOL     OW16771   3.707   4.606   0.646  0.6538  0.5230 -0.1189
 1771SOL    HW116772   3.779   4.544   0.651  0.9996  0.8259 -1.3407
 1771SOL    HW216773   3.743   4.667   0.582  1.0807 -1.1382 -1.4542
 1772SOL     OW16774   3.189   0.989   8.098  0.3858  0.1839  0.4755
 1772SOL    HW116775   3.222   0.939   8.172 -2.6371 -1.3870  0.7486
 1772SOL    HW216776   3.164   1.075   8.133 -0.8781  0.5268 -1.2479
 1773SOL     OW16777   2.876   4.384   9.127 -0.0246  0.3082 -0.1009
 1773SOL    HW116778   2.957   4.400   9.175  0.6106 -1.4662 -0.5934
 1773SOL    HW216779   2.904   4.338   9.048 -0.5123  1.8708 -1.2037
 1774SOL     OW16780   3.200   3.830  13.637 -0.3919 -0.7104 -0.1369
 1774SOL    HW116781   3.235   3.741  13.634 -1.2854 -1.0837  0.5300
 1774SOL    HW216782   3.120   3.827  13.689 -1.4627 -0.4332 -1.7653
 1775SOL     OW16783   4.085   0.186   5.248  0.5963  0.4626  0.2223
 1775SOL    HW116784   4.027   0.115   5.222  0.3567  1.4368 -1.8715
 1775SOL    HW216785   4.030   0.237   5.307  0.4204 -0.2621  0.6789
 1776SOL     OW16786   0.937   4.039   3.552  0.3272 -0.2776 -0.1538
 1776SOL    HW116787   0.884   4.003   3.481 -0.0665  0.8814 -0.4364
 1776SOL    HW216788   1.008   3.975   3.551 -0.7259 -1.4907  2.2051
 1777SOL     OW16789   0.139   4.630   9.341  0.0150 -0.0249  0.6944
 1777SOL    HW116790   0.139   4.695   9.411 -2.0899 -0.9981  1.5908
 1777SOL    HW216791   0.134   4.553   9.397  1.3977 -1.4752 -1.1468
 1778SOL     OW16792   3.686   4.067   2.738 -0.3519 -0.6067  0.2201
 1778SOL    HW116793   3.668   4.160   2.749 -1.6719 -0.6389 -1.7690
 1778SOL    HW216794   3.605   4.034   2.700 -0.1657 -0.0150 -0.6882
 1779SOL     OW16795   1.671   2.888  14.267  0.6411 -0.5583  0.1140
 1779SOL    HW116796   1.668   2.833  14.345 -2.2694  0.0967  0.4380
 1779SOL    HW216797   1.643   2.973  14.301  0.3858 -0.5827 -0.0408
 1780SOL     OW16798   4.647   3.720   6.955  0.2135  0.2601  0.2466
 1780SOL    HW116799   4.599   3.673   7.023 -1.1142 -0.9067 -1.4931
 1780SOL    HW216800   4.579   3.785   6.932 -0.1264 -0.4252 -0.6905
 1781SOL     OW16801   2.738   1.578  11.470  0.1445 -0.0220 -0.6129
 1781SOL    HW116802   2.708   1.656  11.424 -1.5984  1.6251  3.3382
 1781SOL    HW216803   2.833   1.578  11.460  0.1667  0.7405 -0.4103
 1782SOL     OW16804   4.621   0.627   3.241 -0.4945 -0.6272 -0.3349
 1782SOL    HW116805   4.658   0.604   3.156 -0.8593  1.9107 -1.1878
 1782SOL    HW216806   4.653   0.716   3.256 -3.8513  0.0360  2.9120
 1783SOL     OW16807   0.300   1.936   3.282 -0.0023 -0.1913  0.1453
 1783SOL    HW116808   0.246   1.942   3.360 -0.3801 -1.5784 -0.0280
 1783SOL    HW216809   0.317   2.027   3.256  2.3307 -0.8547 -0.6809
 1784SOL     OW16810   1.296   4.679  15.795  0.3690 -0.0283  0.2496
 1784SOL    HW116811   1.324   4.606  15.739 -0.0678  1.3089 -1.7086
 1784SOL    HW216812   1.373   0.013  15.786  2.4919 -3.2304 -1.1372
 1785SOL     OW16813   2.780   1.265  17.281  0.2374 -0.7911  0.1600
 1785SOL    HW116814   2.853   1.317  17.249  0.6859 -0.9645  0.9042
 1785SOL    HW216815   2.759   1.311  17.362 -0.0884  0.1798 -0.4632
 1786SOL     OW16816   1.839   1.297   3.746  0.0390 -0.2284 -0.2948
 1786SOL    HW116817   1.862   1.389   3.732 -1.6363 -0.1539 -2.4261
 1786SOL    HW216818   1.914   1.255   3.705  0.6108 -1.2012  1.7197
 1787SOL     OW16819   0.165   0.320   3.620 -0.0426 -0.2786 -0.2670
 1787SOL    HW116820   0.211   0.389   3.572 -4.1225  2.6333 -0.0417
 1787SOL    HW216821   0.081   0.331   3.576 -0.6629 -0.1671  0.9526
 1788SOL     OW16822   0.861   1.283   1.523  0.1045  0.0096 -0.0319
 1788SOL    HW116823   0.812   1.312   1.445  0.5405  0.8446  0.0004
 1788SOL    HW216824   0.793   1.289   1.590  1.6492 -0.9123  1.5806
 1789SOL     OW16825   0.192   0.738   4.060  0.5949  0.0765 -0.0043
 1789SOL    HW116826   0.163   0.655   4.098  0.8046  0.3549  0.7566
 1789SOL    HW216827   0.249   0.770   4.129 -0.1007 -3.8788  2.4087
 1790SOL     OW16828   4.021   1.227   0.042  0.0634 -0.2212  0.2400
 1790SOL    HW116829   4.053   1.317   0.036  1.2350 -0.5648  1.4470
 1790SOL    HW216830   3.927   1.235   0.060 -0.7124 -1.2891 -3.2765
 1791SOL     OW16831   4.378   4.479   5.124 -0.0479  0.2633  0.3569
 1791SOL    HW116832   4.290   4.512   5.140  0.7397  1.0341  3.1772
 1791SOL    HW216833   4.401   4.519   5.040 -1.3040 -0.7689 -0.4628
 1792SOL     OW16834   3.393   1.565   4.555  0.3712 -0.3508 -0.5344
 1792SOL    HW116835   3.405   1.544   4.648  0.0585 -0.4710 -0.5221
 1792SOL    HW216836   3.333   1.638   4.569 -1.4154 -1.8447 -0.5108
 1793SOL     OW16837   3.065   0.322   8.762  0.4663  0.5581  0.0983
 1793SOL    HW116838   2.983   0.277   8.784 -0.0462  0.5906 -1.7201
 1793SOL    HW216839   3.123   0.249   8.743  0.2124  0.7017 -1.2875
 1794SOL     OW16840   1.484   1.612  11.950  0.4489 -0.3363 -0.7105
 1794SOL    HW116841   1.487   1.677  12.020 -0.6209  1.2645 -2.1337
 1794SOL    HW216842   1.557   1.654  11.904  0.1045 -0.1356 -1.0730
 1795SOL     OW16843   0.923   0.380   8.510 -0.1876  0.0466  0.5634
 1795SOL    HW116844   0.975   0.427   8.576  1.0412 -0.8904  0.2676
 1795SOL    HW216845   0.839   0.364   8.552 -1.3178  0.6503 -1.4980
 1796SOL     OW16846   1.466   2.710   4.402 -0.4532  0.0779  0.0130
 1796SOL    HW116847   1.521   2.743   4.330  0.3039 -0.8335  0.1828
 1796SOL    HW216848   1.415   2.790   4.415  1.5844  1.8807 -3.0018
 1797SOL     OW16849   3.557   3.749   7.835 -0.2300 -0.3610 -0.0872
 1797SOL    HW116850   3.579   3.808   7.763  0.1205  0.8023  0.9644
 1797SOL    HW216851   3.644   3.746   7.877  0.5326  2.0525 -1.5101
 1798SOL     OW16852   3.579   2.182   5.376 -0.3181  0.6963 -0.1458
 1798SOL    HW116853   3.571   2.147   5.465  2.1474 -0.3322 -0.3324
 1798SOL    HW216854   3.611   2.269   5.400 -1.2169  1.3274 -1.2463
 1799SOL     OW16855   2.037   0.180  13.092 -0.0479 -0.1017 -0.0695
 1799SOL    HW116856   2.006   0.107  13.145  0.7718 -0.4648 -0.0851
 1799SOL    HW216857   2.055   0.246  13.159 -1.6864  0.1312  0.1365
 1800SOL     OW16858   3.156   3.287  13.001  0.0807 -0.0950 -0.3907
 1800SOL    HW116859   3.071   3.306  12.962  0.0949  0.3812 -0.1898
 1800SOL    HW216860   3.148   3.194  13.021 -1.9616  0.4840  1.5190
 1801SOL     OW16861   3.784   1.585   4.820 -0.0688 -0.1213 -0.5175
 1801SOL    HW116862   3.838   1.653   4.778  1.5803 -0.9055  0.3070
 1801SOL    HW216863   3.735   1.548   4.747  0.2388 -1.6951  0.0628
 1802SOL     OW16864   3.736   2.227   6.578 -0.3611 -0.2384 -0.0095
 1802SOL    HW116865   3.651   2.204   6.615  0.2822 -1.5738  0.6437
 1802SOL    HW216866   3.749   2.317   6.608  0.8036 -0.2126 -0.5992
 1803SOL     OW16867   1.340   1.088   5.585  0.1190 -0.2674  0.5736
 1803SOL    HW116868   1.399   1.012   5.580 -0.1662 -0.5557  1.5742
 1803SOL    HW216869   1.380   1.156   5.532 -0.4355 -0.8452 -0.5839
 1804SOL     OW16870   4.718   2.736   1.060  0.3888  0.3520  0.2298
 1804SOL    HW116871   4.677   2.717   1.144  0.6968 -0.3253  0.2272
 1804SOL    HW216872   4.688   2.658   1.014  0.9813 -0.3266  0.9847
 1805SOL     OW16873   0.576   0.468   3.541  0.7187  0.2145 -0.0065
 1805SOL    HW116874   0.584   0.392   3.599  0.1201  1.8754  2.2525
 1805SOL    HW216875   0.481   0.479   3.534  0.9472  1.4124 -1.2612
 1806SOL     OW16876   2.364   2.288   0.851  0.2817 -0.8566 -0.9607
 1806SOL    HW116877   2.315   2.365   0.822  0.9364 -1.0550 -2.6166
 1806SOL    HW216878   2.447   2.319   0.887 -0.1333  1.5679 -2.0533
 1807SOL     OW16879   2.173   2.468   3.802  0.1856 -0.0983  0.2634
 1807SOL    HW116880   2.188   2.399   3.867  3.7093 -0.2453 -0.6767
 1807SOL    HW216881   2.092   2.509   3.832 -0.9621 -0.4749 -2.2791
 1808SOL     OW16882   2.623   2.798   7.509  0.0557  0.0803 -0.1385
 1808SOL    HW116883   2.577   2.873   7.472  0.7528 -0.5898 -2.3457
 1808SOL    HW216884   2.683   2.847   7.564  1.9929 -1.4266 -0.9089
 1809SOL     OW16885   4.378   4.425   6.214 -0.0459 -0.3941  0.1466
 1809SOL    HW116886   4.317   4.496   6.193  0.1150 -0.3766 -0.2756
 1809SOL    HW216887   4.385   4.440   6.308  0.7859 -1.4672  0.2526
 1810SOL     OW16888   1.553   4.487   1.451 -0.0313 -0.2812  0.0838
 1810SOL    HW116889   1.619   4.430   1.491 -0.2777 -0.5640  0.0796
 1810SOL    HW216890   1.489   4.478   1.521 -0.6931 -0.9130 -0.6197
 1811SOL     OW16891   0.038   0.911  10.534  0.6890 -0.3749  0.0515
 1811SOL    HW116892   0.112   0.924  10.593  0.5806 -0.3031  0.1690
 1811SOL    HW216893   0.003   1.000  10.536  0.7918 -0.2894 -1.9349
 1812SOL     OW16894   4.325   0.447   6.600 -0.1007  0.0190  0.0197
 1812SOL    HW116895   4.415   0.442   6.567  0.6695 -1.9665  2.4210
 1812SOL    HW216896   4.351   0.418   6.687 -0.2239 -2.6943 -0.8538
 1813SOL     OW16897   3.601   0.784   2.501  0.3926 -0.0872 -0.3284
 1813SOL    HW116898   3.597   0.856   2.437 -0.2896 -0.4542 -0.6913
 1813SOL    HW216899   3.570   0.703   2.461  1.5438 -0.7628  0.1439
 1814SOL     OW16900   1.714   0.495  12.973 -0.1529  0.0191 -0.0814
 1814SOL    HW116901   1.762   0.415  12.954  0.9483  1.0246 -1.5558
 1814SOL    HW216902   1.644   0.491  12.908  0.1707 -0.4869 -0.4003
 1815SOL     OW16903   2.257   2.651   6.268 -0.2384 -0.2541 -0.2940
 1815SOL    HW116904   2.315   2.716   6.310 -2.2762  0.7021  1.0221
 1815SOL    HW216905   2.294   2.575   6.312 -4.2932 -1.9194  0.1961
 1816SOL     OW16906   0.813   4.178   6.024 -0.6057 -0.3627 -0.9112
 1816SOL    HW116907   0.777   4.186   5.935 -1.1814  0.5133 -0.6012
 1816SOL    HW216908   0.877   4.108   6.011 -0.3760 -0.6284  1.7723
 1817SOL     OW16909   3.688   4.147   8.961  0.5319 -0.3991 -0.4982
 1817SOL    HW116910   3.668   4.202   8.885 -0.9753 -1.0177 -0.5431
 1817SOL    HW216911   3.777   4.178   8.978  0.5694 -0.0684 -1.2892
 1818SOL     OW16912   4.157   4.523   9.678  0.3066  0.1652 -0.0015
 1818SOL    HW116913   4.066   4.495   9.670  0.1705  0.8470 -0.8815
 1818SOL    HW216914   4.185   4.545   9.589 -3.0959  2.3340 -0.5139
 1819SOL     OW16915   1.898   4.678   8.725 -0.3459  0.1944  0.0492
 1819SOL    HW116916   1.863   0.032   8.774  1.2990  0.9850 -0.0108
 1819SOL    HW216917   1.846   4.674   8.644 -1.9129  2.1149  0.9455
 1820SOL     OW16918   0.749   2.090  11.664 -0.0445 -0.3184 -0.0346
 1820SOL    HW116919   0.801   2.043  11.599 -0.0784  0.5700 -0.6958
 1820SOL    HW216920   0.731   2.176  11.627 -1.8374 -0.1835  1.1515
 1821SOL     OW16921   1.784   2.365   8.925  0.6942  0.2429  0.1086
 1821SOL    HW116922   1.767   2.332   8.837 -0.8576  1.6610 -0.1448
 1821SOL    HW216923   1.800   2.289   8.980 -0.6826 -0.9431 -1.1278
 1822SOL     OW16924   1.411   0.240   6.739  0.4648 -0.2620 -0.0179
 1822SOL    HW116925   1.396   0.313   6.678 -0.5595 -1.0203 -0.6653
 1822SOL    HW216926   1.449   0.169   6.687  0.4561  0.7229 -1.3846
 1823SOL     OW16927   0.094   2.130   5.626  0.0662  0.2618 -0.1230
 1823SOL    HW116928   0.175   2.121   5.576  1.0045  2.3611  0.9982
 1823SOL    HW216929   0.127   2.200   5.683 -0.6632  1.1972 -0.8455
 1824SOL     OW16930   2.290   1.839   2.114 -0.0620 -0.3644 -0.0392
 1824SOL    HW116931   2.265   1.865   2.202 -2.8084 -0.4583 -0.7910
 1824SOL    HW216932   2.208   1.793   2.094  0.5519 -1.2614 -0.4847
 1825SOL     OW16933   0.495   2.621   3.532 -0.3374 -0.3872 -0.5362
 1825SOL    HW116934   0.556   2.568   3.481  0.0279  0.0827 -0.5943
 1825SOL    HW216935   0.464   2.669   3.455  1.4735  1.7270  0.0264
 1826SOL     OW16936   2.884   0.329   9.761  0.1397 -0.6612 -0.2152
 1826SOL    HW116937   2.838   0.283   9.690 -2.6669  1.9890 -0.1222
 1826SOL    HW216938   2.902   0.409   9.712  1.5726  0.0251  1.4401
 1827SOL     OW16939   0.062   1.109   3.660  0.2017  0.4134  0.1656
 1827SOL    HW116940   0.100   1.037   3.710  1.5656  0.7648 -0.3793
 1827SOL    HW216941   0.009   1.146   3.731 -0.9544 -1.4025  0.2475
 1828SOL     OW16942   0.782   4.183  11.754 -0.1302 -0.3430  0.5273
 1828SOL    HW116943   0.735   4.157  11.833  1.5018  0.2334  1.6766
 1828SOL    HW216944   0.871   4.168  11.786  0.0370 -2.7006 -1.0339
 1829SOL     OW16945   2.745   1.929   6.854 -0.3296  0.2906 -0.2358
 1829SOL    HW116946   2.815   1.994   6.844  0.8787 -1.0376 -0.3789
 1829SOL    HW216947   2.678   1.989   6.888 -0.6699 -0.6429  0.7212
 1830SOL     OW16948   0.699   0.432   7.675 -0.4370  0.4095  0.3715
 1830SOL    HW116949   0.630   0.493   7.700  1.0055  2.0109  0.4864
 1830SOL    HW216950   0.683   0.362   7.738 -1.2641  2.3133  2.2586
 1831SOL     OW16951   2.072   1.051  13.484  0.0026 -0.0746 -0.3452
 1831SOL    HW116952   1.992   1.086  13.524 -0.2175  0.0224 -0.8684
 1831SOL    HW216953   2.132   1.120  13.512 -2.4070  1.1490  1.8201
 1832SOL     OW16954   2.365   2.443   9.179 -0.1392  0.3867 -0.4689
 1832SOL    HW116955   2.428   2.445   9.251 -2.6946 -1.8052  1.8248
 1832SOL    HW216956   2.405   2.502   9.115  1.6287  1.9894  2.1287
 1833SOL     OW16957   4.198   4.292   9.377  0.4635 -0.1594 -0.7555
 1833SOL    HW116958   4.216   4.372   9.426  1.2705 -1.6195  1.3141
 1833SOL    HW216959   4.286   4.254   9.379  0.6178  0.3312  1.1121
 1834SOL     OW16960   3.346   2.701   6.857 -0.0407 -0.5979  0.3889
 1834SOL    HW116961   3.264   2.701   6.907 -0.0499  0.1878  0.3665
 1834SOL    HW216962   3.370   2.793   6.862  0.6728 -0.8078  0.8078
 1835SOL     OW16963   3.792   0.877   5.827 -0.3899 -0.4633  0.1123
 1835SOL    HW116964   3.809   0.969   5.844  0.9411 -0.1496 -2.8884
 1835SOL    HW216965   3.771   0.839   5.913 -2.2298 -0.6721 -0.4483
 1836SOL     OW16966   4.721   2.513   0.871  0.5964 -0.4836 -0.0765
 1836SOL    HW116967   4.647   2.489   0.816  1.2524  1.1126 -1.6647
 1836SOL    HW216968   0.048   2.433   0.889 -0.8976 -1.6969 -1.5034
 1837SOL     OW16969   2.686   4.720  10.972 -0.3178  0.5722 -0.1461
 1837SOL    HW116970   2.728   0.042  11.046  0.2920 -0.8321  0.3149
 1837SOL    HW216971   2.594   0.023  10.984 -0.6324 -0.0282 -1.3591
 1838SOL     OW16972   2.062   2.938   7.242  0.1898  0.8457 -0.0471
 1838SOL    HW116973   2.131   2.873   7.228 -0.6521 -0.1646  0.5051
 1838SOL    HW216974   2.099   2.989   7.315  0.6794  0.6243 -0.1424
 1839SOL     OW16975   1.397   2.694  16.409 -0.5141 -1.0638 -0.0834
 1839SOL    HW116976   1.470   2.741  16.369  0.3138 -2.1854  0.1166
 1839SOL    HW216977   1.353   2.765  16.457 -0.6868 -0.3584 -1.2965
 1840SOL     OW16978   1.567   3.639  15.396  0.0191  0.2435  0.2695
 1840SOL    HW116979   1.483   3.662  15.436 -1.2711 -0.8562 -1.7765
 1840SOL    HW216980   1.532   3.635  15.307  0.9040  0.4118 -0.0871
 1841SOL     OW16981   3.705   0.568  15.727 -0.6032 -0.1884  0.0255
 1841SOL    HW116982   3.688   0.653  15.685 -1.7633 -1.1133 -1.3920
 1841SOL    HW216983   3.658   0.511  15.667 -1.2820 -2.6478  2.9058
 1842SOL     OW16984   2.543   2.671  12.186  0.4736 -0.1144 -0.3475
 1842SOL    HW116985   2.598   2.656  12.264  0.2863  2.5635  0.3107
 1842SOL    HW216986   2.547   2.588  12.139  1.1037 -0.8535  0.9906
 1843SOL     OW16987   4.490   2.024  12.202 -0.2136 -0.4906 -0.1994
 1843SOL    HW116988   4.431   2.002  12.274 -0.9928 -1.4046 -1.1261
 1843SOL    HW216989   4.570   1.992  12.245 -0.0661  1.7324  1.1640
 1844SOL     OW16990   0.857   4.164   7.062  0.2604  0.3384  0.1414
 1844SOL    HW116991   0.867   4.085   7.114 -1.2018  0.5404  0.7403
 1844SOL    HW216992   0.817   4.133   6.981  1.1504  1.3775 -0.7043
 1845SOL     OW16993   2.499   4.477   8.422  0.0721 -0.5759 -0.2793
 1845SOL    HW116994   2.414   4.520   8.434  0.3025  0.6722 -3.0222
 1845SOL    HW216995   2.529   4.514   8.339 -1.9095  2.0458  0.1961
 1846SOL     OW16996   4.631   3.905   3.817  0.0244  0.3423  0.1104
 1846SOL    HW116997   4.694   3.839   3.843  0.8645  1.1937  0.2234
 1846SOL    HW216998   4.636   3.972   3.885 -0.3979  0.6586 -0.1673
 1847SOL     OW16999   0.778   1.884   0.241 -0.1748 -0.0720 -0.1333
 1847SOL    HW117000   0.770   1.942   0.317 -1.0024  3.2306 -2.7664
 1847SOL    HW217001   0.731   1.934   0.174  1.5204  1.6872 -0.0274
 1848SOL     OW17002   3.545   4.467   4.170 -0.5264  0.1822  0.1290
 1848SOL    HW117003   3.489   4.544   4.176  2.5527  2.2086  2.4441
 1848SOL    HW217004   3.551   4.446   4.077 -1.1397 -1.0511  0.3727
 1849SOL     OW17005   0.321   1.805   5.737  0.0047  0.6133 -0.4445
 1849SOL    HW117006   0.268   1.728   5.718 -0.1260  0.3370  1.0359
 1849SOL    HW217007   0.346   1.832   5.649  1.8746  1.4860  0.3606
 1850SOL     OW17008   1.933   4.142   6.506 -0.3373  0.3520  0.2161
 1850SOL    HW117009   1.852   4.137   6.557  1.3428 -1.5091  2.7575
 1850SOL    HW217010   1.924   4.233   6.478 -2.3906  0.8901  2.6679
 1851SOL     OW17011   0.717   2.871   1.164 -0.7552  0.4974  0.7382
 1851SOL    HW117012   0.812   2.873   1.151 -0.6255 -2.0969  1.3492
 1851SOL    HW217013   0.685   2.913   1.084 -1.4314  0.0865  0.7919
 1852SOL     OW17014   4.283   3.012   3.563 -0.2848  0.3754 -0.5332
 1852SOL    HW117015   4.289   2.985   3.655  0.6614  2.6326  0.0717
 1852SOL    HW217016   4.306   3.105   3.564 -0.1676  0.3552 -1.3456
 1853SOL     OW17017   1.700   0.771  15.098 -0.3937 -0.0494 -0.2722
 1853SOL    HW117018   1.741   0.857  15.105 -0.6073  0.1518 -1.5381
 1853SOL    HW217019   1.768   0.712  15.066  0.3343 -0.1251  1.4202
 1854SOL     OW17020   2.761   2.350   7.404  0.1208  0.8910 -0.1388
 1854SOL    HW117021   2.685   2.402   7.378 -1.6207 -0.7013  1.7489
 1854SOL    HW217022   2.740   2.260   7.380 -0.8031  0.9976  0.2796
 1855SOL     OW17023   1.627   3.155   8.016 -0.6836  0.1502 -0.2534
 1855SOL    HW117024   1.713   3.195   7.998 -0.4589 -0.1428  0.1683
 1855SOL    HW217025   1.641   3.067   8.052 -0.4629  0.6047  0.7698
 1856SOL     OW17026   1.469   3.871   8.540 -0.3426 -0.9700 -0.5478
 1856SOL    HW117027   1.536   3.932   8.508  0.6364 -1.7097  0.0733
 1856SOL    HW217028   1.421   3.866   8.458 -0.4754 -0.3161 -0.5083
 1857SOL     OW17029   1.469   2.734   9.756 -0.1854  0.1697 -0.1935
 1857SOL    HW117030   1.508   2.648   9.767 -0.8529  0.0401  1.1229
 1857SOL    HW217031   1.376   2.719   9.775  0.1145  3.1567  3.4532
 1858SOL     OW17032   1.849   0.533   6.756 -0.5250  0.1296  0.6278
 1858SOL    HW117033   1.776   0.482   6.794  0.2046 -0.6832  0.9474
 1858SOL    HW217034   1.874   0.583   6.833  2.5150 -2.0727  1.0566
 1859SOL     OW17035   0.895   2.951   4.340 -0.3447  0.1067 -0.1651
 1859SOL    HW117036   0.891   3.028   4.396  0.4874 -0.3597  0.5250
 1859SOL    HW217037   0.841   2.980   4.266 -2.7978 -0.7002  1.3269
 1860SOL     OW17038   3.778   3.942   5.195 -0.1467  0.3446  1.0617
 1860SOL    HW117039   3.795   3.994   5.117 -0.2339  2.8792  2.7469
 1860SOL    HW217040   3.741   3.863   5.156  1.0794 -0.4063  1.4259
 1861SOL     OW17041   2.742   2.922  11.550 -0.6068  0.7806  0.4574
 1861SOL    HW117042   2.716   2.830  11.563  0.0906  0.4731 -0.3309
 1861SOL    HW217043   2.793   2.952  11.625  0.6776 -0.2122 -0.0249
 1862SOL     OW17044   0.169   2.630   8.521 -0.2290 -0.2856 -0.4943
 1862SOL    HW117045   0.138   2.716   8.491  1.2256  0.1276 -0.8353
 1862SOL    HW217046   0.179   2.647   8.614  1.9785 -0.2913 -0.7380
 1863SOL     OW17047   4.593   0.966   4.473 -0.6220 -0.2705  0.1103
 1863SOL    HW117048   4.623   1.048   4.432  2.1802 -1.3427  0.0369
 1863SOL    HW217049   4.594   0.907   4.398  1.1040 -1.5858  1.1681
 1864SOL     OW17050   2.756   1.582  13.673  0.5242 -0.0690  0.2091
 1864SOL    HW117051   2.669   1.602  13.707  1.0831  1.7496  0.5764
 1864SOL    HW217052   2.819   1.625  13.732 -0.9999  1.4547  0.7368
 1865SOL     OW17053   2.408   1.392   3.333  0.7396  0.4717 -0.9729
 1865SOL    HW117054   2.325   1.436   3.313 -0.1338  0.1011  1.8230
 1865SOL    HW217055   2.458   1.410   3.253  2.0379  1.6168  0.1097
 1866SOL     OW17056   3.650   3.377   4.604 -0.4489  1.0938 -0.2022
 1866SOL    HW117057   3.677   3.306   4.546  2.5961  1.3089  0.9444
 1866SOL    HW217058   3.570   3.413   4.567  0.5217  1.0648 -2.3166
 1867SOL     OW17059   3.551   4.645   8.766  0.1761  0.2596  0.6186
 1867SOL    HW117060   3.575   4.627   8.675 -0.8288  3.1483 -0.2001
 1867SOL    HW217061   3.606   0.001   8.773  0.1336  0.5803 -2.2937
 1868SOL     OW17062   1.011   3.581   2.993  0.1087  0.2037 -0.2324
 1868SOL    HW117063   0.925   3.604   2.958  0.3802 -1.8130 -2.1658
 1868SOL    HW217064   1.021   3.642   3.067  0.9497 -0.4356  0.1848
 1869SOL     OW17065   0.758   3.599   6.528  0.1554  0.2149  0.0946
 1869SOL    HW117066   0.721   3.687   6.541  0.2611  0.3903 -0.7924
 1869SOL    HW217067   0.841   3.611   6.482  0.1950  0.6993  0.2896
 1870SOL     OW17068   1.865   0.678  15.705  0.2180  0.0635  0.4575
 1870SOL    HW117069   1.926   0.607  15.687 -1.0866 -0.8168 -0.4384
 1870SOL    HW217070   1.831   0.711  15.622  0.5497 -0.3055  0.1772
 1871SOL     OW17071   3.384   3.191   1.354 -0.6424 -0.2129 -0.3357
 1871SOL    HW117072   3.293   3.163   1.360 -0.7699 -0.0406 -1.4488
 1871SOL    HW217073   3.409   3.140   1.278 -0.1263 -2.1784  1.1537
 1872SOL     OW17074   4.606   1.460  14.938 -0.3437  0.4766  0.2763
 1872SOL    HW117075   4.610   1.544  14.983 -0.0807  0.0856  0.9739
 1872SOL    HW217076   4.512   1.455  14.959 -0.6364  0.3824 -1.0317
 1873SOL     OW17077   2.358   0.663  10.637  0.2267 -0.2181  0.3427
 1873SOL    HW117078   2.365   0.717  10.715 -1.0467 -0.8212  0.8735
 1873SOL    HW217079   2.443   0.685  10.598 -0.0492 -0.9580 -0.6644
 1874SOL     OW17080   2.464   3.969   8.712 -0.2671 -0.2508  0.2720
 1874SOL    HW117081   2.438   3.943   8.800 -0.8250  0.8205  0.4270
 1874SOL    HW217082   2.559   3.964   8.718 -0.1522 -0.6275 -1.7981
 1875SOL     OW17083   0.283   2.601   7.289  0.2531  0.9050  0.3665
 1875SOL    HW117084   0.238   2.683   7.268  0.6149  0.4297 -2.2411
 1875SOL    HW217085   0.370   2.626   7.257 -0.9457  2.5863 -1.6616
 1876SOL     OW17086   2.255   2.449   8.539 -0.2975  0.2446  0.6564
 1876SOL    HW117087   2.297   2.511   8.598 -0.6058  1.0450  0.0293
 1876SOL    HW217088   2.322   2.387   8.509  1.4736  1.8462  1.3316
 1877SOL     OW17089   2.278   3.322  13.157 -0.2339 -0.0663 -0.3195
 1877SOL    HW117090   2.246   3.268  13.230 -0.7550 -0.4490 -0.8373
 1877SOL    HW217091   2.338   3.256  13.121  0.7340  0.3686  0.4875
 1878SOL     OW17092   0.835   3.626  10.742 -0.1982 -0.2778  0.0130
 1878SOL    HW117093   0.798   3.538  10.750 -0.1287 -0.3547 -0.5525
 1878SOL    HW217094   0.918   3.612  10.788 -1.2098 -0.9036  1.6517
 1879SOL     OW17095   1.173   3.470  15.355  0.1823  0.2751  0.1542
 1879SOL    HW117096   1.238   3.410  15.390 -0.2025  0.5420  1.3239
 1879SOL    HW217097   1.102   3.445  15.414 -0.1432  2.0829  0.5536
 1880SOL     OW17098   3.296   2.084   7.421 -0.1193 -0.2743  0.0251
 1880SOL    HW117099   3.373   2.057   7.371  0.7741 -2.2620  2.4396
 1880SOL    HW217100   3.334   2.169   7.445 -0.3853  0.5527 -2.4781
 1881SOL     OW17101   0.072   1.194  14.634 -0.0648  0.0815 -0.3812
 1881SOL    HW117102   0.028   1.234  14.709  1.6496  0.8935  0.1960
 1881SOL    HW217103   0.133   1.265  14.613  1.1332 -0.5081  1.0988
 1882SOL     OW17104   0.127   4.316  15.709  0.5702 -0.6857  0.5000
 1882SOL    HW117105   0.124   4.380  15.780  2.0539  0.7324 -0.7266
 1882SOL    HW217106   0.036   4.302  15.682  1.1111 -1.0018 -1.1531
 1883SOL     OW17107   2.592   3.597   8.580 -0.2017  0.0873  0.6249
 1883SOL    HW117108   2.549   3.648   8.649 -1.9932  0.5381 -0.8358
 1883SOL    HW217109   2.518   3.540   8.558  1.1157 -0.3533 -2.5983
 1884SOL     OW17110   4.628   2.611   3.616 -0.2476  0.2476 -0.0531
 1884SOL    HW117111   4.661   2.643   3.532  0.1015 -1.4342 -0.5382
 1884SOL    HW217112   4.683   2.535   3.634  0.8092  0.8631 -0.6857
 1885SOL     OW17113   4.500   3.622   7.157 -0.2166  0.3552  0.6150
 1885SOL    HW117114   4.520   3.646   7.248  0.6075 -0.5697  0.6807
 1885SOL    HW217115   4.422   3.573   7.185 -1.1965  0.6177 -1.6551
 1886SOL     OW17116   0.151   4.679   4.206  0.6197 -0.0942 -0.0934
 1886SOL    HW117117   0.087   0.010   4.254  0.6722 -0.6426  0.5677
 1886SOL    HW217118   0.222   4.668   4.270 -0.3393 -0.9242  0.8097
 1887SOL     OW17119   1.469   4.017   7.897  0.1898 -0.1311  0.1810
 1887SOL    HW117120   1.534   4.060   7.952 -1.7330  2.3840  0.4992
 1887SOL    HW217121   1.385   4.016   7.943  0.2030 -0.0213  0.2083
 1888SOL     OW17122   2.152   4.673   5.231  0.1148 -0.0683 -0.1171
 1888SOL    HW117123   2.159   4.710   5.143  2.0794 -2.0646 -0.7957
 1888SOL    HW217124   2.063   4.637   5.238 -0.1565  0.4074 -1.1418
 1889SOL     OW17125   2.656   3.019   2.304 -0.2545 -0.3966  0.1106
 1889SOL    HW117126   2.608   3.100   2.291  1.0009  0.1225 -1.1898
 1889SOL    HW217127   2.641   3.006   2.398 -0.4067 -0.5777  0.0618
 1890SOL     OW17128   0.446   1.098  17.014  0.4284 -1.2985  0.3361
 1890SOL    HW117129   0.465   1.032  16.947  1.2653  1.2566 -1.9474
 1890SOL    HW217130   0.353   1.115  16.995  0.5897 -2.7742 -1.7988
 1891SOL     OW17131   1.232   1.519   9.057  0.4536 -0.4766  0.1060
 1891SOL    HW117132   1.315   1.545   9.097 -0.8436 -0.0090  2.5607
 1891SOL    HW217133   1.220   1.430   9.091  0.7297 -0.4567  0.2540
 1892SOL     OW17134   2.940   3.535   5.087 -0.3142  0.5153  0.1324
 1892SOL    HW117135   2.897   3.513   5.169 -0.0130  0.4580  0.2737
 1892SOL    HW217136   2.919   3.456   5.037 -0.2515  0.6979 -0.1810
 1893SOL     OW17137   0.941   4.435  16.035  0.5722 -0.2191 -0.1703
 1893SOL    HW117138   0.953   4.526  16.008 -1.4109 -0.0421 -0.4663
 1893SOL    HW217139   0.898   4.397  15.958 -0.4204  0.6979 -0.0752
 1894SOL     OW17140   4.350   2.799  10.873  0.3652 -0.2635 -0.5717
 1894SOL    HW117141   4.366   2.863  10.943  0.3917  1.3544 -2.0670
 1894SOL    HW217142   4.421   2.825  10.815  1.2300  2.6395  1.7482
 1895SOL     OW17143   2.138   3.155   4.199  0.0023  0.2470 -0.0267
 1895SOL    HW117144   2.196   3.085   4.170 -1.5699  0.1793 -2.9536
 1895SOL    HW217145   2.203   3.205   4.249 -0.0564 -0.2750  0.5736
 1896SOL     OW17146   4.021   4.567   4.492  0.0444 -0.1316  0.2230
 1896SOL    HW117147   4.056   4.477   4.497 -0.7416 -0.4975 -1.0572
 1896SOL    HW217148   3.929   4.544   4.485 -0.0048  0.3751 -0.6996
 1897SOL     OW17149   3.522   4.227   6.230  0.1544  0.1842  0.2098
 1897SOL    HW117150   3.573   4.155   6.266 -0.7220 -0.2629  0.5711
 1897SOL    HW217151   3.586   4.290   6.197 -1.1600  1.2672 -0.2840
 1898SOL     OW17152   3.998   4.696  13.079  0.0392  0.1321 -0.0892
 1898SOL    HW117153   4.016   4.678  12.987  0.2143  3.2883 -0.6640
 1898SOL    HW217154   4.025   0.064  13.101 -0.0052  0.1415 -0.0725
 1899SOL     OW17155   1.768   2.263   7.527  0.0420  0.2064 -0.0976
 1899SOL    HW117156   1.779   2.354   7.499 -0.0106  0.1896 -0.1744
 1899SOL    HW217157   1.786   2.210   7.449  0.0773  0.5639 -0.3326
 1900SOL     OW17158   2.821   2.610   1.635  0.1223 -0.1591 -0.9314
 1900SOL    HW117159   2.833   2.678   1.569 -0.9881 -0.4892 -1.4649
 1900SOL    HW217160   2.827   2.655   1.719  0.6104 -0.4491 -0.8126
 1901SOL     OW17161   3.478   1.436   0.133  0.1102 -0.0547  0.4122
 1901SOL    HW117162   3.476   1.451   0.228 -2.4061  0.3445  0.2979
 1901SOL    HW217163   3.408   1.373   0.115 -2.2907  2.5923  0.5604
 1902SOL     OW17164   3.220   2.015  16.399 -0.1640  0.3540  0.0790
 1902SOL    HW117165   3.255   2.031  16.311 -1.2438 -0.1126 -0.4361
 1902SOL    HW217166   3.307   2.011  16.438 -0.1403  2.2250  0.1864
 1903SOL     OW17167   0.349   0.306   8.093 -0.1781 -0.2431  0.1299
 1903SOL    HW117168   0.386   0.393   8.103  0.8269 -0.9418  2.3879
 1903SOL    HW217169   0.409   0.246   8.138  1.8202 -0.1122 -2.3426
 1904SOL     OW17170   0.526   0.980   6.413  0.2743  0.2137  0.4101
 1904SOL    HW117171   0.471   0.998   6.336 -0.7295  1.0461  1.3160
 1904SOL    HW217172   0.480   0.912   6.462 -1.7596  1.5449  0.3539
 1905SOL     OW17173   2.493   1.286   3.775  0.4068 -0.1255 -0.3314
 1905SOL    HW117174   2.547   1.273   3.853 -1.3370 -0.7567  0.7648
 1905SOL    HW217175   2.555   1.308   3.705 -0.4093 -0.7199 -1.2440
 1906SOL     OW17176   1.356   1.778   9.637 -0.0258  0.3250  0.5938
 1906SOL    HW117177   1.379   1.795   9.545 -0.5754  2.4826  0.8432
 1906SOL    HW217178   1.438   1.787   9.685 -0.5598 -0.7933  1.7173
 1907SOL     OW17179   1.204   2.578  11.564  0.3699 -0.2199  0.0920
 1907SOL    HW117180   1.208   2.627  11.482 -2.1869 -2.0906 -1.1800
 1907SOL    HW217181   1.185   2.650  11.623 -0.8301 -1.1093  0.7859
 1908SOL     OW17182   4.446   3.057   6.188  0.8168  0.1004 -0.2680
 1908SOL    HW117183   4.375   3.020   6.241 -0.4051  1.2440 -1.1068
 1908SOL    HW217184   4.420   3.149   6.182  0.8668 -0.1157 -3.8638
 1909SOL     OW17185   1.102   2.287   0.293  0.7413  0.5367 -0.2235
 1909SOL    HW117186   1.014   2.288   0.253  0.0389  1.6698  1.3575
 1909SOL    HW217187   1.117   2.194   0.312 -1.6466  0.1932 -0.0151
 1910SOL     OW17188   2.452   4.033   8.215  0.1736  0.3414  0.3812
 1910SOL    HW117189   2.406   4.116   8.227 -1.7686 -0.4401 -1.5063
 1910SOL    HW217190   2.406   4.000   8.137 -0.5304  0.0513  0.9132
 1911SOL     OW17191   1.588   2.082   6.307 -0.0345  0.0695 -0.1645
 1911SOL    HW117192   1.631   1.997   6.294 -1.0552 -0.0781 -2.5989
 1911SOL    HW217193   1.595   2.096   6.401  0.6070 -0.5115 -0.1267
 1912SOL     OW17194   4.371   3.724   2.799 -0.0899 -1.2445 -0.6019
 1912SOL    HW117195   4.318   3.802   2.787  1.5539  0.0153  0.3438
 1912SOL    HW217196   4.436   3.766   2.855 -0.9436  0.3066 -0.7683
 1913SOL     OW17197   3.100   4.492   8.289  0.4708 -0.2539  0.0117
 1913SOL    HW117198   3.136   4.432   8.223 -0.5630  0.9791 -1.6792
 1913SOL    HW217199   3.011   4.496   8.254 -0.1407  0.4520  1.6648
 1914SOL     OW17200   2.663   4.652   9.747  0.0957  1.0795 -0.2183
 1914SOL    HW117201   2.740   4.704   9.727 -0.4751  2.3715  0.9189
 1914SOL    HW217202   2.662   4.676   9.840  3.6563 -0.2409  0.1565
 1915SOL     OW17203   1.422   2.630   5.457 -0.2156  0.1814  0.3449
 1915SOL    HW117204   1.495   2.673   5.502 -0.9532  0.6381  1.1082
 1915SOL    HW217205   1.462   2.565   5.400 -0.3381 -0.3676  0.8851
 1916SOL     OW17206   0.235   4.222   7.410 -0.2256 -0.0753  0.1102
 1916SOL    HW117207   0.232   4.180   7.496  0.6663  1.4103  0.8843
 1916SOL    HW217208   0.328   4.245   7.408 -0.2199 -0.1909 -0.7708
 1917SOL     OW17209   1.475   2.850  14.932  0.2582  0.2300 -0.3288
 1917SOL    HW117210   1.474   2.850  15.027 -0.4952  3.6232 -0.3443
 1917SOL    HW217211   1.434   2.763  14.928 -0.8301  0.7964 -1.2903
 1918SOL     OW17212   0.294   1.055  17.331 -0.1541  0.0200 -0.3758
 1918SOL    HW117213   0.367   1.059  17.269 -0.2125 -2.3401 -0.5963
 1918SOL    HW217214   0.227   1.117  17.301  1.0970  1.3732 -0.4029
 1919SOL     OW17215   4.609   4.359  16.259  0.4730 -0.1224  0.0288
 1919SOL    HW117216   4.650   4.329  16.178  0.6367 -1.9667  0.7891
 1919SOL    HW217217   4.582   4.446  16.232  0.3138  0.1586  1.0764
 1920SOL     OW17218   4.120   4.660   2.171  0.1377  0.4238  0.4196
 1920SOL    HW117219   4.030   4.692   2.177  0.5005  1.6270 -0.5211
 1920SOL    HW217220   4.133   4.699   2.085 -0.2579 -0.3049  0.0235
 1921SOL     OW17221   2.279   1.844   7.670 -0.6533 -0.5188 -0.2209
 1921SOL    HW117222   2.372   1.832   7.651 -0.7496 -2.2948  0.3460
 1921SOL    HW217223   2.247   1.849   7.580 -0.9838 -1.3527 -0.1569
 1922SOL     OW17224   2.894   3.480  14.038  0.0782 -0.3274 -0.2298
 1922SOL    HW117225   2.872   3.450  13.950  2.9495  1.1731 -1.4721
 1922SOL    HW217226   2.966   3.535  14.007  1.4027 -1.4301  0.8698
 1923SOL     OW17227   1.190   4.260  16.973  0.1374 -0.2991 -0.2173
 1923SOL    HW117228   1.143   4.244  16.891 -3.4598  0.2687  1.6939
 1923SOL    HW217229   1.179   4.169  17.001 -0.2547 -0.1780  0.0196
 1924SOL     OW17230   0.239   3.996  16.013 -0.0646  0.5223  0.4089
 1924SOL    HW117231   0.181   4.001  15.937  0.8927  0.2156 -0.3333
 1924SOL    HW217232   0.165   3.991  16.075 -0.1111  1.1986  0.4099
 1925SOL     OW17233   1.044   3.607   0.539  0.3130 -0.0254  0.5878
 1925SOL    HW117234   0.993   3.550   0.480 -2.4380  2.0137  1.0132
 1925SOL    HW217235   0.996   3.688   0.524  1.2542  0.6081  1.0000
 1926SOL     OW17236   4.434   2.726   5.067  0.5709  0.6870  0.2612
 1926SOL    HW117237   4.344   2.700   5.085  0.9658  0.0061  1.2794
 1926SOL    HW217238   4.451   2.706   4.975 -1.4310  1.4087 -0.2457
 1927SOL     OW17239   2.019   1.801   3.497 -0.2528  0.0317 -0.0436
 1927SOL    HW117240   2.033   1.709   3.519  1.4949  0.2334 -0.2748
 1927SOL    HW217241   2.108   1.836   3.492 -1.6569  3.4455 -0.9558
 1928SOL     OW17242   1.066   4.406   5.608  0.4204 -0.3001  0.3891
 1928SOL    HW117243   1.008   4.355   5.552 -0.0789 -0.7651  1.3224
 1928SOL    HW217244   1.048   4.491   5.568  1.6102  1.2998  3.2308
 1929SOL     OW17245   4.438   1.035   2.801  0.7173 -0.1179  0.2367
 1929SOL    HW117246   4.455   1.119   2.845  0.4570 -0.5196  1.1046
 1929SOL    HW217247   4.440   0.961   2.862  2.2926  1.4104  2.0466
 1930SOL     OW17248   2.684   2.660   4.667  0.1557  0.6074 -0.2072
 1930SOL    HW117249   2.658   2.622   4.583  0.8941  1.4365 -0.8075
 1930SOL    HW217250   2.692   2.580   4.720 -1.0761  0.9273  0.4597
 1931SOL     OW17251   0.748   1.894   6.859  0.1877  0.6872 -0.3054
 1931SOL    HW117252   0.802   1.915   6.783 -1.4573 -0.2861 -1.7504
 1931SOL    HW217253   0.723   1.802   6.861  0.1911  0.7053  0.6934
 1932SOL     OW17254   2.828   2.075   3.874  0.0948  0.2325  0.3830
 1932SOL    HW117255   2.757   2.138   3.871  0.5829  0.8646  2.1231
 1932SOL    HW217256   2.791   2.010   3.934 -0.9773  1.5368  1.1291
 1933SOL     OW17257   4.143   3.140   5.985 -0.7271 -0.9510  0.6522
 1933SOL    HW117258   4.179   3.101   6.065 -2.3999  1.1907  2.4631
 1933SOL    HW217259   4.105   3.058   5.952 -0.0405 -1.6808  1.6597
 1934SOL     OW17260   3.164   0.785   2.801  0.2153 -0.5596  0.2841
 1934SOL    HW117261   3.208   0.739   2.730  0.0333 -0.3853  0.0613
 1934SOL    HW217262   3.185   0.725   2.873 -0.3727 -0.7173  0.3256
 1935SOL     OW17263   0.766   3.007   4.116 -0.2491  0.0069  0.2709
 1935SOL    HW117264   0.686   3.046   4.082 -0.6236 -0.3004  0.7825
 1935SOL    HW217265   0.831   3.068   4.081 -2.1466  0.9465 -1.5807
 1936SOL     OW17266   0.046   3.486   9.399  0.4842 -0.2549  0.0467
 1936SOL    HW117267   0.118   3.422   9.402 -0.0225 -0.7099  2.2254
 1936SOL    HW217268   4.720   3.457   9.321  1.2235 -2.8913  0.5771
 1937SOL     OW17269   3.014   3.098  14.015  0.3816  0.3761 -0.4925
 1937SOL    HW117270   3.075   3.037  13.974 -0.4722 -0.5599 -0.3760
 1937SOL    HW217271   2.941   3.105  13.954  0.0421 -0.1299 -0.1479
 1938SOL     OW17272   3.633   3.911   4.124  0.4314 -0.6372  0.6475
 1938SOL    HW117273   3.653   3.998   4.092 -0.6767 -0.8022 -0.5071
 1938SOL    HW217274   3.629   3.853   4.048 -0.2146 -1.1586  1.0733
 1939SOL     OW17275   0.465   3.488   6.502 -0.0736 -0.5712 -0.4783
 1939SOL    HW117276   0.559   3.500   6.488  0.0052 -1.8713 -1.1256
 1939SOL    HW217277   0.458   3.447   6.416  0.0577 -0.7624 -0.3986
 1940SOL     OW17278   0.884   2.973   0.594  0.3125 -0.2700 -0.1504
 1940SOL    HW117279   0.906   2.988   0.686  0.5026  1.6698 -0.5305
 1940SOL    HW217280   0.892   2.877   0.589 -1.5078 -0.4217 -0.3067
 1941SOL     OW17281   0.149   4.572   6.614 -0.2230 -0.1068  0.5950
 1941SOL    HW117282   0.067   4.567   6.564  0.1483 -2.1200  0.1943
 1941SOL    HW217283   0.186   4.656   6.585 -0.1704  0.2885  1.8357
 1942SOL     OW17284   4.692   2.647   5.979 -0.4816  0.2071  0.2899
 1942SOL    HW117285   4.662   2.576   5.922 -2.4410  1.0486  0.2618
 1942SOL    HW217286   4.628   2.718   5.972 -0.1304  0.1389 -3.5157
 1943SOL     OW17287   1.567   2.415  14.925  0.3855  0.0875 -1.0363
 1943SOL    HW117288   1.591   2.385  14.837 -0.0894 -2.4034 -0.3107
 1943SOL    HW217289   1.631   2.384  14.989  0.5964  1.0174 -0.8074
 1944SOL     OW17290   3.913   2.442   1.886 -0.4033  0.0131  0.1685
 1944SOL    HW117291   3.947   2.356   1.858 -2.8873 -1.4093  1.5674
 1944SOL    HW217292   3.834   2.418   1.934  0.5689 -0.8681  1.3131
 1945SOL     OW17293   3.847   3.252   3.618 -0.0613 -0.4360 -0.3688
 1945SOL    HW117294   3.900   3.331   3.605  0.3188 -0.5702  0.3561
 1945SOL    HW217295   3.766   3.282   3.578  0.5482  1.3885 -0.2698
 1946SOL     OW17296   3.325   0.749   2.063 -0.6431 -0.5685  0.0845
 1946SOL    HW117297   3.362   0.709   1.985  0.4693 -1.9659  1.3304
 1946SOL    HW217298   3.385   0.700   2.119  0.2279  2.2792  1.6912
 1947SOL     OW17299   3.793   0.206  14.894  0.2697 -0.1264  0.0485
 1947SOL    HW117300   3.802   0.286  14.843  1.1592  0.1292  0.5838
 1947SOL    HW217301   3.729   0.158  14.843 -0.3263  0.6197  0.1018
 1948SOL     OW17302   3.633   3.235   7.132  0.4471 -0.0441  0.1143
 1948SOL    HW117303   3.710   3.188   7.102 -0.7726 -0.4805 -2.2697
 1948SOL    HW217304   3.637   3.313   7.076  0.9583  0.2149  0.5077
 1949SOL     OW17305   1.985   3.312   5.425  0.3483 -0.3815 -0.3794
 1949SOL    HW117306   1.988   3.404   5.450 -0.2974 -0.2222 -0.8999
 1949SOL    HW217307   1.937   3.266   5.494 -0.4757  2.7677  1.1521
 1950SOL     OW17308   0.347   3.627   3.049 -0.5537 -0.0620 -0.1318
 1950SOL    HW117309   0.279   3.564   3.028 -0.5460 -0.3212  0.6258
 1950SOL    HW217310   0.391   3.611   2.965  0.3093  1.3644  0.0507
 1951SOL     OW17311   3.611   0.843   3.445 -0.0720  0.0539 -0.5916
 1951SOL    HW117312   3.627   0.890   3.527  0.2438  2.1236 -1.8477
 1951SOL    HW217313   3.532   0.885   3.412  0.2879 -0.0724 -1.5974
 1952SOL     OW17314   1.287   3.367   4.381 -0.3882  0.4977 -0.2112
 1952SOL    HW117315   1.329   3.394   4.299  2.0267 -1.4153  0.3931
 1952SOL    HW217316   1.213   3.428   4.386 -0.9180  0.1683 -4.3022
 1953SOL     OW17317   3.330   0.341  11.041 -0.1272  0.6123  0.2723
 1953SOL    HW117318   3.338   0.245  11.045  1.9678  0.6928 -2.2186
 1953SOL    HW217319   3.374   0.351  10.957  2.8750  0.2465  1.7937
 1954SOL     OW17320   4.671   0.630   6.265  0.4193 -0.8508  0.0115
 1954SOL    HW117321   4.633   0.607   6.180  0.5150 -1.3993  0.1141
 1954SOL    HW217322   0.042   0.616   6.244  0.9536  1.0560  1.0561
 1955SOL     OW17323   2.263   2.103   5.362  0.2019 -0.0067 -0.2655
 1955SOL    HW117324   2.249   2.067   5.275  0.1958  0.4058 -0.4393
 1955SOL    HW217325   2.358   2.097   5.368  0.2151  0.1403 -0.3261
 1956SOL     OW17326   2.744   2.299   9.668  0.1977  0.2053 -0.4127
 1956SOL    HW117327   2.672   2.262   9.719  1.1848 -0.1256  0.7439
 1956SOL    HW217328   2.695   2.297   9.585 -1.1229 -0.5088  0.3897
 1957SOL     OW17329   4.699   2.922   1.997 -0.5285  0.3518  0.1584
 1957SOL    HW117330   4.668   2.870   2.071 -0.4023  0.6617  0.4271
 1957SOL    HW217331   0.004   2.855   1.933  1.2057  0.8401  0.3761
 1958SOL     OW17332   1.380   1.247   9.267  0.7081 -0.0735 -0.2620
 1958SOL    HW117333   1.457   1.192   9.252 -0.9209 -2.0653 -1.2613
 1958SOL    HW217334   1.398   1.288   9.351 -1.6154 -3.1858  1.7693
 1959SOL     OW17335   1.401   1.711   8.591  0.2810 -0.8503  0.2996
 1959SOL    HW117336   1.388   1.648   8.520 -1.9316  1.8228 -1.7059
 1959SOL    HW217337   1.496   1.727   8.591 -0.1641  1.7714  1.9630
 1960SOL     OW17338   2.433   3.018  12.370  0.4834  0.2853 -0.1113
 1960SOL    HW117339   2.355   2.980  12.410 -0.3875  1.3490 -0.7920
 1960SOL    HW217340   2.496   2.951  12.396  0.8133  0.3247 -0.7953
 1961SOL     OW17341   1.189   3.634   9.216  0.1504  0.1368 -0.5914
 1961SOL    HW117342   1.151   3.607   9.300  1.1891  3.9833  1.1080
 1961SOL    HW217343   1.240   3.557   9.188  1.3038 -0.1953  2.3833
 1962SOL     OW17344   3.309   3.642   7.874 -0.0570 -0.6769 -0.6069
 1962SOL    HW117345   3.397   3.680   7.870 -0.2359 -0.2207 -0.1805
 1962SOL    HW217346   3.298   3.611   7.784  2.4641 -2.6495 -0.2422
 1963SOL     OW17347   1.585   2.296   7.959 -0.0860  0.1233 -0.0860
 1963SOL    HW117348   1.620   2.260   8.041  0.4480 -0.0061 -0.3753
 1963SOL    HW217349   1.504   2.328   8.000  0.1375  0.0513  0.4084
 1964SOL     OW17350   4.462   2.270  17.579  0.7522 -0.0232 -0.5441
 1964SOL    HW117351   4.491   2.228  17.498  1.6369  0.0955 -0.2884
 1964SOL    HW217352   4.537   2.250  17.635 -0.4630  2.3171  1.9210
 1965SOL     OW17353   4.166   0.601   5.407 -0.2978  0.6090  0.6077
 1965SOL    HW117354   4.202   0.682   5.442 -2.5415  1.8801 -0.0831
 1965SOL    HW217355   4.242   0.543   5.413 -0.2303  0.5525 -0.6770
 1966SOL     OW17356   0.965   3.768   5.445 -0.4545 -0.1385  0.0559
 1966SOL    HW117357   0.891   3.809   5.402 -0.2382  0.5580  0.3515
 1966SOL    HW217358   0.924   3.722   5.518  0.2265  0.5111  0.8471
 1967SOL     OW17359   2.171   2.880   2.955 -0.3330  0.8843  0.1330
 1967SOL    HW117360   2.251   2.836   2.983 -0.1118 -0.7900 -3.2425
 1967SOL    HW217361   2.126   2.805   2.917  0.5255 -0.7355  2.3021
 1968SOL     OW17362   3.915   3.646  14.715  0.4445  0.3663  0.2296
 1968SOL    HW117363   4.007   3.647  14.690  0.4668 -0.1727  0.2867
 1968SOL    HW217364   3.916   3.554  14.742 -0.8524  0.6277  1.1427
 1969SOL     OW17365   1.385   4.354   2.198 -0.0409 -0.0840 -0.4285
 1969SOL    HW117366   1.420   4.402   2.273 -4.1994 -0.5825  1.8302
 1969SOL    HW217367   1.294   4.383   2.210 -0.3736 -2.0267  1.7154
 1970SOL     OW17368   1.837   4.583   6.106  0.1551 -0.4659 -1.1260
 1970SOL    HW117369   1.909   4.647   6.109  0.6283 -1.1586  2.0159
 1970SOL    HW217370   1.775   4.614   6.172  1.6599 -3.0474  1.5234
 1971SOL     OW17371   2.406   1.412   6.576  0.7354  0.5477 -0.2718
 1971SOL    HW117372   2.345   1.485   6.578 -2.0019 -1.7493 -1.1169
 1971SOL    HW217373   2.481   1.455   6.534 -0.4199  1.8212 -1.0251
 1972SOL     OW17374   0.673   4.678  17.198  0.2696 -0.2570 -0.3110
 1972SOL    HW117375   0.759   4.718  17.213  0.6889 -1.1764 -0.2725
 1972SOL    HW217376   0.681   4.596  17.247  0.4536 -1.2209 -1.9499
 1973SOL     OW17377   4.266   3.521  11.129 -0.3969 -0.3646 -0.2331
 1973SOL    HW117378   4.316   3.600  11.113 -0.8376  0.3106  1.6684
 1973SOL    HW217379   4.341   3.468  11.159 -1.6388 -1.7803  0.3726
 1974SOL     OW17380   0.645   3.602  14.983 -0.1391  0.2820 -0.9408
 1974SOL    HW117381   0.595   3.611  14.902 -0.5553  0.2905 -0.6834
 1974SOL    HW217382   0.609   3.521  15.020 -1.4820  0.7587 -1.1914
 1975SOL     OW17383   0.992   4.242   4.671  1.0034 -0.1134  0.5605
 1975SOL    HW117384   1.020   4.333   4.676  0.7615 -0.0874  1.6308
 1975SOL    HW217385   1.076   4.197   4.670  0.0183 -1.9590 -1.1967
 1976SOL     OW17386   0.996   1.358  11.610 -0.5666 -0.1251 -0.1407
 1976SOL    HW117387   0.994   1.296  11.537 -0.4501  0.9611 -1.0586
 1976SOL    HW217388   0.909   1.398  11.610 -1.3132 -1.7470 -1.7152
 1977SOL     OW17389   3.327   4.414   6.681 -0.0003  0.6023 -0.1537
 1977SOL    HW117390   3.323   4.359   6.603 -0.3571  1.3304 -0.6460
 1977SOL    HW217391   3.282   4.492   6.649  0.0579  1.0177  0.7794
 1978SOL     OW17392   3.439   0.737   9.519  0.2450  0.3885 -0.4670
 1978SOL    HW117393   3.372   0.763   9.456 -0.6354 -0.9996 -0.1201
 1978SOL    HW217394   3.504   0.684   9.472  0.2788  0.7834 -0.8627
 1979SOL     OW17395   3.430   1.391   0.936 -0.3867  0.0759 -0.0820
 1979SOL    HW117396   3.347   1.436   0.955  0.1244  0.3919  1.3851
 1979SOL    HW217397   3.470   1.396   1.023 -1.5900  0.9583  0.4296
 1980SOL     OW17398   2.660   0.073   6.567 -0.5850  0.4278  0.0257
 1980SOL    HW117399   2.649   0.083   6.662  0.4197 -1.3452  0.3275
 1980SOL    HW217400   2.620   4.708   6.555  2.3474 -0.8370 -0.5241
 1981SOL     OW17401   4.486   4.173  16.779  0.9155 -0.1608  0.0285
 1981SOL    HW117402   4.525   4.259  16.789 -2.1707  1.4111 -1.2784
 1981SOL    HW217403   4.394   4.192  16.798  1.0086 -0.8083  1.1553
 1982SOL     OW17404   0.393   0.344  17.208 -0.2191 -0.4919 -0.2398
 1982SOL    HW117405   0.335   0.343  17.132  0.3324 -0.5203 -0.6654
 1982SOL    HW217406   0.357   0.414  17.262  0.8124  0.4309 -0.7375
 1983SOL     OW17407   3.649   0.504   8.642 -0.3016 -0.0359  0.2482
 1983SOL    HW117408   3.653   0.558   8.721 -0.7505  0.3880 -0.0209
 1983SOL    HW217409   3.679   0.420   8.676  4.2309  1.5453  0.1441
 1984SOL     OW17410   0.668   1.955  15.098  0.2130 -0.6026 -0.2661
 1984SOL    HW117411   0.703   1.898  15.029  0.4478 -1.9555  0.9716
 1984SOL    HW217412   0.676   2.043  15.061  0.4352  0.6725  2.8779
 1985SOL     OW17413   2.452   2.411  15.166 -0.6403 -0.2648 -0.2580
 1985SOL    HW117414   2.547   2.411  15.151 -0.9452  0.1092 -2.0787
 1985SOL    HW217415   2.431   2.318  15.157 -1.2540 -0.1623  0.1053
 1986SOL     OW17416   1.182   0.038   3.554  0.2906 -0.3074 -0.3106
 1986SOL    HW117417   1.111   0.059   3.615  0.8905 -1.9004  0.9385
 1986SOL    HW217418   1.208   0.129   3.542  2.2309 -0.7228  0.8304
 1987SOL     OW17419   0.177   2.368  11.299 -0.2257 -0.2308 -0.6406
 1987SOL    HW117420   0.186   2.278  11.269  0.9747  0.4310 -2.2812
 1987SOL    HW217421   0.108   2.355  11.364  0.0387  3.2073  0.3674
 1988SOL     OW17422   1.213   0.319   3.495  0.0926  0.1566  0.2784
 1988SOL    HW117423   1.163   0.390   3.454 -1.5386 -1.0206  0.2746
 1988SOL    HW217424   1.303   0.352   3.491  0.1095 -0.0890 -1.2251
 1989SOL     OW17425   4.044   2.760   3.127 -0.1966 -0.3847  0.2694
 1989SOL    HW117426   4.056   2.668   3.148 -0.0987 -0.7672 -1.4603
 1989SOL    HW217427   4.065   2.803   3.210  0.7856 -0.0325 -0.1651
 1990SOL     OW17428   0.323   2.503  16.519 -0.0508  0.7090  0.6302
 1990SOL    HW117429   0.258   2.449  16.474 -0.7050  2.2471 -0.2650
 1990SOL    HW217430   0.346   2.575  16.460 -2.0774  1.1652  0.3829
 1991SOL     OW17431   3.450   1.340   1.222  0.2412 -0.2457  0.2187
 1991SOL    HW117432   3.360   1.310   1.236  0.5943  0.4270  3.8472
 1991SOL    HW217433   3.478   1.367   1.309 -0.4449 -1.9083  0.9614
 1992SOL     OW17434   3.518   4.244  13.682 -0.0373  0.3445  0.3021
 1992SOL    HW117435   3.557   4.278  13.762  0.0276 -1.1323  0.8883
 1992SOL    HW217436   3.425   4.267  13.683  0.7159  3.5219 -0.4804
 1993SOL     OW17437   2.937   3.756   2.770  0.0031 -0.0446 -0.9849
 1993SOL    HW117438   2.926   3.662   2.784  3.6554 -0.2062  0.7863
 1993SOL    HW217439   2.865   3.775   2.710  1.5790 -0.0156 -2.8703
 1994SOL     OW17440   2.100   3.617   4.981  0.2320 -0.0098 -0.7075
 1994SOL    HW117441   2.156   3.631   5.057  2.4280 -1.2108 -2.0998
 1994SOL    HW217442   2.145   3.546   4.936 -0.8322 -1.3692  0.3632
 1995SOL     OW17443   3.960   3.149  12.421 -0.1202  0.2212  0.4611
 1995SOL    HW117444   3.949   3.123  12.329 -1.7331  1.8661  0.1912
 1995SOL    HW217445   3.915   3.233  12.433  2.7902  1.4421  2.7809
 1996SOL     OW17446   4.160   4.203  11.816  0.1453 -0.1744  0.5474
 1996SOL    HW117447   4.187   4.287  11.778  0.9990  0.8342  3.3471
 1996SOL    HW217448   4.241   4.176  11.861  0.4211  0.0543  0.1862
 1997SOL     OW17449   2.607   3.031   3.176  0.0533  0.2940  1.1218
 1997SOL    HW117450   2.549   2.967   3.218  1.5258 -1.2794  0.7534
 1997SOL    HW217451   2.542   3.052   3.109  0.6406  1.7419  1.0168
 1998SOL     OW17452   2.254   2.769  12.242 -0.1708  0.2561  0.0615
 1998SOL    HW117453   2.344   2.790  12.218  0.1393  1.2235  2.0457
 1998SOL    HW217454   2.243   2.817  12.324  0.7711 -2.4842  1.7956
 1999SOL     OW17455   2.794   0.699   1.415 -0.1497 -0.0636 -0.0243
 1999SOL    HW117456   2.809   0.612   1.452  0.1745  0.0907  0.1958
 1999SOL    HW217457   2.876   0.744   1.433  0.9095 -1.7119 -0.7864
 2000SOL     OW17458   0.011   4.091   5.072 -0.1204  0.2835 -0.5012
 2000SOL    HW117459   4.713   4.159   5.137  0.3399  1.0078 -1.1225
 2000SOL    HW217460   0.104   4.077   5.085 -0.3403  0.7788  1.7084
 2001SOL     OW17461   1.996   2.027   3.264  0.0003 -0.1097 -0.6285
 2001SOL    HW117462   1.955   2.114   3.265  0.0071 -0.0673 -3.7510
 2001SOL    HW217463   1.916   1.977   3.249  0.3744 -0.9190  0.0562
 2002SOL     OW17464   4.182   4.467   4.764 -0.4568  0.3127 -0.6915
 2002SOL    HW117465   4.184   4.450   4.670  2.6402 -0.1737 -0.5421
 2002SOL    HW217466   4.214   4.556   4.782 -1.2281  0.3103  0.6678
 2003SOL     OW17467   3.665   0.290   6.483  0.1457 -0.1430 -0.3270
 2003SOL    HW117468   3.694   0.380   6.498 -0.2685 -0.3547  1.7430
 2003SOL    HW217469   3.618   0.275   6.566 -0.1042 -0.5369 -0.5397
 2004SOL     OW17470   0.062   3.148  13.628 -0.2499 -0.1762 -0.5357
 2004SOL    HW117471   0.104   3.093  13.694  0.1847  1.6655  0.7357
 2004SOL    HW217472   0.058   3.234  13.669 -1.6726 -0.6644  0.3579
 2005SOL     OW17473   1.031   0.930   4.122 -0.1662  0.4385  0.0774
 2005SOL    HW117474   1.125   0.940   4.103 -0.1328  0.3151  0.1740
 2005SOL    HW217475   1.000   0.884   4.044 -1.6004  0.6448  0.5405
 2006SOL     OW17476   4.005   4.374   9.225 -0.1887 -0.0936  0.2172
 2006SOL    HW117477   4.017   4.468   9.237 -0.1765 -0.1474  0.6264
 2006SOL    HW217478   4.075   4.335   9.277  1.5077  1.8848 -0.6062
 2007SOL     OW17479   3.418   0.887  13.490  0.2749  0.1191  0.0740
 2007SOL    HW117480   3.405   0.951  13.560  0.2974  1.6749 -1.3241
 2007SOL    HW217481   3.434   0.812  13.547 -0.8187 -1.3334 -1.5118
 2008SOL     OW17482   1.773   4.526   9.593 -0.0103  0.6076 -0.0189
 2008SOL    HW117483   1.775   4.605   9.646  0.4031  0.9797 -0.5925
 2008SOL    HW217484   1.715   4.469   9.645  0.6089 -0.5160 -0.5562
 2009SOL     OW17485   2.839   4.228   5.210 -0.5046 -0.1078  0.2871
 2009SOL    HW117486   2.767   4.165   5.203 -0.1705 -0.2470 -1.8241
 2009SOL    HW217487   2.791   4.309   5.230  0.2297  0.0759  1.2689
 2010SOL     OW17488   3.026   3.325   1.988  0.3815  0.7138  0.7893
 2010SOL    HW117489   2.960   3.366   2.043 -0.2202 -0.6596  1.0868
 2010SOL    HW217490   3.105   3.333   2.043  0.0986  0.0938  1.2915
 2011SOL     OW17491   3.274   3.635   6.265  0.2936 -0.3841  0.1951
 2011SOL    HW117492   3.212   3.634   6.338 -1.3776  1.2132 -1.1846
 2011SOL    HW217493   3.351   3.586   6.293  1.1496  1.5418  1.1923
 2012SOL     OW17494   4.258   0.998   2.188 -0.5076 -0.0314  0.2315
 2012SOL    HW117495   4.195   0.928   2.170 -1.7344  0.6994  1.6500
 2012SOL    HW217496   4.229   1.083   2.153 -1.3598 -0.4023  0.0214
 2013SOL     OW17497   2.771   2.328  13.379  0.7147  0.3014  0.1274
 2013SOL    HW117498   2.811   2.287  13.455 -3.2692 -1.7797  1.1182
 2013SOL    HW217499   2.842   2.365  13.327 -0.1551 -0.0887 -1.3451
 2014SOL     OW17500   1.243   1.071   4.378 -0.0818  0.3049  0.4707
 2014SOL    HW117501   1.225   1.037   4.290 -0.4427 -0.4454  0.8353
 2014SOL    HW217502   1.275   0.992   4.421 -3.0504 -0.5466  1.0943
 2015SOL     OW17503   3.470   3.755  12.539  0.4618 -0.3605  0.0253
 2015SOL    HW117504   3.428   3.778  12.621 -2.2060  0.4368 -1.5637
 2015SOL    HW217505   3.398   3.773  12.478  0.5259 -1.3197 -0.3341
 2016SOL     OW17506   3.213   2.279   2.008  0.7401  0.8781 -0.2657
 2016SOL    HW117507   3.142   2.253   2.067  1.0758 -0.2056 -0.3334
 2016SOL    HW217508   3.173   2.354   1.965 -0.4476 -0.2752 -1.1756
 2017SOL     OW17509   4.223   3.971   7.164 -0.4628  0.0724  0.2422
 2017SOL    HW117510   4.226   4.036   7.234  0.6138  0.1504  0.1265
 2017SOL    HW217511   4.187   3.895   7.209 -1.1947 -0.5536 -1.3876
 2018SOL     OW17512   0.431   4.162  15.134  0.3856  0.0491 -0.5319
 2018SOL    HW117513   0.336   4.174  15.134  0.4131  0.2497  0.6414
 2018SOL    HW217514   0.437   4.099  15.062  1.5454  0.8580 -1.1341
 2019SOL     OW17515   3.175   3.557   5.507 -0.3554 -0.1270 -0.0377
 2019SOL    HW117516   3.247   3.500   5.482  0.6862  1.5156 -0.7649
 2019SOL    HW217517   3.227   3.635   5.528  1.0567 -0.4954 -2.2256
 2020SOL     OW17518   4.608   3.040   9.520 -0.8564  0.0256 -0.0794
 2020SOL    HW117519   4.516   3.067   9.515 -0.5943  0.7927 -0.7859
 2020SOL    HW217520   4.614   3.031   9.615 -0.4064  2.1883  0.1082
 2021SOL     OW17521   0.735   1.894   5.045  0.0703 -0.4471  0.0853
 2021SOL    HW117522   0.682   1.969   5.017  0.6042 -0.4346 -0.9067
 2021SOL    HW217523   0.715   1.874   5.136 -1.3799 -1.1179 -0.3698
 2022SOL     OW17524   3.039   1.497  14.144  0.0400 -0.0385 -0.0763
 2022SOL    HW117525   3.105   1.562  14.118  2.7582 -2.3386  1.0516
 2022SOL    HW217526   3.033   1.509  14.239 -1.5988  0.4629 -0.2540
 2023SOL     OW17527   3.986   1.006   5.296 -0.3808 -0.2783  0.0629
 2023SOL    HW117528   3.937   1.086   5.275  0.7780  0.4746  0.1876
 2023SOL    HW217529   3.923   0.959   5.350  0.3532 -1.6789 -0.3053
 2024SOL     OW17530   2.157   1.072   4.616 -0.2430 -0.0915  0.0523
 2024SOL    HW117531   2.095   1.001   4.601  0.1714 -0.1139 -1.5799
 2024SOL    HW217532   2.089   1.139   4.618 -0.3592 -0.2685  2.1450
 2025SOL     OW17533   3.299   2.358  16.537 -0.4501 -0.7064 -0.0301
 2025SOL    HW117534   3.243   2.285  16.564 -1.7157 -0.3726 -1.7166
 2025SOL    HW217535   3.290   2.341  16.443  2.0638  1.2241 -0.6218
 2026SOL     OW17536   2.998   0.253   8.058  0.2366 -0.6084  0.0166
 2026SOL    HW117537   3.075   0.228   8.007 -0.8551 -2.2049 -0.8332
 2026SOL    HW217538   2.943   0.287   7.989  0.0021 -1.3192 -0.1449
 2027SOL     OW17539   3.424   4.261  15.332 -0.4852  0.3823  0.4646
 2027SOL    HW117540   3.501   4.276  15.386  1.3463 -0.1667 -1.9961
 2027SOL    HW217541   3.402   4.175  15.368  1.9785 -0.7570 -0.7100
 2028SOL     OW17542   1.513   3.434   2.165 -0.0535 -0.1877  0.7119
 2028SOL    HW117543   1.520   3.525   2.194  3.1730 -0.4850  0.8066
 2028SOL    HW217544   1.433   3.459   2.117  0.7774 -0.0702 -0.6081
 2029SOL     OW17545   1.300   3.227   2.550 -0.4041 -0.4010  0.4193
 2029SOL    HW117546   1.268   3.309   2.512 -0.3509 -0.2233  0.7600
 2029SOL    HW217547   1.226   3.202   2.605  0.5990  0.4743  2.1528
 2030SOL     OW17548   1.875   2.295  15.373 -0.4012 -0.2496  0.2157
 2030SOL    HW117549   1.907   2.350  15.444  0.5286  0.1946 -0.5308
 2030SOL    HW217550   1.943   2.227  15.372 -1.1092 -0.9528 -0.5515
 2031SOL     OW17551   2.966   1.587  14.402 -0.1625 -0.1707  0.5500
 2031SOL    HW117552   2.959   1.647  14.477 -0.3726 -1.2280  1.3904
 2031SOL    HW217553   2.893   1.527  14.421  2.4273 -2.5934  2.8285
 2032SOL     OW17554   1.011   2.376   5.725 -0.1596 -0.6098  0.2880
 2032SOL    HW117555   0.977   2.337   5.645 -2.0713 -0.8285  1.2001
 2032SOL    HW217556   0.990   2.468   5.708  0.9032 -0.0753  1.8773
 2033SOL     OW17557   0.960   3.693   3.277 -0.1022  0.1318  0.2603
 2033SOL    HW117558   0.878   3.742   3.282  0.7789  1.5100  1.0016
 2033SOL    HW217559   0.958   3.636   3.354  2.8263  1.4760  1.3315
 2034SOL     OW17560   0.709   2.651   5.933 -0.0909 -0.6247 -0.4959
 2034SOL    HW117561   0.618   2.621   5.936 -0.8709  1.6723 -1.1497
 2034SOL    HW217562   0.739   2.613   5.851 -1.8773 -2.0266 -0.4954
 2035SOL     OW17563   3.548   4.669  15.611 -0.2314  0.0809 -0.1798
 2035SOL    HW117564   3.505   4.625  15.683 -0.5519  0.8239  0.0810
 2035SOL    HW217565   3.635   4.676  15.652 -0.9029 -1.2099  1.4524
 2036SOL     OW17566   1.948   1.695   7.509 -0.2100 -0.2553 -0.4846
 2036SOL    HW117567   2.011   1.648   7.453  0.8551  1.3676 -0.6648
 2036SOL    HW217568   2.016   1.729   7.567 -1.7774 -0.7003  1.5712
 2037SOL     OW17569   2.406   2.996   7.835  0.1502  0.0871  0.2393
 2037SOL    HW117570   2.347   2.950   7.775 -0.8691 -0.4815  1.6694
 2037SOL    HW217571   2.421   3.075   7.783  0.6420 -1.1837 -1.5599
 2038SOL     OW17572   2.456   2.958   1.788 -0.3750  0.5463 -0.2329
 2038SOL    HW117573   2.483   2.980   1.698 -1.3327  1.2256 -0.3618
 2038SOL    HW217574   2.360   2.956   1.797 -0.0026 -0.9071  3.2301
 2039SOL     OW17575   3.302   2.169  17.496 -0.4605  0.3400 -0.5350
 2039SOL    HW117576   3.383   2.151  17.543 -1.6260  0.8697  1.6862
 2039SOL    HW217577   3.256   2.239  17.542  0.0703  0.4521 -0.1728
 2040SOL     OW17578   3.689   3.482   4.003  0.0263  0.4454 -0.2113
 2040SOL    HW117579   3.629   3.550   3.971 -0.6864 -0.1037 -0.0464
 2040SOL    HW217580   3.768   3.535   4.006  0.2900 -0.0305  1.3291
 2041SOL     OW17581   1.234   2.183   9.264  0.3602 -0.0637  0.7470
 2041SOL    HW117582   1.238   2.208   9.357  0.2807 -3.1305  1.5731
 2041SOL    HW217583   1.290   2.255   9.235 -2.1371  1.0773 -1.1484
 2042SOL     OW17584   3.770   3.438   9.225 -0.0924 -0.7019  0.6704
 2042SOL    HW117585   3.774   3.524   9.182 -1.7912 -2.3059 -2.7400
 2042SOL    HW217586   3.800   3.467   9.311 -1.7307  3.1770 -0.0370
 2043SOL     OW17587   4.419   1.257   7.976 -0.1047  0.1865  0.2091
 2043SOL    HW117588   4.506   1.295   7.991 -0.9536  0.8968  3.2485
 2043SOL    HW217589   4.427   1.172   8.018  0.5517 -0.4750 -1.2449
 2044SOL     OW17590   1.787   1.811   3.338  0.5793  0.4396  0.3762
 2044SOL    HW117591   1.864   1.811   3.396  0.7892 -0.8504  0.1008
 2044SOL    HW217592   1.740   1.736   3.375 -0.1856  1.0215  0.5547
 2045SOL     OW17593   3.488   3.075   9.234  0.0423  0.1723 -0.4406
 2045SOL    HW117594   3.442   3.112   9.159  1.2182 -0.5958 -1.5453
 2045SOL    HW217595   3.449   2.988   9.247 -1.0352  0.8885  1.0843
 2046SOL     OW17596   3.264   3.968   2.276 -0.4924 -0.5218 -0.8123
 2046SOL    HW117597   3.357   3.984   2.260 -0.4397  2.1339  2.1625
 2046SOL    HW217598   3.248   4.022   2.353  2.3399  0.5000 -0.9465
 2047SOL     OW17599   2.379   3.784   3.093  0.3477  0.4025 -0.0814
 2047SOL    HW117600   2.287   3.797   3.070  0.5927  1.7685 -0.3295
 2047SOL    HW217601   2.404   3.720   3.026 -1.8057 -0.3240 -0.1899
 2048SOL     OW17602   0.626   3.655   4.741 -0.3749 -0.0687  0.2790
 2048SOL    HW117603   0.710   3.701   4.730  0.7374 -2.4313 -1.1035
 2048SOL    HW217604   0.649   3.568   4.774 -0.9405 -0.0273  0.7806
 2049SOL     OW17605   0.549   1.944   4.382  0.1933  0.1482 -0.1268
 2049SOL    HW117606   0.610   1.968   4.312 -1.7014  0.2104 -1.7719
 2049SOL    HW217607   0.471   1.980   4.339  1.4192  0.2314 -2.3299
 2050SOL     OW17608   3.346   3.418   7.654 -0.5059  0.0947  0.2444
 2050SOL    HW117609   3.280   3.352   7.676 -0.3946 -0.6482 -1.7303
 2050SOL    HW217610   3.419   3.360   7.635 -0.7151  0.5511 -1.9335
 2051SOL     OW17611   3.068   4.306   8.517 -0.8042  0.4892 -0.4858
 2051SOL    HW117612   3.033   4.379   8.465  2.6025  0.3640 -2.9094
 2051SOL    HW217613   3.153   4.344   8.537 -1.9026  1.7348  1.9922
 2052SOL     OW17614   0.820   0.606   3.618  0.0382 -0.0216 -0.2120
 2052SOL    HW117615   0.807   0.579   3.709  0.4173  0.6350  0.0412
 2052SOL    HW217616   0.741   0.572   3.576  0.7282 -2.1844  0.2614
 2053SOL     OW17617   3.830   4.190   8.199  0.1225 -0.0508 -0.3685
 2053SOL    HW117618   3.771   4.195   8.124  0.2659  0.7213 -0.4332
 2053SOL    HW217619   3.910   4.152   8.164  0.4875  0.2071  0.1723
 2054SOL     OW17620   2.994   4.437   9.656  0.1608 -0.3629  0.0822
 2054SOL    HW117621   3.049   4.451   9.733  0.5473 -2.1183  0.1409
 2054SOL    HW217622   3.063   4.409   9.595 -0.3534 -1.1934 -0.1179
 2055SOL     OW17623   3.732   2.871  15.210  0.4213  0.1478  0.0259
 2055SOL    HW117624   3.749   2.851  15.302 -2.5016 -0.4831  0.4321
 2055SOL    HW217625   3.823   2.850  15.186 -0.3350 -1.5528 -1.3388
 2056SOL     OW17626   1.384   1.553   4.347 -0.8838  0.5781 -0.0939
 2056SOL    HW117627   1.353   1.490   4.283  1.8529  0.8703 -1.7057
 2056SOL    HW217628   1.452   1.602   4.301 -0.8024  0.9095  0.3744
 2057SOL     OW17629   4.434   2.888   3.030 -0.3217 -0.2093  0.4910
 2057SOL    HW117630   4.520   2.930   3.035 -0.6374  0.3985  0.7230
 2057SOL    HW217631   4.399   2.911   3.116  3.0304  2.8574  1.0349
 2058SOL     OW17632   4.133   1.765   9.570  0.7010  0.3186  0.1273
 2058SOL    HW117633   4.152   1.859   9.564 -0.0628  0.4392 -0.4058
 2058SOL    HW217634   4.135   1.746   9.664  1.3406 -0.9833 -0.1435
 2059SOL     OW17635   3.880   3.833   6.856  0.1704 -0.3660 -0.9326
 2059SOL    HW117636   3.850   3.810   6.944  0.5578  1.8397 -0.2330
 2059SOL    HW217637   3.959   3.887   6.861 -0.3814  0.3322  0.4644
 2060SOL     OW17638   4.510   0.864  10.991 -0.1341 -0.4420 -0.2081
 2060SOL    HW117639   4.452   0.897  10.923 -1.8568 -0.4937  1.2357
 2060SOL    HW217640   4.543   0.947  11.025  1.1630 -1.2871  0.6185
 2061SOL     OW17641   3.009   2.095  16.597  0.3109 -0.0236  0.4757
 2061SOL    HW117642   3.058   2.031  16.546  0.5499  1.1361 -0.7656
 2061SOL    HW217643   3.060   2.123  16.673 -1.2676 -2.4982  2.4309
 2062SOL     OW17644   2.803   1.140  11.327  1.1182 -0.4533 -0.5818
 2062SOL    HW117645   2.881   1.190  11.350  0.7232 -0.6148  1.1058
 2062SOL    HW217646   2.777   1.179  11.244  0.6003  1.0091  0.2811
 2063SOL     OW17647   1.185   2.670   4.196 -0.2604  0.4294  0.4178
 2063SOL    HW117648   1.222   2.652   4.110  0.5824  0.9649  0.6699
 2063SOL    HW217649   1.233   2.748   4.224 -1.4637  1.6798 -1.0205
 2064SOL     OW17650   0.857   4.176   0.653 -0.2773 -0.2647 -0.5880
 2064SOL    HW117651   0.786   4.230   0.685  2.2442  0.7325  3.3164
 2064SOL    HW217652   0.867   4.200   0.561  0.5205  2.1572  0.1370
 2065SOL     OW17653   4.410   0.802   6.743  0.0305 -0.5784  0.0040
 2065SOL    HW117654   4.343   0.736   6.762 -1.1683  0.8785  0.8031
 2065SOL    HW217655   4.488   0.748   6.757 -0.8177 -2.4101 -2.1717
 2066SOL     OW17656   1.953   4.697   2.501 -0.0805  0.5729  0.5300
 2066SOL    HW117657   1.873   4.654   2.469  0.3333 -1.2614  1.9506
 2066SOL    HW217658   1.964   0.054   2.447 -0.4192 -0.1919 -0.6404
 2067SOL     OW17659   1.310   4.424   2.778  0.2040 -0.1496  0.2465
 2067SOL    HW117660   1.235   4.470   2.816 -1.0774 -1.8912 -0.1312
 2067SOL    HW217661   1.262   4.357   2.730 -0.7090 -0.4129  1.5212
 2068SOL     OW17662   4.551   0.022   7.467 -0.7612  0.0371 -0.5253
 2068SOL    HW117663   4.514   0.080   7.534  1.8059 -1.6157  2.3173
 2068SOL    HW217664   4.623   0.079   7.440 -0.8782  0.5460  0.2319
 2069SOL     OW17665   3.196   0.679   1.067 -0.2392 -0.5946  0.0365
 2069SOL    HW117666   3.109   0.662   1.030 -0.5530 -0.6383  0.7891
 2069SOL    HW217667   3.245   0.640   0.994 -0.9782  2.2722 -2.0256
 2070SOL     OW17668   4.636   4.327   9.985  0.1444  0.3395 -0.2866
 2070SOL    HW117669   4.691   4.249   9.976 -0.9937 -0.5843  0.7765
 2070SOL    HW217670   4.595   4.321  10.071  0.2928 -2.5186 -0.4144
 2071SOL     OW17671   1.744   1.934   3.929 -0.6380 -0.4727 -0.0740
 2071SOL    HW117672   1.726   1.937   4.023  3.6708 -1.2854  0.7911
 2071SOL    HW217673   1.748   2.027   3.909 -0.3704  0.2177  3.2707
 2072SOL     OW17674   4.615   2.698   1.308 -0.0065 -0.6051  0.0810
 2072SOL    HW117675   4.604   2.619   1.361  0.6299  0.5187  1.9258
 2072SOL    HW217676   4.617   2.767   1.375  0.0876  0.7479 -1.3273
 2073SOL     OW17677   0.479   4.275   6.669 -0.0856 -0.7441  0.1317
 2073SOL    HW117678   0.463   4.369   6.658 -0.1521 -0.7765 -0.0463
 2073SOL    HW217679   0.439   4.273   6.756 -1.4964 -0.8710 -0.5309
 2074SOL     OW17680   1.444   4.265   0.075 -0.2110  0.2911 -0.1021
 2074SOL    HW117681   1.516   4.241   0.017 -0.7174 -0.7793 -0.2878
 2074SOL    HW217682   1.403   4.179   0.081  0.9359 -0.0764  2.4063
 2075SOL     OW17683   1.357   2.188   2.627 -0.0641  0.3511 -0.5715
 2075SOL    HW117684   1.381   2.271   2.668 -1.3274 -0.2652  1.4245
 2075SOL    HW217685   1.273   2.170   2.671  1.5222  0.0746  2.3358
 2076SOL     OW17686   0.947   1.952  11.539  0.0140 -0.2392 -0.5791
 2076SOL    HW117687   0.956   1.862  11.506 -1.4892  0.2299 -2.2815
 2076SOL    HW217688   0.957   2.008  11.462  0.4246 -1.1832 -1.2119
 2077SOL     OW17689   1.261   1.628  15.917 -0.2865 -0.0806  0.3638
 2077SOL    HW117690   1.187   1.688  15.923 -0.1764 -0.1262  2.1957
 2077SOL    HW217691   1.266   1.620  15.821  1.1464  1.2418  0.3374
 2078SOL     OW17692   1.600   4.172   6.243 -0.2052  0.1507  0.0906
 2078SOL    HW117693   1.643   4.096   6.203  1.1502  1.2621 -0.5675
 2078SOL    HW217694   1.548   4.115   6.300  0.4372 -0.1833  0.3468
 2079SOL     OW17695   4.308   2.158   3.549 -0.5010  0.7225 -0.3819
 2079SOL    HW117696   4.342   2.070   3.531 -1.1185  0.5770 -0.8362
 2079SOL    HW217697   4.337   2.179   3.638 -0.3656 -1.9951  0.2200
 2080SOL     OW17698   4.651   0.245  14.485 -0.1077  0.7168  0.3653
 2080SOL    HW117699   4.611   0.312  14.429 -0.8397  0.6259  0.7714
 2080SOL    HW217700   0.016   0.284  14.498 -0.4493  1.8039 -0.6567
 2081SOL     OW17701   1.944   2.943   2.111  0.2862  0.2491 -0.6232
 2081SOL    HW117702   2.032   2.977   2.094 -0.3747  1.8114 -0.8748
 2081SOL    HW217703   1.959   2.859   2.155 -0.4517  0.4416 -0.0015
 2082SOL     OW17704   1.725   1.987   2.196 -0.0647  0.1988 -0.5183
 2082SOL    HW117705   1.780   1.921   2.154 -0.8365 -1.5624  1.2426
 2082SOL    HW217706   1.745   1.966   2.287  0.8831 -0.9798 -1.0028
 2083SOL     OW17707   0.161   1.034   5.843  0.2073 -0.1371 -0.6560
 2083SOL    HW117708   0.077   1.002   5.877 -0.0260  1.6509  0.4356
 2083SOL    HW217709   0.192   0.957   5.795 -1.5438 -1.0569 -0.3174
 2084SOL     OW17710   0.487   1.575   7.345 -0.0540 -0.3760  0.7874
 2084SOL    HW117711   0.535   1.492   7.341 -0.2424 -0.3724 -1.5586
 2084SOL    HW217712   0.537   1.632   7.286 -0.0084  0.4245  1.6086
 2085SOL     OW17713   1.877   1.453   5.041 -0.0269 -0.7053 -0.3015
 2085SOL    HW117714   1.788   1.480   5.066  0.3290 -0.7311  0.9866
 2085SOL    HW217715   1.899   1.373   5.088  1.3270  0.7346  1.5300
 2086SOL     OW17716   2.613   4.570   3.034 -0.5323 -0.2988 -0.7616
 2086SOL    HW117717   2.528   4.535   3.008 -1.5904  1.1258  0.7917
 2086SOL    HW217718   2.664   4.489   3.041 -1.1330 -0.8297 -2.5310
 2087SOL     OW17719   0.274   3.177   4.846  0.8089 -0.3562  0.0633
 2087SOL    HW117720   0.253   3.100   4.793 -1.6650  0.5021 -0.1853
 2087SOL    HW217721   0.270   3.254   4.789  0.2480  0.6796  1.4790
 2088SOL     OW17722   0.445   0.712  10.913  0.0403 -0.0861  0.3321
 2088SOL    HW117723   0.371   0.668  10.871  0.4917  0.3353 -0.8992
 2088SOL    HW217724   0.507   0.708  10.840 -0.2377 -3.2045  0.2539
 2089SOL     OW17725   3.915   0.183  10.210  0.1187  0.7507  0.0866
 2089SOL    HW117726   3.923   0.105  10.156 -3.5086  0.9546 -0.7512
 2089SOL    HW217727   3.833   0.218  10.175  0.7409 -0.5083 -2.5809
 2090SOL     OW17728   1.216   2.070   0.091 -0.4930 -0.2418 -0.1479
 2090SOL    HW117729   1.191   2.159   0.116 -0.1535 -0.8491  2.3614
 2090SOL    HW217730   1.311   2.079   0.105 -0.6588  0.8571  0.2467
 2091SOL     OW17731   1.080   2.700   0.874 -0.5275  0.3333 -0.2308
 2091SOL    HW117732   1.048   2.728   0.960  1.2943 -1.4626  1.0365
 2091SOL    HW217733   1.146   2.769   0.862 -1.2280  1.1009  0.2531
 2092SOL     OW17734   3.644   2.418  17.010 -0.2302  0.3660  0.5738
 2092SOL    HW117735   3.698   2.365  16.951  0.0544  0.6184  0.6071
 2092SOL    HW217736   3.570   2.363  17.034  1.8836 -2.9551 -0.4960
 2093SOL     OW17737   2.166   1.435  12.009 -0.1172  0.3446 -0.2838
 2093SOL    HW117738   2.112   1.468  12.081  2.0656  2.5294  0.3506
 2093SOL    HW217739   2.252   1.477  12.014 -0.5841  1.1634  0.9198
 2094SOL     OW17740   3.706   2.709   2.916  0.0026  0.1716 -0.0245
 2094SOL    HW117741   3.622   2.746   2.888  0.5573  1.8565  0.5834
 2094SOL    HW217742   3.740   2.785   2.964  0.5763 -0.0435 -0.0913
 2095SOL     OW17743   2.666   1.858  11.027  0.5931  0.6002 -0.1844
 2095SOL    HW117744   2.608   1.843  10.952  1.1291 -1.7534 -0.1292
 2095SOL    HW217745   2.738   1.906  10.986  0.3713  0.4479 -0.7627
 2096SOL     OW17746   2.941   2.668   5.099 -0.2036  0.1462 -0.1571
 2096SOL    HW117747   3.033   2.669   5.126  0.0296  1.3244 -0.9795
 2096SOL    HW217748   2.920   2.762   5.098 -0.3593  0.1473  2.9203
 2097SOL     OW17749   1.152   4.673   8.597 -0.7374  0.0252  0.2883
 2097SOL    HW117750   1.059   4.680   8.618 -0.8185 -0.8020  0.2256
 2097SOL    HW217751   1.171   0.042   8.622  2.0598 -0.5742  0.2579
 2098SOL     OW17752   0.977   1.658   2.654  0.4162  0.5635  0.0785
 2098SOL    HW117753   1.071   1.665   2.671  0.8072  0.4406 -1.9745
 2098SOL    HW217754   0.989   1.665   2.559 -2.1368 -1.1111 -0.3628
 2099SOL     OW17755   1.295   0.652  15.851  0.1684  0.0851 -0.1996
 2099SOL    HW117756   1.299   0.561  15.881  1.6800  0.5952  1.1818
 2099SOL    HW217757   1.384   0.685  15.865 -0.0620  0.7499 -0.2868
 2100SOL     OW17758   2.973   0.087   5.494  0.1541  0.4569 -0.2364
 2100SOL    HW117759   2.894   0.051   5.455 -0.8600  1.7899  0.5770
 2100SOL    HW217760   3.035   0.019   5.468 -0.6097 -0.6547  0.8296
 2101SOL     OW17761   2.615   3.109   8.236  0.4470  0.0438 -0.0758
 2101SOL    HW117762   2.681   3.169   8.269 -0.4253  1.5897 -1.1792
 2101SOL    HW217763   2.623   3.122   8.141  1.9822  1.1775  0.2024
 2102SOL     OW17764   4.540   1.037   9.923 -0.1634 -0.0130 -0.1403
 2102SOL    HW117765   4.540   1.045   9.827 -1.5462  1.0879 -0.0482
 2102SOL    HW217766   4.506   0.949   9.936  0.5679 -0.1923  0.5404
 2103SOL     OW17767   1.047   1.763   9.123 -0.1442 -0.3122 -0.2725
 2103SOL    HW117768   1.057   1.668   9.116  0.2007 -0.2301 -0.9484
 2103SOL    HW217769   1.112   1.785   9.056  0.2426  0.6804  0.4241
 2104SOL     OW17770   3.086   3.901   5.701 -0.3996 -0.2115 -0.7139
 2104SOL    HW117771   3.028   3.848   5.756 -1.3829  2.9701  1.3624
 2104SOL    HW217772   3.029   3.978   5.702 -1.7177 -1.1661 -2.9786
 2105SOL     OW17773   3.298   4.141   3.505 -0.2437  0.1260  0.6061
 2105SOL    HW117774   3.314   4.050   3.531 -2.5857 -0.2903  0.5729
 2105SOL    HW217775   3.324   4.139   3.413  1.3036  0.4787  1.0233
 2106SOL     OW17776   1.364   1.426  12.104 -0.6768 -0.2280 -0.0108
 2106SOL    HW117777   1.419   1.348  12.100 -2.0261 -1.1933  0.3009
 2106SOL    HW217778   1.422   1.492  12.065 -0.7894 -0.7619 -1.0812
 2107SOL     OW17779   2.612   4.443  13.608  0.0395 -0.0636  0.6254
 2107SOL    HW117780   2.579   4.474  13.524  0.5410  2.6058  1.3975
 2107SOL    HW217781   2.606   4.518  13.667 -0.7255  1.2564 -1.1400
 2108SOL     OW17782   0.800   2.794  17.268  0.4612  0.0205  0.0749
 2108SOL    HW117783   0.774   2.838  17.187 -2.2043 -2.8594 -0.6555
 2108SOL    HW217784   0.887   2.763  17.245  0.4153  0.2396 -0.3947
 2109SOL     OW17785   0.415   3.646   6.733  0.4945  0.0586 -0.2879
 2109SOL    HW117786   0.453   3.603   6.657 -1.0169  0.1416 -1.0921
 2109SOL    HW217787   0.324   3.614   6.736  1.4303 -2.4698  1.2914
 2110SOL     OW17788   3.416   0.733  12.370  0.2890 -0.1820 -0.3349
 2110SOL    HW117789   3.425   0.697  12.281 -0.1473  1.1007 -0.8954
 2110SOL    HW217790   3.411   0.825  12.345  2.1493 -0.2884 -1.0659
 2111SOL     OW17791   1.460   4.675  17.152 -0.0711 -0.1957 -0.0791
 2111SOL    HW117792   1.523   4.711  17.091 -0.6194 -3.2621 -2.4524
 2111SOL    HW217793   1.521   4.630  17.211  1.8418 -1.3500 -2.9589
 2112SOL     OW17794   2.667   2.041  13.348  0.0493 -0.3301 -0.6696
 2112SOL    HW117795   2.727   2.106  13.386 -2.3586  1.9765 -0.8151
 2112SOL    HW217796   2.641   2.084  13.267  0.5175  0.4333 -0.4173
 2113SOL     OW17797   4.436   2.574  12.026  0.3136  0.4485 -0.6209
 2113SOL    HW117798   4.411   2.667  12.026  0.9476  0.5904  3.8300
 2113SOL    HW217799   4.436   2.560  11.931  0.4275  1.6391 -0.8083
 2114SOL     OW17800   0.900   1.188   5.250 -0.1856  0.1255 -0.0828
 2114SOL    HW117801   0.811   1.224   5.254 -0.3307 -0.2410  0.0382
 2114SOL    HW217802   0.903   1.176   5.155 -1.0868  2.6588 -0.4305
 2115SOL     OW17803   1.042   4.130  14.274 -0.2211 -0.0286 -0.6286
 2115SOL    HW117804   1.015   4.096  14.188  0.1213 -1.3283 -0.2132
 2115SOL    HW217805   0.984   4.082  14.333 -0.4598  1.7180  0.5634
 2116SOL     OW17806   0.503   2.595   4.517  0.3530 -0.3111  0.1062
 2116SOL    HW117807   0.437   2.600   4.448  0.2923 -0.8525  0.1247
 2116SOL    HW217808   0.445   2.588   4.592 -0.7227 -0.5690 -0.7457
 2117SOL     OW17809   1.430   0.894   3.765 -0.1017 -0.2567  0.0945
 2117SOL    HW117810   1.454   0.935   3.682  0.4411  1.4312  1.0771
 2117SOL    HW217811   1.370   0.963   3.797  0.6618  0.4356  0.0326
 2118SOL     OW17812   2.370   0.539   6.524 -0.3663 -0.0163  0.3806
 2118SOL    HW117813   2.457   0.517   6.491 -0.3247  3.3883 -1.8714
 2118SOL    HW217814   2.335   0.451   6.534  0.6461 -0.4276  0.2563
 2119SOL     OW17815   3.252   2.158   6.766  0.2024  0.9992  0.3083
 2119SOL    HW117816   3.229   2.216   6.839 -1.3668  1.0840 -0.2557
 2119SOL    HW217817   3.241   2.073   6.808 -0.0202  0.7829 -0.1785
 2120SOL     OW17818   4.164   2.259  10.693  0.4224 -0.1776 -0.2036
 2120SOL    HW117819   4.208   2.212  10.622 -2.1069 -0.7560 -1.3985
 2120SOL    HW217820   4.223   2.236  10.765 -1.3074 -0.3527  1.1459
 2121SOL     OW17821   4.220   0.989   4.230  0.3122 -0.1675 -0.7022
 2121SOL    HW117822   4.177   0.968   4.146  0.9293 -0.2168 -1.0016
 2121SOL    HW217823   4.207   0.904   4.273  0.7262  0.3981  0.5107
 2122SOL     OW17824   0.484   3.910   2.404  0.3315 -0.0965 -0.4342
 2122SOL    HW117825   0.495   3.937   2.313 -1.7674  0.8633 -0.4119
 2122SOL    HW217826   0.456   3.995   2.438 -0.9039 -0.3247 -0.8660
 2123SOL     OW17827   2.228   3.866   6.197 -0.0962 -0.1823  0.6129
 2123SOL    HW117828   2.265   3.952   6.217  0.0016 -0.2589  0.7631
 2123SOL    HW217829   2.149   3.873   6.250  0.9965  2.8715  1.8272
 2124SOL     OW17830   0.223   2.266  10.127 -1.4070  0.4487 -0.4979
 2124SOL    HW117831   0.207   2.359  10.109 -1.4333  0.7039  0.8414
 2124SOL    HW217832   0.242   2.244  10.036  2.3947 -1.1640  0.7125
 2125SOL     OW17833   1.206   3.234   7.048  0.2518  0.0463  0.3095
 2125SOL    HW117834   1.215   3.180   6.970  2.0018 -1.8699  1.8429
 2125SOL    HW217835   1.158   3.172   7.102 -1.1918 -0.2097 -1.2963
 2126SOL     OW17836   0.955   1.888   2.867 -0.6190  0.3593 -0.2020
 2126SOL    HW117837   0.861   1.899   2.872 -0.6264  0.5945 -0.8699
 2126SOL    HW217838   0.977   1.835   2.944  0.0925  1.6405  0.4795
 2127SOL     OW17839   3.316   2.360   4.017 -0.4680  0.4608 -0.1914
 2127SOL    HW117840   3.411   2.352   4.024 -0.4704  0.5822 -0.0050
 2127SOL    HW217841   3.287   2.291   4.077  1.3366 -1.3294 -1.3833
 2128SOL     OW17842   0.649   3.824   6.845  0.8629  0.4544 -0.0383
 2128SOL    HW117843   0.601   3.744   6.823  1.3514  0.3540 -0.7297
 2128SOL    HW217844   0.693   3.853   6.765  1.1736  0.3114  0.0794
 2129SOL     OW17845   2.970   3.530  10.092  0.1282  0.4953  0.1305
 2129SOL    HW117846   2.948   3.560  10.180  2.3351  0.3193  0.7455
 2129SOL    HW217847   2.889   3.558  10.049  0.5268  0.0855 -0.8951
 2130SOL     OW17848   4.720   3.862   4.312  0.2469 -0.0019 -0.3329
 2130SOL    HW117849   0.043   3.857   4.397 -1.6903  0.2288  0.6773
 2130SOL    HW217850   4.648   3.913   4.349  0.7092  1.5252 -1.5355
 2131SOL     OW17851   0.939   3.050   6.110 -0.1206 -0.0564 -0.1343
 2131SOL    HW117852   1.011   3.000   6.073 -0.7689 -0.3104 -1.0515
 2131SOL    HW217853   0.961   3.023   6.199 -0.5879 -1.1472 -0.3551
 2132SOL     OW17854   1.733   1.371   9.092 -0.6981  0.0778 -0.0078
 2132SOL    HW117855   1.809   1.384   9.035  0.2605 -3.1088  0.5011
 2132SOL    HW217856   1.774   1.328   9.168 -0.2504  0.0966 -0.2403
 2133SOL     OW17857   1.867   1.798  12.459 -0.0147  0.0748  0.1481
 2133SOL    HW117858   1.911   1.839  12.385 -0.9113 -0.8679 -0.9266
 2133SOL    HW217859   1.803   1.870  12.458  1.5197  1.4278  0.7820
 2134SOL     OW17860   1.602   3.606  11.735 -0.3630  0.3424 -0.0994
 2134SOL    HW117861   1.553   3.527  11.759  1.1641 -0.1519  1.4615
 2134SOL    HW217862   1.591   3.665  11.810  2.2246 -1.3627  1.6574
 2135SOL     OW17863   2.409   3.615   8.793 -0.0237 -0.7091 -0.3369
 2135SOL    HW117864   2.403   3.537   8.848  0.5221 -0.0504  0.6784
 2135SOL    HW217865   2.317   3.638   8.778  1.2512  3.7838 -1.1061
 2136SOL     OW17866   1.257   0.771   8.662  0.2258  0.1755  0.0861
 2136SOL    HW117867   1.277   0.698   8.603 -0.6192 -1.4670  1.7963
 2136SOL    HW217868   1.162   0.766   8.676  0.2251 -1.2064 -0.3531
 2137SOL     OW17869   3.846   3.675   5.406  0.1053  0.5153  0.4641
 2137SOL    HW117870   3.807   3.668   5.319  0.9851 -1.9818  0.2733
 2137SOL    HW217871   3.835   3.586   5.439  0.5362  0.4150  0.3352
 2138SOL     OW17872   4.326   3.847  11.956 -0.3181 -0.0563 -0.3918
 2138SOL    HW117873   4.356   3.831  12.045 -0.6509 -1.2149 -0.4937
 2138SOL    HW217874   4.275   3.926  11.972 -0.0242  0.0370  0.0996
 2139SOL     OW17875   1.448   3.193  16.473 -0.6564  0.1928  0.4795
 2139SOL    HW117876   1.511   3.152  16.532 -0.7321  1.4330  1.4143
 2139SOL    HW217877   1.446   3.125  16.406  0.7614  1.2389 -0.6212
 2140SOL     OW17878   3.111   1.543   8.741 -0.1703  0.0174  0.1580
 2140SOL    HW117879   3.017   1.552   8.750 -0.0468  0.8387  0.5575
 2140SOL    HW217880   3.105   1.516   8.649 -0.5282  0.3017  0.0989
 2141SOL     OW17881   4.355   1.225   9.505 -0.0311  0.5094 -0.1961
 2141SOL    HW117882   4.292   1.181   9.562 -0.9327  1.7033 -0.2610
 2141SOL    HW217883   4.373   1.150   9.450 -4.4611 -0.4439 -0.3234
 2142SOL     OW17884   2.631   0.298  14.114  0.1553  0.3136 -0.3598
 2142SOL    HW117885   2.667   0.303  14.202  0.0689 -1.8224 -0.2108
 2142SOL    HW217886   2.557   0.238  14.126 -0.0431  0.6982  0.3664
 2143SOL     OW17887   0.227   4.204   6.260  0.2780 -0.1666 -0.7825
 2143SOL    HW117888   0.300   4.178   6.316 -0.0897 -0.7596 -0.5790
 2143SOL    HW217889   0.243   4.297   6.243  1.4919  0.3178  2.9301
 2144SOL     OW17890   0.986   3.368   8.131  0.3426 -0.0773  0.2900
 2144SOL    HW117891   1.048   3.402   8.066 -0.2746 -2.1564 -1.3895
 2144SOL    HW217892   1.052   3.318   8.180  0.7292  0.2103  0.0637
 2145SOL     OW17893   3.659   4.114  14.866  0.3967 -0.2637 -0.4012
 2145SOL    HW117894   3.726   4.121  14.934 -1.0753  0.1973  1.0054
 2145SOL    HW217895   3.577   4.141  14.907  0.1694 -0.3444 -0.8108
 2146SOL     OW17896   2.754   3.928   4.578 -0.3970  0.1737 -0.3804
 2146SOL    HW117897   2.781   3.861   4.515  0.8404 -1.4524  1.8777
 2146SOL    HW217898   2.834   3.970   4.610  0.4914 -1.9244  0.1609
 2147SOL     OW17899   0.693   3.235  17.551 -0.4316  0.0738  0.2243
 2147SOL    HW117900   0.759   3.201  17.611 -2.4259 -0.1763  2.2457
 2147SOL    HW217901   0.651   3.297  17.609  1.0578  0.2892  1.0567
 2148SOL     OW17902   1.244   3.080   0.357  0.0720 -0.8371  0.2316
 2148SOL    HW117903   1.289   3.151   0.402 -0.7017 -0.3681  0.2620
 2148SOL    HW217904   1.285   3.003   0.396  0.4638 -1.6133 -1.6736
 2149SOL     OW17905   1.623   3.620  14.772  0.4446 -0.2453  0.4790
 2149SOL    HW117906   1.688   3.567  14.726 -1.4235  1.1468 -3.7629
 2149SOL    HW217907   1.653   3.621  14.863  1.3328 -0.9168  0.1930
 2150SOL     OW17908   3.796   3.283   3.243  0.0303 -0.6562 -0.2880
 2150SOL    HW117909   3.835   3.366   3.216  0.9575 -0.7842  0.6924
 2150SOL    HW217910   3.722   3.312   3.297 -0.2389  0.7710 -1.4079
 2151SOL     OW17911   0.907   1.770   3.112  0.0589 -0.6627  0.2567
 2151SOL    HW117912   0.860   1.702   3.161  1.5342 -0.5871  1.7693
 2151SOL    HW217913   0.845   1.843   3.104  0.7483  0.0018  0.9961
 2152SOL     OW17914   0.020   1.019  10.118 -0.2128  0.8306 -0.3161
 2152SOL    HW117915   0.069   0.952  10.069  2.4318  2.9026 -0.5136
 2152SOL    HW217916   4.665   0.967  10.144  1.0044  0.0331  1.7004
 2153SOL     OW17917   2.641   2.520   9.132  0.3985 -0.6987 -0.1357
 2153SOL    HW117918   2.675   2.431   9.117 -3.4076 -1.9422 -1.2944
 2153SOL    HW217919   2.679   2.546   9.216 -1.7010  1.2184  0.2151
 2154SOL     OW17920   0.794   3.121  11.650 -0.3411  0.1496  1.1264
 2154SOL    HW117921   0.824   3.123  11.741 -0.2120  0.7768  1.0728
 2154SOL    HW217922   0.871   3.118  11.594 -0.5869  1.0246  0.7355
 2155SOL     OW17923   4.200   0.120   8.860 -0.2751  0.2404  0.4801
 2155SOL    HW117924   4.237   0.063   8.927 -0.4053  0.1846  0.5051
 2155SOL    HW217925   4.132   0.068   8.818  1.0247 -0.4296 -0.7662
 2156SOL     OW17926   3.268   4.677   8.094 -0.6077  0.0031  0.0107
 2156SOL    HW117927   3.239   0.038   8.054 -0.0126  1.0206  1.6444
 2156SOL    HW217928   3.198   4.669   8.159 -2.0531  2.0692 -1.2879
 2157SOL     OW17929   1.035   0.921  11.525  0.4861  0.3355  0.1906
 2157SOL    HW117930   0.970   0.985  11.494  0.9778  0.9414  0.4012
 2157SOL    HW217931   1.020   0.920  11.620 -0.5643 -1.0485  0.0132
 2158SOL     OW17932   3.264   4.488   3.089  0.1042 -0.0822 -0.0897
 2158SOL    HW117933   3.244   4.581   3.088  0.4707  0.0120  1.3510
 2158SOL    HW217934   3.306   4.474   3.174 -0.6951 -0.7008  0.2090
 2159SOL     OW17935   0.558   2.981  11.476 -0.4339  0.0482  0.3269
 2159SOL    HW117936   0.487   3.037  11.510 -1.4069 -2.5304  2.5130
 2159SOL    HW217937   0.626   3.023  11.529 -0.3503 -0.1642  0.3877
 2160SOL     OW17938   2.258   2.684   1.667 -0.0651  0.0681 -0.1683
 2160SOL    HW117939   2.344   2.693   1.627  0.3525  2.5963  1.3422
 2160SOL    HW217940   2.203   2.739   1.611  1.5305  2.7579  0.9462
 2161SOL     OW17941   4.035   3.816   8.466 -0.2123  0.4283 -0.1840
 2161SOL    HW117942   3.981   3.766   8.405  0.6845  0.2952 -0.8703
 2161SOL    HW217943   4.088   3.743   8.497 -2.9144 -2.2753 -1.8834
 2162SOL     OW17944   4.611   1.869  12.565  0.0935  0.3555  0.3116
 2162SOL    HW117945   4.578   1.798  12.621  0.1773 -0.4806 -0.7021
 2162SOL    HW217946   4.696   1.891  12.602  1.9370 -0.2837 -3.5739
 2163SOL     OW17947   0.639   0.007   4.363 -0.0678  0.2475  0.4114
 2163SOL    HW117948   0.704   4.671   4.323  1.5842  0.1391  3.2503
 2163SOL    HW217949   0.677   0.092   4.341  1.9354 -0.6762  0.3678
 2164SOL     OW17950   3.232   2.607   2.703  0.2063  0.1645  0.8727
 2164SOL    HW117951   3.214   2.619   2.609  1.8038 -0.8296  0.4409
 2164SOL    HW217952   3.198   2.692   2.731  0.9462  0.4519  0.8961
 2165SOL     OW17953   1.213   2.662   9.657  0.2531  0.5661  0.0603
 2165SOL    HW117954   1.221   2.630   9.567  0.0019 -2.1217  0.9682
 2165SOL    HW217955   1.154   2.594   9.690  0.5398  0.7958  1.0662
 2166SOL     OW17956   3.146   1.560   3.134 -0.7109 -0.5156  0.3146
 2166SOL    HW117957   3.073   1.602   3.088  0.8801  0.7178 -1.0745
 2166SOL    HW217958   3.161   1.489   3.071  0.9081  0.4797 -0.4099
 2167SOL     OW17959   1.394   2.634   2.187  0.2501 -0.6652  0.0814
 2167SOL    HW117960   1.341   2.580   2.128 -0.0098  0.9778 -1.1746
 2167SOL    HW217961   1.429   2.574   2.254 -2.1110 -1.4385  0.6406
 2168SOL     OW17962   0.431   1.166   7.279 -0.3890 -0.5985  0.0972
 2168SOL    HW117963   0.338   1.187   7.270  0.0303  0.4676 -1.9603
 2168SOL    HW217964   0.429   1.139   7.370  1.0111  0.6413  0.4991
 2169SOL     OW17965   2.903   0.720   8.845 -0.5401  0.6087  0.5929
 2169SOL    HW117966   2.931   0.718   8.936  0.0971  0.1946  0.3851
 2169SOL    HW217967   2.953   0.794   8.810 -2.3392  0.9703 -1.2330
 2170SOL     OW17968   4.478   4.563  15.929  0.5141 -0.2573  0.6612
 2170SOL    HW117969   4.508   4.600  16.012 -0.2344 -0.8069  1.1711
 2170SOL    HW217970   4.425   4.489  15.957  2.2147 -2.4555 -1.8386
 2171SOL     OW17971   2.276   3.044  11.030 -0.2204  0.5177  0.5034
 2171SOL    HW117972   2.233   3.112  10.977 -2.1719 -1.1908 -0.1093
 2171SOL    HW217973   2.312   3.096  11.102  2.0778 -1.8443  1.0318
 2172SOL     OW17974   1.080   0.385   7.805 -0.0331  0.1465 -0.0244
 2172SOL    HW117975   1.096   0.300   7.845  1.9952  1.1083  1.1842
 2172SOL    HW217976   1.000   0.414   7.849 -0.0012  0.8300 -0.4028
 2173SOL     OW17977   1.913   0.739   6.287 -0.4329 -0.6862  0.8894
 2173SOL    HW117978   1.826   0.758   6.252 -0.3586 -3.0742 -0.5918
 2173SOL    HW217979   1.882   0.707   6.371  0.0575 -0.0874  1.2999
 2174SOL     OW17980   1.238   3.133   7.475  0.0470 -0.1399  0.5032
 2174SOL    HW117981   1.306   3.107   7.414 -0.1211  0.4009  0.0847
 2174SOL    HW217982   1.254   3.227   7.480  0.1602 -0.1461  0.2664
 2175SOL     OW17983   3.419   3.691   2.725  0.3071  0.6243  0.7689
 2175SOL    HW117984   3.511   3.714   2.735  0.4772  0.3378 -0.1017
 2175SOL    HW217985   3.428   3.597   2.740 -3.1179  0.4293  1.6436
 2176SOL     OW17986   0.827   1.397   4.539  0.0226 -0.4898 -0.4909
 2176SOL    HW117987   0.836   1.492   4.549  0.0625 -0.9359  3.4766
 2176SOL    HW217988   0.902   1.390   4.479  0.7052 -1.2072  0.4586
 2177SOL     OW17989   2.621   2.116   7.046  0.5437  0.1011  0.1963
 2177SOL    HW117990   2.599   2.069   7.127  0.5392  0.3687  0.3496
 2177SOL    HW217991   2.706   2.156   7.063  0.3283  1.4076 -1.6905
 2178SOL     OW17992   2.165   1.209  15.295 -0.1582  0.2636  0.1372
 2178SOL    HW117993   2.091   1.264  15.271 -0.3134 -0.5904 -1.3630
 2178SOL    HW217994   2.150   1.135  15.236  2.5772  0.2788 -0.5886
 2179SOL     OW17995   1.293   1.009   4.103 -0.0288  0.4943  0.0898
 2179SOL    HW117996   1.370   0.982   4.153  0.0704 -0.1690 -0.4194
 2179SOL    HW217997   1.339   1.037   4.023  0.7170  1.4019  0.8324
 2180SOL     OW17998   4.164   0.650   2.884  0.0064  0.2074 -0.1325
 2180SOL    HW117999   4.136   0.727   2.934  1.4947 -0.0301  1.0701
 2180SOL    HW218000   4.076   0.619   2.866  0.7230 -1.8428 -0.0828
 2181SOL     OW18001   0.167   0.705  11.591 -0.0626  0.3858  0.2480
 2181SOL    HW118002   0.158   0.665  11.504 -1.4180  0.5562  0.3038
 2181SOL    HW218003   0.117   0.787  11.581 -3.1402 -1.5289  0.1260
 2182SOL     OW18004   3.154   0.924   1.916  0.0352 -0.3052  0.0179
 2182SOL    HW118005   3.096   0.949   1.987 -1.7237  0.0494 -1.5465
 2182SOL    HW218006   3.223   0.881   1.966  1.8702  0.8086 -1.5837
 2183SOL     OW18007   3.415   3.571   3.911  0.3590 -0.3070 -0.4468
 2183SOL    HW118008   3.391   3.513   3.983  0.7993 -0.4599 -0.4271
 2183SOL    HW218009   3.326   3.597   3.885 -0.3398  0.1098  2.3293
 2184SOL     OW18010   3.957   0.931  12.709  0.2805 -0.5831 -0.2687
 2184SOL    HW118011   3.927   0.849  12.671 -1.9693  0.0301  0.2076
 2184SOL    HW218012   3.901   0.946  12.785  0.6386  1.9538 -0.4929
 2185SOL     OW18013   4.148   3.094   6.265 -0.1424  0.1186 -0.4130
 2185SOL    HW118014   4.107   3.035   6.328  2.5397 -0.4935  0.7324
 2185SOL    HW218015   4.100   3.173   6.291 -0.8051  0.1035 -1.5986
 2186SOL     OW18016   0.047   1.812   2.851 -0.2612 -0.5256 -0.5520
 2186SOL    HW118017   4.715   1.881   2.812 -1.5769 -0.6714  0.9671
 2186SOL    HW218018   0.054   1.757   2.773  2.1152 -2.0737  0.7459
 2187SOL     OW18019   0.670   4.089  11.992 -0.3064  0.1111 -0.4101
 2187SOL    HW118020   0.715   4.070  12.074 -0.9459 -1.5611 -0.4561
 2187SOL    HW218021   0.579   4.069  12.015 -0.0009 -1.9785 -1.0765
 2188SOL     OW18022   3.875   1.739   4.154  0.3821  0.1202  0.1481
 2188SOL    HW118023   3.913   1.685   4.085 -0.3433  0.8165 -0.7918
 2188SOL    HW218024   3.917   1.706   4.233 -0.8470  0.1913  0.8266
 2189SOL     OW18025   1.160   4.467  17.195  0.1238  0.4722 -0.1439
 2189SOL    HW118026   1.226   4.411  17.236  0.5276  0.9413 -0.1489
 2189SOL    HW218027   1.119   4.398  17.142 -1.0900  1.5172 -0.5617
 2190SOL     OW18028   2.711   2.167   7.769 -0.0534  0.7922  0.2047
 2190SOL    HW118029   2.790   2.221   7.760 -1.8637  3.5335  0.5621
 2190SOL    HW218030   2.672   2.192   7.852  0.2701 -1.2821  0.9796
 2191SOL     OW18031   4.169   2.404   7.373  0.3049  0.1321  0.6092
 2191SOL    HW118032   4.228   2.332   7.351 -0.0681  0.2821 -0.9133
 2191SOL    HW218033   4.205   2.411   7.461 -1.2210 -0.3964  1.2689
 2192SOL     OW18034   0.040   1.920  12.314 -0.4135  0.7993 -0.6948
 2192SOL    HW118035   0.130   1.927  12.346 -0.1867  1.7073 -1.5430
 2192SOL    HW218036   0.001   1.920  12.401 -2.2586  0.1686 -1.5130
 2193SOL     OW18037   3.294   2.389   5.698 -0.1119 -0.3132  0.0755
 2193SOL    HW118038   3.281   2.474   5.739 -0.5294 -0.6867  0.7098
 2193SOL    HW218039   3.311   2.416   5.608  1.8624  0.3964  0.6565
 2194SOL     OW18040   2.507   1.527   2.597  0.5977 -0.1187  0.5118
 2194SOL    HW118041   2.488   1.537   2.503  0.1183 -0.8068  0.5410
 2194SOL    HW218042   2.597   1.560   2.595  0.2951  0.7908  1.7679
 2195SOL     OW18043   0.421   0.525   5.129 -0.1281 -0.2679  0.2283
 2195SOL    HW118044   0.443   0.618   5.118  0.2388 -0.4809 -0.7911
 2195SOL    HW218045   0.373   0.511   5.047  0.3684  0.8711 -0.2511
 2196SOL     OW18046   4.676   0.643   6.780  0.0343  0.1580  0.2452
 2196SOL    HW118047   0.002   0.585   6.720  2.3365 -1.7763  3.9088
 2196SOL    HW218048   0.009   0.722   6.770  2.6696 -1.6671 -0.0372
 2197SOL     OW18049   1.479   0.834  16.827  0.0814 -0.2563 -0.1689
 2197SOL    HW118050   1.449   0.819  16.737 -0.7029  0.6771 -0.0580
 2197SOL    HW218051   1.557   0.779  16.836  1.3319  1.1586 -2.2008
 2198SOL     OW18052   4.278   0.867  14.467  0.7604 -1.1632  0.4161
 2198SOL    HW118053   4.260   0.955  14.499 -1.6490 -0.9416 -1.4989
 2198SOL    HW218054   4.198   0.839  14.423  0.0667 -0.1725  1.0702
 2199SOL     OW18055   3.768   1.597   3.319 -0.3917  0.2326 -0.1202
 2199SOL    HW118056   3.677   1.602   3.350  0.1193 -2.3111  1.8271
 2199SOL    HW218057   3.797   1.684   3.344 -1.5121  1.1424 -1.9914
 2200SOL     OW18058   2.934   4.663   9.048 -0.3371  0.4350  0.1596
 2200SOL    HW118059   2.881   4.585   9.039  1.2319 -0.6364  0.2079
 2200SOL    HW218060   3.025   4.634   9.041 -0.7759 -0.8796 -0.0861
 2201SOL     OW18061   0.318   0.110   2.965 -0.0671  0.1639  0.4747
 2201SOL    HW118062   0.262   0.033   2.960  0.0777  0.0942 -0.0885
 2201SOL    HW218063   0.395   0.074   3.011 -0.2571 -1.2618 -0.3354
 2202SOL     OW18064   0.900   1.383   6.687 -0.0679  0.2930  0.4064
 2202SOL    HW118065   0.857   1.393   6.772 -0.4833 -2.7328  0.5289
 2202SOL    HW218066   0.973   1.321   6.698 -0.2398  0.2051  1.0425
 2203SOL     OW18067   0.535   2.248  13.389 -0.2385 -0.8768  0.6192
 2203SOL    HW118068   0.524   2.313  13.319 -1.7455 -2.5204 -0.6859
 2203SOL    HW218069   0.553   2.298  13.469 -2.8386  1.0816  0.0263
 2204SOL     OW18070   1.997   2.647   3.331  0.0939  0.8269  0.3550
 2204SOL    HW118071   1.992   2.719   3.268 -0.2070  1.4357  1.0761
 2204SOL    HW218072   2.023   2.694   3.410 -0.3814 -2.6015  2.5500
 2205SOL     OW18073   2.975   1.893   8.223  0.5103  0.0233 -0.0521
 2205SOL    HW118074   3.063   1.928   8.235  0.6085 -0.4663  0.6791
 2205SOL    HW218075   2.922   1.943   8.285  0.4547 -0.6562  0.4558
 2206SOL     OW18076   4.671   4.201   3.065 -0.5017 -0.1626  0.1458
 2206SOL    HW118077   4.594   4.231   3.114 -1.7992 -1.8657 -0.8467
 2206SOL    HW218078   4.641   4.198   2.975 -0.1496 -2.0410  0.0947
 2207SOL     OW18079   2.878   0.897   5.579 -0.4096 -0.2906  0.3698
 2207SOL    HW118080   2.878   0.839   5.502 -3.4098 -0.4489  0.5026
 2207SOL    HW218081   2.804   0.862   5.629 -0.0044 -2.0402 -0.2457
 2208SOL     OW18082   2.736   2.953  13.421  0.5590  0.1184  0.2198
 2208SOL    HW118083   2.649   2.923  13.444  0.4189  0.5257  0.2285
 2208SOL    HW218084   2.798   2.881  13.434 -0.8028 -0.8411  1.3627
 2209SOL     OW18085   4.299   2.976   7.942  0.2443  0.1266  0.1415
 2209SOL    HW118086   4.346   2.913   7.888  0.4524  0.6962 -0.3358
 2209SOL    HW218087   4.283   2.918   8.017  1.1556  0.5426  0.6589
 2210SOL     OW18088   2.841   1.117   5.406 -0.1667  0.2533  0.4702
 2210SOL    HW118089   2.843   1.073   5.490 -0.1705 -0.0856  0.2922
 2210SOL    HW218090   2.752   1.095   5.377 -0.3242  1.1966  0.2498
 2211SOL     OW18091   2.827   2.311   3.097  0.0748 -0.1729  0.6264
 2211SOL    HW118092   2.880   2.380   3.058 -1.8351  0.3231 -1.0652
 2211SOL    HW218093   2.845   2.338   3.187  0.2305  1.1903  0.1839
 2212SOL     OW18094   0.459   1.462   3.978 -0.3277 -0.2053  0.1570
 2212SOL    HW118095   0.479   1.555   3.984 -0.3193 -0.2623  1.0027
 2212SOL    HW218096   0.545   1.434   3.946 -0.1430 -3.0100  3.0853
 2213SOL     OW18097   1.239   4.119   9.279  0.2405  0.2160 -0.0551
 2213SOL    HW118098   1.316   4.063   9.280 -0.3122 -0.5800 -1.6438
 2213SOL    HW218099   1.189   4.069   9.343 -0.9550 -1.0997 -2.0016
 2214SOL     OW18100   4.020   0.570   3.476 -0.0310 -0.3327 -0.3134
 2214SOL    HW118101   3.980   0.633   3.537  0.6698 -0.9967  0.8195
 2214SOL    HW218102   4.027   0.492   3.532 -2.7687  1.8868  3.1624
 2215SOL     OW18103   0.439   2.238  10.305 -0.0109 -0.5097  0.2770
 2215SOL    HW118104   0.355   2.239  10.260 -1.0094 -2.4648  2.0992
 2215SOL    HW218105   0.503   2.212  10.239 -3.1981 -0.0873 -2.9860
 2216SOL     OW18106   3.817   4.256   5.931 -0.2117 -0.0544 -0.0182
 2216SOL    HW118107   3.909   4.241   5.953  0.1849  1.0025 -0.9510
 2216SOL    HW218108   3.832   4.291   5.843  0.0242  2.8896  1.1720
 2217SOL     OW18109   1.731   0.285  10.833 -0.5487 -0.4005  0.9321
 2217SOL    HW118110   1.639   0.299  10.811  0.1758 -1.4983 -2.7994
 2217SOL    HW218111   1.763   0.375  10.842 -0.6832 -0.2732  0.1383
 2218SOL     OW18112   2.957   4.454   7.463 -0.2424 -0.1239 -0.4202
 2218SOL    HW118113   2.887   4.510   7.429  0.5315 -0.8998 -3.2652
 2218SOL    HW218114   2.933   4.375   7.414  1.5708 -1.7851  1.4338
 2219SOL     OW18115   2.073   0.083   6.494  0.7588  0.8608 -0.3590
 2219SOL    HW118116   2.000   0.113   6.441 -0.5193 -0.7757  0.4806
 2219SOL    HW218117   2.060   0.111   6.585  0.1973 -2.2986  0.5506
 2220SOL     OW18118   3.908   2.405  14.834 -0.2871  0.1787 -0.1714
 2220SOL    HW118119   3.981   2.465  14.844  1.0369 -1.1072 -2.1523
 2220SOL    HW218120   3.926   2.355  14.913 -0.7113 -0.7077 -0.6311
 2221SOL     OW18121   4.683   2.237  11.415  0.1201  0.3124  0.0748
 2221SOL    HW118122   4.590   2.225  11.432  0.0950  1.0105  0.4471
 2221SOL    HW218123   4.715   2.152  11.444 -0.8874 -1.0251 -2.7414
 2222SOL     OW18124   3.252   2.002  13.345  0.2906 -0.4850 -0.2119
 2222SOL    HW118125   3.167   2.005  13.301 -0.1132 -0.6809  0.5606
 2222SOL    HW218126   3.263   2.095  13.364  0.2364 -1.0482  2.6818
 2223SOL     OW18127   3.306   1.838   8.261  0.3020 -0.2569 -0.2698
 2223SOL    HW118128   3.334   1.917   8.214 -0.0008  0.2481  0.3924
 2223SOL    HW218129   3.294   1.772   8.194  1.0331 -0.5373 -0.1269
 2224SOL     OW18130   4.504   4.199  12.761 -0.2088  0.3079 -0.1529
 2224SOL    HW118131   4.559   4.273  12.789 -1.5868  1.1108  0.4211
 2224SOL    HW218132   4.520   4.128  12.823 -0.0566  0.5506  0.0886
 2225SOL     OW18133   4.326   4.598   5.419  0.0987  0.4457 -0.2947
 2225SOL    HW118134   4.236   4.569   5.400  0.3673 -0.2213 -0.5694
 2225SOL    HW218135   4.310   4.691   5.433  1.8312  0.5146  1.2468
 2226SOL     OW18136   3.051   0.892  12.999  0.6832  0.5213 -0.6171
 2226SOL    HW118137   3.120   0.957  12.988  0.3404  0.9813 -0.0506
 2226SOL    HW218138   3.062   0.865  13.090 -0.4773  2.4537  0.0844
 2227SOL     OW18139   0.482   3.008   1.434 -0.1244  0.1948 -0.4079
 2227SOL    HW118140   0.438   2.951   1.371 -2.1590  0.9609  0.3270
 2227SOL    HW218141   0.429   3.020   1.512 -0.2094  0.0411 -0.4430
 2228SOL     OW18142   2.163   3.131  11.419  0.0562  0.0324 -0.2342
 2228SOL    HW118143   2.221   3.056  11.432  1.0604  1.1052  1.5117
 2228SOL    HW218144   2.222   3.187  11.367  0.7755  0.6531  1.2592
 2229SOL     OW18145   2.800   0.092   5.263  0.1772 -0.5213  0.0945
 2229SOL    HW118146   2.894   0.110   5.255  0.1454  0.0596  1.0426
 2229SOL    HW218147   2.765   0.109   5.175  1.3279 -1.0842 -0.4843
 2230SOL     OW18148   2.548   2.548   2.724  0.1237  0.3556  0.0141
 2230SOL    HW118149   2.565   2.465   2.767  0.1394 -0.2151 -1.0855
 2230SOL    HW218150   2.610   2.604   2.770  2.7290 -3.5166  1.1876
 2231SOL     OW18151   2.946   1.531   5.314  0.7436 -0.6898 -0.5081
 2231SOL    HW118152   2.963   1.550   5.406 -1.8530  3.6046 -0.8788
 2231SOL    HW218153   2.996   1.450   5.307 -1.1953 -2.0128  0.7042
 2232SOL     OW18154   3.560   4.705   6.540 -0.4695  0.2788  0.2934
 2232SOL    HW118155   3.637   4.716   6.484  0.0740  0.8079  1.1551
 2232SOL    HW218156   3.583   4.622   6.582  0.9901 -0.3376 -1.6832
 2233SOL     OW18157   1.053   1.058   5.635  0.2340 -0.1502 -0.2773
 2233SOL    HW118158   1.142   1.073   5.604  0.4569 -0.5965  0.1716
 2233SOL    HW218159   1.059   1.115   5.712  2.5695 -2.0025  0.8937
 2234SOL     OW18160   3.939   0.788  15.253 -0.0245  0.3924  0.1641
 2234SOL    HW118161   3.955   0.831  15.169 -2.4842 -2.3206 -1.6879
 2234SOL    HW218162   3.871   0.842  15.294 -1.4372 -0.5410 -0.9829
 2235SOL     OW18163   4.454   1.037   6.008 -0.2502 -0.3888 -0.7463
 2235SOL    HW118164   4.480   1.040   6.100  0.9739 -0.3057 -1.1028
 2235SOL    HW218165   4.405   0.956   6.023 -1.2462  0.2870 -0.3438
 2236SOL     OW18166   4.083   2.360   6.619  0.1019 -0.1586 -0.1282
 2236SOL    HW118167   4.014   2.352   6.685 -1.2921 -0.9977 -1.7009
 2236SOL    HW218168   4.165   2.369   6.667 -0.0557  0.2452  0.0641
 2237SOL     OW18169   3.658   2.188   3.801  0.2848  0.5889  0.6133
 2237SOL    HW118170   3.618   2.111   3.759  0.2839  1.6018 -1.2140
 2237SOL    HW218171   3.658   2.251   3.729  3.8491  1.2532  1.2117
 2238SOL     OW18172   4.351   4.619   6.459  0.1481  0.2364 -0.1602
 2238SOL    HW118173   4.355   4.620   6.554 -0.9081  1.2768 -0.1277
 2238SOL    HW218174   4.390   4.705   6.447 -0.6086  0.2359 -2.7449
 2239SOL     OW18175   1.015   2.256   0.617  0.0231 -0.3472 -0.1380
 2239SOL    HW118176   0.994   2.163   0.608 -0.2415 -0.5072  2.0923
 2239SOL    HW218177   0.937   2.295   0.657  0.4587 -1.2967  1.6604
 2240SOL     OW18178   4.699   2.558   6.714 -0.6889 -0.2076 -0.6749
 2240SOL    HW118179   4.629   2.518   6.766  0.3335 -1.9493 -0.6560
 2240SOL    HW218180   0.016   2.624   6.773 -0.2073 -1.7693  0.7504
 2241SOL     OW18181   2.551   3.476  13.215 -0.0597  0.0209  0.6589
 2241SOL    HW118182   2.543   3.418  13.291  0.3308  0.2217  0.8544
 2241SOL    HW218183   2.626   3.439  13.169  1.0392  1.2770  1.4456
 2242SOL     OW18184   0.925   1.124   8.043  0.0709  0.3942  0.8402
 2242SOL    HW118185   0.852   1.143   7.984  0.6529 -1.8543 -0.5890
 2242SOL    HW218186   0.909   1.190   8.111 -1.4962 -0.3411  1.1901
 2243SOL     OW18187   4.187   3.216  13.690 -0.3578 -0.0586 -0.4875
 2243SOL    HW118188   4.123   3.208  13.761  0.7441 -3.6608  0.0901
 2243SOL    HW218189   4.125   3.207  13.618 -0.4285 -1.5195 -0.2404
 2244SOL     OW18190   2.926   3.686  17.637 -0.3501 -0.3676 -0.1093
 2244SOL    HW118191   3.010   3.660  17.599  0.2909  1.6067 -0.0440
 2244SOL    HW218192   2.894   3.604  17.674  1.0992 -1.0969 -0.4601
 2245SOL     OW18193   3.279   3.642   8.583 -0.4493  0.1011  0.3011
 2245SOL    HW118194   3.194   3.606   8.607 -0.5658 -0.0519 -0.3286
 2245SOL    HW218195   3.294   3.673   8.672 -1.5265 -0.1867  0.5818
 2246SOL     OW18196   2.128   2.129  11.856 -0.3043 -0.4918 -0.3574
 2246SOL    HW118197   2.044   2.163  11.888 -1.2448 -1.4424 -1.8520
 2246SOL    HW218198   2.097   2.083  11.778 -0.0285  1.2535 -1.4975
 2247SOL     OW18199   4.457   4.038   3.687  0.0227  0.2278  0.4709
 2247SOL    HW118200   4.519   3.980   3.730 -1.6931 -0.6248  1.7958
 2247SOL    HW218201   4.420   4.077   3.766 -2.6331 -0.6119 -0.3424
 2248SOL     OW18202   3.187   1.620   4.910 -0.5048 -0.2401 -0.2749
 2248SOL    HW118203   3.197   1.687   4.978 -1.4978 -1.0150  0.6271
 2248SOL    HW218204   3.164   1.548   4.968 -0.9067  0.1831  0.0980
 2249SOL     OW18205   3.920   0.705   3.662  0.4067 -0.3048  0.0366
 2249SOL    HW118206   3.844   0.747   3.623  0.8873 -0.5161 -1.1385
 2249SOL    HW218207   3.883   0.667   3.742 -1.3750 -0.4787 -0.8777
 2250SOL     OW18208   0.893   2.532   2.479  0.2721 -0.0961  0.5139
 2250SOL    HW118209   0.929   2.546   2.391 -1.3690  2.6789  0.2741
 2250SOL    HW218210   0.810   2.490   2.457  1.5274 -1.1939 -2.1330
 2251SOL     OW18211   3.221   2.503   3.366  0.0842  0.5222  0.5149
 2251SOL    HW118212   3.182   2.454   3.293 -0.5275  1.8995 -0.0827
 2251SOL    HW218213   3.243   2.431   3.424 -0.6434  0.2681  0.4822
 2252SOL     OW18214   3.794   3.979  13.185  0.1546 -0.1194 -0.3461
 2252SOL    HW118215   3.826   3.952  13.099  5.4053 -0.6510  1.7578
 2252SOL    HW218216   3.861   3.942  13.243  0.3007 -0.6070 -0.8227
 2253SOL     OW18217   1.532   2.240   7.684  0.0312 -0.1948  0.3614
 2253SOL    HW118218   1.557   2.262   7.773  0.6064 -0.0652  0.1675
 2253SOL    HW218219   1.611   2.260   7.634  0.9215 -0.1121  1.8305
 2254SOL     OW18220   0.619   1.537  16.059  0.1549 -0.4505 -0.7860
 2254SOL    HW118221   0.700   1.580  16.089 -0.5893  0.2987  0.1549
 2254SOL    HW218222   0.597   1.474  16.126 -0.4714  2.0038  1.3063
 2255SOL     OW18223   4.180   3.911   4.428 -0.1199 -0.0551 -0.2740
 2255SOL    HW118224   4.232   3.885   4.352  0.2961  1.1087 -0.3998
 2255SOL    HW218225   4.139   3.826   4.439 -1.9462  0.7626 -0.7546
 2256SOL     OW18226   0.607   0.237   8.903 -0.4486 -0.0784  0.5941
 2256SOL    HW118227   0.570   0.193   8.980 -0.3801  0.4414  0.9182
 2256SOL    HW218228   0.565   0.323   8.907  0.4271  0.3527  0.4568
 2257SOL     OW18229   3.757   4.563   7.550 -0.0249 -0.4385  0.1828
 2257SOL    HW118230   3.701   4.494   7.585 -2.2520  1.8040  1.0449
 2257SOL    HW218231   3.775   4.537   7.459 -2.0373  1.5513 -0.7880
 2258SOL     OW18232   2.431   2.490   5.101  0.5108  0.2704  0.2692
 2258SOL    HW118233   2.441   2.444   5.184  1.4805  0.0753  0.0400
 2258SOL    HW218234   2.520   2.522   5.091  0.3636  0.2757 -0.9946
 2259SOL     OW18235   0.849   2.893   5.740 -0.1849 -0.3470 -0.3487
 2259SOL    HW118236   0.803   2.901   5.824  0.7395  0.3692  0.0852
 2259SOL    HW218237   0.856   2.986   5.721  0.0612 -0.4490 -0.7553
 2260SOL     OW18238   1.362   0.774   0.498  0.4641  0.6923  0.5312
 2260SOL    HW118239   1.270   0.763   0.475  0.8692  2.1283 -1.7950
 2260SOL    HW218240   1.395   0.713   0.432 -1.4150 -1.8044  1.9173
 2261SOL     OW18241   1.627   3.911   8.239  0.3965  0.1263  0.3850
 2261SOL    HW118242   1.712   3.904   8.283  0.6619 -0.5438 -0.2210
 2261SOL    HW218243   1.599   3.988   8.288  0.7097 -1.0019  2.3262
 2262SOL     OW18244   2.723   1.600  14.736 -0.2790 -0.7033  0.0212
 2262SOL    HW118245   2.675   1.648  14.803 -0.2952 -0.4917 -0.1408
 2262SOL    HW218246   2.784   1.665  14.701  1.1135 -1.1439  1.6457
 2263SOL     OW18247   1.104   0.743   2.341  0.7282 -0.0917  0.3772
 2263SOL    HW118248   1.012   0.769   2.346  0.8692  0.4804  0.0077
 2263SOL    HW218249   1.145   0.803   2.279  0.0690  1.6390  1.6248
 2264SOL     OW18250   1.005   1.987   9.284 -0.0832  0.5263 -0.2545
 2264SOL    HW118251   1.042   1.917   9.230 -0.8782 -1.0392  1.2552
 2264SOL    HW218252   1.072   2.055   9.276  1.1413 -0.9093 -2.1646
 2265SOL     OW18253   1.322   0.166  14.282  0.0370 -0.1050  0.0530
 2265SOL    HW118254   1.335   0.254  14.247  1.2105 -0.6311 -0.8270
 2265SOL    HW218255   1.396   0.126  14.238  0.1790  0.9790 -0.7013
 2266SOL     OW18256   3.165   4.389   4.438 -0.6507 -0.3301  0.0391
 2266SOL    HW118257   3.110   4.467   4.431 -0.1209 -0.2546 -3.1950
 2266SOL    HW218258   3.099   4.320   4.425 -0.0320 -1.1177  1.0825
 2267SOL     OW18259   1.807   1.498   2.528  0.0229  0.0875 -0.5109
 2267SOL    HW118260   1.742   1.550   2.481 -0.4773  0.0702  0.1498
 2267SOL    HW218261   1.800   1.548   2.610  0.2131 -0.8425  0.0750
 2268SOL     OW18262   1.604   2.484   5.289 -0.2624  0.1985  0.5389
 2268SOL    HW118263   1.679   2.521   5.335  0.3007  0.4072 -0.5411
 2268SOL    HW218264   1.641   2.449   5.208 -0.0343  2.9468 -0.5770
 2269SOL     OW18265   0.966   2.957  12.117 -0.0658  0.3877  0.4952
 2269SOL    HW118266   0.993   2.984  12.029 -1.1565  1.0201  0.3562
 2269SOL    HW218267   0.871   2.972  12.110  0.0314  0.3134 -0.9309
 2270SOL     OW18268   2.138   1.768   4.743 -0.1417  0.2404  0.3267
 2270SOL    HW118269   2.082   1.810   4.677 -0.4867  0.6943  0.9087
 2270SOL    HW218270   2.203   1.720   4.692 -1.2637  1.5644 -2.3305
 2271SOL     OW18271   0.883   1.169   7.317 -0.3869  0.2490  0.1803
 2271SOL    HW118272   0.859   1.077   7.319  2.2185 -0.4508 -0.4959
 2271SOL    HW218273   0.914   1.175   7.408  1.4995 -3.4705 -0.2479
 2272SOL     OW18274   3.289   1.864   5.566  0.0650  0.1011  0.0874
 2272SOL    HW118275   3.209   1.898   5.607  1.1935  2.9545 -0.0900
 2272SOL    HW218276   3.322   1.824   5.646  0.9239  0.9936  0.1779
 2273SOL     OW18277   0.543   2.185   2.474  0.0712 -0.3305  0.4992
 2273SOL    HW118278   0.520   2.176   2.567 -2.0987  0.7295  0.0723
 2273SOL    HW218279   0.461   2.155   2.433  0.0327  1.1110 -0.4864
 2274SOL     OW18280   3.100   0.001   3.087 -0.6261  0.2934 -0.2624
 2274SOL    HW118281   3.057   0.067   3.033 -1.2460  0.2209  0.1450
 2274SOL    HW218282   3.137   0.046   3.163 -0.5790 -0.4204  0.1304
 2275SOL     OW18283   1.295   4.306   1.176 -0.1707 -0.0808  0.1281
 2275SOL    HW118284   1.314   4.244   1.105 -2.5712  1.0084 -1.4755
 2275SOL    HW218285   1.353   4.376   1.144 -1.2145 -0.0203 -1.6695
 2276SOL     OW18286   3.169   2.716   6.234  0.2366 -0.4752  0.1311
 2276SOL    HW118287   3.116   2.667   6.297 -0.9128 -0.6897 -1.0037
 2276SOL    HW218288   3.235   2.749   6.295  1.2850  2.2320 -2.4946
 2277SOL     OW18289   0.412   3.822   3.776  0.2810 -0.2147 -0.0096
 2277SOL    HW118290   0.499   3.837   3.815 -0.7648  5.3924  0.1351
 2277SOL    HW218291   0.406   3.882   3.703  2.7607 -1.6951 -1.4562
 2278SOL     OW18292   3.023   1.674   9.559 -0.3947  0.1770 -0.0051
 2278SOL    HW118293   3.033   1.685   9.464  2.7103 -1.7766  0.0870
 2278SOL    HW218294   3.078   1.598   9.574 -1.0463 -0.2792  0.0595
 2279SOL     OW18295   1.255   2.972   5.371 -0.0528 -0.4949  0.2666
 2279SOL    HW118296   1.297   3.000   5.289  0.1632  0.0008  0.5525
 2279SOL    HW218297   1.180   3.031   5.371 -0.9655 -1.6357  0.0167
 2280SOL     OW18298   2.246   0.045   8.240  0.0976  0.2819 -0.0531
 2280SOL    HW118299   2.287   0.088   8.165  0.6386 -0.0195  0.0679
 2280SOL    HW218300   2.154   0.049   8.214 -0.0604 -0.0971  0.4381
 2281SOL     OW18301   1.343   1.659  12.286  0.1139  0.2223 -0.0049
 2281SOL    HW118302   1.401   1.702  12.224 -1.7949  1.4000 -0.9914
 2281SOL    HW218303   1.406   1.607  12.336 -2.1338 -2.2875  0.2609
 2282SOL     OW18304   1.315   2.743  17.022 -0.0519  0.1103 -0.0714
 2282SOL    HW118305   1.349   2.688  16.952 -1.3679 -0.6130 -0.1562
 2282SOL    HW218306   1.327   2.685  17.098  0.7114 -0.0473 -0.3163
 2283SOL     OW18307   4.240   2.775   5.571 -0.0876  0.4984  0.5534
 2283SOL    HW118308   4.275   2.841   5.631 -2.8699  1.6301  0.9407
 2283SOL    HW218309   4.234   2.702   5.632 -0.6115  0.2145  0.1589
 2284SOL     OW18310   2.418   1.231   6.339 -0.0792 -0.2041  0.1203
 2284SOL    HW118311   2.463   1.312   6.314 -3.1105  1.9416  1.5499
 2284SOL    HW218312   2.433   1.241   6.433 -1.9640 -0.3733  0.4209
 2285SOL     OW18313   1.033   1.805   8.270  0.2840  0.4136  0.2430
 2285SOL    HW118314   1.061   1.810   8.361 -2.1269  0.6009  0.9738
 2285SOL    HW218315   0.938   1.812   8.262  0.3743 -1.1417 -2.3891
 2286SOL     OW18316   1.403   2.667   7.960 -0.2188  0.5064 -0.1435
 2286SOL    HW118317   1.327   2.671   7.902 -0.5381  2.0072  0.3846
 2286SOL    HW218318   1.406   2.755   7.997 -1.1553 -0.0937  1.3887
 2287SOL     OW18319   0.018   3.840  15.535 -0.8955 -0.0611 -0.6480
 2287SOL    HW118320   4.720   3.831  15.629  1.3427  0.8326 -0.0782
 2287SOL    HW218321   0.090   3.903  15.532 -1.4129  0.3811 -3.0965
 2288SOL     OW18322   2.226   2.898  12.477 -0.2862  0.5627 -0.5034
 2288SOL    HW118323   2.186   2.814  12.497  1.2737  0.4100  2.0070
 2288SOL    HW218324   2.208   2.933  12.564  2.6893  0.3207  0.2060
 2289SOL     OW18325   3.978   1.804  14.119  0.4886  0.0463  0.5095
 2289SOL    HW118326   3.949   1.799  14.028  0.5587  1.9165  0.3668
 2289SOL    HW218327   3.895   1.783  14.161  0.5823  1.4005  1.3894
 2290SOL     OW18328   3.151   4.469   4.816  0.0872  0.3206 -0.0216
 2290SOL    HW118329   3.228   4.454   4.762  0.1665 -1.2667  0.5375
 2290SOL    HW218330   3.174   4.420   4.895  1.4150 -0.0175 -0.6306
 2291SOL     OW18331   2.947   4.543   6.745  0.6371 -0.2324  0.0142
 2291SOL    HW118332   2.917   4.458   6.776 -1.1952  0.6903  0.8126
 2291SOL    HW218333   2.934   4.534   6.650  0.5069  1.4632 -0.1335
 2292SOL     OW18334   4.668   0.975   3.339  0.7235 -0.1709  0.2328
 2292SOL    HW118335   4.715   1.053   3.367  0.6754 -0.0324 -0.0793
 2292SOL    HW218336   0.027   0.926   3.318  0.1886 -1.4087  1.0372
 2293SOL     OW18337   2.135   2.538   4.123  0.1190 -0.0958 -0.0915
 2293SOL    HW118338   2.161   2.471   4.186 -1.3071 -0.1678  0.4166
 2293SOL    HW218339   2.103   2.482   4.053  2.0029 -0.9739 -0.2702
 2294SOL     OW18340   0.057   0.992   9.571 -0.0157  0.6879  0.3098
 2294SOL    HW118341   0.061   1.080   9.534 -1.6667 -0.1105 -1.7404
 2294SOL    HW218342   4.686   0.989   9.598  0.0753  0.7293  0.6305
 2295SOL     OW18343   1.528   2.458   9.690 -0.5144 -0.3890  0.1372
 2295SOL    HW118344   1.604   2.403   9.706  0.6737  1.4594  0.7866
 2295SOL    HW218345   1.503   2.429   9.602  2.3544  0.7727 -1.0358
 2296SOL     OW18346   0.762   0.623   2.882  0.0006 -0.1992  0.1389
 2296SOL    HW118347   0.830   0.691   2.886  1.3729 -1.3774 -3.3126
 2296SOL    HW218348   0.800   0.558   2.942 -1.2691 -1.5387 -0.5089
 2297SOL     OW18349   4.462   3.268   9.853 -0.3374  0.0583 -0.0115
 2297SOL    HW118350   4.400   3.311   9.912  1.6279 -0.0443  2.1322
 2297SOL    HW218351   4.422   3.182   9.841  0.0205  0.1198 -1.6251
 2298SOL     OW18352   4.231   2.329   2.716  0.2063  0.2142 -0.2589
 2298SOL    HW118353   4.160   2.266   2.699 -2.3763  3.4153 -1.2357
 2298SOL    HW218354   4.186   2.410   2.694 -1.3344 -0.3969  0.5649
 2299SOL     OW18355   2.027   2.203   3.011  0.4991 -0.4530 -0.3116
 2299SOL    HW118356   1.935   2.183   2.994 -0.1002  0.4984  1.8067
 2299SOL    HW218357   2.023   2.237   3.101 -3.3613  1.0233 -1.0470
 2300SOL     OW18358   4.127   2.931   7.340  0.4485 -0.2702 -0.3703
 2300SOL    HW118359   4.173   2.866   7.286 -0.1165 -0.7904 -0.2274
 2300SOL    HW218360   4.160   2.907   7.427  2.6684  0.0493 -1.1250
 2301SOL     OW18361   3.934   0.331   8.505  0.0741  0.6202  0.2817
 2301SOL    HW118362   3.912   0.238   8.510 -0.8170  0.9326  2.3137
 2301SOL    HW218363   3.883   0.350   8.427  0.6941  1.3068  0.0417
 2302SOL     OW18364   2.581   4.424   7.517 -0.6268 -0.5194  0.7781
 2302SOL    HW118365   2.532   4.379   7.448 -0.5289 -1.5977  1.4064
 2302SOL    HW218366   2.633   4.485   7.466 -2.7603 -0.7372 -1.6446
 2303SOL     OW18367   4.458   3.749   3.992 -0.0641 -0.0110  0.3249
 2303SOL    HW118368   4.516   3.781   3.924 -1.3223  0.3957 -0.5638
 2303SOL    HW218369   4.519   3.702   4.048 -0.7856 -0.6459  0.5744
 2304SOL     OW18370   2.243   0.182  10.108  0.2672 -0.3664 -0.1553
 2304SOL    HW118371   2.306   0.211  10.041 -2.0677 -1.0264 -2.6578
 2304SOL    HW218372   2.208   0.100  10.074  1.1019  0.5680 -3.2887
 2305SOL     OW18373   2.919   3.249   6.391  0.6563 -0.2325 -0.4648
 2305SOL    HW118374   2.967   3.277   6.313 -1.1778  0.4983 -1.3456
 2305SOL    HW218375   2.930   3.323   6.451  2.2517 -0.5715 -0.3322
 2306SOL     OW18376   1.363   1.686   7.511  0.4576  0.2334  0.3992
 2306SOL    HW118377   1.279   1.698   7.554 -0.3604 -0.0317 -1.1330
 2306SOL    HW218378   1.420   1.727   7.577 -0.7798 -1.0664  2.2641
 2307SOL     OW18379   2.481   1.338   2.778  0.2928  0.4809  0.3106
 2307SOL    HW118380   2.492   1.412   2.718 -1.2583  1.5643  1.3623
 2307SOL    HW218381   2.550   1.289   2.733 -0.3435 -0.9326  0.8874
 2308SOL     OW18382   1.789   1.609   9.466 -0.1420 -0.0974 -0.6286
 2308SOL    HW118383   1.801   1.607   9.371  1.3828 -0.3908 -0.4434
 2308SOL    HW218384   1.858   1.553   9.503  1.7172  1.6028 -1.5671
 2309SOL     OW18385   4.297   4.249  11.048 -0.8763 -0.0303  0.3577
 2309SOL    HW118386   4.258   4.162  11.063  1.6881 -1.1551  0.5507
 2309SOL    HW218387   4.379   4.222  11.007  0.5697  1.7358  2.0896
 2310SOL     OW18388   2.750   1.439  13.003  0.4168 -0.5877  0.4937
 2310SOL    HW118389   2.665   1.404  13.029  0.3663  1.1825  2.7396
 2310SOL    HW218390   2.807   1.441  13.080  0.9993 -3.7021  0.1586
 2311SOL     OW18391   3.379   2.920   8.057  0.4122  0.1980 -0.2395
 2311SOL    HW118392   3.326   2.944   8.133  0.1268 -0.8959 -0.0941
 2311SOL    HW218393   3.456   2.968   8.089 -1.2838  2.5244  0.3184
 2312SOL     OW18394   2.223   2.892   8.037 -0.2820 -0.2644  0.3057
 2312SOL    HW118395   2.289   2.953   8.003 -1.4416  0.8655  0.0651
 2312SOL    HW218396   2.142   2.940   8.020 -0.6345 -0.7437  0.6477
 2313SOL     OW18397   1.830   3.211   4.083  0.3675 -0.6005 -0.5304
 2313SOL    HW118398   1.921   3.240   4.076  0.5481 -0.8148  1.0166
 2313SOL    HW218399   1.828   3.146   4.012  0.2324 -0.2201 -0.8781
 2314SOL     OW18400   3.095   3.417  12.143 -0.0835  0.4134  0.3428
 2314SOL    HW118401   3.040   3.345  12.176 -2.8340  1.4213 -2.0543
 2314SOL    HW218402   3.165   3.410  12.208 -0.8162 -2.1521  0.8950
 2315SOL     OW18403   3.600   0.366   4.631 -0.2680  0.3874 -0.4253
 2315SOL    HW118404   3.607   0.393   4.723 -1.4355 -0.9905  0.0732
 2315SOL    HW218405   3.691   0.375   4.601  0.4934  0.7693  1.9736
 2316SOL     OW18406   4.365   2.364   7.809  0.3906  0.1589 -0.3409
 2316SOL    HW118407   4.452   2.402   7.795  1.2776 -1.5150  0.5493
 2316SOL    HW218408   4.332   2.441   7.856 -0.6639  0.6346 -1.8655
 2317SOL     OW18409   1.982   3.223   4.861  0.2656 -0.5951 -0.1741
 2317SOL    HW118410   1.961   3.238   4.954 -1.9397 -0.6727 -0.6703
 2317SOL    HW218411   2.076   3.208   4.863  0.1982 -0.9572  0.4000
 2318SOL     OW18412   3.120   3.464   7.925  0.2109 -0.3607 -0.1010
 2318SOL    HW118413   3.167   3.408   7.987  0.0043  0.4046  0.7585
 2318SOL    HW218414   3.178   3.534   7.895 -0.0375  1.0154  2.6338
 2319SOL     OW18415   2.000   3.070  11.166  1.0063 -0.3184 -0.3044
 2319SOL    HW118416   2.019   3.163  11.168  1.9852 -0.5190 -0.2603
 2319SOL    HW218417   1.966   3.061  11.076  0.3488 -2.0733  0.1050
 2320SOL     OW18418   2.032   0.868   4.834  0.1647 -0.1513 -0.2169
 2320SOL    HW118419   2.026   0.957   4.868  3.7293  0.8029 -2.0680
 2320SOL    HW218420   1.995   0.873   4.746 -0.3894 -3.0881 -0.1625
 2321SOL     OW18421   2.085   3.850   5.508  0.0067  0.6145  0.2896
 2321SOL    HW118422   2.056   3.851   5.599  0.1561 -1.1723  0.3560
 2321SOL    HW218423   2.179   3.833   5.505  0.1201  1.6542 -2.4877
 2322SOL     OW18424   1.656   2.394  17.163  0.2275  0.1551  0.2859
 2322SOL    HW118425   1.668   2.452  17.239  1.1028  0.6020 -0.1946
 2322SOL    HW218426   1.561   2.391  17.151  0.3005 -0.1114 -0.2295
 2323SOL     OW18427   2.278   3.370   4.920 -0.1438  0.0491  0.5855
 2323SOL    HW118428   2.294   3.403   4.832  0.1940 -1.1799  0.1953
 2323SOL    HW218429   2.370   3.364   4.946  0.3685 -0.8668 -1.4521
 2324SOL     OW18430   4.519   2.971   5.134 -0.6383 -0.4384  0.4120
 2324SOL    HW118431   4.521   2.876   5.118 -0.4972 -0.3905  0.1451
 2324SOL    HW218432   4.491   3.007   5.050 -0.7270 -1.8378 -0.1614
 2325SOL     OW18433   2.461   2.270  10.275 -0.0383 -0.3929  0.8541
 2325SOL    HW118434   2.454   2.182  10.238 -1.1737 -0.4099  1.1217
 2325SOL    HW218435   2.535   2.275  10.336 -0.2288  0.8086  0.9861
 2326SOL     OW18436   2.088   3.198   7.117  0.2269  0.3620  0.6247
 2326SOL    HW118437   2.172   3.174   7.077  1.2453  1.6469  2.0474
 2326SOL    HW218438   2.053   3.113   7.146  0.8343  0.2162  0.9410
 2327SOL     OW18439   2.605   1.459   8.079  0.1257 -0.5245 -0.1338
 2327SOL    HW118440   2.670   1.391   8.058  0.4251 -0.4880  0.6725
 2327SOL    HW218441   2.517   1.424   8.066  0.0379 -0.8072  1.1462
 2328SOL     OW18442   1.650   1.286   0.609 -0.3215 -0.1269  0.1574
 2328SOL    HW118443   1.730   1.234   0.601  1.0879  2.1702 -0.6861
 2328SOL    HW218444   1.692   1.364   0.573  1.3482  0.1017  2.5760
 2329SOL     OW18445   3.968   0.863   7.221 -0.3094  0.7057  0.3935
 2329SOL    HW118446   3.895   0.812   7.186  0.8185  0.4604 -1.6083
 2329SOL    HW218447   4.040   0.801   7.209  0.6571  1.5920  1.6322
 2330SOL     OW18448   2.534   4.441  16.120 -0.1074  0.1842  0.8652
 2330SOL    HW118449   2.499   4.421  16.207 -0.9116 -2.2019 -0.0091
 2330SOL    HW218450   2.585   4.519  16.142 -3.0039  1.7770  1.9899
 2331SOL     OW18451   3.776   4.033   2.162 -0.2764  0.5746  0.7625
 2331SOL    HW118452   3.862   4.073   2.147 -0.2889  0.1780 -0.3762
 2331SOL    HW218453   3.798   3.966   2.227  0.5790 -1.1709 -1.3176
 2332SOL     OW18454   1.241   2.159   4.221  0.0900  0.3574  0.2497
 2332SOL    HW118455   1.162   2.130   4.176 -0.4720  1.6280  0.4273
 2332SOL    HW218456   1.216   2.249   4.240  0.5174  0.0050  2.4911
 2333SOL     OW18457   2.495   3.733  12.382  0.1141 -0.5116  0.1706
 2333SOL    HW118458   2.437   3.682  12.439  1.1369  0.4769  2.0793
 2333SOL    HW218459   2.575   3.682  12.394  0.0656 -0.8919 -1.1203
 2334SOL     OW18460   4.700   2.628  14.464  0.0214 -0.1901 -0.5358
 2334SOL    HW118461   0.046   2.624  14.532 -1.2138 -2.8912  0.5061
 2334SOL    HW218462   4.699   2.721  14.442 -0.0969 -0.7090 -2.7007
 2335SOL     OW18463   3.540   3.282   7.374  0.3527  0.4465 -0.2632
 2335SOL    HW118464   3.597   3.355   7.396 -2.5031  2.9524 -1.0437
 2335SOL    HW218465   3.552   3.274   7.279  2.4038  2.7050 -0.1768
 2336SOL     OW18466   1.697   3.628   3.768 -0.1110 -0.2941  0.2419
 2336SOL    HW118467   1.680   3.567   3.696 -0.2446 -1.8311  1.5626
 2336SOL    HW218468   1.793   3.625   3.762 -0.0193  2.6763  0.1716
 2337SOL     OW18469   4.288   2.116   7.091 -0.1623  0.2735 -0.1543
 2337SOL    HW118470   4.307   2.029   7.127 -0.7662 -0.6360 -2.0491
 2337SOL    HW218471   4.330   2.111   7.005  1.3661  0.1440  0.5943
 2338SOL     OW18472   3.383   2.662   0.379  0.1183 -0.4792 -0.1282
 2338SOL    HW118473   3.317   2.677   0.446 -1.5387 -0.6141 -1.7422
 2338SOL    HW218474   3.409   2.584   0.428  3.1215  1.3875  1.2548
 2339SOL     OW18475   4.432   0.785  14.772  0.2319 -0.2657  0.3125
 2339SOL    HW118476   4.478   0.763  14.691  1.0107 -0.0537  0.6991
 2339SOL    HW218477   4.418   0.879  14.761  0.3449  0.0307  2.7420
 2340SOL     OW18478   1.730   3.096   6.964  0.2467 -0.3234  0.0960
 2340SOL    HW118479   1.661   3.037   6.934  0.7926 -1.0559  0.2730
 2340SOL    HW218480   1.740   3.160   6.893  1.3180  0.2069  0.7198
 2341SOL     OW18481   0.672   3.447  10.344  0.0853  0.2162  0.0928
 2341SOL    HW118482   0.665   3.541  10.354  1.7767  0.5068 -1.4848
 2341SOL    HW218483   0.688   3.436  10.250 -1.3429 -1.1025  0.0004
 2342SOL     OW18484   2.749   1.983   9.474  0.1765  0.8397  0.0263
 2342SOL    HW118485   2.713   2.071   9.466 -0.8422  0.4182  0.0167
 2342SOL    HW218486   2.668   1.932   9.473  0.0228  1.1443 -2.6660
 2343SOL     OW18487   3.039   1.004   4.270  0.0956 -0.1724 -0.0430
 2343SOL    HW118488   3.037   1.099   4.263 -2.0593 -0.1335  1.0792
 2343SOL    HW218489   3.131   0.978   4.263 -0.1952 -0.5316 -2.5216
 2344SOL     OW18490   4.209   3.728   2.014 -0.3437 -0.0974 -0.2392
 2344SOL    HW118491   4.272   3.703   2.082  0.5180  0.0451 -0.9857
 2344SOL    HW218492   4.254   3.807   1.985 -1.3290  0.9609  1.1528
 2345SOL     OW18493   4.004   2.054   7.056  0.0739  0.3277 -0.1815
 2345SOL    HW118494   4.060   2.087   7.125  1.3643 -1.0661 -0.5613
 2345SOL    HW218495   4.019   1.960   7.065 -0.9826  0.1769  0.0438
 2346SOL     OW18496   3.158   3.274  13.285  0.2697 -0.4172  0.1408
 2346SOL    HW118497   3.063   3.288  13.279  0.2545 -0.5868  0.0156
 2346SOL    HW218498   3.188   3.300  13.198  0.2541 -0.8610  0.0034
 2347SOL     OW18499   0.743   4.193   4.528 -0.5102  0.0875 -0.3707
 2347SOL    HW118500   0.831   4.212   4.560  0.2517 -0.6884 -2.0163
 2347SOL    HW218501   0.684   4.205   4.603 -1.6730 -4.6948 -0.5731
 2348SOL     OW18502   0.863   4.325   0.197  0.5108 -0.7535 -0.4081
 2348SOL    HW118503   0.804   4.279   0.137 -1.6000  1.5033 -0.0571
 2348SOL    HW218504   0.912   4.380   0.136  0.1302 -0.7657 -0.7242
 2349SOL     OW18505   1.509   1.233   7.152 -0.0632  0.6827  0.3745
 2349SOL    HW118506   1.554   1.219   7.068 -0.9183  2.4227 -0.3799
 2349SOL    HW218507   1.547   1.317   7.178  0.4509  0.3648  0.6391
 2350SOL     OW18508   3.058   4.422   5.866  0.4885  0.2780  0.3064
 2350SOL    HW118509   3.079   4.336   5.903  2.2288  0.2309 -0.7836
 2350SOL    HW218510   3.141   4.423   5.818 -0.2688  0.3197 -0.9915
 2351SOL     OW18511   1.591   2.654   2.814  0.5557 -0.1426 -0.3089
 2351SOL    HW118512   1.606   2.737   2.767 -0.4691 -0.1668 -0.6807
 2351SOL    HW218513   1.664   2.600   2.783  0.3971 -0.9099  0.6489
 2352SOL     OW18514   3.666   2.649   8.092  0.1897  0.1568 -0.6672
 2352SOL    HW118515   3.627   2.650   8.180  2.0246  0.0807  0.1427
 2352SOL    HW218516   3.691   2.556   8.093  0.2293  0.1559 -3.4668
 2353SOL     OW18517   1.696   3.156  12.411 -0.5429 -0.0158 -0.0008
 2353SOL    HW118518   1.660   3.073  12.440  0.2375  0.0948  1.3321
 2353SOL    HW218519   1.677   3.213  12.486  0.5869  0.9187 -0.4197
 2354SOL     OW18520   2.427   4.649   7.616  0.4171 -0.0895 -0.4915
 2354SOL    HW118521   2.487   4.575   7.610  0.2237 -0.2795 -0.0608
 2354SOL    HW218522   2.346   4.599   7.608 -0.0329  0.7182 -1.0719
 2355SOL     OW18523   0.870   4.137   5.568  0.5404  0.4994  0.2839
 2355SOL    HW118524   0.836   4.054   5.537  0.8079  0.7101 -0.5648
 2355SOL    HW218525   0.962   4.114   5.581  0.2062 -0.7946  0.3220
 2356SOL     OW18526   3.832   0.966   4.047  0.0305 -0.2957  0.1223
 2356SOL    HW118527   3.903   1.016   4.008 -1.2194  1.0709 -0.3901
 2356SOL    HW218528   3.795   1.016   4.120 -0.7907 -0.1590 -0.3907
 2357SOL     OW18529   0.317   4.077   2.690  1.0702  0.5017 -0.4481
 2357SOL    HW118530   0.295   3.990   2.657  0.7672 -0.2058  1.5785
 2357SOL    HW218531   0.310   4.123   2.607 -0.1271  1.1234 -0.0147
 2358SOL     OW18532   2.533   0.807   7.449 -0.0403  0.6449 -0.1479
 2358SOL    HW118533   2.572   0.872   7.507 -0.5287  0.3455  0.5189
 2358SOL    HW218534   2.618   0.770   7.422 -1.1768 -2.6108  0.8051
 2359SOL     OW18535   3.789   0.438   7.548 -0.2080  0.0732  0.4046
 2359SOL    HW118536   3.780   0.526   7.583 -0.7254  0.2836 -0.2464
 2359SOL    HW218537   3.722   0.386   7.592 -0.2516 -0.9790 -0.8827
 2360SOL     OW18538   1.368   1.852   1.212  0.5805 -0.2465  0.8114
 2360SOL    HW118539   1.458   1.874   1.233  0.7801 -0.5054  0.2059
 2360SOL    HW218540   1.352   1.774   1.265 -1.5188  0.3738  1.1265
 2361SOL     OW18541   0.889   2.702   6.760 -0.2028  0.4938  0.2958
 2361SOL    HW118542   0.825   2.727   6.693  1.0987 -0.7133 -1.4088
 2361SOL    HW218543   0.829   2.672   6.828  0.2352  0.0537  0.4863
 2362SOL     OW18544   4.601   0.423  11.314  0.4176  0.4183  0.0109
 2362SOL    HW118545   4.593   0.426  11.410  1.4783  0.1609  0.1095
 2362SOL    HW218546   4.669   0.490  11.301  1.1785 -0.0336  1.6365
 2363SOL     OW18547   3.077   1.790   2.119  0.3022 -0.2459 -0.4024
 2363SOL    HW118548   3.139   1.781   2.191  0.5377 -2.1687 -0.8504
 2363SOL    HW218549   3.129   1.815   2.043 -2.5326  0.4168 -2.1564
 2364SOL     OW18550   4.587   2.561   7.904  0.3764  0.3504  0.1708
 2364SOL    HW118551   4.577   2.626   7.974  1.5906 -0.8751  1.4688
 2364SOL    HW218552   4.681   2.567   7.887  0.1347 -0.7070 -1.5927
 2365SOL     OW18553   0.084   2.292   1.928 -0.4887 -0.2316  0.2927
 2365SOL    HW118554   0.107   2.356   1.996 -0.3249 -0.7241  0.6981
 2365SOL    HW218555   0.167   2.244   1.928 -0.2940  0.1124 -0.7334
 2366SOL     OW18556   2.268   3.776   9.615  0.3242 -0.3658  0.1422
 2366SOL    HW118557   2.253   3.841   9.684 -2.3260 -0.4780 -0.3204
 2366SOL    HW218558   2.331   3.718   9.657 -0.6255 -0.8621  0.8751
 2367SOL     OW18559   3.181   1.044  11.091 -0.1107  0.1079  0.1597
 2367SOL    HW118560   3.273   1.017  11.101 -0.1088  0.0336 -0.0538
 2367SOL    HW218561   3.163   1.090  11.173  0.9619 -1.1990  1.1373
 2368SOL     OW18562   2.297   1.157   3.928  0.1522 -0.2056  0.5848
 2368SOL    HW118563   2.295   1.099   3.852  2.0860 -0.1528  0.4904
 2368SOL    HW218564   2.384   1.194   3.913  0.4542 -1.6296 -1.2735
 2369SOL     OW18565   3.214   4.597   3.449  0.2796 -0.6505 -0.2113
 2369SOL    HW118566   3.247   4.597   3.539 -3.1123 -2.2674  1.0395
 2369SOL    HW218567   3.287   4.545   3.414 -0.1667 -0.6588 -1.1347
 2370SOL     OW18568   4.049   0.393   7.151  0.3149  0.4412 -0.1016
 2370SOL    HW118569   3.963   0.359   7.176  0.0828  1.3133  0.2829
 2370SOL    HW218570   4.111   0.321   7.157 -2.8915 -2.1040  2.1203
 2371SOL     OW18571   3.434   1.567   2.652 -0.3638 -0.8320 -0.2498
 2371SOL    HW118572   3.505   1.536   2.596  0.5361  1.6015 -0.4804
 2371SOL    HW218573   3.446   1.507   2.725  1.4542 -0.3705 -0.1548
 2372SOL     OW18574   4.715   0.996   1.197 -0.0021 -0.1970  0.3202
 2372SOL    HW118575   0.010   0.922   1.138  1.2506 -0.4370  0.9624
 2372SOL    HW218576   4.644   0.950   1.243 -0.3076  0.2092  0.2501
 2373SOL     OW18577   0.521   3.160   0.762  0.0886 -0.3926 -0.5484
 2373SOL    HW118578   0.510   3.217   0.838  3.5827  0.6802 -0.8644
 2373SOL    HW218579   0.436   3.167   0.717  0.1006  1.3935 -0.2962
 2374SOL     OW18580   2.957   2.409  13.202 -0.2686 -0.6410  0.1840
 2374SOL    HW118581   3.026   2.370  13.148 -0.2601 -2.8426  1.7636
 2374SOL    HW218582   2.945   2.490  13.153  0.6785  0.0467  1.1214
 2375SOL     OW18583   0.680   2.956  10.646 -0.1366 -0.2719 -0.4330
 2375SOL    HW118584   0.620   3.001  10.705 -1.0756  0.2479 -1.7913
 2375SOL    HW218585   0.651   2.969  10.556  2.1312 -0.8411 -1.2591
 2376SOL     OW18586   1.977   3.184  15.799 -0.0197  0.7693 -0.3141
 2376SOL    HW118587   1.949   3.265  15.755 -1.6796  0.2455 -0.2170
 2376SOL    HW218588   2.055   3.216  15.845  0.3170 -0.4074 -0.0695
 2377SOL     OW18589   3.268   0.523   8.635 -0.4304  0.2842 -0.4155
 2377SOL    HW118590   3.194   0.505   8.692  1.2193 -2.1283  0.9528
 2377SOL    HW218591   3.234   0.564   8.556 -0.9091 -2.0833 -1.4415
 2378SOL     OW18592   3.171   2.835   9.453  0.2370 -0.2877  0.4281
 2378SOL    HW118593   3.205   2.868   9.369 -1.8460 -0.6949 -0.5715
 2378SOL    HW218594   3.196   2.913   9.501 -1.0713  1.3924 -1.6252
 2379SOL     OW18595   3.425   1.663   5.438 -0.0555  0.4202  0.3524
 2379SOL    HW118596   3.363   1.726   5.475  1.1772  0.8057  1.7661
 2379SOL    HW218597   3.494   1.648   5.502 -1.5431  0.3838  1.9331
 2380SOL     OW18598   2.977   2.576   9.140 -0.9357  0.0571  0.1405
 2380SOL    HW118599   3.058   2.579   9.190 -1.6358 -0.5769  1.3263
 2380SOL    HW218600   2.920   2.567   9.217  1.1308  0.4937  1.7142
 2381SOL     OW18601   2.778   1.151   8.686 -0.1607 -0.3988  0.2478
 2381SOL    HW118602   2.831   1.186   8.614  1.6319  1.5053  2.5027
 2381SOL    HW218603   2.815   1.189   8.765 -0.5664 -0.2245  0.3530
 2382SOL     OW18604   3.585   4.268   7.144 -0.2991 -0.4319 -0.1053
 2382SOL    HW118605   3.536   4.296   7.067  0.4645  0.1806 -0.3589
 2382SOL    HW218606   3.526   4.195   7.166  1.5658 -1.2743  2.0690
 2383SOL     OW18607   1.759   2.973   1.915  0.0598  0.1016 -0.1991
 2383SOL    HW118608   1.702   3.015   1.980 -0.1016  0.0279 -0.2915
 2383SOL    HW218609   1.834   2.950   1.970  1.0679 -1.2453 -2.1442
 2384SOL     OW18610   2.174   1.061  10.777  0.7192 -0.2554 -0.2396
 2384SOL    HW118611   2.266   1.046  10.756  0.4372 -1.4351 -0.6034
 2384SOL    HW218612   2.126   0.996  10.725  0.2630 -1.5655  1.8222
 2385SOL     OW18613   4.200   0.590  10.027 -0.1300  0.3342  0.6121
 2385SOL    HW118614   4.268   0.651   9.997  1.2430 -0.0934  2.8947
 2385SOL    HW218615   4.257   0.534  10.079 -0.0805 -0.9383 -0.8008
 2386SOL     OW18616   4.604   2.025   4.509  0.5427 -0.4468  0.0991
 2386SOL    HW118617   4.639   2.095   4.565  3.7687 -2.3414  0.4379
 2386SOL    HW218618   4.533   1.988   4.562  1.7277 -2.0259  0.5643
 2387SOL     OW18619   4.384   2.068   5.288  0.0065 -0.1507 -0.0120
 2387SOL    HW118620   4.415   2.080   5.377  0.4381 -1.3481 -0.0016
 2387SOL    HW218621   4.300   2.024   5.295 -0.0082 -0.5087 -2.2369
 2388SOL     OW18622   3.023   1.753   2.438  0.1399  0.3776  0.1783
 2388SOL    HW118623   3.107   1.710   2.453 -0.0163 -1.3789 -4.1403
 2388SOL    HW218624   3.042   1.846   2.427  0.5183  0.1274 -1.3023
 2389SOL     OW18625   3.628   0.568   9.821  0.2532  0.1988  0.3831
 2389SOL    HW118626   3.711   0.614   9.825  0.0474  0.4841  1.3000
 2389SOL    HW218627   3.654   0.518   9.743 -2.5392  1.3304 -1.2793
 2390SOL     OW18628   0.642   3.179   6.672  0.0146  0.5225 -0.0014
 2390SOL    HW118629   0.725   3.221   6.648 -0.6189  1.3085 -0.7795
 2390SOL    HW218630   0.668   3.087   6.668  1.3720  0.7780  2.8428
 2391SOL     OW18631   3.104   2.239   1.529 -0.7184 -0.2075  0.0165
 2391SOL    HW118632   3.115   2.144   1.535  1.2621  0.0627  0.8848
 2391SOL    HW218633   3.124   2.263   1.438  2.8514  0.6090  1.0064
 2392SOL     OW18634   3.696   4.684   1.654 -0.5954  0.0178 -0.0962
 2392SOL    HW118635   3.652   4.605   1.625  1.9576 -1.2067 -0.6672
 2392SOL    HW218636   3.762   4.650   1.715  0.4220 -0.0168 -1.1982
 2393SOL     OW18637   4.488   1.287  14.734 -0.1830  0.0764  0.0443
 2393SOL    HW118638   4.544   1.279  14.812 -0.7194  0.2270  0.4443
 2393SOL    HW218639   4.424   1.349  14.769 -2.4259 -2.3742  0.3075
 2394SOL     OW18640   0.665   2.333   5.102  0.5337 -0.5667 -0.2324
 2394SOL    HW118641   0.656   2.268   5.172  1.7149 -0.6848 -0.1841
 2394SOL    HW218642   0.596   2.310   5.040 -0.8909  1.4840  0.6296
 2395SOL     OW18643   4.238   0.002   4.861  0.2034 -0.1619  0.3887
 2395SOL    HW118644   4.180   0.077   4.875  0.2172 -0.2692  1.0191
 2395SOL    HW218645   4.228   4.685   4.948  0.7336 -0.3329  0.3736
 2396SOL     OW18646   3.569   1.387   1.480  0.4194 -0.1322  0.0041
 2396SOL    HW118647   3.635   1.342   1.533 -0.3132 -0.5846  0.5332
 2396SOL    HW218648   3.487   1.366   1.524  0.1662 -1.8895 -1.2876
 2397SOL     OW18649   1.802   0.131   4.704  0.0753  0.2731 -0.1585
 2397SOL    HW118650   1.892   0.157   4.724  0.4553 -0.8372 -0.4224
 2397SOL    HW218651   1.751   0.199   4.748  1.0675  0.8165  0.1501
 2398SOL     OW18652   1.623   4.471   7.452  0.4736  0.4637  0.3621
 2398SOL    HW118653   1.716   4.494   7.454  0.6073 -0.1559  1.3328
 2398SOL    HW218654   1.602   4.475   7.545  1.5161 -3.4579  0.7493
 2399SOL     OW18655   4.586   1.897   6.495 -0.7203 -0.3045 -0.0136
 2399SOL    HW118656   4.627   1.983   6.491 -2.0729  0.1838 -3.0743
 2399SOL    HW218657   4.650   1.849   6.548 -1.9643 -0.1940  1.5940
 2400SOL     OW18658   3.730   1.556   2.357 -0.3764 -0.0722  0.0570
 2400SOL    HW118659   3.695   1.501   2.427 -1.6154  0.4213 -0.1844
 2400SOL    HW218660   3.786   1.493   2.311 -0.0739  0.7407 -0.6881
 2401SOL     OW18661   2.045   2.200   6.478 -0.5909 -0.1755 -0.0412
 2401SOL    HW118662   2.118   2.250   6.514 -0.7539 -0.0647  0.1419
 2401SOL    HW218663   2.076   2.130   6.421  3.7317  0.8446  1.0979
 2402SOL     OW18664   4.206   0.630   2.613 -0.4496 -0.2053  0.9647
 2402SOL    HW118665   4.194   0.644   2.707 -0.1720  0.7915  0.8518
 2402SOL    HW218666   4.164   0.544   2.606 -0.9149 -0.1946  3.5944
 2403SOL     OW18667   0.336   1.855   2.853 -0.7760 -0.3094 -0.0071
 2403SOL    HW118668   0.294   1.857   2.767  0.5046  1.3332 -0.5988
 2403SOL    HW218669   0.267   1.816   2.907 -0.6059 -0.5977 -0.0013
 2404SOL     OW18670   2.192   2.672   2.411 -0.4075 -0.0369 -0.0038
 2404SOL    HW118671   2.270   2.662   2.356  1.4192 -1.6210  2.9113
 2404SOL    HW218672   2.221   2.621   2.486 -0.0615 -1.3298 -0.9995
 2405SOL     OW18673   2.660   3.982   6.184  0.3163  0.0086  0.0774
 2405SOL    HW118674   2.642   3.958   6.275 -0.5278  1.1864  0.2202
 2405SOL    HW218675   2.678   4.075   6.196  3.1445 -0.3828 -1.1711
 2406SOL     OW18676   3.702   4.671  10.276  0.1170  0.0668  0.4047
 2406SOL    HW118677   3.746   4.616  10.341  1.8003  1.0954  0.1598
 2406SOL    HW218678   3.768   4.717  10.224 -0.3348 -0.5711 -0.7281
 2407SOL     OW18679   4.585   4.012  16.607 -0.0076  0.0876  0.1138
 2407SOL    HW118680   4.549   4.075  16.669  0.5580 -1.3826  1.9499
 2407SOL    HW218681   4.608   3.944  16.670 -4.1268 -2.0044 -0.6879
 2408SOL     OW18682   4.612   3.147   5.952 -0.4478  0.0191  0.0415
 2408SOL    HW118683   4.548   3.097   6.002  0.2782 -0.3168  0.6422
 2408SOL    HW218684   4.605   3.228   6.002  2.2060 -0.1121  0.6297
 2409SOL     OW18685   1.117   1.360  11.315  0.9243 -0.3473 -0.2511
 2409SOL    HW118686   1.033   1.314  11.321  1.6024 -1.3801  1.2515
 2409SOL    HW218687   1.088   1.406  11.236  0.4135 -0.1299  0.0642
 2410SOL     OW18688   0.960   1.652   4.557  0.2580  0.6896  0.4222
 2410SOL    HW118689   1.050   1.622   4.569  0.2003 -0.4424 -2.1640
 2410SOL    HW218690   0.968   1.738   4.516  5.0282 -0.4301 -0.9493
 2411SOL     OW18691   1.575   3.098   2.103 -0.1951 -0.5164 -0.1148
 2411SOL    HW118692   1.522   3.131   2.031  2.0891  2.9679 -0.2261
 2411SOL    HW218693   1.524   3.021   2.127  1.5197 -2.3477 -2.3777
 2412SOL     OW18694   1.606   4.292   0.626  0.8698 -0.6025 -0.0923
 2412SOL    HW118695   1.582   4.385   0.615  0.1333 -0.9370 -1.4143
 2412SOL    HW218696   1.529   4.265   0.676 -1.4300  0.0775 -3.2566
 2413SOL     OW18697   1.768   0.441   4.658 -0.1650 -0.2665  0.0008
 2413SOL    HW118698   1.784   0.489   4.739 -1.5577  1.1494 -0.5767
 2413SOL    HW218699   1.688   0.394   4.677  0.4292 -0.5514  1.7689
 2414SOL     OW18700   2.967   3.350  10.607 -0.5826 -0.2459  0.0012
 2414SOL    HW118701   3.019   3.294  10.665 -0.8592  0.7673  1.2253
 2414SOL    HW218702   2.929   3.405  10.676  1.4561  0.4103  0.5901
 2415SOL     OW18703   0.098   0.513  13.069 -0.1409  0.0845  0.4413
 2415SOL    HW118704   0.057   0.433  13.103  1.1515 -0.8917 -0.2835
 2415SOL    HW218705   0.036   0.536  13.001 -0.6673  0.8727  1.1938
 2416SOL     OW18706   2.714   4.079  10.034  0.3115  0.6552 -0.3234
 2416SOL    HW118707   2.664   4.101  10.112 -1.0494 -2.5342 -0.2870
 2416SOL    HW218708   2.656   4.116   9.966 -2.6025  2.5652  3.2153
 2417SOL     OW18709   0.107   3.030   5.450  0.1353 -0.0891 -0.3493
 2417SOL    HW118710   0.149   3.108   5.414  1.4773 -1.3489 -1.5072
 2417SOL    HW218711   0.060   3.064   5.526  0.9941  1.7688 -0.6759
 2418SOL     OW18712   1.070   2.559  15.724  0.4827 -0.3717 -0.6256
 2418SOL    HW118713   1.019   2.479  15.736 -1.0207  0.6389 -0.3054
 2418SOL    HW218714   1.040   2.605  15.803  0.7136  0.5300 -1.0613
 2419SOL     OW18715   3.357   2.623  16.603 -0.0541 -0.0310 -0.3276
 2419SOL    HW118716   3.314   2.537  16.602 -0.7625  0.3313 -0.8714
 2419SOL    HW218717   3.301   2.672  16.664  2.1517 -0.3564  1.9804
 2420SOL     OW18718   1.841   1.276   9.462 -0.6620  0.0934 -0.0048
 2420SOL    HW118719   1.759   1.226   9.458 -0.8194  0.2734  0.9262
 2420SOL    HW218720   1.867   1.258   9.372  1.1427  1.4814  0.2388
 2421SOL     OW18721   2.736   1.709   3.659  0.3342  0.7544  0.1425
 2421SOL    HW118722   2.727   1.690   3.565  0.2861 -1.0059  0.5038
 2421SOL    HW218723   2.647   1.732   3.686 -0.5599 -3.5113  0.7420
 2422SOL     OW18724   0.909   3.836   0.471  0.0064  0.0419  0.3833
 2422SOL    HW118725   0.932   3.824   0.379 -0.4471  0.8658  0.1697
 2422SOL    HW218726   0.903   3.930   0.486 -1.2466 -0.0256  0.2548
 2423SOL     OW18727   3.417   4.579   9.292  0.7585 -0.2364 -0.0870
 2423SOL    HW118728   3.491   4.519   9.301  1.7095  1.2760  2.3627
 2423SOL    HW218729   3.421   4.608   9.201 -0.6022 -0.0104 -0.0811
 2424SOL     OW18730   4.198   1.028   9.610  0.5076 -0.1347 -0.3562
 2424SOL    HW118731   4.246   0.962   9.660 -0.9743 -0.7455  0.2615
 2424SOL    HW218732   4.143   0.975   9.553  0.3325  0.9300 -1.1766
 2425SOL     OW18733   3.069   4.678   4.948 -0.1985  0.0567 -1.1077
 2425SOL    HW118734   3.094   4.609   4.886  1.5604  0.0745 -0.4115
 2425SOL    HW218735   3.090   0.035   4.896 -0.4073  2.3334  2.2614
 2426SOL     OW18736   4.278   1.234   3.297 -0.0101  0.3427 -0.2275
 2426SOL    HW118737   4.282   1.147   3.336 -3.4616  0.4828  0.4848
 2426SOL    HW218738   4.223   1.203   3.225  0.5440 -1.7353  0.2536
 2427SOL     OW18739   0.163   3.716   3.721  0.0641 -0.2934  0.3133
 2427SOL    HW118740   0.154   3.636   3.773  0.9186 -0.3395  0.3927
 2427SOL    HW218741   0.248   3.756   3.741  0.3967 -0.6842 -0.3120
 2428SOL     OW18742   3.920   3.828  13.688 -0.1578 -0.3112  0.1353
 2428SOL    HW118743   3.858   3.901  13.681  0.2502  0.1404  1.1782
 2428SOL    HW218744   4.001   3.869  13.720 -1.0986  2.5085 -1.0921
 2429SOL     OW18745   3.383   2.906   5.221  0.0276 -0.1069 -0.3273
 2429SOL    HW118746   3.429   2.975   5.174  1.0062 -0.9669 -0.6473
 2429SOL    HW218747   3.417   2.836   5.165 -0.4884  0.0421 -0.8279
 2430SOL     OW18748   0.111   2.440   9.244 -0.7174  0.3789  0.4539
 2430SOL    HW118749   0.041   2.479   9.191  1.8760  0.9240 -2.6166
 2430SOL    HW218750   0.174   2.428   9.173  0.1259 -2.5340  1.7070
 2431SOL     OW18751   3.927   1.320  13.584 -0.2188 -0.1868 -0.9077
 2431SOL    HW118752   4.003   1.353  13.535 -0.3195  0.8412 -0.3462
 2431SOL    HW218753   3.958   1.229  13.591 -0.9388 -0.4171 -0.7412
 2432SOL     OW18754   0.381   4.230   1.570 -0.0112 -0.5836  0.2494
 2432SOL    HW118755   0.372   4.324   1.587 -1.3716 -0.8896  1.1911
 2432SOL    HW218756   0.413   4.235   1.479 -0.4008  3.2962  0.2979
 2433SOL     OW18757   1.970   0.578  13.287  0.4904  0.0691  0.0584
 2433SOL    HW118758   1.876   0.589  13.303  0.6549  0.7871  0.5321
 2433SOL    HW218759   1.994   0.664  13.252 -1.5092  1.0076  0.9679
 2434SOL     OW18760   0.089   0.675   3.507 -0.3199  0.2064 -0.3273
 2434SOL    HW118761   0.117   0.734   3.437 -0.3799  1.0501  0.3550
 2434SOL    HW218762   0.036   0.734   3.560  2.5133  0.1915  2.5824
 2435SOL     OW18763   2.082   0.681  10.829  0.6680 -0.1843  0.5848
 2435SOL    HW118764   2.093   0.741  10.755 -0.4651 -4.1088 -2.7587
 2435SOL    HW218765   2.156   0.623  10.811  1.6233  1.0800  0.4622
 2436SOL     OW18766   3.608   1.493  14.418 -0.0675  0.3840  0.0145
 2436SOL    HW118767   3.533   1.523  14.469  0.7225 -1.6349  2.3602
 2436SOL    HW218768   3.651   1.574  14.389  0.8614  0.6808  2.2120
 2437SOL     OW18769   2.960   2.919   7.875 -0.5349  0.5991 -0.1475
 2437SOL    HW118770   3.044   2.965   7.869 -0.9322  1.4698  0.8091
 2437SOL    HW218771   3.003   2.837   7.851  0.9280  1.5382 -0.7380
 2438SOL     OW18772   2.476   1.111  11.471  0.8423  0.1336 -0.2930
 2438SOL    HW118773   2.489   1.198  11.433 -1.3712  0.2853 -0.6602
 2438SOL    HW218774   2.507   1.061  11.395 -2.0433 -2.1784  0.0981
 2439SOL     OW18775   1.649   0.431   7.778  0.1935 -0.2179 -0.7315
 2439SOL    HW118776   1.628   0.474   7.861  0.0836  0.5041 -1.1349
 2439SOL    HW218777   1.670   0.501   7.717 -1.2745  0.4909 -0.4193
 2440SOL     OW18778   3.029   0.254   5.685 -0.4243 -0.2269 -0.3786
 2440SOL    HW118779   3.021   0.196   5.609  0.0070  0.4622 -0.9494
 2440SOL    HW218780   3.087   0.322   5.650 -0.9808  1.0344  1.1229
 2441SOL     OW18781   2.797   0.824   5.151  0.1220 -0.1752  0.3592
 2441SOL    HW118782   2.764   0.909   5.122 -0.5561  0.4538  2.9222
 2441SOL    HW218783   2.726   0.764   5.130  0.1340 -0.3890  0.9092
 2442SOL     OW18784   3.931   1.817   3.407 -0.3002 -0.2383 -0.0694
 2442SOL    HW118785   3.948   1.894   3.461 -2.0747  1.1459 -1.5146
 2442SOL    HW218786   4.019   1.780   3.406  0.2792  1.1201  1.3544
 2443SOL     OW18787   2.181   4.048  14.949  0.1741  0.1272 -0.3757
 2443SOL    HW118788   2.110   4.111  14.957  1.5682  1.5805  0.4437
 2443SOL    HW218789   2.131   3.978  14.906 -0.1327 -1.2259  2.1379
 2444SOL     OW18790   2.740   2.851  16.245  0.1098  0.7371 -0.1018
 2444SOL    HW118791   2.807   2.792  16.210  0.7606  1.4148  0.0016
 2444SOL    HW218792   2.799   2.918  16.279  0.6989  0.2744 -0.1992
 2445SOL     OW18793   0.327   2.312  14.312  0.8889  0.4378  0.2432
 2445SOL    HW118794   0.310   2.363  14.233  0.3650  0.7765  0.5681
 2445SOL    HW218795   0.241   2.333  14.349  0.8585 -0.8606  0.9289
 2446SOL     OW18796   0.907   1.935   3.925 -0.3137 -0.1833 -0.6623
 2446SOL    HW118797   0.954   1.859   3.890  1.2812 -0.6565  2.4313
 2446SOL    HW218798   0.873   1.968   3.843 -1.2092  0.8836  0.1449
 2447SOL     OW18799   4.089   3.104   5.342 -0.2157 -0.3559  0.2049
 2447SOL    HW118800   4.061   3.022   5.301  2.4495 -1.2648  0.2007
 2447SOL    HW218801   4.120   3.153   5.266 -0.9889  1.1688  0.8676
 2448SOL     OW18802   2.704   1.799   8.461  0.0374  0.0487 -0.5136
 2448SOL    HW118803   2.683   1.717   8.416  2.5965  0.0594 -1.6976
 2448SOL    HW218804   2.626   1.841   8.424 -1.0589 -0.8208  0.8053
 2449SOL     OW18805   4.567   3.743   8.479  0.3672  0.5076  0.2769
 2449SOL    HW118806   4.552   3.837   8.483  1.2213  0.6135  0.8489
 2449SOL    HW218807   4.555   3.715   8.569 -1.5759  0.5808  0.0397
 2450SOL     OW18808   1.971   3.344   3.582  0.2760  0.4515 -0.0716
 2450SOL    HW118809   2.056   3.363   3.621 -0.7033  1.0250  1.7618
 2450SOL    HW218810   1.904   3.349   3.650  0.9609 -0.4098  0.6674
 2451SOL     OW18811   3.578   3.042  10.994 -0.3174  0.8127 -0.3638
 2451SOL    HW118812   3.653   3.101  10.999 -0.4443  0.7021  2.5118
 2451SOL    HW218813   3.615   2.965  10.950 -1.0612  1.0118 -1.3201
 2452SOL     OW18814   3.481   3.921   5.330  0.0210  0.4315  0.3773
 2452SOL    HW118815   3.433   3.901   5.410  1.2774 -0.3202  0.9404
 2452SOL    HW218816   3.570   3.890   5.349 -0.1567 -1.3889 -1.6854
 2453SOL     OW18817   1.904   0.114  12.101 -0.0658 -0.4704 -0.4776
 2453SOL    HW118818   1.962   0.190  12.103 -0.9433  0.2110 -0.7399
 2453SOL    HW218819   1.849   0.135  12.025 -1.4500  4.0591  1.7656
 2454SOL     OW18820   3.405   4.439   3.347  0.5483  0.1082  0.3081
 2454SOL    HW118821   3.376   4.348   3.343  2.1002 -0.3392 -0.7805
 2454SOL    HW218822   3.492   4.442   3.386  0.4121 -1.0559  0.7162
 2455SOL     OW18823   1.595   2.768   5.144  0.0460  0.3844 -0.1877
 2455SOL    HW118824   1.599   2.822   5.223 -2.7021 -0.1524  0.3045
 2455SOL    HW218825   1.642   2.690   5.172 -0.0356  0.5851  0.5064
 2456SOL     OW18826   2.951   1.492   7.546  0.1687  0.5087  0.3343
 2456SOL    HW118827   2.912   1.422   7.598 -0.6788  0.3238 -0.5534
 2456SOL    HW218828   2.936   1.568   7.602  0.3349 -0.4311  1.6570
 2457SOL     OW18829   3.249   1.997  15.639 -0.0654  0.2126 -0.1735
 2457SOL    HW118830   3.340   2.020  15.655  0.2757 -2.4862  1.7021
 2457SOL    HW218831   3.216   2.086  15.622  0.2155 -0.0567 -2.1302
 2458SOL     OW18832   1.065   2.086   8.629 -0.1744  0.3106 -0.7406
 2458SOL    HW118833   1.017   2.100   8.547  0.7579 -0.7389 -1.4639
 2458SOL    HW218834   0.992   2.061   8.685  0.4997 -1.9236 -0.8704
 2459SOL     OW18835   0.989   0.983   9.572  0.1031 -0.3391  0.3312
 2459SOL    HW118836   0.940   0.945   9.645 -0.3789 -0.9795 -0.3225
 2459SOL    HW218837   1.053   1.041   9.614 -0.3759  0.1183  0.4370
 2460SOL     OW18838   1.985   4.229   6.087 -0.0238  0.5992 -0.3206
 2460SOL    HW118839   2.070   4.210   6.127  0.0623  0.6499 -0.4787
 2460SOL    HW218840   1.958   4.296   6.151  0.8099  0.0059  0.6435
 2461SOL     OW18841   0.313   1.717   1.151 -0.2014 -0.2535  0.2561
 2461SOL    HW118842   0.258   1.640   1.166 -1.6056  0.2341 -2.4583
 2461SOL    HW218843   0.249   1.785   1.133 -0.7275 -0.5052  1.2017
 2462SOL     OW18844   0.075   3.447   2.911  0.6733  0.2980  0.5975
 2462SOL    HW118845   0.077   3.442   2.816 -1.1340  1.4260  0.4902
 2462SOL    HW218846   4.721   3.388   2.913 -0.0052  1.0806 -1.8677
 2463SOL     OW18847   0.977   4.564   2.875 -0.5331  0.4652  0.2669
 2463SOL    HW118848   1.001   4.656   2.865  1.0292 -0.0511 -0.8329
 2463SOL    HW218849   1.020   4.518   2.803 -3.9310  0.0617 -1.4965
 2464SOL     OW18850   2.095   4.097   9.060 -0.7155 -0.1539 -0.0081
 2464SOL    HW118851   2.000   4.111   9.056 -0.7113 -0.5904 -1.5302
 2464SOL    HW218852   2.127   4.184   9.034  1.9119 -1.2278 -0.3296
 2465SOL     OW18853   2.749   0.158   3.919  0.2658  0.7832  0.2983
 2465SOL    HW118854   2.733   0.252   3.910 -0.7850  0.4637 -1.1093
 2465SOL    HW218855   2.781   0.132   3.833  2.5832 -1.1741  1.7551
 2466SOL     OW18856   2.851   2.918  12.264  0.2392 -0.5222 -0.6343
 2466SOL    HW118857   2.897   2.891  12.343 -2.8548 -2.5048  0.5062
 2466SOL    HW218858   2.768   2.946  12.304 -0.9003 -2.1361 -1.9023
 2467SOL     OW18859   0.919   3.804   0.173 -0.1124  0.1126  0.2058
 2467SOL    HW118860   0.874   3.730   0.131  1.1551  0.5935 -2.0374
 2467SOL    HW218861   0.846   3.866   0.177 -2.1102 -2.1598 -1.0081
 2468SOL     OW18862   2.290   3.948   7.686  0.1600 -0.4528  0.3495
 2468SOL    HW118863   2.334   4.002   7.620  1.2225 -1.0168  0.5956
 2468SOL    HW218864   2.269   3.872   7.632 -2.4596 -1.4851  2.8444
 2469SOL     OW18865   2.910   0.086   8.511  0.0687  0.0643  0.0796
 2469SOL    HW118866   2.932   0.144   8.439  1.2113  0.8704  1.0772
 2469SOL    HW218867   2.998   0.074   8.547  0.9643  0.2465 -2.0424
 2470SOL     OW18868   4.022   2.370  16.419 -0.0355 -0.1604  0.0281
 2470SOL    HW118869   4.110   2.369  16.454  0.5993 -0.5746 -1.5538
 2470SOL    HW218870   3.961   2.363  16.492 -0.5979  1.4555 -0.2911
 2471SOL     OW18871   0.062   0.574  16.158  0.1140  0.3815 -0.3043
 2471SOL    HW118872   0.017   0.659  16.154 -0.3015  0.3087  2.8346
 2471SOL    HW218873   0.052   0.537  16.245 -1.2006  1.3384 -0.0468
 2472SOL     OW18874   4.115   1.263   3.701  0.0948 -0.1501 -0.5533
 2472SOL    HW118875   4.065   1.187   3.673 -2.8148  1.0361  1.4407
 2472SOL    HW218876   4.189   1.220   3.744 -0.9629 -0.7423  0.6899
 2473SOL     OW18877   2.842   4.551   7.047  0.0937  0.1210 -0.2827
 2473SOL    HW118878   2.796   4.625   7.009 -0.0057 -1.0567 -2.4536
 2473SOL    HW218879   2.904   4.598   7.103 -0.2190 -0.3852  0.4776
 2474SOL     OW18880   0.281   2.281   8.395 -0.3970  0.4476 -0.0922
 2474SOL    HW118881   0.289   2.250   8.305 -3.4247  1.7893 -0.7997
 2474SOL    HW218882   0.196   2.322   8.411 -0.5398  0.6526 -1.4146
 2475SOL     OW18883   1.734   3.465   5.020  0.2314 -0.1383 -0.2138
 2475SOL    HW118884   1.764   3.391   5.073  2.0897  1.4396  0.9385
 2475SOL    HW218885   1.735   3.535   5.085  3.5819  0.9385 -1.4826
 2476SOL     OW18886   0.025   1.443   1.608  0.0835 -0.6683  0.4546
 2476SOL    HW118887   0.002   1.361   1.564 -1.8040 -0.9323  1.9629
 2476SOL    HW218888   4.660   1.457   1.648 -0.8273  0.4619 -1.8836
 2477SOL     OW18889   4.615   1.802   3.885 -0.1399 -0.6702  0.0933
 2477SOL    HW118890   4.564   1.721   3.889 -0.0565 -0.7702 -0.8214
 2477SOL    HW218891   4.652   1.791   3.797 -0.7845  2.2597 -0.5344
 2478SOL     OW18892   3.992   1.914  10.679 -0.6675 -0.1827  0.0604
 2478SOL    HW118893   3.976   1.958  10.595 -0.5850 -0.4353 -0.0887
 2478SOL    HW218894   3.931   1.965  10.732  0.9508  1.4283  0.3659
 2479SOL     OW18895   2.122   2.380   5.257 -0.2119 -0.0942  0.0331
 2479SOL    HW118896   2.195   2.329   5.294  0.7953  0.5274 -1.1201
 2479SOL    HW218897   2.119   2.342   5.169  0.8197  0.0519 -0.0726
 2480SOL     OW18898   4.137   0.132   0.353 -0.4187  0.0306  0.2995
 2480SOL    HW118899   4.155   0.039   0.371  0.6183  0.0408 -0.7358
 2480SOL    HW218900   4.216   0.165   0.395  0.1156 -1.1754  0.2483
 2481SOL     OW18901   3.854   1.189   6.861  0.4259  0.4053  0.3057
 2481SOL    HW118902   3.913   1.222   6.794  2.7298 -2.2212  1.0674
 2481SOL    HW218903   3.775   1.237   6.835 -0.7328 -2.4390 -1.4741
 2482SOL     OW18904   0.546   2.508  10.260  0.4767  0.4185 -0.1317
 2482SOL    HW118905   0.489   2.434  10.282 -0.0679  0.5677 -1.0529
 2482SOL    HW218906   0.570   2.497  10.168  0.8408 -0.7115  0.1015
 2483SOL     OW18907   4.305   2.354   4.617 -0.0514  0.3282 -0.0528
 2483SOL    HW118908   4.300   2.258   4.612  1.4705  0.2320  0.1943
 2483SOL    HW218909   4.231   2.378   4.561  0.5680  1.4777 -0.3841
 2484SOL     OW18910   3.507   1.837   3.619  0.3803  0.8135 -0.3326
 2484SOL    HW118911   3.481   1.856   3.530 -0.4346  1.5315  0.0639
 2484SOL    HW218912   3.601   1.855   3.613  0.7503 -1.0272 -0.1403
 2485SOL     OW18913   2.890   0.448   5.509  0.1254  0.3455  0.1585
 2485SOL    HW118914   2.849   0.446   5.596  1.1788  0.8081  0.6661
 2485SOL    HW218915   2.985   0.449   5.521 -0.1602 -0.7671  2.5957
 2486SOL     OW18916   1.847   1.075   7.924  0.1656  0.5057 -0.1408
 2486SOL    HW118917   1.843   0.991   7.970 -1.4069  0.7722  0.2232
 2486SOL    HW218918   1.765   1.123   7.931 -0.2165 -0.0930 -0.5137
 2487SOL     OW18919   4.338   1.296   2.529  0.2662  0.2851 -0.5587
 2487SOL    HW118920   4.351   1.380   2.485 -0.3788  0.7347  0.1048
 2487SOL    HW218921   4.311   1.338   2.610  3.2438  0.6401  0.2360
 2488SOL     OW18922   0.729   3.280   0.623 -0.4717  0.3046  0.2546
 2488SOL    HW118923   0.680   3.359   0.645 -0.3055 -0.3701  3.0667
 2488SOL    HW218924   0.669   3.212   0.655 -0.5361  0.3122  0.1509
 2489SOL     OW18925   0.890   1.205   4.980 -0.6126  0.0746  0.2923
 2489SOL    HW118926   0.885   1.121   4.934 -0.3447 -0.8162  1.8884
 2489SOL    HW218927   0.845   1.267   4.923  1.8686  1.0466 -0.6155
 2490SOL     OW18928   3.605   3.814   8.856  0.0986  0.1905  0.4081
 2490SOL    HW118929   3.592   3.906   8.881 -0.9781 -0.0203  0.6387
 2490SOL    HW218930   3.663   3.823   8.781 -0.3540 -2.3673 -0.2448
 2491SOL     OW18931   1.972   3.077  12.302 -0.1857 -0.0630  0.0655
 2491SOL    HW118932   1.943   3.137  12.371 -1.3189 -2.6176  1.8294
 2491SOL    HW218933   2.066   3.068  12.318 -0.3561  1.4718  1.8633
 2492SOL     OW18934   1.257   2.082   1.348  0.0353  0.0392 -0.1619
 2492SOL    HW118935   1.269   1.993   1.315  1.8954 -0.4902  1.9045
 2492SOL    HW218936   1.169   2.105   1.319  0.2756  1.3183  0.1170
 2493SOL     OW18937   0.656   1.856   2.529  0.0659 -0.0380 -0.5491
 2493SOL    HW118938   0.705   1.883   2.607 -1.1089 -0.5524  0.3745
 2493SOL    HW218939   0.708   1.882   2.453  0.9439  0.4718  0.2289
 2494SOL     OW18940   0.648   0.209  13.721  0.2268 -0.3161 -0.1638
 2494SOL    HW118941   0.651   0.237  13.629  1.9422  0.8967  0.2525
 2494SOL    HW218942   0.554   0.197  13.725  0.1889 -0.0797 -0.3536
 2495SOL     OW18943   1.154   3.071   5.701  0.0848 -0.2891  0.2381
 2495SOL    HW118944   1.097   3.140   5.735 -0.4740 -1.6046  1.9342
 2495SOL    HW218945   1.101   3.037   5.630  2.1829 -0.7196 -1.1272
 2496SOL     OW18946   0.596   4.574   8.186 -0.2667 -0.3032  0.0112
 2496SOL    HW118947   0.606   4.500   8.246  1.4746  0.0007  0.1022
 2496SOL    HW218948   0.509   4.555   8.150  0.3415  2.1983 -2.8219
 2497SOL     OW18949   4.127   3.922  14.997  0.5556  0.0579  0.2646
 2497SOL    HW118950   4.205   3.977  14.990  1.1462 -0.6379  1.4661
 2497SOL    HW218951   4.160   3.836  14.969  0.0614 -0.0132 -0.1113
 2498SOL     OW18952   3.519   0.380   6.991 -0.1029 -0.3389  0.0260
 2498SOL    HW118953   3.477   0.346   6.912 -1.2197 -1.1990  0.9896
 2498SOL    HW218954   3.603   0.336   6.980 -0.0690 -0.4007  0.5172
 2499SOL     OW18955   0.931   3.354   5.549 -0.1475 -0.2531 -0.2206
 2499SOL    HW118956   0.910   3.444   5.576 -0.7703  0.0712 -1.7499
 2499SOL    HW218957   0.990   3.377   5.477 -0.4723  1.0588 -0.0691
 2500SOL     OW18958   1.844   4.688   1.545  0.4359 -0.2412 -0.2191
 2500SOL    HW118959   1.895   4.696   1.465 -1.7105  0.7427 -1.4635
 2500SOL    HW218960   1.821   4.595   1.539 -0.2001 -0.0873 -0.1467
 2501SOL     OW18961   3.670   0.710  14.681  0.0889  0.0230 -0.4295
 2501SOL    HW118962   3.614   0.783  14.705  0.6509  0.4733 -0.4874
 2501SOL    HW218963   3.755   0.753  14.688  0.3848 -0.5196 -0.6223
 2502SOL     OW18964   0.897   3.374   6.114  0.0483  0.1622 -0.1669
 2502SOL    HW118965   0.905   3.280   6.133 -0.4566  0.1750  0.1136
 2502SOL    HW218966   0.916   3.384   6.021 -1.7940 -0.9064 -0.6759
 2503SOL     OW18967   3.444   1.574   9.396 -0.3599 -0.3283  0.2536
 2503SOL    HW118968   3.496   1.544   9.322 -2.9656 -1.6942 -1.0397
 2503SOL    HW218969   3.466   1.667   9.396 -0.1393 -0.3833  1.4952
 2504SOL     OW18970   1.633   1.839   9.667 -0.0605 -0.6228 -0.6004
 2504SOL    HW118971   1.594   1.887   9.740  2.9064 -0.8463  1.1336
 2504SOL    HW218972   1.686   1.915   9.640 -0.8001 -0.0706 -0.4821
 2505SOL     OW18973   1.242   4.094  11.117  0.4066 -0.0567 -0.1590
 2505SOL    HW118974   1.319   4.083  11.172  1.3983  1.4203 -1.2631
 2505SOL    HW218975   1.182   4.147  11.169  0.3537  0.7464 -1.0391
 2506SOL     OW18976   4.114   2.536   2.053 -0.7680  0.7897 -0.2768
 2506SOL    HW118977   4.048   2.517   1.987  1.4886 -1.3235 -1.9027
 2506SOL    HW218978   4.156   2.614   2.014  0.7672 -0.2436 -0.6976
 2507SOL     OW18979   0.310   1.019   6.983  0.1351  0.7776  0.8817
 2507SOL    HW118980   0.258   1.097   6.965  0.3292  0.1685 -2.4834
 2507SOL    HW218981   0.276   0.984   7.065  0.9392 -1.9365  0.0826
 2508SOL     OW18982   3.043   4.496   9.350 -0.4555 -0.4146  0.2018
 2508SOL    HW118983   3.093   4.554   9.407  2.6089 -1.3372 -1.5259
 2508SOL    HW218984   3.110   4.489   9.282 -2.2113 -2.1412 -1.3764
 2509SOL     OW18985   2.104   0.582   7.161  0.4932  0.3234  0.3917
 2509SOL    HW118986   2.114   0.491   7.135 -0.7941  0.6045 -1.0775
 2509SOL    HW218987   2.192   0.612   7.138  0.7305 -0.3054  0.4918
 2510SOL     OW18988   3.009   1.993   7.397  0.1562 -0.3966  0.0075
 2510SOL    HW118989   3.070   2.020   7.466  0.8805  0.3699 -0.9402
 2510SOL    HW218990   3.058   1.976   7.317 -0.3797 -2.6442  0.1636
 2511SOL     OW18991   3.423   3.818   3.002 -0.2139 -0.2616  0.2942
 2511SOL    HW118992   3.388   3.892   2.951  1.8130  1.2130  1.0644
 2511SOL    HW218993   3.384   3.744   2.954  1.8376 -0.9515 -0.2949
 2512SOL     OW18994   4.065   2.861   8.269 -0.4407  0.0359 -0.2590
 2512SOL    HW118995   4.009   2.931   8.235  2.5305  2.5147 -0.0671
 2512SOL    HW218996   4.007   2.785   8.267 -0.4223  0.0075  0.2572
 2513SOL     OW18997   1.270   3.419   5.690 -0.1160 -0.2515  0.4835
 2513SOL    HW118998   1.190   3.428   5.639 -0.1543 -0.2536  0.5432
 2513SOL    HW218999   1.268   3.495   5.749 -1.1459  0.1098 -0.0082
 2514SOL     OW19000   3.222   0.183   7.937 -0.4276  0.4135  0.1535
 2514SOL    HW119001   3.303   0.234   7.936 -1.6130  2.2927 -0.7181
 2514SOL    HW219002   3.221   0.151   7.847 -1.9053  0.6067  0.0863
 2515SOL     OW19003   4.642   3.756   3.230  0.0512  0.2331  0.1939
 2515SOL    HW119004   4.681   3.829   3.183 -0.2708  1.3255  1.6416
 2515SOL    HW219005   4.698   3.752   3.307 -0.2151 -2.8097  0.2369
 2516SOL     OW19006   2.879   1.973   5.581 -0.3342 -0.1571  0.4414
 2516SOL    HW119007   2.807   2.027   5.614  0.8059  1.3585  0.4331
 2516SOL    HW219008   2.958   2.025   5.590 -0.7640  0.4616  0.6657
 2517SOL     OW19009   2.358   1.060   4.395  0.0928  0.0279 -0.1001
 2517SOL    HW119010   2.336   1.050   4.487  1.1274 -0.6114  0.0768
 2517SOL    HW219011   2.319   0.975   4.371  1.4813 -0.6764  0.1522
 2518SOL     OW19012   4.612   2.011   7.674 -0.1569 -0.4763 -0.4490
 2518SOL    HW119013   4.697   2.048   7.653 -1.0480  0.1344 -3.0665
 2518SOL    HW219014   4.621   1.917   7.688 -1.6247 -0.0710  3.1368
 2519SOL     OW19015   1.771   0.690   2.836 -0.7346  0.3707 -0.1635
 2519SOL    HW119016   1.683   0.710   2.869 -0.5363 -0.8061  1.0338
 2519SOL    HW219017   1.811   0.777   2.827 -2.0800  1.0335  0.2253
 2520SOL     OW19018   1.690   0.913  12.091  0.0328 -0.0288  0.5550
 2520SOL    HW119019   1.654   1.002  12.088 -1.6325 -0.6944  0.5846
 2520SOL    HW219020   1.610   0.864  12.109 -0.6599  0.1904 -1.9270
 2521SOL     OW19021   1.603   2.552   7.757  0.4904 -0.1881 -0.0645
 2521SOL    HW119022   1.557   2.468   7.750  1.4112 -0.6525 -0.6365
 2521SOL    HW219023   1.576   2.578   7.845 -1.6370 -0.2921 -0.6953
 2522SOL     OW19024   4.472   3.229  10.894 -0.0999  0.2636 -0.1035
 2522SOL    HW119025   4.438   3.252  10.980 -0.8227 -0.4195 -0.2179
 2522SOL    HW219026   4.532   3.158  10.914 -1.3049 -0.9203 -0.7407
 2523SOL     OW19027   1.127   3.793  10.305  0.0042  0.4271 -0.1638
 2523SOL    HW119028   1.064   3.805  10.376  0.3569  1.4253 -0.0213
 2523SOL    HW219029   1.093   3.727  10.245  1.0086  0.4671 -0.7932
 2524SOL     OW19030   2.465   4.206   4.836  0.5161 -0.1717 -0.1228
 2524SOL    HW119031   2.550   4.216   4.879  0.2019  0.9668  0.2394
 2524SOL    HW219032   2.478   4.121   4.795 -0.2613 -0.3643  0.0358
 2525SOL     OW19033   0.061   2.238   1.235  0.1805 -0.6059 -0.5676
 2525SOL    HW119034   0.072   2.330   1.260  0.6398  0.1769 -3.6125
 2525SOL    HW219035   0.108   2.200   1.310 -1.8231 -0.2365  0.8642
 2526SOL     OW19036   1.644   0.289   4.890  0.1945  0.6261  0.2497
 2526SOL    HW119037   1.687   0.342   4.958 -0.1277 -2.3669  2.7682
 2526SOL    HW219038   1.587   0.238   4.947  0.7947 -0.0380  0.2645
 2527SOL     OW19039   1.506   4.354   1.948  0.3482 -0.6253  0.0372
 2527SOL    HW119040   1.471   4.352   2.038  2.0287 -0.6582  0.6913
 2527SOL    HW219041   1.436   4.350   1.883 -1.3239  0.4015  1.7715
 2528SOL     OW19042   3.940   0.260   9.328  0.4828  0.2320  0.1735
 2528SOL    HW119043   3.902   0.231   9.411 -0.7875 -1.0500 -0.8537
 2528SOL    HW219044   3.865   0.239   9.273 -0.1860 -1.7154  1.8584
 2529SOL     OW19045   0.392   2.584   4.950  1.2531  0.3288 -0.3232
 2529SOL    HW119046   0.418   2.665   4.906  2.7803 -0.6579 -1.2131
 2529SOL    HW219047   0.438   2.582   5.034 -1.3561 -1.1128  1.0944
 2530SOL     OW19048   4.564   0.679  10.630  0.1473  0.0404 -0.1134
 2530SOL    HW119049   4.521   0.720  10.705  2.1757 -0.0826  1.1396
 2530SOL    HW219050   4.634   0.737  10.601  0.8107 -1.5239 -1.6404
 2531SOL     OW19051   0.108   3.156   3.598  0.0098  0.0555  1.2699
 2531SOL    HW119052   0.192   3.199   3.614 -0.9728  1.2691  3.2004
 2531SOL    HW219053   0.116   3.092   3.669  1.2512  1.5023  2.4399
 2532SOL     OW19054   1.125   0.174  14.900  0.1035 -0.5207  0.0755
 2532SOL    HW119055   1.122   0.087  14.861 -0.8923 -0.2112 -0.5341
 2532SOL    HW219056   1.071   0.214  14.832  1.1585 -0.3911 -0.6984
 2533SOL     OW19057   3.484   2.491  14.152 -0.0199 -0.1333  0.6523
 2533SOL    HW119058   3.477   2.544  14.232 -0.4364  0.4220  0.2425
 2533SOL    HW219059   3.579   2.491  14.138 -0.4088  1.6176 -1.7886
 2534SOL     OW19060   1.191   4.243   3.703 -0.2546 -0.1715 -0.3400
 2534SOL    HW119061   1.170   4.202   3.787 -0.6379 -0.3701 -0.5365
 2534SOL    HW219062   1.107   4.243   3.657 -0.7321 -1.3231  0.5391
 2535SOL     OW19063   1.203   2.327   4.661 -0.2761 -0.2403 -0.0081
 2535SOL    HW119064   1.250   2.387   4.603  0.5237 -1.3844 -0.5624
 2535SOL    HW219065   1.117   2.369   4.663 -0.1340 -0.0684  2.5767
 2536SOL     OW19066   3.247   1.223   4.789  0.5003  0.4323 -0.1677
 2536SOL    HW119067   3.211   1.157   4.730 -0.6453  1.0597 -0.1790
 2536SOL    HW219068   3.183   1.197   4.854 -1.1392  1.3698 -1.4056
 2537SOL     OW19069   1.927   1.919  14.228 -0.4425 -0.2591  0.1379
 2537SOL    HW119070   1.988   1.976  14.276 -0.0897 -1.7616  1.4645
 2537SOL    HW219071   1.970   1.839  14.259 -0.3417 -0.5949 -0.8739
 2538SOL     OW19072   2.595   4.065  11.157 -0.2041 -0.3872 -0.2454
 2538SOL    HW119073   2.503   4.056  11.134 -0.6980  3.1324  0.4605
 2538SOL    HW219074   2.627   4.137  11.103  0.2010 -2.0652 -2.2204
 2539SOL     OW19075   3.177   1.839   6.792 -0.0792 -0.0468 -0.0482
 2539SOL    HW119076   3.193   1.746   6.772 -1.0034 -0.1772 -0.1653
 2539SOL    HW219077   3.102   1.824   6.849 -0.7085 -0.6671 -1.0353
 2540SOL     OW19078   2.766   0.763   4.774 -0.3168 -0.1793 -0.0077
 2540SOL    HW119079   2.703   0.781   4.705  0.1717  1.8023  0.0672
 2540SOL    HW219080   2.735   0.675   4.797  0.2271 -0.8621 -1.9350
 2541SOL     OW19081   2.908   3.543   3.152 -0.5010 -0.3289 -0.1060
 2541SOL    HW119082   2.949   3.515   3.070  1.0838  1.6627 -0.0125
 2541SOL    HW219083   2.834   3.592   3.118  0.4586  0.2462 -1.3966
 2542SOL     OW19084   1.284   3.583   1.068  0.1621 -0.0294  0.6144
 2542SOL    HW119085   1.228   3.597   0.992 -0.6348 -1.0207  1.0129
 2542SOL    HW219086   1.373   3.572   1.034 -0.0169 -0.8255  0.3961
 2543SOL     OW19087   3.621   1.144   2.353 -0.1861  0.5444  0.3958
 2543SOL    HW119088   3.545   1.086   2.345  0.1249  0.1476  0.3016
 2543SOL    HW219089   3.675   1.094   2.291  1.0392  1.5518  0.6449
 2544SOL     OW19090   1.736   3.073   2.911  0.9114  1.0334  0.2034
 2544SOL    HW119091   1.650   3.114   2.897 -0.1036 -1.5696 -1.2564
 2544SOL    HW219092   1.797   3.145   2.927  1.6353  0.0390  1.9024
 2545SOL     OW19093   3.808   1.007   7.436 -0.0752  0.2670 -0.0750
 2545SOL    HW119094   3.745   0.951   7.481  1.5762 -1.0392  0.6323
 2545SOL    HW219095   3.873   0.946   7.401  0.2416  0.0408  0.9059
 2546SOL     OW19096   0.571   3.067   4.601  0.1325  1.0244  0.2975
 2546SOL    HW119097   0.479   3.055   4.622  0.4911  1.5948  2.1996
 2546SOL    HW219098   0.590   2.975   4.582 -1.4592  0.4957  1.3284
 2547SOL     OW19099   1.950   3.776   4.021 -0.1356 -0.1680  0.0332
 2547SOL    HW119100   1.942   3.735   3.935 -1.0107 -0.1946  0.1266
 2547SOL    HW219101   1.954   3.871   4.006  1.5892 -0.3287 -0.5203
 2548SOL     OW19102   4.610   3.634   5.036 -0.1205  0.1011 -0.2574
 2548SOL    HW119103   4.564   3.717   5.043 -3.1375 -1.7206  1.3558
 2548SOL    HW219104   4.630   3.624   5.129 -0.4597 -2.5477 -0.4652
 2549SOL     OW19105   0.321   2.855   1.260 -0.4703 -0.1829  0.1528
 2549SOL    HW119106   0.305   2.947   1.240  1.8414  0.5502  1.6733
 2549SOL    HW219107   0.360   2.827   1.177  0.4480  0.7043  0.3013
 2550SOL     OW19108   3.565   0.724  14.409  0.0353 -0.1013 -0.3112
 2550SOL    HW119109   3.536   0.694  14.495 -0.4073  0.3184 -0.3132
 2550SOL    HW219110   3.493   0.695  14.353  0.4788 -2.2800  0.2508
 2551SOL     OW19111   2.858   1.824  13.525  0.1468  0.1037  0.0618
 2551SOL    HW119112   2.831   1.739  13.561  1.3411 -1.0606 -1.7799
 2551SOL    HW219113   2.777   1.865  13.494 -0.5174 -1.4269 -0.2299
 2552SOL     OW19114   1.757   0.848   7.736  0.0801  0.5437  0.4358
 2552SOL    HW119115   1.807   0.909   7.682  2.0550 -0.3763  1.2485
 2552SOL    HW219116   1.701   0.897   7.797  0.3329 -0.9223  1.8606
 2553SOL     OW19117   3.595   0.305   2.495  0.2618 -0.2801 -0.3260
 2553SOL    HW119118   3.548   0.225   2.517  2.3015 -1.6009 -0.8234
 2553SOL    HW219119   3.582   0.348   2.579  0.8685 -2.0234  0.6565
 2554SOL     OW19120   0.671   2.297   2.744  0.5158  0.3911 -0.2506
 2554SOL    HW119121   0.580   2.270   2.736  0.3502  0.2445  1.9468
 2554SOL    HW219122   0.672   2.368   2.679 -1.2973  0.0042 -0.6958
 2555SOL     OW19123   4.004   1.639   7.599  0.0106  0.1222 -0.0099
 2555SOL    HW119124   4.079   1.696   7.614  0.4399 -0.0166 -1.6301
 2555SOL    HW219125   3.928   1.684   7.634  0.9225 -0.2272  2.4169
 2556SOL     OW19126   4.397   2.772   7.796 -0.9372  0.0070  0.0605
 2556SOL    HW119127   4.387   2.686   7.835 -1.4199 -0.2425 -0.6068
 2556SOL    HW219128   4.487   2.769   7.763 -1.1352  1.2266 -0.6220
 2557SOL     OW19129   2.057   4.389   0.040  0.3876  0.1053 -0.1399
 2557SOL    HW119130   1.973   4.387   0.086  0.1430  0.8857 -0.5517
 2557SOL    HW219131   2.117   4.334   0.091 -1.6035 -0.5945  1.4453
 2558SOL     OW19132   1.673   0.640  16.932  0.0476 -0.1304 -0.2383
 2558SOL    HW119133   1.653   0.560  16.883 -0.0705  0.8917 -1.8438
 2558SOL    HW219134   1.612   0.624  17.004 -0.9066  0.3551 -0.9390
 2559SOL     OW19135   4.043   1.332  13.179  0.5935  0.0351 -0.4315
 2559SOL    HW119136   3.964   1.377  13.150 -0.4771 -1.1024  0.7897
 2559SOL    HW219137   4.028   1.260  13.117 -1.6625 -0.5293  0.8043
 2560SOL     OW19138   0.137   1.892  15.649  0.7206  0.5051  0.4562
 2560SOL    HW119139   0.193   1.831  15.696 -0.4374 -0.6170  0.3526
 2560SOL    HW219140   0.196   1.968  15.647 -1.6692  2.2745 -2.2372
 2561SOL     OW19141   1.214   1.653  14.480 -0.1827  0.4639  0.8460
 2561SOL    HW119142   1.248   1.569  14.510 -1.1676 -0.3895 -0.4141
 2561SOL    HW219143   1.128   1.657  14.523  0.8842 -1.3527  3.1145
 2562SOL     OW19144   1.680   3.425   1.926  0.1753 -0.1796 -0.1418
 2562SOL    HW119145   1.659   3.383   2.009  3.8049 -2.3755 -0.3033
 2562SOL    HW219146   1.774   3.410   1.917  0.4996  2.0067 -0.4522
 2563SOL     OW19147   1.888   1.987  13.911  0.2386  0.5290 -0.0214
 2563SOL    HW119148   1.904   1.893  13.923 -1.8472  0.3337  1.2832
 2563SOL    HW219149   1.869   1.996  13.818 -0.8571 -1.1487  0.0286
 2564SOL     OW19150   1.289   2.052   7.709  0.1895  0.4361  0.1730
 2564SOL    HW119151   1.372   2.098   7.717  0.8073 -0.4258 -1.4626
 2564SOL    HW219152   1.316   1.962   7.728 -2.0105 -0.2773 -0.1069
 2565SOL     OW19153   0.908   3.230   2.934 -0.3161  0.1054  0.1341
 2565SOL    HW119154   0.886   3.321   2.951 -0.1947  0.2400 -0.4309
 2565SOL    HW219155   0.892   3.176   3.012 -0.6178 -0.7623 -0.5193
 2566SOL     OW19156   4.524   1.404   6.107  0.1075 -0.3778 -0.1545
 2566SOL    HW119157   4.602   1.350   6.096  0.4983  0.1222  0.1226
 2566SOL    HW219158   4.515   1.439   6.019  0.4126 -0.0859 -0.0738
 2567SOL     OW19159   0.941   2.229   3.213  0.2454 -0.3253  0.1814
 2567SOL    HW119160   0.964   2.321   3.228  2.1024 -0.8094  0.2492
 2567SOL    HW219161   0.882   2.238   3.138  0.7562  0.3434 -0.1438
 2568SOL     OW19162   1.551   1.393  16.685  0.8066 -0.2778 -0.5683
 2568SOL    HW119163   1.460   1.418  16.695  0.9527 -0.1475  0.4708
 2568SOL    HW219164   1.599   1.449  16.746 -1.5646 -0.1192  1.1327
 2569SOL     OW19165   0.437   0.669   1.016 -0.4332 -0.4685 -0.1880
 2569SOL    HW119166   0.386   0.588   1.006  0.6847 -1.3127  0.9899
 2569SOL    HW219167   0.524   0.629   1.028  0.5395  1.5775 -0.5315
 2570SOL     OW19168   0.895   4.547   6.759  0.4660 -0.1594  0.2641
 2570SOL    HW119169   0.874   4.631   6.799  1.8815 -0.2436  1.1768
 2570SOL    HW219170   0.826   4.503   6.808 -1.5748  1.9519 -0.7335
 2571SOL     OW19171   4.437   2.286  13.044  0.3392 -0.2088 -0.3679
 2571SOL    HW119172   4.508   2.229  13.015 -0.2099 -1.0193 -0.1099
 2571SOL    HW219173   4.363   2.254  12.994 -0.6848  1.5954 -0.0301
 2572SOL     OW19174   0.765   0.728   4.060 -0.0826 -0.5799  0.3152
 2572SOL    HW119175   0.741   0.638   4.041 -0.3114 -0.3614 -0.4103
 2572SOL    HW219176   0.825   0.752   3.989 -1.1067 -0.8441 -0.6215
 2573SOL     OW19177   3.675   1.967   2.391  0.4285  0.6277  0.1816
 2573SOL    HW119178   3.635   1.898   2.338 -2.1422  1.4341  1.0860
 2573SOL    HW219179   3.604   1.980   2.454  0.4338  1.7968 -0.0621
 2574SOL     OW19180   1.092   2.118   9.008  0.7371 -0.0288  0.3726
 2574SOL    HW119181   1.150   2.125   9.084 -0.0381  0.2014  0.9553
 2574SOL    HW219182   1.155   2.076   8.950  1.4939  0.6663  0.7025
 2575SOL     OW19183   3.861   4.084   6.587 -0.2390 -0.2681  0.4296
 2575SOL    HW119184   3.933   4.144   6.569  0.7198 -1.6952 -0.4996
 2575SOL    HW219185   3.810   4.069   6.508 -0.0333 -1.1017  0.4524
 2576SOL     OW19186   0.478   0.644   9.668  0.1296  0.1610 -0.1665
 2576SOL    HW119187   0.414   0.715   9.662  0.2768  0.2771 -0.3490
 2576SOL    HW219188   0.414   0.576   9.650  2.8983 -1.8279 -2.4123
 2577SOL     OW19189   3.936   3.286  16.779 -0.5070 -0.4502  0.4528
 2577SOL    HW119190   3.884   3.248  16.850  0.1729  1.4511  1.9515
 2577SOL    HW219191   4.024   3.292  16.817 -0.6997 -2.5597  1.2389
 2578SOL     OW19192   4.385   1.271   6.326  0.4021  0.6078 -0.2588
 2578SOL    HW119193   4.455   1.329   6.297  0.4509  0.1205 -1.1265
 2578SOL    HW219194   4.412   1.184   6.296  1.6008  0.9822 -0.2713
 2579SOL     OW19195   3.294   4.496   8.497 -0.2615  0.0367  0.1424
 2579SOL    HW119196   3.224   4.517   8.435  1.1506  0.0396 -1.4540
 2579SOL    HW219197   3.353   4.443   8.444 -1.5552 -0.5081 -0.7659
 2580SOL     OW19198   2.540   1.528   3.549 -0.1712 -0.0348 -0.4469
 2580SOL    HW119199   2.604   1.463   3.579  1.2712  1.6924  0.1805
 2580SOL    HW219200   2.484   1.473   3.494  1.6598 -0.9141 -1.4411
 2581SOL     OW19201   1.741   2.371   3.846 -0.0519 -0.1114 -0.1666
 2581SOL    HW119202   1.665   2.316   3.865  0.9421 -0.8488  1.6365
 2581SOL    HW219203   1.767   2.351   3.756  2.3124 -1.7875  0.8674
 2582SOL     OW19204   3.054   1.295   6.830  0.1004 -0.0084 -0.1329
 2582SOL    HW119205   3.019   1.360   6.891 -1.2222 -0.2664 -0.6350
 2582SOL    HW219206   3.031   1.322   6.741  0.7183 -1.2762 -0.6714
 2583SOL     OW19207   1.997   2.839   3.970  0.3511  0.1474  0.1897
 2583SOL    HW119208   1.975   2.755   3.930  2.2018 -0.1147 -0.2915
 2583SOL    HW219209   2.023   2.818   4.060  2.8893 -1.3971 -0.9153
 2584SOL     OW19210   0.697   2.509   3.868  0.0891  0.4890 -0.5349
 2584SOL    HW119211   0.610   2.547   3.883 -0.9958 -0.6411 -3.8078
 2584SOL    HW219212   0.749   2.589   3.860  0.3489  0.3142 -0.6024
 2585SOL     OW19213   2.554   3.308   8.740  0.1691 -0.3582 -0.3728
 2585SOL    HW119214   2.482   3.346   8.789 -0.1883  0.6464 -1.6673
 2585SOL    HW219215   2.548   3.343   8.651  2.0761 -2.1015 -1.1940
 2586SOL     OW19216   3.578   0.182  13.138 -0.3562  0.0835 -0.3658
 2586SOL    HW119217   3.653   0.163  13.195 -0.1262  2.2806  0.0785
 2586SOL    HW219218   3.581   0.277  13.128 -2.7286  0.2389  0.5347
 2587SOL     OW19219   1.321   2.620  12.788 -0.9935 -0.2373 -0.1471
 2587SOL    HW119220   1.346   2.625  12.696 -1.6283  0.5420 -0.2814
 2587SOL    HW219221   1.400   2.591  12.834 -1.1395 -0.8156 -0.2606
 2588SOL     OW19222   3.899   1.385   9.481 -0.4514 -0.6207 -0.3219
 2588SOL    HW119223   3.852   1.399   9.563  1.7081 -0.5842  0.8927
 2588SOL    HW219224   3.913   1.474   9.449  1.9508 -0.3379  1.4860
 2589SOL     OW19225   3.653   3.894   4.802 -0.1265 -0.3657  0.4537
 2589SOL    HW119226   3.668   3.960   4.870 -1.8012  0.8123 -0.3081
 2589SOL    HW219227   3.563   3.918   4.779  0.7778  2.2866 -0.3235
 2590SOL     OW19228   3.675   0.525   5.897 -0.1321 -0.0054 -0.0415
 2590SOL    HW119229   3.726   0.453   5.859  1.6224  2.4600 -2.2890
 2590SOL    HW219230   3.747   0.580   5.927 -1.1803  0.7655  1.0578
 2591SOL     OW19231   0.179   1.135   8.953 -0.2925  0.2575 -0.1976
 2591SOL    HW119232   0.239   1.200   8.917  0.3902 -0.2853 -0.0445
 2591SOL    HW219233   0.109   1.136   8.887  1.2685 -0.0776 -1.8723
 2592SOL     OW19234   2.768   0.607  12.769 -0.6201 -0.0636  0.3532
 2592SOL    HW119235   2.817   0.547  12.713 -0.8955  1.6614 -1.7659
 2592SOL    HW219236   2.699   0.627  12.705 -0.1003  0.6224  0.0093
 2593SOL     OW19237   4.104   3.021   4.710 -0.5924 -0.2793 -0.2272
 2593SOL    HW119238   4.128   2.930   4.695  0.4166 -0.0213 -0.1662
 2593SOL    HW219239   4.095   3.049   4.619 -1.1754 -3.3720 -1.1282
 2594SOL     OW19240   4.350   2.127   4.400  0.3364 -0.0579  0.2823
 2594SOL    HW119241   4.298   2.093   4.473  0.3016  0.3330  0.4350
 2594SOL    HW219242   4.436   2.085   4.405 -0.0071 -0.7879  0.0516
 2595SOL     OW19243   1.122   4.018   6.969  0.5245  0.3545  0.2211
 2595SOL    HW119244   1.062   3.984   7.035 -0.7264  3.1094  0.4532
 2595SOL    HW219245   1.106   4.112   6.970  2.3683  0.6714  0.9240
 2596SOL     OW19246   4.028   2.301  16.120  0.2034  0.3983  0.7251
 2596SOL    HW119247   3.934   2.313  16.103 -0.0566 -0.7255  1.3609
 2596SOL    HW219248   4.035   2.327  16.212 -1.7439 -4.4627  2.2146
 2597SOL     OW19249   3.792   3.407   8.294 -0.5214  0.3834 -0.4389
 2597SOL    HW119250   3.835   3.323   8.309  0.4352  1.1976  1.4315
 2597SOL    HW219251   3.756   3.402   8.205  1.1986  0.5480 -1.1355
 2598SOL     OW19252   0.046   1.427   2.996 -0.5676  0.5121  0.0026
 2598SOL    HW119253   0.115   1.492   2.981 -2.0317  1.8959 -0.7860
 2598SOL    HW219254   0.066   1.412   3.088 -1.2396  0.1871  0.0950
 2599SOL     OW19255   4.548   3.292   2.942 -0.2328  0.1316  0.0804
 2599SOL    HW119256   4.519   3.284   3.033  1.7593 -0.0123  0.6966
 2599SOL    HW219257   4.506   3.215   2.904 -2.9660  0.0321  3.2869
 2600SOL     OW19258   2.086   2.724   1.944  0.1024 -0.3320  0.0971
 2600SOL    HW119259   2.020   2.719   1.875 -0.1381  1.1912  0.1994
 2600SOL    HW219260   2.027   2.693   2.012 -0.2418  1.3554  0.5638
 2601SOL     OW19261   4.649   4.063  14.137  0.2936  0.1868  0.5711
 2601SOL    HW119262   4.597   3.983  14.144 -1.0489  1.0404  0.3454
 2601SOL    HW219263   4.690   4.051  14.051 -2.3912  0.7058 -0.7853
 2602SOL     OW19264   1.174   1.848  15.068  0.2911  0.0642 -0.1139
 2602SOL    HW119265   1.167   1.803  14.984  1.1804 -0.5996  0.1622
 2602SOL    HW219266   1.257   1.891  15.052  0.8135 -0.9868 -0.2558
 2603SOL     OW19267   2.800   1.846   2.138  0.3565 -0.4022 -0.1176
 2603SOL    HW119268   2.772   1.818   2.052 -0.3929 -1.5630  0.5050
 2603SOL    HW219269   2.891   1.817   2.134  0.9082  1.0683  1.3647
 2604SOL     OW19270   0.675   4.656   7.510 -0.2727 -0.4728 -0.0836
 2604SOL    HW119271   0.770   4.659   7.515 -0.3731  2.3576  0.2797
 2604SOL    HW219272   0.646   4.685   7.423  0.7053 -0.5512 -0.4316
 2605SOL     OW19273   1.844   2.421   8.045  0.4670  0.3061 -0.1570
 2605SOL    HW119274   1.850   2.437   7.951 -0.3307  1.6751  0.0204
 2605SOL    HW219275   1.771   2.360   8.046  0.4887  0.2760 -0.4061
 2606SOL     OW19276   2.843   2.603   5.402 -0.4560 -0.1076 -0.0552
 2606SOL    HW119277   2.897   2.617   5.480 -0.3873 -3.0039  0.4111
 2606SOL    HW219278   2.877   2.661   5.334 -0.4571  1.4824  1.2885
 2607SOL     OW19279   1.577   0.521  14.830  0.3576  0.0627  0.3532
 2607SOL    HW119280   1.511   0.562  14.775  0.0974 -0.0443  0.5838
 2607SOL    HW219281   1.554   0.429  14.819  0.5702 -0.1263  1.4786
 2608SOL     OW19282   1.418   2.247  16.125 -0.2168 -0.3498 -0.1233
 2608SOL    HW119283   1.408   2.295  16.207  2.0531 -1.7877  1.0149
 2608SOL    HW219284   1.450   2.319  16.070 -2.2558 -0.1354 -0.9979
 2609SOL     OW19285   3.171   0.395  14.912 -0.1180  0.1537  0.0550
 2609SOL    HW119286   3.212   0.316  14.948  2.3287  1.7151  0.6922
 2609SOL    HW219287   3.103   0.355  14.858  0.7916  0.1476 -1.0794
 2610SOL     OW19288   2.050   2.120   2.451 -0.2423  0.3764 -0.1739
 2610SOL    HW119289   2.124   2.083   2.498  0.0821  0.7174 -0.4202
 2610SOL    HW219290   2.058   2.062   2.375 -0.8124 -0.3588  0.3153
 2611SOL     OW19291   3.166   0.648   3.286 -0.0086  0.4939 -0.0655
 2611SOL    HW119292   3.151   0.742   3.292  3.5409  0.9016  2.2310
 2611SOL    HW219293   3.163   0.634   3.192  1.3399  1.0321 -0.1869
 2612SOL     OW19294   1.089   0.051   3.289 -0.2444  0.1307 -0.3089
 2612SOL    HW119295   1.097   4.684   3.253  0.1992 -0.5378  1.3952
 2612SOL    HW219296   1.125   0.023   3.373  2.7380 -0.3352 -1.7638
 2613SOL     OW19297   0.862   2.183   9.958 -0.2382 -0.3353  0.4162
 2613SOL    HW119298   0.916   2.110   9.929 -2.1608  0.1051 -4.2638
 2613SOL    HW219299   0.848   2.172  10.052  2.5271  0.4329  0.8975
 2614SOL     OW19300   2.665   2.490   6.913  0.1555 -0.0304  0.2738
 2614SOL    HW119301   2.651   2.573   6.957  0.5863  0.4024 -0.3939
 2614SOL    HW219302   2.666   2.420   6.979 -3.0854  1.3229  1.7174
 2615SOL     OW19303   1.705   2.360  16.812 -0.5695 -0.1314 -0.0832
 2615SOL    HW119304   1.678   2.369  16.721  1.4441  2.5734 -0.4272
 2615SOL    HW219305   1.692   2.446  16.852  3.4403 -0.2334  1.5123
 2616SOL     OW19306   3.302   1.837  11.594  0.3087  0.0420 -0.3975
 2616SOL    HW119307   3.309   1.919  11.545 -0.1323 -0.0557 -0.6266
 2616SOL    HW219308   3.208   1.823  11.586  0.7718 -3.3823 -0.1413
 2617SOL     OW19309   2.806   2.472   4.031  0.0057  0.3875  0.1489
 2617SOL    HW119310   2.827   2.386   4.067  0.7192  1.4026  2.2003
 2617SOL    HW219311   2.869   2.524   4.081 -1.1912  0.8974  1.1334
 2618SOL     OW19312   2.008   3.258  15.451 -0.0679  0.6187 -0.3519
 2618SOL    HW119313   1.965   3.322  15.508  0.5364  1.0447 -0.3832
 2618SOL    HW219314   1.929   3.208  15.427  0.4965  0.2739 -1.5052
 2619SOL     OW19315   4.136   4.489   7.888  0.5726  0.1863 -0.2719
 2619SOL    HW119316   4.043   4.493   7.868 -0.1558 -0.9188  2.8044
 2619SOL    HW219317   4.132   4.458   7.979 -0.0122  1.0236 -0.0094
 2620SOL     OW19318   1.873   3.816  15.013 -0.2460  0.2968 -0.3469
 2620SOL    HW119319   1.794   3.763  15.007 -1.1921  1.8924 -2.2588
 2620SOL    HW219320   1.851   3.881  15.080  0.0258  1.7519 -1.6679
 2621SOL     OW19321   4.492   0.458  14.347  0.7163  0.3832  0.3424
 2621SOL    HW119322   4.479   0.534  14.290 -0.9743 -0.6973 -0.7215
 2621SOL    HW219323   4.412   0.411  14.324  0.0146  0.8565  1.8288
 2622SOL     OW19324   3.177   4.255   7.101  0.0782  0.2621 -0.2344
 2622SOL    HW119325   3.245   4.201   7.142  0.4431  0.5026 -0.5258
 2622SOL    HW219326   3.189   4.334   7.154 -1.5612 -1.2595  2.4401
 2623SOL     OW19327   0.055   2.010  10.049 -0.3662  0.6604  0.3051
 2623SOL    HW119328   0.021   1.936  10.099  0.4464  1.2654  1.7722
 2623SOL    HW219329   0.122   2.044  10.109  0.8511 -0.4000 -0.4582
 2624SOL     OW19330   3.651   1.955   4.787  0.3722 -0.5306  0.4707
 2624SOL    HW119331   3.637   1.887   4.852  1.8194  0.4198  1.7812
 2624SOL    HW219332   3.559   1.966   4.763  0.1343 -0.4744  1.4171
 2625SOL     OW19333   0.133   0.736   4.554 -0.0099 -0.0419  0.2919
 2625SOL    HW119334   0.161   0.731   4.646 -0.6530 -1.8185  0.3851
 2625SOL    HW219335   0.201   0.676   4.522 -2.1570 -2.5835  0.5347
 2626SOL     OW19336   3.685   3.530  14.061  0.3718  0.5001 -0.1393
 2626SOL    HW119337   3.712   3.614  14.024  0.1501  0.0523 -1.2977
 2626SOL    HW219338   3.692   3.470  13.988 -0.9505 -2.6208  2.2978
 2627SOL     OW19339   1.193   3.027   3.193  0.2216 -1.1369 -0.0803
 2627SOL    HW119340   1.179   3.040   3.099 -2.1649  1.2643  0.5958
 2627SOL    HW219341   1.201   2.932   3.198 -0.1836 -1.2282 -1.1045
 2628SOL     OW19342   3.409   3.363  15.653  0.0534 -0.3875 -0.0290
 2628SOL    HW119343   3.413   3.311  15.573 -1.2478  1.5269 -1.3477
 2628SOL    HW219344   3.496   3.391  15.679 -1.0308  1.6490  1.4263
 2629SOL     OW19345   1.555   0.298   4.248 -0.0253  0.0860 -0.3766
 2629SOL    HW119346   1.645   0.272   4.230  0.4044  1.9599 -0.9286
 2629SOL    HW219347   1.541   0.256   4.333  1.0995  0.2997 -0.0856
 2630SOL     OW19348   4.386   2.230   5.051  0.4553  0.5214  0.0651
 2630SOL    HW119349   4.393   2.141   5.015  0.6176  0.6319 -0.1781
 2630SOL    HW219350   4.409   2.225   5.144  1.6914  1.1651 -0.2018
 2631SOL     OW19351   3.782   1.163   5.830  0.1685  0.5529 -0.0228
 2631SOL    HW119352   3.869   1.199   5.811 -0.8077  1.7681 -2.2357
 2631SOL    HW219353   3.733   1.196   5.754 -0.7036 -0.4237  0.1168
 2632SOL     OW19354   1.887   2.999  15.491 -0.5487 -0.0286  0.2575
 2632SOL    HW119355   1.847   2.912  15.485  0.4682 -0.5466  0.9446
 2632SOL    HW219356   1.980   2.986  15.471 -1.1198 -2.1893 -1.1071
 2633SOL     OW19357   1.053   1.411   4.307 -0.1381  0.0747  0.0765
 2633SOL    HW119358   1.114   1.356   4.258 -2.3196 -0.3527 -2.2183
 2633SOL    HW219359   1.060   1.495   4.262 -0.3885  0.3628  0.5820
 2634SOL     OW19360   3.366   4.484   9.652 -0.0720 -0.0050 -0.5416
 2634SOL    HW119361   3.384   4.479   9.746  1.1261  0.5385 -0.7448
 2634SOL    HW219362   3.449   4.526   9.634  0.2838 -0.3227  0.3639
 2635SOL     OW19363   1.025   3.981   5.987  0.5986 -0.0360 -0.5138
 2635SOL    HW119364   1.106   4.008   6.029 -0.0593  1.3302 -0.1281
 2635SOL    HW219365   1.053   3.926   5.914  0.0582 -0.1591 -0.6281
 2636SOL     OW19366   1.277   0.988   1.552  0.4215  0.3028  0.0927
 2636SOL    HW119367   1.219   1.062   1.571  0.4915  0.3343  0.1858
 2636SOL    HW219368   1.244   0.933   1.623  0.2768 -2.0521 -1.8130
 2637SOL     OW19369   1.644   2.476  15.718  0.3783 -0.2704 -0.1242
 2637SOL    HW119370   1.688   2.397  15.686  0.1626  0.5502 -2.4478
 2637SOL    HW219371   1.724   2.523  15.740 -0.3392 -0.0372  1.9714
 2638SOL     OW19372   2.179   2.257   1.151 -0.6141  0.4084  0.1371
 2638SOL    HW119373   2.118   2.237   1.080  1.4997  0.0596 -1.5718
 2638SOL    HW219374   2.201   2.171   1.185 -0.7425  1.5152  3.0155
 2639SOL     OW19375   1.158   4.230  10.296  0.0545 -0.1511 -0.6505
 2639SOL    HW119376   1.068   4.235  10.264  0.3669 -2.0404 -1.8313
 2639SOL    HW219377   1.161   4.276  10.379 -2.1526  0.5905 -0.9721
 2640SOL     OW19378   1.044   4.716  11.302  0.2679  0.1158  0.0091
 2640SOL    HW119379   1.106   4.664  11.354  1.0164  0.8668 -0.1375
 2640SOL    HW219380   1.029   0.062  11.369 -2.9095  0.8894 -1.4974
 2641SOL     OW19381   1.728   0.933  14.826  0.7263  0.3820 -1.1705
 2641SOL    HW119382   1.778   0.888  14.757  1.4022 -2.9139  1.4625
 2641SOL    HW219383   1.805   0.927  14.883  1.4755  2.1166 -2.0013
 2642SOL     OW19384   3.465   1.232   7.727 -0.0743 -0.2108 -0.0414
 2642SOL    HW119385   3.419   1.225   7.643 -1.0906  0.6084  0.4347
 2642SOL    HW219386   3.438   1.152   7.772  0.2082 -0.4259 -0.2602
 2643SOL     OW19387   0.658   0.827   9.551  0.1052 -0.3128  0.6736
 2643SOL    HW119388   0.565   0.805   9.547 -0.4093  1.6943  1.6110
 2643SOL    HW219389   0.687   0.769   9.622  2.9649  1.1085  0.6719
 2644SOL     OW19390   0.669   0.821   9.159  0.4983  0.4568  0.8037
 2644SOL    HW119391   0.719   0.854   9.234 -0.4489 -0.3154  1.7868
 2644SOL    HW219392   0.647   0.909   9.128  1.3556 -0.3281 -1.9730
 2645SOL     OW19393   2.173   4.050   9.637 -0.3144 -0.0541  0.0088
 2645SOL    HW119394   2.202   4.021   9.724  1.1471 -0.2781 -0.5384
 2645SOL    HW219395   2.261   4.068   9.604  0.0425 -0.2707  0.8439
 2646SOL     OW19396   2.962   0.176   2.941  0.3332  0.5609 -0.0024
 2646SOL    HW119397   2.878   0.223   2.948 -0.1361 -0.5027  1.6428
 2646SOL    HW219398   2.942   0.128   2.861 -0.4558 -0.3397  0.7324
 2647SOL     OW19399   4.073   4.424   1.983  0.3067 -0.3488 -0.1379
 2647SOL    HW119400   4.116   4.426   2.068  0.7035  1.3705 -0.3804
 2647SOL    HW219401   3.989   4.379   1.995  1.2760 -1.5838  1.9712
 2648SOL     OW19402   3.354   0.435   4.582 -0.2533 -0.4530  0.2706
 2648SOL    HW119403   3.448   0.421   4.587  0.2089  1.0528 -4.1520
 2648SOL    HW219404   3.339   0.511   4.638  2.4125 -0.2807  0.7388
 2649SOL     OW19405   3.570   0.106   4.260 -0.2219 -0.0984  0.2783
 2649SOL    HW119406   3.539   0.194   4.283 -0.3580  0.2537 -1.2329
 2649SOL    HW219407   3.486   0.063   4.245  0.5376 -1.5607  0.1754
 2650SOL     OW19408   3.421   0.227   6.259 -0.1783  0.0883 -0.0399
 2650SOL    HW119409   3.502   0.204   6.305 -0.5029  0.2844  0.6423
 2650SOL    HW219410   3.455   0.239   6.171  0.9724 -0.8562  0.2735
 2651SOL     OW19411   4.105   0.078   2.767 -0.0749 -0.1471  0.2805
 2651SOL    HW119412   4.017   0.116   2.769 -0.1184 -0.1352 -2.0423
 2651SOL    HW219413   4.118   0.077   2.862  0.9045 -1.2321  0.1421
 2652SOL     OW19414   3.692   3.913  10.146 -0.2150  0.3221 -0.0266
 2652SOL    HW119415   3.601   3.892  10.167  0.0587  0.8430  1.6639
 2652SOL    HW219416   3.737   3.872  10.219 -0.6888 -1.5610 -0.7943
 2653SOL     OW19417   3.882   1.388   7.725  0.1859  0.2009 -0.0146
 2653SOL    HW119418   3.792   1.418   7.738 -0.0343 -1.1111  1.4372
 2653SOL    HW219419   3.929   1.464   7.691  0.3632  0.6021  1.1370
 2654SOL     OW19420   3.097   0.404   2.578  0.3975  0.0064 -0.3133
 2654SOL    HW119421   3.087   0.320   2.534 -1.1923  0.7330 -1.3517
 2654SOL    HW219422   3.003   0.422   2.584  0.1556 -1.2398 -0.4224
 2655SOL     OW19423   4.265   1.097   4.466 -0.3732  0.4064 -0.4715
 2655SOL    HW119424   4.238   1.077   4.377  3.7032 -1.8378 -1.1851
 2655SOL    HW219425   4.337   1.034   4.477 -1.4254 -0.4711  1.5129
 2656SOL     OW19426   1.673   3.003  11.056 -0.3189  0.6037 -0.2605
 2656SOL    HW119427   1.752   3.037  11.016 -0.4281 -0.1896 -1.1578
 2656SOL    HW219428   1.608   3.048  11.002 -1.1364 -2.4696 -1.8070
 2657SOL     OW19429   0.993   0.181   7.379 -0.2923 -0.0662  0.0589
 2657SOL    HW119430   1.047   0.147   7.308 -0.1375  1.6228 -0.6371
 2657SOL    HW219431   1.041   0.260   7.403  0.8077 -1.1269  1.3779
 2658SOL     OW19432   1.229   2.509  10.450  0.6683 -0.1657  0.2129
 2658SOL    HW119433   1.151   2.549  10.488  1.4727 -0.1020  1.8225
 2658SOL    HW219434   1.198   2.481  10.364 -1.5926 -0.0212  0.9838
 2659SOL     OW19435   0.286   2.953   6.309 -0.3638  0.1527  0.4093
 2659SOL    HW119436   0.217   3.019   6.312 -2.1940 -1.7589  0.7729
 2659SOL    HW219437   0.296   2.938   6.403 -2.6266 -0.5691  0.5381
 2660SOL     OW19438   1.725   1.626  12.166 -0.8362 -0.2901 -0.3436
 2660SOL    HW119439   1.659   1.589  12.224  0.4922 -1.7387  0.2494
 2660SOL    HW219440   1.671   1.701  12.144  1.2505  0.9454 -1.2683
 2661SOL     OW19441   3.714   1.434   1.206 -0.2808  0.5155 -0.0710
 2661SOL    HW119442   3.676   1.356   1.166  0.5528  1.2434 -2.2622
 2661SOL    HW219443   3.669   1.442   1.290  1.6672 -0.5250  1.0884
 2662SOL     OW19444   4.562   0.459   6.972  0.1302 -0.0092  0.0667
 2662SOL    HW119445   4.591   0.508   6.895  2.8947 -1.2153  0.3180
 2662SOL    HW219446   4.532   0.534   7.022  1.2992 -0.8190  1.9574
 2663SOL     OW19447   3.668   1.827   4.005 -0.7737 -0.6996  0.3352
 2663SOL    HW119448   3.708   1.799   3.922  0.1657  0.2905  0.4642
 2663SOL    HW219449   3.735   1.802   4.068 -1.2113  0.5919  1.3060
 2664SOL     OW19450   0.778   0.014   8.378 -0.2898  0.4118  0.3122
 2664SOL    HW119451   0.810   4.651   8.345 -0.0631  0.8235 -0.5164
 2664SOL    HW219452   0.685   4.716   8.372 -0.6856  1.8860  2.0273
 2665SOL     OW19453   0.931   0.056   2.196 -0.0467 -0.4386  0.5826
 2665SOL    HW119454   0.982   0.131   2.225 -0.5709  0.0234  0.2999
 2665SOL    HW219455   0.843   0.091   2.180  0.3203 -0.0652 -0.5581
 2666SOL     OW19456   0.538   1.646   2.840  0.3348  0.0747  0.9164
 2666SOL    HW119457   0.462   1.703   2.832  0.0030 -0.2504  1.7489
 2666SOL    HW219458   0.540   1.615   2.750 -0.2008  2.8224 -0.0418
 2667SOL     OW19459   2.169   2.977   1.792  0.3584 -0.2695  0.4021
 2667SOL    HW119460   2.157   2.976   1.887  2.1756 -0.7580  0.6286
 2667SOL    HW219461   2.162   2.883   1.776  0.4976 -0.1445 -0.3676
 2668SOL     OW19462   3.322   1.277  16.975 -0.6439  0.3118  0.0194
 2668SOL    HW119463   3.230   1.300  16.964 -0.7801 -0.1782  0.1363
 2668SOL    HW219464   3.367   1.346  16.926 -3.5437 -0.2119 -3.4045
 2669SOL     OW19465   3.794   2.088   1.548 -0.9556 -0.3434  0.6327
 2669SOL    HW119466   3.873   2.035   1.547 -0.8067 -0.0630 -3.6316
 2669SOL    HW219467   3.809   2.138   1.467 -0.2698 -0.3410  0.7674
 2670SOL     OW19468   1.630   3.691   5.971 -0.3711 -0.6584 -0.3906
 2670SOL    HW119469   1.675   3.619   5.926  1.6798  0.0989  0.4780
 2670SOL    HW219470   1.615   3.667   6.062  2.1407  0.6240  0.3541
 2671SOL     OW19471   3.664   2.515   2.556  0.3407  0.4985  0.2275
 2671SOL    HW119472   3.670   2.446   2.622  0.8965 -0.6174 -0.9885
 2671SOL    HW219473   3.687   2.591   2.610  1.2595  1.3596 -1.3816
 2672SOL     OW19474   2.598   0.891   1.043  0.5705 -0.3853 -0.1802
 2672SOL    HW119475   2.511   0.861   1.017  0.6373  0.3287 -1.2580
 2672SOL    HW219476   2.633   0.912   0.956 -2.2526  0.3185 -1.1404
 2673SOL     OW19477   3.861   4.709   9.575 -0.2120  0.0153  0.1987
 2673SOL    HW119478   3.897   4.625   9.603  0.5719  0.5278  0.6910
 2673SOL    HW219479   3.767   4.702   9.593 -0.3565 -0.5607 -0.7667
 2674SOL     OW19480   0.446   3.803  16.062 -0.2243  0.0537 -0.0768
 2674SOL    HW119481   0.459   3.810  16.156 -0.5997 -4.7903  0.3495
 2674SOL    HW219482   0.366   3.855  16.052  1.3710  2.0715 -2.3747
 2675SOL     OW19483   3.845   1.840   7.777 -0.1408  0.3749  0.0782
 2675SOL    HW119484   3.793   1.902   7.725 -1.4035 -1.4208 -0.8166
 2675SOL    HW219485   3.886   1.899   7.840  3.8206 -2.1927 -0.0931
 2676SOL     OW19486   4.548   3.548   6.625  0.0735 -0.8056 -0.1389
 2676SOL    HW119487   4.606   3.516   6.694 -0.9662  0.3645  1.2584
 2676SOL    HW219488   4.613   3.577   6.560  1.0006  0.6755  1.4374
 2677SOL     OW19489   2.375   2.694   1.969  0.0345 -0.1464 -0.0695
 2677SOL    HW119490   2.390   2.720   1.878  2.2030  0.6093  0.5216
 2677SOL    HW219491   2.282   2.715   1.978  0.4906  1.0575  1.7655
 2678SOL     OW19492   0.824   2.036   1.696  0.4510 -0.2294 -0.0241
 2678SOL    HW119493   0.850   1.964   1.639  0.4120 -0.7271  0.5787
 2678SOL    HW219494   0.851   2.115   1.650  0.7389 -1.4954 -2.0161
 2679SOL     OW19495   2.080   0.402   3.622 -0.0219 -0.1287 -0.2458
 2679SOL    HW119496   2.019   0.412   3.695 -0.5373  0.0420 -0.6987
 2679SOL    HW219497   2.097   0.309   3.638  2.3097  0.2942 -0.3284
 2680SOL     OW19498   3.690   2.296   8.409  0.2097 -0.1615  0.0323
 2680SOL    HW119499   3.685   2.340   8.494 -1.4322 -0.6907  0.2072
 2680SOL    HW219500   3.736   2.218   8.442  1.1150  0.9782  1.4410
 2681SOL     OW19501   1.042   4.570   2.614  0.0552  0.3549  0.4469
 2681SOL    HW119502   0.973   4.624   2.576  0.0529  0.0767  0.0525
 2681SOL    HW219503   1.116   4.628   2.596  1.6616 -1.7000  0.4119
 2682SOL     OW19504   2.243   0.037   9.478  0.2196  0.5028 -0.0879
 2682SOL    HW119505   2.163   0.045   9.530  0.6047 -0.9216  0.7077
 2682SOL    HW219506   2.279   4.685   9.527 -0.3837  0.1081 -0.2354
 2683SOL     OW19507   4.558   4.142   3.431 -0.2789 -0.1692  0.2595
 2683SOL    HW119508   4.644   4.108   3.408  1.6737  3.0061  2.8130
 2683SOL    HW219509   4.558   4.116   3.524  0.2840  1.4894  0.7168
 2684SOL     OW19510   0.579   2.155  10.955  0.2822  0.1169 -0.6306
 2684SOL    HW119511   0.525   2.234  10.964  1.0992  0.8339 -2.0533
 2684SOL    HW219512   0.647   2.158  11.022 -0.5329 -1.1409  0.2617
 2685SOL     OW19513   0.454   2.598  17.677  0.3004  0.1776  0.2563
 2685SOL    HW119514   0.404   2.529   0.034  0.0739  1.5584  2.1810
 2685SOL    HW219515   0.417   2.626  17.593  2.4771 -0.4753 -0.9200
 2686SOL     OW19516   3.660   2.174  16.296 -0.3616 -0.4587  0.0438
 2686SOL    HW119517   3.650   2.221  16.214 -0.4846  1.7009  1.3092
 2686SOL    HW219518   3.694   2.238  16.359  0.0156  0.5717 -1.2111
 2687SOL     OW19519   3.805   0.849   3.261 -0.4043 -0.0748 -0.0836
 2687SOL    HW119520   3.736   0.846   3.327 -0.5488  0.2605 -0.2168
 2687SOL    HW219521   3.782   0.782   3.197  1.6782  0.7162 -1.6744
 2688SOL     OW19522   1.557   1.125  15.258 -0.0449  0.0727 -0.6693
 2688SOL    HW119523   1.552   1.149  15.351 -1.3277 -0.6250 -0.5618
 2688SOL    HW219524   1.462   1.118  15.252 -0.2284  0.4197  1.5479
 2689SOL     OW19525   2.227   4.548  17.300 -0.1848  0.0591 -0.1420
 2689SOL    HW119526   2.268   4.629  17.329  1.8624 -0.8241 -0.5346
 2689SOL    HW219527   2.298   4.484  17.305  0.6465  1.1015  1.2133
 2690SOL     OW19528   0.886   0.321   7.011 -0.0401  0.2739 -0.2958
 2690SOL    HW119529   0.937   0.374   6.949  0.2046  0.0779 -0.2618
 2690SOL    HW219530   0.827   0.390   7.041  0.4855 -0.6605  2.8157
 2691SOL     OW19531   3.098   2.206   3.388 -1.0013  0.3454 -0.4456
 2691SOL    HW119532   3.172   2.155   3.420 -1.4102  0.6821  1.0475
 2691SOL    HW219533   3.018   2.171   3.428 -1.7859  0.0405 -2.3084
 2692SOL     OW19534   2.781   4.268   6.231 -0.1725 -0.4202 -0.0199
 2692SOL    HW119535   2.858   4.309   6.272 -0.4076  1.3959 -1.4118
 2692SOL    HW219536   2.798   4.311   6.147  1.1674 -0.2173  0.3479
 2693SOL     OW19537   1.003   0.863   8.123 -0.3030  0.0051  0.3749
 2693SOL    HW119538   1.003   0.882   8.217 -1.4318 -3.6955  1.1185
 2693SOL    HW219539   0.964   0.944   8.092  1.0216  0.8545  0.9135
 2694SOL     OW19540   1.206   0.886   9.387 -0.3106  0.2226 -0.4305
 2694SOL    HW119541   1.155   0.850   9.315 -0.8689  1.5172 -0.6862
 2694SOL    HW219542   1.134   0.909   9.445 -1.3490  0.7753 -1.9584
 2695SOL     OW19543   4.143   0.852   3.618 -0.6213  0.6511  0.1139
 2695SOL    HW119544   4.075   0.806   3.668  0.5612 -1.1504  0.0546
 2695SOL    HW219545   4.220   0.818   3.663  0.3218  3.8431  0.9101
 2696SOL     OW19546   4.108   4.176   7.375  0.1796  0.3418 -0.2425
 2696SOL    HW119547   4.070   4.156   7.289 -1.2658 -0.6194  0.6241
 2696SOL    HW219548   4.190   4.222   7.355  1.3669 -1.7567 -0.1638
 2697SOL     OW19549   4.600   1.272   9.741 -0.2202  0.1520  0.1522
 2697SOL    HW119550   4.642   1.331   9.678  1.3195 -0.2614  0.8027
 2697SOL    HW219551   4.522   1.246   9.691 -2.0671  3.6828  1.2326
 2698SOL     OW19552   4.264   3.461   9.357 -0.2704  0.0929  0.0943
 2698SOL    HW119553   4.307   3.547   9.362 -1.7871  0.8749 -0.1793
 2698SOL    HW219554   4.252   3.441   9.450 -0.4218 -1.5951 -0.2879
 2699SOL     OW19555   2.452   2.238  12.730 -0.1043 -0.4741  0.0945
 2699SOL    HW119556   2.417   2.278  12.810  0.3494  0.4413 -0.1690
 2699SOL    HW219557   2.544   2.230  12.754 -0.1231  1.7819  0.8818
 2700SOL     OW19558   3.395   1.727   8.646  0.1625 -0.1727  0.7237
 2700SOL    HW119559   3.415   1.634   8.636  0.7495  0.0155  0.0536
 2700SOL    HW219560   3.479   1.763   8.675 -0.6803 -0.5657  3.6053
 2701SOL     OW19561   1.382   2.388   0.499 -0.7178  0.1529 -0.3832
 2701SOL    HW119562   1.464   2.431   0.476 -1.5220  2.2777  0.7395
 2701SOL    HW219563   1.409   2.359   0.586 -0.6544  0.1053 -0.4190
 2702SOL     OW19564   0.427   2.143   6.400 -0.5975 -0.1288 -0.3375
 2702SOL    HW119565   0.425   2.216   6.338  0.1750 -0.3666 -0.6442
 2702SOL    HW219566   0.420   2.073   6.334  0.0775 -2.2780  1.8545
 2703SOL     OW19567   4.669   3.667   7.656  0.1787  0.6324  0.1071
 2703SOL    HW119568   0.028   3.637   7.699 -0.5495 -3.6233 -1.4605
 2703SOL    HW219569   4.613   3.710   7.720  0.1037  1.0499 -0.2360
 2704SOL     OW19570   0.394   3.659   4.019 -0.0154  0.2872 -0.0803
 2704SOL    HW119571   0.354   3.736   3.979  0.9942  0.4311 -0.7993
 2704SOL    HW219572   0.485   3.687   4.010  0.3007 -1.5588 -2.5549
 2705SOL     OW19573   1.982   0.632   3.174 -0.0987 -0.1297 -0.7962
 2705SOL    HW119574   2.070   0.659   3.200 -0.2072 -0.7269  0.2141
 2705SOL    HW219575   1.947   0.720   3.160 -0.6222 -0.4429 -1.4449
 2706SOL     OW19576   0.580   2.776   2.332 -0.0541  0.1225  0.7928
 2706SOL    HW119577   0.511   2.730   2.379 -2.5188 -0.9289 -3.7599
 2706SOL    HW219578   0.560   2.866   2.359 -0.5838  0.2656 -0.0548
 2707SOL     OW19579   4.686   1.215   5.972 -0.2729 -0.7005 -0.4536
 2707SOL    HW119580   0.017   1.161   6.032  0.8370  0.4275 -0.4127
 2707SOL    HW219581   4.624   1.152   5.934 -1.9713 -0.7637  2.4204
 2708SOL     OW19582   1.408   4.378   3.509  0.4830  0.1458 -0.1560
 2708SOL    HW119583   1.431   4.319   3.437  0.4130  0.4238 -0.4073
 2708SOL    HW219584   1.326   4.336   3.533  0.8619 -0.1504  0.6244
 2709SOL     OW19585   4.050   2.783   3.960 -0.5925  0.1722 -0.3092
 2709SOL    HW119586   4.035   2.730   3.882 -1.1755 -0.1122 -0.0077
 2709SOL    HW219587   3.970   2.757   4.006 -0.2778 -0.9158 -0.3780
 2710SOL     OW19588   4.013   3.206  12.674  0.1132  0.1866  0.6176
 2710SOL    HW119589   4.041   3.298  12.672  1.0779 -0.0548  3.3724
 2710SOL    HW219590   4.010   3.177  12.582  0.8543 -0.6857  0.8725
 2711SOL     OW19591   2.570   1.659   0.254 -0.0341  0.6468  0.2955
 2711SOL    HW119592   2.479   1.643   0.227 -0.0058  0.7273  0.1514
 2711SOL    HW219593   2.558   1.681   0.346  0.8867 -0.2517  0.6318
 2712SOL     OW19594   2.610   4.173  13.614 -0.8189  1.1975  0.3642
 2712SOL    HW119595   2.626   4.266  13.628  1.3176  0.6796  1.3123
 2712SOL    HW219596   2.522   4.182  13.576  0.6118  1.6052 -2.8630
 2713SOL     OW19597   2.173   0.171   5.429  0.1620 -0.1397  0.0898
 2713SOL    HW119598   2.172   0.097   5.368  2.2180  0.0655 -0.2039
 2713SOL    HW219599   2.264   0.201   5.423  0.5845 -2.0936 -3.6160
 2714SOL     OW19600   4.003   2.712   9.234  0.5621  0.3139 -0.5341
 2714SOL    HW119601   4.059   2.715   9.312 -0.5723  2.0952  0.2103
 2714SOL    HW219602   3.919   2.739   9.270  0.8566  0.2869  0.1776
 2715SOL     OW19603   0.686   0.007   6.199 -0.1617  0.4013 -0.1448
 2715SOL    HW119604   0.625   4.717   6.126  0.1991  0.2875 -0.4242
 2715SOL    HW219605   0.755   4.715   6.134 -0.6955 -0.5537 -0.5135
 2716SOL     OW19606   0.391   0.188   2.579 -0.0990 -0.2635 -0.2300
 2716SOL    HW119607   0.481   0.208   2.605  0.1310  0.3834 -1.5267
 2716SOL    HW219608   0.391   0.233   2.494  0.4233 -0.2364 -0.2156
 2717SOL     OW19609   0.338   2.503   8.090 -0.2489 -0.6373 -0.3185
 2717SOL    HW119610   0.410   2.455   8.131  0.0694 -0.5447 -0.7825
 2717SOL    HW219611   0.321   2.574   8.152  0.1748 -0.7005 -0.1370
 2718SOL     OW19612   4.112   3.260   9.536  0.2273  0.2303 -0.0766
 2718SOL    HW119613   4.051   3.263   9.609  1.3069 -3.4471  0.9746
 2718SOL    HW219614   4.041   3.267   9.472 -1.2054  0.3200  1.5160
 2719SOL     OW19615   2.191   4.673   9.860 -0.6513 -0.1563  0.5387
 2719SOL    HW119616   2.207   4.627   9.778 -0.6653 -1.5695  1.3260
 2719SOL    HW219617   2.195   0.046   9.843 -0.1507 -0.6080 -1.8326
 2720SOL     OW19618   1.301   1.811  15.467  0.5800 -0.0597  0.2185
 2720SOL    HW119619   1.341   1.769  15.390 -2.5777 -1.0133 -0.8862
 2720SOL    HW219620   1.291   1.900  15.435  1.0415  0.4398  1.4834
 2721SOL     OW19621   1.232   4.356  17.595 -0.1035 -0.0791 -0.1257
 2721SOL    HW119622   1.299   4.312  17.647  0.8359  0.2871 -1.0188
 2721SOL    HW219623   1.278   4.363  17.511  0.1274 -2.4717 -0.2239
 2722SOL     OW19624   2.499   3.507   6.511  0.0141  0.1170 -0.0514
 2722SOL    HW119625   2.553   3.497   6.432  0.6874  1.1561  0.2753
 2722SOL    HW219626   2.415   3.521   6.467  0.0191  1.0686  0.2302
 2723SOL     OW19627   0.590   2.048   0.096 -0.0240  0.0229  0.0974
 2723SOL    HW119628   0.640   2.124   0.125  0.7122 -0.5059  0.2382
 2723SOL    HW219629   0.527   2.089   0.037 -2.1045 -3.8566 -0.3740
 2724SOL     OW19630   3.683   3.009  16.660 -0.7464 -0.0713  0.7363
 2724SOL    HW119631   3.667   3.084  16.604  0.7767 -0.9466 -0.8575
 2724SOL    HW219632   3.667   2.942  16.594 -1.5620  0.0351  0.8173
 2725SOL     OW19633   4.423   2.899   4.443 -0.1890 -0.7510  0.1084
 2725SOL    HW119634   4.466   2.969   4.493  0.5848 -1.1892  0.0499
 2725SOL    HW219635   4.336   2.934   4.422  0.7127  0.9098 -0.8437
 2726SOL     OW19636   3.069   2.757   6.875 -0.1357  0.6666 -0.2090
 2726SOL    HW119637   3.018   2.830   6.911 -1.1792 -0.8806  1.4952
 2726SOL    HW219638   3.016   2.726   6.801 -0.0102 -2.9384  1.2174
 2727SOL     OW19639   2.997   4.090   9.812 -0.4887  0.5252 -0.2207
 2727SOL    HW119640   3.009   4.010   9.864 -0.7297  0.3717 -0.4053
 2727SOL    HW219641   2.956   4.149   9.876 -0.7185  0.7326 -0.5612
 2728SOL     OW19642   2.669   4.328  11.592  0.2702  0.0233 -0.2295
 2728SOL    HW119643   2.618   4.279  11.528 -0.4949 -1.5309  1.5818
 2728SOL    HW219644   2.644   4.274  11.667 -2.0995  1.0182 -0.3110
 2729SOL     OW19645   0.384   2.170  17.634  0.4172  0.2013  0.0045
 2729SOL    HW119646   0.392   2.222  17.554 -1.7365 -0.4008 -0.5864
 2729SOL    HW219647   0.373   2.235   0.016 -1.6081  0.7754 -0.8811
 2730SOL     OW19648   2.788   0.551  16.391 -0.6244 -0.3336 -0.1017
 2730SOL    HW119649   2.800   0.646  16.397  2.1751 -0.6589 -0.5968
 2730SOL    HW219650   2.738   0.544  16.472 -0.9812 -0.1629 -0.3060
 2731SOL     OW19651   3.174   3.409  14.890  0.0000 -0.4160 -0.0737
 2731SOL    HW119652   3.205   3.346  14.955 -0.2302 -1.9537 -1.4781
 2731SOL    HW219653   3.146   3.368  14.808 -0.5782  1.3216 -0.7523
 2732SOL     OW19654   0.719   0.442   3.283  0.1320  0.6918  0.3855
 2732SOL    HW119655   0.694   0.469   3.371 -2.2115  0.3445 -0.1668
 2732SOL    HW219656   0.736   0.349   3.297  0.2787  1.1026  2.8228
 2733SOL     OW19657   0.236   0.093   6.501  0.1334  0.4865 -0.3153
 2733SOL    HW119658   0.176   0.076   6.428  1.7499  0.5865 -1.6620
 2733SOL    HW219659   0.311   0.037   6.478  1.6262  1.4976  2.1304
 2734SOL     OW19660   2.561   0.841   2.570  0.0977  0.1972 -0.3707
 2734SOL    HW119661   2.533   0.769   2.514 -0.1265 -1.6788  2.1623
 2734SOL    HW219662   2.551   0.923   2.522 -0.6527 -0.2853 -1.0398
 2735SOL     OW19663   3.100   0.747   7.549 -0.4268  0.1659 -0.1083
 2735SOL    HW119664   3.137   0.789   7.472  0.4373 -0.4354 -0.0275
 2735SOL    HW219665   3.175   0.733   7.607  0.0438 -0.8835 -0.9566
 2736SOL     OW19666   0.232   0.852   4.306 -0.1877  0.0060 -0.2352
 2736SOL    HW119667   0.200   0.857   4.396 -1.1749 -0.3483 -0.5738
 2736SOL    HW219668   0.318   0.885   4.332 -0.0081 -0.9943  0.4409
 2737SOL     OW19669   1.203   0.838  16.125 -0.6851  0.4676  0.5212
 2737SOL    HW119670   1.134   0.905  16.128 -1.4348 -0.4526  3.7835
 2737SOL    HW219671   1.162   0.769  16.073 -1.3193  1.3599 -0.1708
 2738SOL     OW19672   1.546   3.847   4.491 -0.1371 -0.3050  0.0964
 2738SOL    HW119673   1.549   3.800   4.407  0.2188 -0.6030  0.2769
 2738SOL    HW219674   1.517   3.934   4.464  0.3019 -0.2162 -0.0880
 2739SOL     OW19675   2.266   0.689   6.013  0.1873  0.0211 -0.6176
 2739SOL    HW119676   2.217   0.611   6.040 -1.0423  0.3018 -2.0361
 2739SOL    HW219677   2.232   0.752   6.077 -0.6368  0.9415 -1.9736
 2740SOL     OW19678   2.019   4.065   5.364 -0.0161  0.0826  0.5253
 2740SOL    HW119679   1.978   4.012   5.296 -0.3064 -0.0573  0.8118
 2740SOL    HW219680   2.019   3.999   5.433 -1.0763  1.0381  1.4229
 2741SOL     OW19681   4.524   0.488   8.391 -0.8822  0.9119  0.5572
 2741SOL    HW119682   4.455   0.527   8.444 -2.3542 -0.1908 -0.5653
 2741SOL    HW219683   4.529   0.546   8.314  2.7000 -2.3401 -1.6711
 2742SOL     OW19684   4.629   1.466   7.795  0.7275 -0.1997 -0.0315
 2742SOL    HW119685   4.552   1.422   7.757 -0.0414  2.1147 -1.1637
 2742SOL    HW219686   4.692   1.428   7.734 -0.8804 -0.9729 -1.2433
 2743SOL     OW19687   1.075   2.753  15.542  0.1196  0.0579  0.0177
 2743SOL    HW119688   1.005   2.810  15.576  1.5172  1.2292  0.9610
 2743SOL    HW219689   1.063   2.679  15.601 -1.2478 -0.2299 -0.6342
 2744SOL     OW19690   0.459   2.119   8.508 -0.0989 -0.2109  0.2143
 2744SOL    HW119691   0.388   2.099   8.570  2.2168 -2.2828  2.1488
 2744SOL    HW219692   0.435   2.200   8.463  1.3480  1.0608  1.7202
 2745SOL     OW19693   1.102   3.127  11.909 -0.3966 -0.2395 -0.0466
 2745SOL    HW119694   1.065   3.214  11.894 -0.6084 -0.3396 -0.1131
 2745SOL    HW219695   1.169   3.149  11.974 -0.2580 -0.3851 -0.1420
 2746SOL     OW19696   3.151   3.667   6.522 -0.2032 -0.4513 -0.1005
 2746SOL    HW119697   3.082   3.733   6.513 -0.5313 -0.8738 -0.6356
 2746SOL    HW219698   3.102   3.592   6.554 -1.3133  0.3588  0.0981
 2747SOL     OW19699   1.811   2.693   9.824  0.4110  0.3729 -0.2370
 2747SOL    HW119700   1.868   2.668   9.752 -2.7467 -3.3237 -1.4454
 2747SOL    HW219701   1.729   2.647   9.807 -0.9422  1.3683  3.4315
 2748SOL     OW19702   0.571   1.678   1.469  0.5001 -0.1710 -0.1795
 2748SOL    HW119703   0.501   1.687   1.535  0.9973  0.5880  0.2377
 2748SOL    HW219704   0.580   1.582   1.469 -2.4178 -0.4705  1.4202
 2749SOL     OW19705   1.757   2.587   5.936 -0.9804 -0.2241  0.0867
 2749SOL    HW119706   1.697   2.533   5.884  0.2090 -2.9097  1.4568
 2749SOL    HW219707   1.692   2.617   6.000 -1.2639  0.0444 -0.3244
 2750SOL     OW19708   2.282   2.020   8.318  0.9847 -0.6350  0.0880
 2750SOL    HW119709   2.224   2.015   8.394  1.2916  0.4294  0.3974
 2750SOL    HW219710   2.348   2.073   8.363 -1.2314 -0.6445  3.3647
 2751SOL     OW19711   4.294   4.056  16.085 -0.2728  0.0012 -0.4301
 2751SOL    HW119712   4.338   4.006  16.015  1.2596  1.1630 -0.2971
 2751SOL    HW219713   4.305   4.008  16.167 -0.7737 -1.0075 -0.9493
 2752SOL     OW19714   0.377   0.125   9.319  0.0354  0.1613  0.3806
 2752SOL    HW119715   0.386   0.209   9.275  2.2860 -0.1940  0.1367
 2752SOL    HW219716   0.288   0.120   9.352 -0.0420  0.1718  0.1765
 2753SOL     OW19717   2.956   2.984   9.989  0.2770 -0.0114  0.5803
 2753SOL    HW119718   2.891   2.918   9.966 -0.3690  0.4511  1.0758
 2753SOL    HW219719   2.912   3.007  10.071 -1.5566  1.5609 -0.8377
 2754SOL     OW19720   1.151   3.894   3.581 -0.6185  0.4315 -0.4130
 2754SOL    HW119721   1.236   3.931   3.605  0.8346 -3.3797  0.2887
 2754SOL    HW219722   1.133   3.822   3.642 -0.6235  0.6085 -0.2030
 2755SOL     OW19723   4.718   2.345   3.610 -0.1354  0.0355 -0.3292
 2755SOL    HW119724   4.665   2.340   3.531  0.2322 -0.3840 -0.5527
 2755SOL    HW219725   4.717   2.249   3.617  1.2354  0.0143 -0.3883
 2756SOL     OW19726   1.436   3.378   8.264  0.5239  0.3205 -0.0876
 2756SOL    HW119727   1.512   3.413   8.310  0.6010 -2.4581  1.9031
 2756SOL    HW219728   1.416   3.452   8.206 -1.1993 -0.2527 -0.2416
 2757SOL     OW19729   1.025   2.800  14.740  0.0615  0.2066  0.2975
 2757SOL    HW119730   0.983   2.881  14.768  2.2921  2.1317 -1.8552
 2757SOL    HW219731   1.062   2.765  14.821  0.1130  1.9258  1.0326
 2758SOL     OW19732   4.227   2.976   9.099  0.4914  0.1892  0.2611
 2758SOL    HW119733   4.184   2.979   9.185  0.8012  0.3734  0.4112
 2758SOL    HW219734   4.304   2.923   9.124  0.8760  1.0481  0.9076
 2759SOL     OW19735   2.745   4.498   5.307 -0.7190  0.3767  0.4993
 2759SOL    HW119736   2.834   4.490   5.273 -0.1889  1.2812  1.6486
 2759SOL    HW219737   2.726   4.590   5.289  0.6557  0.5080 -0.2487
 2760SOL     OW19738   0.810   0.099  14.982 -0.3685 -0.1669 -0.6389
 2760SOL    HW119739   0.868   0.167  15.015 -1.6923  0.1983  0.9571
 2760SOL    HW219740   0.887   0.046  14.962  0.0084 -0.4212  1.4149
 2761SOL     OW19741   3.277   4.298  17.454 -0.0243 -0.4071 -0.7035
 2761SOL    HW119742   3.245   4.217  17.495  0.1342 -0.7597 -1.2760
 2761SOL    HW219743   3.324   4.258  17.380  0.0202 -2.1287  0.2500
 2762SOL     OW19744   2.976   0.208  15.252 -0.3315 -0.0060 -0.0609
 2762SOL    HW119745   2.985   0.174  15.163 -0.0703  2.3987 -0.9725
 2762SOL    HW219746   3.037   0.139  15.277 -0.4132  0.3269  1.0622
 2763SOL     OW19747   2.157   3.922   2.178 -0.3613  0.2230 -0.3719
 2763SOL    HW119748   2.235   3.930   2.123  0.8048 -1.0206  1.0719
 2763SOL    HW219749   2.184   3.967   2.258 -1.7801  1.0851 -0.3931
 2764SOL     OW19750   1.261   2.836   2.571  0.2401 -0.4353  0.3444
 2764SOL    HW119751   1.230   2.746   2.567 -3.2567  0.8971 -2.5201
 2764SOL    HW219752   1.292   2.842   2.661 -1.5779 -3.7924  1.1718
 2765SOL     OW19753   2.386   3.124   3.008 -0.5290 -0.3072 -0.1618
 2765SOL    HW119754   2.322   3.056   3.030  1.8924 -3.0468 -1.6674
 2765SOL    HW219755   2.360   3.156   2.922 -1.9798 -0.5356  0.1895
 2766SOL     OW19756   0.605   4.475  13.675 -0.4819 -0.0749 -0.0320
 2766SOL    HW119757   0.621   4.462  13.769 -0.3990 -0.1417 -0.0558
 2766SOL    HW219758   0.611   4.383  13.652  1.8376  0.5573 -1.9424
 2767SOL     OW19759   1.191   2.164  11.205 -0.4270 -0.2900  0.0032
 2767SOL    HW119760   1.152   2.250  11.184  3.8904  1.1752 -1.9111
 2767SOL    HW219761   1.113   2.112  11.186 -0.7233  1.2383 -2.9839
 2768SOL     OW19762   3.610   3.934  12.952  0.4960 -0.3178 -0.1280
 2768SOL    HW119763   3.683   3.943  12.890  1.1775 -0.4465  0.6531
 2768SOL    HW219764   3.622   4.008  13.011  1.6928  0.3260 -1.1639
 2769SOL     OW19765   3.621   1.913   6.534 -0.4360 -0.1296 -0.6785
 2769SOL    HW119766   3.528   1.934   6.540 -0.8260 -1.3569 -2.3714
 2769SOL    HW219767   3.622   1.855   6.611 -0.0008  0.7153 -0.0446
 2770SOL     OW19768   2.760   3.493   8.842  0.5938  0.4699 -0.4918
 2770SOL    HW119769   2.698   3.474   8.772 -2.2850  1.3982  1.7912
 2770SOL    HW219770   2.733   3.430   8.909 -0.1557  0.6743 -0.6056
 2771SOL     OW19771   3.432   1.629   5.169  0.5194  0.3954  0.2401
 2771SOL    HW119772   3.447   1.640   5.263  0.3166  1.1027  0.1927
 2771SOL    HW219773   3.336   1.628   5.166  0.4438 -1.5139  3.1300
 2772SOL     OW19774   1.319   2.387   5.065 -0.1822 -0.0053  0.1181
 2772SOL    HW119775   1.298   2.469   5.109 -0.2098  0.8761 -1.5332
 2772SOL    HW219776   1.390   2.407   5.003 -0.5013 -0.2076 -0.3184
 2773SOL     OW19777   3.840   0.218   3.726  0.3762 -0.6821  0.0432
 2773SOL    HW119778   3.832   0.310   3.701 -0.7166 -0.5944  0.7048
 2773SOL    HW219779   3.860   0.224   3.820 -2.7674  0.5537  0.6499
 2774SOL     OW19780   0.545   0.648   6.250  0.4359  0.5250  0.5699
 2774SOL    HW119781   0.617   0.690   6.203 -0.2944 -0.0993 -1.1353
 2774SOL    HW219782   0.584   0.564   6.276  1.2980  0.1937 -1.7397
 2775SOL     OW19783   4.604   3.002   3.540  0.2956 -0.3578  0.4208
 2775SOL    HW119784   4.681   3.054   3.563  0.1356 -0.3138  0.8615
 2775SOL    HW219785   4.549   3.021   3.617  0.5836  1.0852  0.2865
 2776SOL     OW19786   3.380   0.314   4.826 -0.3191  0.6085 -0.7330
 2776SOL    HW119787   3.376   0.322   4.731  1.2870  0.9348 -0.7759
 2776SOL    HW219788   3.436   0.388   4.852  1.0093 -0.9487  0.8672
 2777SOL     OW19789   1.224   1.993   5.586  0.1745 -0.1970  0.2497
 2777SOL    HW119790   1.283   1.947   5.646  0.8596  1.6157  0.9729
 2777SOL    HW219791   1.150   2.011   5.644  0.7739 -2.2958  1.6472
 2778SOL     OW19792   0.136   1.659  14.628  0.4891 -0.3257  0.4176
 2778SOL    HW119793   0.230   1.668  14.639  0.8475 -1.0920 -1.8956
 2778SOL    HW219794   0.115   1.571  14.660 -0.9243  0.1049  0.6547
 2779SOL     OW19795   3.616   4.627   4.618 -0.5185 -0.0208 -0.3878
 2779SOL    HW119796   3.563   4.613   4.540 -0.6210  0.8904 -0.4840
 2779SOL    HW219797   3.673   4.553   4.598 -1.8063 -0.6725 -1.6249
 2780SOL     OW19798   3.894   3.069   7.369  0.0265  0.0050 -0.3086
 2780SOL    HW119799   3.867   3.037   7.282 -0.2254  1.0844 -0.6270
 2780SOL    HW219800   3.980   3.028   7.368  0.3490  0.6229  2.5161
 2781SOL     OW19801   1.987   2.008  12.909  0.0691 -0.3659 -0.4593
 2781SOL    HW119802   1.984   2.036  12.817  2.7992 -0.2962 -0.5228
 2781SOL    HW219803   2.068   1.957  12.909  0.5611  0.4223 -1.2822
 2782SOL     OW19804   1.255   2.165   9.553  0.0686  0.2002 -0.1846
 2782SOL    HW119805   1.164   2.137   9.547  0.4533 -1.0395 -0.1161
 2782SOL    HW219806   1.257   2.177   9.648  0.5993 -2.8818  0.1886
 2783SOL     OW19807   0.324   0.002  11.210 -0.1636 -0.4199  0.0178
 2783SOL    HW119808   0.419   4.713  11.201 -0.3138 -1.4388 -0.4988
 2783SOL    HW219809   0.293   0.004  11.119 -1.0810 -0.2313  0.3354
 2784SOL     OW19810   4.275   2.563   6.688 -0.0761 -0.2076  0.0884
 2784SOL    HW119811   4.326   2.585   6.610  0.6761 -3.5710 -0.3689
 2784SOL    HW219812   4.335   2.593   6.757  2.0269  1.5148 -2.5002
 2785SOL     OW19813   2.992   0.856   4.504 -0.5466 -0.5026 -0.5243
 2785SOL    HW119814   2.976   0.927   4.566  1.2267  1.3542 -2.1916
 2785SOL    HW219815   3.011   0.905   4.424 -1.0647  0.5068 -0.0238
 2786SOL     OW19816   3.891   0.035   5.169 -0.1354 -0.0515  0.2719
 2786SOL    HW119817   3.835   4.683   5.194 -1.5821  1.0860  0.3369
 2786SOL    HW219818   3.836   0.075   5.102 -2.4387 -2.3743  0.7843
 2787SOL     OW19819   1.992   0.313   6.277  0.0134 -0.0035 -0.1308
 2787SOL    HW119820   1.988   0.374   6.351  0.2150  0.2844 -0.3551
 2787SOL    HW219821   1.919   0.261   6.311 -2.1546  2.6778 -0.6321
 2788SOL     OW19822   0.021   1.358   2.624 -0.4305  0.2853 -0.3150
 2788SOL    HW119823   0.032   1.366   2.529 -1.9844  2.1836 -0.3419
 2788SOL    HW219824   4.661   1.409   2.634 -0.1285  0.3495  1.7461
 2789SOL     OW19825   0.079   1.290  17.558  0.5437 -0.1457 -0.1000
 2789SOL    HW119826   0.062   1.351  17.486 -0.0857 -1.5274 -1.1122
 2789SOL    HW219827   0.047   1.207  17.524  1.6623 -0.8376  0.5155
 2790SOL     OW19828   1.406   2.187   5.475 -0.2150  0.7548 -0.1127
 2790SOL    HW119829   1.349   2.114   5.501  0.7098 -0.3521 -1.2243
 2790SOL    HW219830   1.341   2.251   5.444  0.5636  1.3697 -0.4838
 2791SOL     OW19831   4.714   2.226   4.675  0.6731  0.3689  0.2731
 2791SOL    HW119832   4.652   2.277   4.727 -0.2714 -2.3197  1.7908
 2791SOL    HW219833   0.071   2.253   4.722  1.8281 -0.2743 -1.2574
 2792SOL     OW19834   0.804   1.931   5.794  0.4620  0.2602  0.0175
 2792SOL    HW119835   0.804   1.883   5.711 -0.9053 -1.5022  1.0609
 2792SOL    HW219836   0.758   1.863   5.843  0.6618  0.3281  0.2997
 2793SOL     OW19837   1.975   4.635   3.150  0.1834 -0.0924 -0.1987
 2793SOL    HW119838   2.009   0.003   3.156 -1.0558  0.4591 -1.3978
 2793SOL    HW219839   1.906   4.637   3.216  0.6555 -0.1956  0.3064
 2794SOL     OW19840   2.905   3.869   6.103  0.3262 -0.4385  0.0183
 2794SOL    HW119841   2.961   3.939   6.138  0.5244  0.2353 -1.6891
 2794SOL    HW219842   2.819   3.897   6.135  0.5852  0.6752 -0.2634
 2795SOL     OW19843   2.489   0.780  10.857  0.0188 -0.0472  0.2138
 2795SOL    HW119844   2.501   0.695  10.900  2.0283 -0.5365 -1.2803
 2795SOL    HW219845   2.578   0.795  10.826 -0.0640 -1.1749 -0.5475
 2796SOL     OW19846   4.258   4.665   6.134 -0.5077 -0.0598  0.1150
 2796SOL    HW119847   4.237   4.721   6.210  0.8533 -1.0138  1.1883
 2796SOL    HW219848   4.243   4.719   6.057  2.5116  0.9405  0.2384
 2797SOL     OW19849   3.536   1.848  10.666 -0.0455  0.6091 -0.3036
 2797SOL    HW119850   3.500   1.911  10.604  0.6130  1.6163  0.3473
 2797SOL    HW219851   3.524   1.769  10.612  0.7065  0.8691 -0.8534
 2798SOL     OW19852   3.791   3.013  13.513  0.5326  0.0606 -0.3439
 2798SOL    HW119853   3.875   3.057  13.498  1.9203 -2.1862  0.7872
 2798SOL    HW219854   3.751   3.042  13.431  1.6557 -0.5061 -1.0882
 2799SOL     OW19855   3.899   2.693   8.984  0.4354 -0.4961 -0.3576
 2799SOL    HW119856   3.978   2.657   8.944  0.7319 -0.8453  0.5424
 2799SOL    HW219857   3.940   2.723   9.065 -0.3395 -0.1862 -0.0788
 2800SOL     OW19858   0.334   1.786   4.568 -0.3421  0.5962 -0.3199
 2800SOL    HW119859   0.260   1.844   4.551 -0.8379 -0.3484 -1.3830
 2800SOL    HW219860   0.347   1.766   4.475 -1.0878 -1.8726  0.1109
 2801SOL     OW19861   2.602   1.745   0.511 -0.6668 -0.3539 -0.0245
 2801SOL    HW119862   2.628   1.807   0.579 -0.7118 -0.6789  0.2915
 2801SOL    HW219863   2.535   1.693   0.556 -0.1757  0.9356  2.1818
 2802SOL     OW19864   2.063   2.821   1.507 -0.1727  0.6396 -0.2025
 2802SOL    HW119865   2.097   2.791   1.422 -1.8240  1.7693 -1.2792
 2802SOL    HW219866   2.026   2.904   1.476  0.4707  0.7320 -0.7416
 2803SOL     OW19867   0.865   0.412  16.660  0.6748  0.0302 -0.8024
 2803SOL    HW119868   0.797   0.470  16.693  0.8471  0.0882 -0.5466
 2803SOL    HW219869   0.818   0.360  16.596 -0.5313 -0.6695  0.6475
 2804SOL     OW19870   3.496   0.001   7.581 -0.0559 -0.3119 -0.1327
 2804SOL    HW119871   3.516   0.086   7.620 -2.1910  0.2831 -0.3335
 2804SOL    HW219872   3.584   4.693   7.556 -0.5297 -1.0289 -0.9259
 2805SOL     OW19873   1.178   2.037   3.313  0.3191 -0.0988  0.4979
 2805SOL    HW119874   1.102   2.040   3.254 -2.2716  2.3420  4.0158
 2805SOL    HW219875   1.190   2.120   3.360  0.9939  1.5237 -2.5215
 2806SOL     OW19876   2.587   2.786   5.969 -0.2046 -0.2598  0.5518
 2806SOL    HW119877   2.585   2.824   6.056 -0.8928  1.4460 -0.2193
 2806SOL    HW219878   2.505   2.815   5.930 -1.0285  2.5831  4.5195
 2807SOL     OW19879   0.373   3.804   0.670  0.1068 -0.6889 -0.3539
 2807SOL    HW119880   0.434   3.872   0.698 -0.2356 -0.6227  0.2323
 2807SOL    HW219881   0.293   3.846   0.702 -1.4239 -2.2556 -2.1339
 2808SOL     OW19882   4.605   0.767  11.377  0.4767  0.6417  0.6146
 2808SOL    HW119883   4.644   0.822  11.310 -0.3119  1.9910  1.2754
 2808SOL    HW219884   4.664   0.784  11.451 -1.2931 -0.7638  2.3565
 2809SOL     OW19885   3.979   1.421   8.379 -0.2831 -0.0165  0.3090
 2809SOL    HW119886   4.039   1.397   8.308 -2.4757  0.3117 -1.6198
 2809SOL    HW219887   4.037   1.459   8.445 -0.6238  0.9982  0.0260
 2810SOL     OW19888   0.502   3.495   0.008 -0.4452  0.4247 -0.5295
 2810SOL    HW119889   0.535   3.512   0.096  0.8962  2.1042 -1.3495
 2810SOL    HW219890   0.547   3.560  17.640 -1.2051  2.9691  1.8453
 2811SOL     OW19891   3.732   2.358   6.336  0.1284  0.0009  0.6615
 2811SOL    HW119892   3.815   2.406   6.331 -0.7503  1.1673 -2.4946
 2811SOL    HW219893   3.751   2.315   6.420  0.5071  1.1615  1.1722
 2812SOL     OW19894   3.544   4.300   0.050  0.3558 -0.4637 -0.5577
 2812SOL    HW119895   3.544   4.213   0.011 -0.7602 -0.1899 -1.1774
 2812SOL    HW219896   3.475   4.299   0.117  2.0060  2.7965  1.1868
 2813SOL     OW19897   2.952   1.037   7.933  0.0565  0.6392 -0.2481
 2813SOL    HW119898   2.990   1.124   7.921  1.2723 -0.2420 -2.7706
 2813SOL    HW219899   3.016   1.006   7.997 -0.6029  1.3035  0.7382
 2814SOL     OW19900   4.211   0.448   4.321 -0.3668  0.1385  0.4392
 2814SOL    HW119901   4.197   0.354   4.328  0.8469  0.0786  1.9326
 2814SOL    HW219902   4.190   0.473   4.411  0.7932 -0.3879  0.8458
 2815SOL     OW19903   3.461   0.549   8.855 -0.4607 -0.8593  0.2136
 2815SOL    HW119904   3.386   0.558   8.795 -0.6875  0.4820  0.6924
 2815SOL    HW219905   3.442   0.461   8.887  0.8824 -0.0355  3.2311
 2816SOL     OW19906   0.572   3.996   2.138  0.2195 -0.1741  0.3040
 2816SOL    HW119907   0.509   4.052   2.092  0.1052 -0.7913 -0.2983
 2816SOL    HW219908   0.628   3.967   2.066 -1.3150 -1.0767 -0.5285
 2817SOL     OW19909   0.208   4.260   8.089 -0.8247 -0.0820  0.1207
 2817SOL    HW119910   0.175   4.237   8.176 -1.3918 -2.6569 -0.7632
 2817SOL    HW219911   0.245   4.348   8.096  1.2425 -0.8331 -1.3713
 2818SOL     OW19912   1.118   2.074   6.346  0.0343  0.2568 -0.4667
 2818SOL    HW119913   1.106   2.160   6.387  2.1614 -0.2575  1.1849
 2818SOL    HW219914   1.133   2.006   6.411 -0.3309 -1.0561 -1.7399
 2819SOL     OW19915   4.259   0.438   0.886  0.1822  0.3157  0.3231
 2819SOL    HW119916   4.261   0.528   0.918 -0.2618  0.3747  0.1948
 2819SOL    HW219917   4.165   0.421   0.892 -0.3536  2.1606 -2.4400
 2820SOL     OW19918   4.161   3.205   7.860 -0.4061  1.2433  0.1211
 2820SOL    HW119919   4.219   3.281   7.859  0.7570  0.3483 -1.3986
 2820SOL    HW219920   4.212   3.135   7.901  2.0475  0.6852 -3.8802
 2821SOL     OW19921   2.285   1.002  17.188  0.2408  0.1659 -0.5458
 2821SOL    HW119922   2.337   1.033  17.263 -0.8047  1.6646 -0.4442
 2821SOL    HW219923   2.216   1.068  17.188 -0.7942 -0.9541 -2.0944
 2822SOL     OW19924   3.028   3.169  17.099  0.2970 -0.1154 -0.3235
 2822SOL    HW119925   3.012   3.200  17.010 -0.1602 -0.4940 -0.3716
 2822SOL    HW219926   2.939   3.144  17.122  0.7525 -0.8653  0.6471
 2823SOL     OW19927   1.760   3.002  15.755  0.4112 -0.1861 -0.7112
 2823SOL    HW119928   1.816   3.071  15.791 -0.4699 -0.7730  1.7654
 2823SOL    HW219929   1.773   3.013  15.660  1.4069  0.6332 -0.4773
 2824SOL     OW19930   3.758   0.664   9.470 -0.5838 -0.7530 -0.2091
 2824SOL    HW119931   3.753   0.585   9.525 -0.6116 -0.9561 -0.5053
 2824SOL    HW219932   3.848   0.692   9.486 -0.9791  0.5176 -0.2104
 2825SOL     OW19933   2.288   4.020   5.236  0.0243 -0.1058 -0.2506
 2825SOL    HW119934   2.298   4.091   5.299 -1.7580 -0.5111  0.4906
 2825SOL    HW219935   2.315   3.944   5.287  0.5312 -0.8051 -1.5556
 2826SOL     OW19936   0.022   2.680   9.967 -0.0248 -0.3953  0.6891
 2826SOL    HW119937   0.030   2.681   9.872  1.0819  0.7289  0.8000
 2826SOL    HW219938   4.650   2.700   9.981 -0.2423 -0.6417 -0.4650
 2827SOL     OW19939   1.233   2.156   5.159  0.2075  0.9598  0.1550
 2827SOL    HW119940   1.209   2.119   5.073 -1.2107  0.3253  0.8215
 2827SOL    HW219941   1.258   2.246   5.137 -0.5872  0.7138 -1.7540
 2828SOL     OW19942   3.519   1.141   5.011  0.4268  0.4210  0.0042
 2828SOL    HW119943   3.449   1.148   5.075 -0.0721  1.6748 -0.6695
 2828SOL    HW219944   3.553   1.229   4.995  1.4754  0.2706  1.4533
 2829SOL     OW19945   1.746   4.348   4.342  0.1903  0.4501 -0.2890
 2829SOL    HW119946   1.716   4.338   4.432  0.2473 -0.1244 -0.3309
 2829SOL    HW219947   1.678   4.293   4.301  1.4090 -0.0636 -1.6039
 2830SOL     OW19948   1.056   0.256  17.346  0.1934  0.5491 -0.1432
 2830SOL    HW119949   1.102   0.173  17.333 -0.0158  0.1738  1.5878
 2830SOL    HW219950   1.041   0.249  17.440  2.1714  1.8729  0.2854
 2831SOL     OW19951   3.513   1.540   5.841  0.5641 -0.0064 -0.1824
 2831SOL    HW119952   3.456   1.471   5.875 -0.5580  2.1921  2.3587
 2831SOL    HW219953   3.593   1.521   5.891  1.9027  1.6359 -1.7168
 2832SOL     OW19954   0.273   0.732   2.466  0.1757  0.1981 -0.1516
 2832SOL    HW119955   0.346   0.671   2.466 -1.0355 -1.2635  2.0764
 2832SOL    HW219956   0.202   0.668   2.468 -0.0691  0.4773  0.1612
 2833SOL     OW19957   3.831   1.154  10.466 -0.3386  0.1288 -0.1770
 2833SOL    HW119958   3.791   1.090  10.407  0.6663  0.4104 -1.1582
 2833SOL    HW219959   3.797   1.226  10.414  0.0353 -0.3008 -1.0228
 2834SOL     OW19960   1.996   1.880   1.022 -0.7863  0.0783 -0.1730
 2834SOL    HW119961   2.084   1.916   1.010 -0.9982  0.5878 -0.2054
 2834SOL    HW219962   1.963   1.949   1.080  0.9652 -0.9925  2.0732
 2835SOL     OW19963   3.205   1.737   2.886  0.1421  0.1005  0.2131
 2835SOL    HW119964   3.272   1.729   2.954  0.8569  0.5558 -0.4444
 2835SOL    HW219965   3.196   1.643   2.871 -0.2035  0.0290  0.8619
 2836SOL     OW19966   3.381   4.217  10.718  0.1333 -0.5792  0.0632
 2836SOL    HW119967   3.458   4.208  10.662  1.6774  0.6783  1.9737
 2836SOL    HW219968   3.396   4.154  10.789  0.0962 -2.2931 -1.4392
 2837SOL     OW19969   2.779   3.805  17.119 -0.1447 -0.0035 -0.6828
 2837SOL    HW119970   2.824   3.792  17.202 -1.6049  1.3359  0.3360
 2837SOL    HW219971   2.799   3.897  17.101  0.1328  0.4185  1.6940
 2838SOL     OW19972   0.947   0.651  15.959 -0.3983  0.6428 -0.1712
 2838SOL    HW119973   0.912   0.731  15.921  0.8671  0.6274 -1.3239
 2838SOL    HW219974   0.991   0.607  15.886 -2.4082 -0.0388 -0.9761
 2839SOL     OW19975   2.486   1.716  13.673 -0.2910 -0.3465 -0.2404
 2839SOL    HW119976   2.519   1.805  13.664  1.2185 -0.7754  1.1524
 2839SOL    HW219977   2.514   1.697  13.763  0.7027 -2.0252 -0.8885
 2840SOL     OW19978   3.944   2.617   7.180 -0.1315 -0.5836  0.4054
 2840SOL    HW119979   3.865   2.636   7.230  0.6525 -0.1756  1.4946
 2840SOL    HW219980   4.007   2.664   7.235 -1.1973 -0.3846  1.4302
 2841SOL     OW19981   1.079   1.536  12.638  0.1555 -0.0167 -0.0729
 2841SOL    HW119982   1.017   1.480  12.592 -1.1027  0.0659  1.5432
 2841SOL    HW219983   1.166   1.506  12.611  0.3732  0.3283  0.2443
 2842SOL     OW19984   3.702   3.013   6.872 -0.3580  0.1300  0.2961
 2842SOL    HW119985   3.619   2.985   6.910 -0.5219  0.4328  0.1626
 2842SOL    HW219986   3.719   2.953   6.799  1.1051  1.5635 -0.5492
 2843SOL     OW19987   2.282   0.857   7.321 -0.4846  0.4217 -0.4303
 2843SOL    HW119988   2.230   0.845   7.400 -0.8549  0.7282 -0.6287
 2843SOL    HW219989   2.370   0.862   7.359 -1.2446  1.7328  1.1753
 2844SOL     OW19990   0.436   4.201  15.533 -0.1239 -0.0443 -0.4677
 2844SOL    HW119991   0.383   4.209  15.613  0.8071 -1.3410  0.2737
 2844SOL    HW219992   0.517   4.196  15.583  0.0612  0.0605 -0.7567
 2845SOL     OW19993   0.800   1.750   6.591 -0.2222  0.4744  0.2773
 2845SOL    HW119994   0.849   1.695   6.529  0.6000  0.2941  1.0985
 2845SOL    HW219995   0.859   1.821   6.614  1.5876 -0.1849 -2.3048
 2846SOL     OW19996   2.041   3.912   8.820 -0.0138 -0.3781  0.0562
 2846SOL    HW119997   2.067   3.956   8.901 -1.5241 -0.8169  0.7803
 2846SOL    HW219998   2.036   3.824   8.856  1.9717  0.4396  2.4147
 2847SOL     OW19999   4.367   3.229   9.209 -0.9075  0.3216  0.5114
 2847SOL    HW120000   4.327   3.172   9.143  1.9207 -1.9433  0.7760
 2847SOL    HW220001   4.314   3.304   9.236 -0.5687  0.4184  0.9023
 2848SOL     OW20002   1.664   3.338   7.387  0.3189  0.1759  0.1483
 2848SOL    HW120003   1.718   3.285   7.446 -0.5801 -1.0863 -0.1692
 2848SOL    HW220004   1.687   3.309   7.299  1.7485 -0.6730  0.8048
 2849SOL     OW20005   2.160   1.473   7.950  0.5514  0.6720 -0.1937
 2849SOL    HW120006   2.126   1.542   8.008  0.7347 -0.3231  1.1014
 2849SOL    HW220007   2.122   1.476   7.863 -1.1349  1.1354  0.5693
 2850SOL     OW20008   3.142   0.960   9.180  0.3092 -0.1197 -0.6439
 2850SOL    HW120009   3.198   0.902   9.129  0.3892 -1.1539  0.6175
 2850SOL    HW220010   3.115   0.911   9.258  0.9794  0.7516  0.1316
 2851SOL     OW20011   3.750   1.160   9.013 -0.8148  0.0687  0.2552
 2851SOL    HW120012   3.668   1.112   9.002 -1.0318  0.9526 -1.9922
 2851SOL    HW220013   3.744   1.167   9.109 -0.5457  2.3174  0.1270
 2852SOL     OW20014   0.685   2.890  14.485  0.4987 -0.3004  0.4108
 2852SOL    HW120015   0.709   2.800  14.464 -1.4400 -0.6502 -0.3675
 2852SOL    HW220016   0.615   2.880  14.549  1.7784  2.4946  2.1996
 2853SOL     OW20017   2.393   1.745   8.600 -0.3436  0.1493  0.2442
 2853SOL    HW120018   2.406   1.660   8.641  1.3500  0.7095  0.8615
 2853SOL    HW220019   2.343   1.718   8.523 -1.6754 -0.4911  1.3256
 2854SOL     OW20020   2.406   3.229  11.268 -0.3448  0.2730  0.3826
 2854SOL    HW120021   2.479   3.282  11.234  0.3297  0.4904  2.2019
 2854SOL    HW220022   2.444   3.161  11.322 -2.6658 -1.6452 -0.4180
 2855SOL     OW20023   2.238   1.534   6.024  0.2531 -0.0185 -0.3579
 2855SOL    HW120024   2.279   1.524   5.938  2.0215  0.5712  0.4078
 2855SOL    HW220025   2.249   1.446   6.061 -0.5813 -0.3884 -1.0068
 2856SOL     OW20026   3.316   4.185   9.205 -0.2315  0.1869  0.1528
 2856SOL    HW120027   3.407   4.154   9.213  0.2383  1.7766  1.0199
 2856SOL    HW220028   3.274   4.105   9.175 -1.9280  2.0140 -2.3051
 2857SOL     OW20029   2.651   1.487  10.141 -0.2705  0.1682  0.1527
 2857SOL    HW120030   2.592   1.420  10.107  0.7645 -0.4214 -0.4885
 2857SOL    HW220031   2.628   1.564  10.088  0.3267  1.1165  1.2816
 2858SOL     OW20032   1.544   2.370   5.626 -0.2561  0.2018  0.1020
 2858SOL    HW120033   1.500   2.313   5.689 -0.2504 -0.6324 -0.6520
 2858SOL    HW220034   1.526   2.314   5.551 -0.3684 -1.5526  1.4373
 2859SOL     OW20035   4.308   4.115  14.953 -0.3291  0.5203  0.2748
 2859SOL    HW120036   4.389   4.092  14.907  0.3137  3.8766 -0.2370
 2859SOL    HW220037   4.285   4.195  14.907 -1.4948  0.6733  1.1093
 2860SOL     OW20038   3.471   3.239   8.302  0.0025  0.1746  0.3623
 2860SOL    HW120039   3.518   3.316   8.272 -1.8206  0.7468 -0.9845
 2860SOL    HW220040   3.454   3.273   8.390  1.8939 -0.8231  1.1133
 2861SOL     OW20041   2.851   0.327  16.242 -0.2580  0.0786  0.2506
 2861SOL    HW120042   2.820   0.395  16.303 -0.2958 -0.4385  0.8067
 2861SOL    HW220043   2.897   0.269  16.302  0.8739  1.4310  0.7030
 2862SOL     OW20044   0.085   0.245   3.089  0.4856  0.3740 -0.3739
 2862SOL    HW120045   0.044   0.327   3.061 -0.3515 -0.2706 -1.0422
 2862SOL    HW220046   0.125   0.222   3.005 -0.7631  0.9423 -1.1160
 2863SOL     OW20047   3.806   1.582   2.903 -0.1324  0.1004 -0.2041
 2863SOL    HW120048   3.749   1.527   2.957  0.4988 -0.6861 -0.3431
 2863SOL    HW220049   3.869   1.607   2.970  1.3474 -1.0167 -1.1862
 2864SOL     OW20050   0.760   2.231   3.018 -0.1636  0.2870  0.1307
 2864SOL    HW120051   0.734   2.248   2.928  2.7120  1.1694 -0.5427
 2864SOL    HW220052   0.684   2.237   3.077 -1.1785 -2.5581 -0.8862
 2865SOL     OW20053   0.618   1.738  15.869 -0.0364 -0.7922 -0.4756
 2865SOL    HW120054   0.616   1.675  15.941  1.1845 -0.9858 -0.6141
 2865SOL    HW220055   0.630   1.677  15.797  0.3632 -0.4827 -0.6677
 2866SOL     OW20056   0.315   1.270   5.892  0.2801  0.3290  0.6554
 2866SOL    HW120057   0.392   1.221   5.921  1.6584  1.0999 -1.7460
 2866SOL    HW220058   0.251   1.199   5.882  1.3982 -0.9499  2.4373
 2867SOL     OW20059   3.106   2.015   6.453  0.0387 -0.5596  0.3987
 2867SOL    HW120060   3.194   1.989   6.482  0.3449  1.5781  1.4149
 2867SOL    HW220061   3.043   1.953   6.490  2.6392 -1.7742  2.8801
 2868SOL     OW20062   2.164   4.561   8.756 -0.2873 -0.4248  0.2769
 2868SOL    HW120063   2.203   4.648   8.746  0.6619 -1.0017 -1.1439
 2868SOL    HW220064   2.075   4.596   8.761  0.1407  0.7267  0.0397
 2869SOL     OW20065   2.276   1.149  13.820 -0.2107 -0.7969  0.2699
 2869SOL    HW120066   2.245   1.060  13.833 -1.8704 -0.5449 -1.9372
 2869SOL    HW220067   2.213   1.210  13.860  2.5296  2.1728  0.0588
 2870SOL     OW20068   2.933   2.963   1.192  0.4169 -0.9702 -0.2722
 2870SOL    HW120069   2.952   2.870   1.203 -1.0416 -1.3512 -0.9529
 2870SOL    HW220070   2.839   2.958   1.175  0.1625  2.7368  0.0159
 2871SOL     OW20071   2.618   4.023   0.540 -0.5608  0.2640  0.2117
 2871SOL    HW120072   2.699   4.067   0.567 -0.1248 -0.0636 -0.5687
 2871SOL    HW220073   2.589   3.972   0.615 -1.5563 -0.3529 -0.6046
 2872SOL     OW20074   0.856   2.121   3.444 -0.0195 -0.6248 -0.4566
 2872SOL    HW120075   0.909   2.147   3.369  1.3642 -1.0105  0.3805
 2872SOL    HW220076   0.793   2.063   3.403  0.7577 -1.3897 -0.5825
 2873SOL     OW20077   1.383   4.565   5.345 -1.2157  0.5103 -0.5068
 2873SOL    HW120078   1.355   4.644   5.298  0.1736  1.5230  0.3608
 2873SOL    HW220079   1.338   4.496   5.296  1.0361 -0.0863 -1.7181
 2874SOL     OW20080   3.649   1.175   5.597  0.2770 -0.3348 -0.7180
 2874SOL    HW120081   3.556   1.174   5.622  0.5070  0.0550  0.1438
 2874SOL    HW220082   3.643   1.244   5.531 -0.7330  0.1111 -0.1708
 2875SOL     OW20083   1.840   4.491   8.951 -0.0989  0.5286  0.1995
 2875SOL    HW120084   1.835   4.556   8.881  0.9613  0.5651  0.1478
 2875SOL    HW220085   1.790   4.530   9.022 -3.1105 -2.0707 -0.5129
 2876SOL     OW20086   4.582   3.892   2.612  0.2015  0.2801  0.3527
 2876SOL    HW120087   4.496   3.904   2.652 -1.2394 -0.9784 -2.4255
 2876SOL    HW220088   4.621   3.851   2.689 -0.2028  0.2302  0.5281
 2877SOL     OW20089   2.639   3.620   7.004 -0.3975  0.5064  0.2114
 2877SOL    HW120090   2.559   3.606   6.954  0.9021  1.1217 -2.0058
 2877SOL    HW220091   2.619   3.704   7.047 -0.9417  0.4678  0.0246
 2878SOL     OW20092   1.734   0.827  15.496  0.1999  0.0079 -0.3798
 2878SOL    HW120093   1.816   0.836  15.449  0.6522 -1.2058  0.1597
 2878SOL    HW220094   1.672   0.821  15.423  0.4386  1.5661 -0.6950
 2879SOL     OW20095   1.934   3.247   2.998  0.1023  0.0380 -0.0824
 2879SOL    HW120096   1.960   3.332   3.032 -1.9607  0.3328  0.7741
 2879SOL    HW220097   2.013   3.212   2.957  0.2422  0.1693  0.0765
 2880SOL     OW20098   3.733   4.212   4.062 -0.6631 -0.0505  0.1200
 2880SOL    HW120099   3.782   4.186   3.984 -0.1015 -0.3775  0.5838
 2880SOL    HW220100   3.672   4.273   4.020  1.5193  2.1957  0.2184
 2881SOL     OW20101   1.227   1.556   8.377 -0.1601  0.1343  0.1461
 2881SOL    HW120102   1.286   1.565   8.302  2.5875 -2.1269  2.0306
 2881SOL    HW220103   1.154   1.617   8.368 -1.4527 -1.5727 -0.8463
 2882SOL     OW20104   3.285   2.351  16.949  0.2360 -0.1405  0.0637
 2882SOL    HW120105   3.331   2.368  17.031 -2.0473  0.7041  1.1754
 2882SOL    HW220106   3.269   2.442  16.924  1.1747 -0.0181 -0.0814
 2883SOL     OW20107   2.982   0.140   2.253  0.4883 -0.2803  0.2633
 2883SOL    HW120108   2.959   0.052   2.224 -0.8296  0.2365 -0.2534
 2883SOL    HW220109   2.978   0.114   2.345 -0.2143 -0.9365  0.0390
 2884SOL     OW20110   0.507   0.971   7.866  0.4745  0.2754  0.1712
 2884SOL    HW120111   0.565   1.047   7.861  0.3473  0.2141 -2.1001
 2884SOL    HW220112   0.529   0.909   7.797  1.3508 -2.0690  2.5461
 2885SOL     OW20113   1.906   3.817   1.303 -0.0364 -0.0092  0.0922
 2885SOL    HW120114   1.929   3.802   1.212 -0.2508  2.6474 -0.3770
 2885SOL    HW220115   1.937   3.907   1.296 -1.5544  0.6285  1.6453
 2886SOL     OW20116   4.711   1.536   5.530  0.1387  0.0175 -0.0257
 2886SOL    HW120117   4.665   1.576   5.604  1.1592  2.0739 -0.4945
 2886SOL    HW220118   4.701   1.444   5.553 -0.7371 -0.5323 -2.6706
 2887SOL     OW20119   1.762   0.586   4.898  0.4797  0.1462 -0.1340
 2887SOL    HW120120   1.794   0.639   4.971 -0.6470 -1.4307  1.5010
 2887SOL    HW220121   1.672   0.555   4.908  1.3659 -1.9269  1.5825
 2888SOL     OW20122   0.541   3.070   2.433  0.2969 -0.0032 -0.3166
 2888SOL    HW120123   0.486   3.149   2.441  0.9903  0.4449  0.0337
 2888SOL    HW220124   0.625   3.106   2.406  0.9447 -1.0004  0.4090
 2889SOL     OW20125   1.891   3.732   6.846 -0.3017  0.0006 -0.7309
 2889SOL    HW120126   1.855   3.643   6.846 -1.8313  0.6257  0.3786
 2889SOL    HW220127   1.970   3.727   6.901  0.3929 -1.3692 -1.8417
 2890SOL     OW20128   3.657   0.494  12.046 -0.0553 -0.8292 -0.4697
 2890SOL    HW120129   3.596   0.475  12.117  1.9570 -1.4033  1.0988
 2890SOL    HW220130   3.707   0.569  12.077  1.1417 -1.6347 -0.4473
 2891SOL     OW20131   3.607   0.451   4.892 -0.0422 -0.5024  0.2888
 2891SOL    HW120132   3.683   0.492   4.932 -0.8093 -0.3731  1.6296
 2891SOL    HW220133   3.544   0.453   4.964  0.8219 -2.7539  1.1236
 2892SOL     OW20134   1.875   2.990   6.283 -0.3508 -0.1688  0.2007
 2892SOL    HW120135   1.939   2.993   6.354 -1.1333 -0.7311  0.9188
 2892SOL    HW220136   1.908   2.922   6.224  0.6884  0.2628  0.2732
 2893SOL     OW20137   0.637   4.004   1.543 -0.1114  0.0029 -0.0913
 2893SOL    HW120138   0.556   3.970   1.507  0.3695 -1.7381  0.4946
 2893SOL    HW220139   0.609   4.042   1.626 -1.9718 -0.2774 -0.6003
 2894SOL     OW20140   1.067   3.704  15.608 -0.4332 -0.2903 -0.0894
 2894SOL    HW120141   1.105   3.616  15.611  0.0983 -0.0565 -0.0103
 2894SOL    HW220142   0.991   3.693  15.552 -0.5980  1.0473 -0.1310
 2895SOL     OW20143   0.484   1.758   0.100 -0.2706  0.3749  0.6356
 2895SOL    HW120144   0.546   1.726   0.034 -2.0714 -1.5151 -0.1304
 2895SOL    HW220145   0.502   1.852   0.092  0.3073  0.1947 -0.1160
 2896SOL     OW20146   0.906   3.140   0.022 -0.0641 -0.0372  1.0621
 2896SOL    HW120147   0.891   3.127   0.115  1.5477 -0.1829  1.2944
 2896SOL    HW220148   0.958   3.064  17.684 -0.7719 -0.2048  0.0758
 2897SOL     OW20149   4.584   1.328   9.221 -0.0762  0.2157 -0.3245
 2897SOL    HW120150   4.490   1.344   9.233 -0.2949 -1.2200 -0.1542
 2897SOL    HW220151   4.601   1.239   9.191 -0.7583  0.3829 -1.1883
 2898SOL     OW20152   2.378   3.136   6.566 -0.0610 -0.1252 -0.2038
 2898SOL    HW120153   2.363   3.170   6.478 -1.0950  1.2489  0.5048
 2898SOL    HW220154   2.368   3.044   6.543  2.3949 -0.6916  1.1313
 2899SOL     OW20155   0.518   4.000   0.804  0.1469  0.2637  0.3255
 2899SOL    HW120156   0.593   4.051   0.835 -0.6197  1.1021  0.7880
 2899SOL    HW220157   0.447   4.064   0.804  1.5033  1.7904 -0.6902
 2900SOL     OW20158   0.071   1.591   8.178 -0.3090 -0.3550 -0.1338
 2900SOL    HW120159   0.135   1.661   8.164  1.3048 -1.9431 -0.8380
 2900SOL    HW220160   4.718   1.609   8.121  0.4530 -0.9111 -1.3014
 2901SOL     OW20161   2.671   1.754   3.224  0.2243 -0.1527 -0.7362
 2901SOL    HW120162   2.732   1.686   3.255  0.0918  0.2188  0.3408
 2901SOL    HW220163   2.726   1.833   3.226  2.8875 -2.0062  0.6397
 2902SOL     OW20164   1.779   1.414   4.331  0.2317 -0.3075 -0.1863
 2902SOL    HW120165   1.813   1.484   4.275  3.0805 -0.6703  1.1150
 2902SOL    HW220166   1.825   1.335   4.304 -0.1343 -0.5727 -0.0383
 2903SOL     OW20167   4.029   4.184   7.104  0.0356  0.4127 -0.4762
 2903SOL    HW120168   3.947   4.165   7.059  0.2549 -1.1958 -0.2084
 2903SOL    HW220169   4.086   4.231   7.043  0.6101  0.7333  0.3059
 2904SOL     OW20170   1.339   3.735   6.360 -0.5236  0.3769 -0.3142
 2904SOL    HW120171   1.300   3.694   6.437 -2.2374  1.6108 -0.5194
 2904SOL    HW220172   1.365   3.815   6.406 -0.3699 -0.9646  1.9143
 2905SOL     OW20173   1.519   0.403   8.415 -0.1181  0.3399  0.8804
 2905SOL    HW120174   1.585   0.443   8.358 -0.6670 -0.6687 -0.4675
 2905SOL    HW220175   1.568   0.368   8.489  1.1852  0.8442  0.2657
 2906SOL     OW20176   3.628   0.203   6.004 -0.5125  0.0176 -0.1169
 2906SOL    HW120177   3.632   0.117   6.046  1.9167 -0.1982 -0.8056
 2906SOL    HW220178   3.709   0.203   5.953  0.8558  0.3766  2.0934
 2907SOL     OW20179   1.528   0.229  10.421 -0.4355 -0.0048  0.1079
 2907SOL    HW120180   1.483   0.242  10.505 -1.2693  0.7132 -0.4381
 2907SOL    HW220181   1.465   0.237  10.349  1.2017  0.8856 -1.2027
 2908SOL     OW20182   3.252   3.083  10.139 -0.3627  0.0158 -0.7424
 2908SOL    HW120183   3.223   3.160  10.187 -2.3158 -0.7234 -0.7076
 2908SOL    HW220184   3.170   3.043  10.107 -0.6482  1.2568 -1.5498
 2909SOL     OW20185   0.090   4.266   3.530  0.3483  0.6044  0.2928
 2909SOL    HW120186   0.179   4.248   3.563 -0.0135 -0.0741  0.9174
 2909SOL    HW220187   0.084   4.196   3.465  0.3709 -0.7848  1.7595
 2910SOL     OW20188   1.195   0.286   6.280  0.0520 -0.1374  0.2107
 2910SOL    HW120189   1.224   0.374   6.253  0.7585 -0.0749  1.1586
 2910SOL    HW220190   1.132   0.276   6.210 -0.2353  0.8979  0.3251
 2911SOL     OW20191   0.561   3.294   0.985 -0.8594 -0.6374 -0.1561
 2911SOL    HW120192   0.539   3.376   1.029 -0.1735 -0.1086 -0.8088
 2911SOL    HW220193   0.641   3.272   1.032 -2.1370 -1.2404  1.7375
 2912SOL     OW20194   3.524   3.993  11.739  0.7014 -0.1716 -0.0649
 2912SOL    HW120195   3.585   4.015  11.810  0.2225  0.8974  0.0078
 2912SOL    HW220196   3.542   4.061  11.675  0.0809  0.3052  0.2767
 2913SOL     OW20197   0.947   4.250   1.346 -0.5662 -0.1394  0.2768
 2913SOL    HW120198   0.887   4.289   1.409 -1.9575  2.3415 -2.5651
 2913SOL    HW220199   1.031   4.290   1.372 -2.4899  3.9953  0.2046
 2914SOL     OW20200   1.264   2.547   8.537  0.4137 -0.1841  0.5178
 2914SOL    HW120201   1.302   2.495   8.466 -1.3056 -0.3131 -0.3255
 2914SOL    HW220202   1.172   2.522   8.542  0.2556  0.2942  0.0637
 2915SOL     OW20203   0.844   0.148   4.186 -0.5718 -0.0239  0.2712
 2915SOL    HW120204   0.924   0.111   4.149  0.1441  0.3934  1.3741
 2915SOL    HW220205   0.832   0.230   4.137  0.8491  0.7100  1.1433
 2916SOL     OW20206   1.662   2.888   2.727 -0.1539 -0.1897 -0.0715
 2916SOL    HW120207   1.727   2.952   2.755  0.2609 -1.4623  1.8749
 2916SOL    HW220208   1.662   2.894   2.632 -1.1995 -0.2691 -0.0755
 2917SOL     OW20209   1.346   0.445  12.412  0.2514  0.4068  0.5035
 2917SOL    HW120210   1.366   0.463  12.320  0.4747 -0.6903  0.3374
 2917SOL    HW220211   1.434   0.449  12.449 -0.6090 -2.2983  2.8834
 2918SOL     OW20212   2.391   2.201   2.749  0.3944 -0.2703  0.4302
 2918SOL    HW120213   2.327   2.271   2.762  0.2921 -0.1937 -0.4821
 2918SOL    HW220214   2.431   2.185   2.834  1.6526 -0.5379 -0.2030
 2919SOL     OW20215   1.732   3.494   0.063  0.0625 -0.0133 -0.3618
 2919SOL    HW120216   1.797   3.427   0.043 -2.0348 -1.1883 -3.1343
 2919SOL    HW220217   1.741   3.546  17.670  0.6581  3.5508  1.9829
 2920SOL     OW20218   4.578   3.606  17.087  0.1154  0.5194  0.0634
 2920SOL    HW120219   4.576   3.534  17.149  1.2277  1.7131  1.5088
 2920SOL    HW220220   4.673   3.608  17.072 -0.0102  2.5851 -0.5305
 2921SOL     OW20221   2.801   0.936  15.114 -0.1527 -0.0384  0.4883
 2921SOL    HW120222   2.888   0.937  15.153  0.1545  0.1759 -0.2022
 2921SOL    HW220223   2.748   0.937  15.193 -1.1185  0.5377 -0.1589
 2922SOL     OW20224   1.569   3.248   3.330 -0.0353 -0.5307  0.0016
 2922SOL    HW120225   1.474   3.263   3.335 -0.1066 -1.0875  0.3385
 2922SOL    HW220226   1.591   3.273   3.240  2.8737 -1.1065  0.5489
 2923SOL     OW20227   4.453   1.765  10.408 -0.2241 -0.0347 -0.3316
 2923SOL    HW120228   4.411   1.764  10.494  0.6080 -0.2758  0.0739
 2923SOL    HW220229   4.547   1.767  10.430  0.0277  1.1824 -1.5401
 2924SOL     OW20230   0.836   2.495  15.122 -0.1241  0.4965  0.0501
 2924SOL    HW120231   0.801   2.495  15.211  1.0381  0.2682  0.5065
 2924SOL    HW220232   0.929   2.478  15.137 -0.1384 -1.6169 -2.3029
 2925SOL     OW20233   4.566   0.816  13.968  0.3395  0.1737 -0.5136
 2925SOL    HW120234   4.657   0.844  13.963 -0.4787  2.8214 -0.5064
 2925SOL    HW220235   4.536   0.906  13.955 -1.9496 -0.4508  0.3724
 2926SOL     OW20236   2.090   4.446   1.213 -0.0038 -0.3888  0.0722
 2926SOL    HW120237   2.160   4.405   1.161 -0.9960  0.1058 -1.6488
 2926SOL    HW220238   2.013   4.411   1.169  0.1590 -1.9272  1.0051
 2927SOL     OW20239   4.440   3.149   1.709  0.2513  0.1339  0.6058
 2927SOL    HW120240   4.386   3.070   1.699 -1.0943  1.1524 -0.1845
 2927SOL    HW220241   4.452   3.163   1.615 -2.4956 -0.9306  0.0904
 2928SOL     OW20242   1.141   0.739   7.401 -0.1953 -1.0135 -0.1746
 2928SOL    HW120243   1.161   0.654   7.440  1.9816 -0.7433 -0.6488
 2928SOL    HW220244   1.078   0.716   7.333  1.1700 -1.9504 -1.1257
 2929SOL     OW20245   4.272   1.297   7.464  0.6680  0.0722  0.3221
 2929SOL    HW120246   4.314   1.302   7.550 -1.5042 -3.0696  1.5727
 2929SOL    HW220247   4.190   1.254   7.490  0.2214  0.9109  0.2805
 2930SOL     OW20248   4.371   3.124  16.071 -0.5048  0.4040 -0.4210
 2930SOL    HW120249   4.429   3.114  15.996 -1.9562 -2.0350 -1.2142
 2930SOL    HW220250   4.294   3.160  16.028 -2.8927 -2.1943  1.6522
 2931SOL     OW20251   0.991   0.998  16.111  0.0458 -0.3248  0.1990
 2931SOL    HW120252   0.986   1.089  16.138 -0.1809 -0.2356 -0.1483
 2931SOL    HW220253   0.900   0.969  16.109 -0.1064  0.0877  1.3319
 2932SOL     OW20254   2.134   2.736  17.535  0.5068 -1.0452  0.2745
 2932SOL    HW120255   2.115   2.699  17.621 -1.9923 -0.4482 -0.0243
 2932SOL    HW220256   2.218   2.781  17.544  0.4669 -0.9221  0.0506
 2933SOL     OW20257   0.255   2.316  13.590 -0.1438 -0.4191 -0.0391
 2933SOL    HW120258   0.303   2.283  13.665 -0.2374  1.0686  0.6826
 2933SOL    HW220259   0.280   2.264  13.514 -0.3479  2.8250 -2.3024
 2934SOL     OW20260   1.957   4.123   8.129 -0.3244  0.6302  0.0522
 2934SOL    HW120261   1.988   4.184   8.196 -2.7863  3.3016 -1.2608
 2934SOL    HW220262   1.915   4.061   8.189  2.2418 -1.0954  0.0986
 2935SOL     OW20263   4.342   1.595   7.388 -0.5202 -0.3407 -0.3921
 2935SOL    HW120264   4.288   1.518   7.370 -1.9870  0.3582  1.0231
 2935SOL    HW220265   4.288   1.661   7.346 -0.5179 -1.5770 -2.3453
 2936SOL     OW20266   0.674   3.658   7.368 -0.2703 -0.3682 -0.0740
 2936SOL    HW120267   0.609   3.728   7.377  1.8443  1.5052  0.4859
 2936SOL    HW220268   0.701   3.691   7.282  0.8936  1.2805  0.9425
 2937SOL     OW20269   0.051   0.893   8.725 -0.2136 -0.1950  0.1636
 2937SOL    HW120270   4.713   0.836   8.675 -1.5623 -0.2572  1.8099
 2937SOL    HW220271   0.112   0.925   8.659 -0.9435  0.2411 -0.2959
 2938SOL     OW20272   4.473   3.255   3.240 -0.1295  0.0246 -0.7681
 2938SOL    HW120273   4.380   3.278   3.232  0.8978  4.2901 -0.7562
 2938SOL    HW220274   4.496   3.261   3.332  0.4630  0.9223 -0.9733
 2939SOL     OW20275   0.763   4.642   6.552 -0.2925  0.2437  0.0877
 2939SOL    HW120276   0.817   4.607   6.623 -2.5986 -1.4784  0.9889
 2939SOL    HW220277   0.809   4.623   6.471 -0.6495  1.9728 -0.5342
 2940SOL     OW20278   0.090   4.390   9.762 -0.6646  0.1491  0.1112
 2940SOL    HW120279   0.009   4.361   9.803 -1.8052 -0.9339 -2.9220
 2940SOL    HW220280   0.153   4.344   9.817 -0.6590 -0.4539 -0.4053
 2941SOL     OW20281   1.768   1.963  11.660  0.7631 -0.6700 -0.1881
 2941SOL    HW120282   1.788   2.055  11.679  1.5154 -0.8494 -0.0909
 2941SOL    HW220283   1.859   1.931  11.660  0.0529 -2.6330  2.5468
 2942SOL     OW20284   3.500   2.661  13.568  0.3608  0.6495  0.0737
 2942SOL    HW120285   3.487   2.756  13.573  0.1879  0.7188 -1.5751
 2942SOL    HW220286   3.596   2.666  13.561  0.2933  1.8610 -0.0277
 2943SOL     OW20287   3.003   0.581  15.034  0.3070  0.2348  1.1839
 2943SOL    HW120288   2.929   0.521  15.037 -0.3447  1.0388  1.0812
 2943SOL    HW220289   3.064   0.529  14.981 -1.3203 -0.3910 -0.0696
 2944SOL     OW20290   2.121   0.811   5.572 -0.2010 -0.3897 -0.0744
 2944SOL    HW120291   2.065   0.826   5.649 -0.0514  1.9023 -0.4233
 2944SOL    HW220292   2.196   0.767   5.611 -1.5825 -3.5251 -0.9738
 2945SOL     OW20293   3.514   1.161  13.102  0.3310  0.1188 -0.1911
 2945SOL    HW120294   3.503   1.206  13.186 -0.2810  2.4585 -1.5160
 2945SOL    HW220295   3.558   1.085  13.140  1.5105  0.6193 -0.5638
 2946SOL     OW20296   3.155   0.174   4.834  0.0871 -0.5827  0.0512
 2946SOL    HW120297   3.129   0.216   4.752  2.9106  2.7993  0.8741
 2946SOL    HW220298   3.239   0.220   4.841  0.1263 -0.8561  1.3024
 2947SOL     OW20299   0.657   2.621  15.648 -0.0211 -0.2190  0.1253
 2947SOL    HW120300   0.675   2.696  15.591  1.5233 -0.7984 -0.1319
 2947SOL    HW220301   0.562   2.627  15.660 -0.5309  0.3172 -4.2168
 2948SOL     OW20302   3.419   0.983  11.196 -0.1118  0.4256 -0.3084
 2948SOL    HW120303   3.504   1.012  11.231 -1.4311  2.2892  1.3713
 2948SOL    HW220304   3.423   0.888  11.195 -3.0038  0.3368 -0.7784
 2949SOL     OW20305   4.270   0.828   6.104  0.4853 -0.1495 -0.5976
 2949SOL    HW120306   4.247   0.782   6.024 -1.9297  1.3059 -0.7476
 2949SOL    HW220307   4.322   0.759   6.145 -0.0463 -1.0719 -1.5167
 2950SOL     OW20308   4.000   3.520  11.216 -0.0050 -0.1708  0.5951
 2950SOL    HW120309   3.991   3.429  11.246 -0.3458 -0.0412  0.8890
 2950SOL    HW220310   4.086   3.518  11.173 -1.1535 -0.4330 -1.6601
 2951SOL     OW20311   1.113   3.792   0.924  0.3151 -0.1308  0.4280
 2951SOL    HW120312   1.164   3.825   0.998  2.0735 -2.4711  0.2478
 2951SOL    HW220313   1.115   3.870   0.869  0.7149 -0.8775 -0.6261
 2952SOL     OW20314   3.969   1.097  12.497  0.1420 -0.0094 -0.1120
 2952SOL    HW120315   3.997   1.048  12.574  0.5877 -0.4815 -0.5663
 2952SOL    HW220316   3.903   1.157  12.531  0.5173  1.3982 -1.8764
 2953SOL     OW20317   1.393   3.992   0.076  0.5920 -0.7302  0.6846
 2953SOL    HW120318   1.445   3.911   0.081  1.0135 -0.4695  0.5294
 2953SOL    HW220319   1.318   3.972   0.132 -1.0009  0.0493 -1.1979
 2954SOL     OW20320   3.973   2.362   8.152 -0.1739 -0.1299  0.8210
 2954SOL    HW120321   3.916   2.342   8.226 -0.5848  0.7741  0.7487
 2954SOL    HW220322   4.032   2.288   8.144 -1.3895 -1.2541  2.2124
 2955SOL     OW20323   2.729   1.399  12.166  0.5197 -0.5185  0.5591
 2955SOL    HW120324   2.747   1.311  12.198 -2.8932 -1.5381 -0.2816
 2955SOL    HW220325   2.744   1.453  12.243 -1.4181  1.7911 -0.6746
 2956SOL     OW20326   4.653   0.757   7.709  0.1313  0.3447 -0.1175
 2956SOL    HW120327   4.611   0.673   7.727  2.3358 -0.5461  0.8631
 2956SOL    HW220328   4.584   0.815   7.742  0.3682 -0.1403  1.2504
 2957SOL     OW20329   1.444   2.502  15.994 -0.3144 -0.2953  0.1568
 2957SOL    HW120330   1.518   2.539  15.946 -1.1132 -2.2944 -2.6726
 2957SOL    HW220331   1.411   2.582  16.033  1.1983  0.3355  0.1615
 2958SOL     OW20332   2.179   0.431  16.043 -0.5031 -0.6031 -0.3127
 2958SOL    HW120333   2.170   0.525  16.058 -4.0611 -1.1687  1.1095
 2958SOL    HW220334   2.270   0.435  16.014 -0.9874 -0.6220 -1.8324
 2959SOL     OW20335   1.759   4.490   7.957  0.1055 -0.0293  0.6486
 2959SOL    HW120336   1.749   4.414   7.900  0.7637  1.1955 -1.1038
 2959SOL    HW220337   1.692   4.551   7.926  2.8088  1.0824 -2.9540
 2960SOL     OW20338   0.761   4.218  10.626  0.4685 -0.0283 -0.1522
 2960SOL    HW120339   0.854   4.217  10.645  0.4685 -1.2549 -0.2327
 2960SOL    HW220340   0.752   4.155  10.554 -0.1436  0.0618 -0.1596
 2961SOL     OW20341   2.588   2.944   0.539 -0.4156  0.4428  0.7107
 2961SOL    HW120342   2.529   2.872   0.563 -0.2693  0.1720  0.2506
 2961SOL    HW220343   2.668   2.900   0.568 -1.6818 -1.9295  0.6145
 2962SOL     OW20344   4.383   3.331  10.664 -0.2885 -0.4912  0.5958
 2962SOL    HW120345   4.430   3.307  10.744  1.1033 -3.3046 -1.0679
 2962SOL    HW220346   4.329   3.404  10.693 -2.4527 -1.9548  0.2399
 2963SOL     OW20347   3.067   1.206   8.208 -0.2763  0.0022 -0.0710
 2963SOL    HW120348   3.134   1.245   8.265 -0.9987 -1.4521  1.7954
 2963SOL    HW220349   3.027   1.273   8.153  0.1732  0.7252  0.4963
 2964SOL     OW20350   3.517   0.521   7.829 -0.0561 -0.1322 -0.1979
 2964SOL    HW120351   3.503   0.443   7.775 -1.7630  0.0995 -0.0954
 2964SOL    HW220352   3.499   0.483   7.915  1.2536 -0.8896 -0.2623
 2965SOL     OW20353   1.260   1.723  11.658  0.6992  0.3821  0.4795
 2965SOL    HW120354   1.195   1.743  11.725  2.8039  1.9837  2.0254
 2965SOL    HW220355   1.214   1.673  11.591  0.3332 -0.1101  1.0990
 2966SOL     OW20356   1.337   3.101  15.983 -0.1896 -0.5060  0.3203
 2966SOL    HW120357   1.390   3.024  15.961 -1.5325 -0.8806 -1.6263
 2966SOL    HW220358   1.306   3.086  16.072  1.3865  1.7047  1.2536
 2967SOL     OW20359   1.162   2.066  11.852 -0.1545  0.1939 -0.5349
 2967SOL    HW120360   1.220   2.001  11.892 -0.0332  1.7468  1.8090
 2967SOL    HW220361   1.213   2.147  11.857  0.7235 -0.3014 -1.4345
 2968SOL     OW20362   3.024   3.642  14.924 -0.0834 -0.3115  0.6236
 2968SOL    HW120363   2.994   3.594  15.002 -0.0562  0.2158  0.9617
 2968SOL    HW220364   3.086   3.578  14.888  2.1311  0.6695  2.7096
 2969SOL     OW20365   0.515   0.164   4.049  0.0416 -0.0825  0.4766
 2969SOL    HW120366   0.585   0.115   4.092 -2.3724 -2.3220  1.7838
 2969SOL    HW220367   0.441   0.103   4.046 -0.0750  0.0468  0.8066
 2970SOL     OW20368   2.761   2.978   7.671  0.1864 -0.5738 -0.5027
 2970SOL    HW120369   2.810   2.933   7.739  1.0135  0.5590 -0.3442
 2970SOL    HW220370   2.806   3.063   7.662 -0.9937  0.2453  1.4542
 2971SOL     OW20371   0.169   0.962  15.870 -0.0848  0.0945  0.4360
 2971SOL    HW120372   0.210   1.022  15.808 -0.7773  0.0065 -0.1020
 2971SOL    HW220373   0.175   0.884  15.815 -0.0819  0.8375 -0.6185
 2972SOL     OW20374   4.578   4.147   9.790  0.0854 -0.0782 -0.2042
 2972SOL    HW120375   4.561   4.234   9.824 -3.0739 -0.8868  0.2599
 2972SOL    HW220376   4.522   4.082   9.833 -1.1778  1.2946  0.1849
 2973SOL     OW20377   2.636   0.863  11.760  0.3792  0.1792 -0.0153
 2973SOL    HW120378   2.567   0.923  11.792 -1.2510 -0.3115 -2.6503
 2973SOL    HW220379   2.714   0.910  11.790 -0.2886  1.2684  0.0436
 2974SOL     OW20380   4.057   3.841  10.290  0.5264  0.5866  0.5933
 2974SOL    HW120381   3.963   3.842  10.309  0.2493  0.1707 -0.7540
 2974SOL    HW220382   4.069   3.933  10.264  5.4237 -0.4286 -0.7205
 2975SOL     OW20383   0.281   4.242  13.790 -0.4979 -0.4236 -0.0981
 2975SOL    HW120384   0.199   4.211  13.828 -2.1167  1.4259 -2.1445
 2975SOL    HW220385   0.274   4.334  13.814  0.2695 -0.1973 -0.7325
 2976SOL     OW20386   0.377   3.465   7.936  0.7481 -0.0769  0.1613
 2976SOL    HW120387   0.451   3.449   7.994  1.6301  0.9030 -0.7162
 2976SOL    HW220388   0.430   3.509   7.870 -1.6007  1.7155 -0.5121
 2977SOL     OW20389   4.402   3.871   5.424  0.5207 -0.2403 -0.0240
 2977SOL    HW120390   4.436   3.810   5.489 -0.5866  1.7544  2.4271
 2977SOL    HW220391   4.424   3.954   5.465 -0.1245 -0.2860  0.4169
 2978SOL     OW20392   3.223   0.598   5.817 -0.1107 -0.0353  0.2813
 2978SOL    HW120393   3.142   0.552   5.840  0.3482 -0.4692  1.0183
 2978SOL    HW220394   3.214   0.631   5.728 -0.3322  0.6708  0.5698
 2979SOL     OW20395   0.245   3.768   5.179 -0.1171  0.5405 -0.3842
 2979SOL    HW120396   0.176   3.711   5.213  0.1836  0.9384  0.9247
 2979SOL    HW220397   0.313   3.768   5.247 -1.4761 -0.8987  0.9787
 2980SOL     OW20398   3.912   4.466   3.510 -0.1085 -0.2367 -1.0513
 2980SOL    HW120399   3.913   4.523   3.433  0.9264  1.5944  0.2989
 2980SOL    HW220400   3.886   4.529   3.577 -0.2083 -0.3253 -1.0082
 2981SOL     OW20401   2.712   3.629   6.662 -0.2602 -0.6211  0.1967
 2981SOL    HW120402   2.655   3.595   6.592  2.3889  0.1994 -2.3753
 2981SOL    HW220403   2.673   3.716   6.670  1.3060  0.2255 -1.4022
 2982SOL     OW20404   0.928   3.011  14.452 -0.8391 -0.4653 -0.0959
 2982SOL    HW120405   0.849   2.957  14.451  0.1826 -1.9451 -1.3550
 2982SOL    HW220406   0.994   2.942  14.440 -0.1618  0.5829 -2.2529
 2983SOL     OW20407   4.037   2.795  14.801 -0.4268 -0.1262 -0.0121
 2983SOL    HW120408   4.012   2.743  14.877 -0.4558  2.4240  1.7117
 2983SOL    HW220409   4.132   2.793  14.809 -0.2298  1.2074 -1.9331
 2984SOL     OW20410   1.142   4.283   2.588  0.3465 -0.6465  0.3130
 2984SOL    HW120411   1.048   4.292   2.599  0.3720 -0.2990  0.2492
 2984SOL    HW220412   1.150   4.189   2.570  2.6566 -0.1494 -1.2392
 2985SOL     OW20413   1.755   2.438  11.488 -0.7244  0.4002 -0.0105
 2985SOL    HW120414   1.783   2.518  11.443  0.3424  1.2563  2.1899
 2985SOL    HW220415   1.724   2.377  11.421  2.2123 -1.0275 -0.0891
 2986SOL     OW20416   2.912   0.467   6.928  0.1573 -0.9502  0.8428
 2986SOL    HW120417   2.928   0.541   6.869 -1.1246  0.7370  2.5952
 2986SOL    HW220418   2.865   0.418   6.861  2.4923 -1.3225 -0.5240
 2987SOL     OW20419   0.021   2.743   0.443 -0.0674 -0.6326  0.6085
 2987SOL    HW120420   0.073   2.809   0.396 -2.8512  0.7616 -0.4800
 2987SOL    HW220421   4.656   2.760   0.406  2.2890  4.1145 -2.6485
 2988SOL     OW20422   0.602   1.406   0.743  0.9144 -0.3135  0.2517
 2988SOL    HW120423   0.628   1.454   0.822  2.9995 -2.1945  0.7295
 2988SOL    HW220424   0.684   1.418   0.694  1.8921 -0.1987  1.8885
 2989SOL     OW20425   3.311   2.937   8.485 -0.4525 -0.2498  0.0135
 2989SOL    HW120426   3.404   2.940   8.459 -0.3980 -0.3621  0.1972
 2989SOL    HW220427   3.304   2.842   8.487  2.1404 -0.4489  0.3939
 2990SOL     OW20428   2.105   4.217   8.354 -0.2839 -0.0451  0.4950
 2990SOL    HW120429   2.100   4.147   8.420 -1.4958 -1.0260 -0.6408
 2990SOL    HW220430   2.069   4.289   8.406 -1.5849 -1.0322  0.9569
 2991SOL     OW20431   0.800   4.239   2.563  0.2281 -0.5612  0.5407
 2991SOL    HW120432   0.787   4.170   2.498  0.7634  0.7099 -0.9081
 2991SOL    HW220433   0.716   4.284   2.561 -0.0166 -0.9803  1.1810
 2992SOL     OW20434   0.123   1.927  12.659 -0.0923 -0.3470 -0.2069
 2992SOL    HW120435   0.172   1.976  12.592  1.3466  0.1711  1.2283
 2992SOL    HW220436   0.190   1.861  12.675 -1.8842 -2.1651 -0.2770
 2993SOL     OW20437   2.226   3.969   2.444 -0.2882 -0.8423 -0.0644
 2993SOL    HW120438   2.248   3.876   2.445 -2.6745 -1.4234 -1.0285
 2993SOL    HW220439   2.175   3.982   2.524 -0.3011 -1.1956 -0.0161
 2994SOL     OW20440   3.236   0.077   4.033  0.3347  0.1164 -0.1848
 2994SOL    HW120441   3.299   0.145   4.056  0.3825  0.1941 -0.5598
 2994SOL    HW220442   3.245   0.095   3.940 -4.4116  0.3139 -0.5986
 2995SOL     OW20443   2.539   3.845   9.034  0.1001  0.3754  0.3658
 2995SOL    HW120444   2.557   3.755   9.009  1.0060 -0.3510  3.7638
 2995SOL    HW220445   2.522   3.844   9.128  2.0241 -0.0246  0.7092
 2996SOL     OW20446   1.218   3.464   2.418 -0.0538 -0.4523  0.1533
 2996SOL    HW120447   1.230   3.556   2.394 -2.3016 -0.0831  0.4038
 2996SOL    HW220448   1.128   3.460   2.452  0.6245 -1.1040  1.8516
 2997SOL     OW20449   4.162   0.995   2.724  0.6783 -0.1464  0.0966
 2997SOL    HW120450   4.257   1.004   2.732  0.4366 -0.0142  2.8000
 2997SOL    HW220451   4.147   0.975   2.816 -1.2310 -1.0769 -0.4038
 2998SOL     OW20452   2.309   3.690   4.305  0.5468 -0.1297 -0.1741
 2998SOL    HW120453   2.283   3.731   4.222 -0.3830  0.4850  0.4253
 2998SOL    HW220454   2.324   3.596   4.292  1.2593  0.1115 -1.1229
 2999SOL     OW20455   4.074   3.228   7.581 -0.1619  0.2855 -0.0540
 2999SOL    HW120456   4.103   3.168   7.650 -0.8259 -0.7395 -0.6749
 2999SOL    HW220457   3.984   3.249   7.605 -0.0453 -1.0436  1.5187
 3000SOL     OW20458   2.468   1.881  12.195 -0.4769  0.3866  0.0041
 3000SOL    HW120459   2.556   1.901  12.165 -0.8800 -0.6460 -1.8768
 3000SOL    HW220460   2.418   1.944  12.143  0.6716  0.4648 -1.0024
 3001SOL     OW20461   4.196   2.190   6.148  0.2328  0.2548  0.1133
 3001SOL    HW120462   4.257   2.237   6.091 -0.3229  0.8467  0.0004
 3001SOL    HW220463   4.133   2.261   6.164  1.5987  1.2207  1.2568
 3002SOL     OW20464   4.501   0.978   2.304 -0.3974  0.0917 -0.0442
 3002SOL    HW120465   4.487   0.986   2.398  1.3980  0.2778  0.2117
 3002SOL    HW220466   4.413   1.000   2.272  0.6028  2.0329 -1.4875
 3003SOL     OW20467   2.391   3.524  16.267 -0.0843 -0.0694 -0.6567
 3003SOL    HW120468   2.462   3.460  16.253  0.6361  0.5425  0.1869
 3003SOL    HW220469   2.441   3.605  16.275 -0.6266 -0.0642  2.7387
 3004SOL     OW20470   2.142   0.513  17.034 -0.0183  0.3523 -0.5256
 3004SOL    HW120471   2.228   0.552  17.051  0.6163 -0.8887 -0.9224
 3004SOL    HW220472   2.099   0.571  16.971 -0.4035  0.3519 -0.2641
 3005SOL     OW20473   2.739   0.675   9.442 -0.2732  0.4615 -0.2023
 3005SOL    HW120474   2.650   0.641   9.452  0.1360 -1.2398 -2.2021
 3005SOL    HW220475   2.759   0.672   9.348  1.5817  1.9017  0.1377
 3006SOL     OW20476   4.511   4.677   4.090  0.2528 -0.3400 -0.1552
 3006SOL    HW120477   4.512   0.044   4.127 -4.0821 -0.2204 -0.3076
 3006SOL    HW220478   4.529   4.691   3.997  1.7194  0.1709  0.2121
 3007SOL     OW20479   2.232   0.895   3.484  0.1968  0.0380  0.0099
 3007SOL    HW120480   2.304   0.832   3.474  0.9655  0.9503 -0.1769
 3007SOL    HW220481   2.223   0.922   3.392  1.2732  2.6215  0.6826
 3008SOL     OW20482   1.436   2.361   0.206 -0.1778 -0.5043  0.2758
 3008SOL    HW120483   1.474   2.273   0.216  0.0285 -0.1656  2.4107
 3008SOL    HW220484   1.372   2.358   0.276 -1.5743 -0.6439 -0.9976
 3009SOL     OW20485   2.321   1.943  15.386  0.4470  0.1287 -0.0803
 3009SOL    HW120486   2.286   1.866  15.342 -0.5785  0.0429  0.8901
 3009SOL    HW220487   2.265   1.944  15.464 -0.4156 -0.4883 -0.6928
 3010SOL     OW20488   0.984   1.029  15.334 -0.2581  0.2084 -0.4127
 3010SOL    HW120489   1.067   1.039  15.380  0.5733  0.0094 -1.9008
 3010SOL    HW220490   0.977   0.934  15.325 -0.6563  0.1231  0.7039
 3011SOL     OW20491   2.145   3.534   4.585 -0.0594  0.0053  0.4454
 3011SOL    HW120492   2.157   3.607   4.524 -1.3024 -0.0004  0.2054
 3011SOL    HW220493   2.225   3.552   4.635 -0.2757  0.6704  0.5579
 3012SOL     OW20494   1.507   3.725   0.107  0.2863  0.0900  0.0251
 3012SOL    HW120495   1.425   3.684   0.135 -0.1946  2.4887  2.1826
 3012SOL    HW220496   1.565   3.650   0.095 -0.9136 -1.0721  1.4358
 3013SOL     OW20497   0.256   1.688  13.078  0.3349 -0.4453 -0.1562
 3013SOL    HW120498   0.338   1.732  13.101  0.2801 -0.7424  0.6057
 3013SOL    HW220499   0.279   1.596  13.064 -0.6046 -0.7481  0.2849
 3014SOL     OW20500   0.270   0.357   4.307 -0.8351  0.4869 -0.0538
 3014SOL    HW120501   0.210   0.391   4.374 -0.5526  0.7538  0.0635
 3014SOL    HW220502   0.214   0.284   4.280  0.6044 -1.6166  2.7635
 3015SOL     OW20503   3.641   2.860  13.794 -0.3493 -0.2272 -0.2134
 3015SOL    HW120504   3.710   2.836  13.856 -0.0199  1.4702  0.0743
 3015SOL    HW220505   3.579   2.893  13.860  0.1995 -2.4540  1.3940
 3016SOL     OW20506   0.045   1.763   1.734  0.8869  0.0635  0.0473
 3016SOL    HW120507   0.104   1.815   1.789 -1.3105  2.8722 -0.2543
 3016SOL    HW220508   0.068   1.680   1.776  3.1456  0.3706 -0.5570
 3017SOL     OW20509   2.444   4.084   5.942  0.4626  0.3162 -0.5048
 3017SOL    HW120510   2.387   4.119   5.873  0.5821  1.4640 -0.0243
 3017SOL    HW220511   2.412   3.994   5.942  1.3019  0.0178 -0.0061
 3018SOL     OW20512   4.099   0.672  13.194 -0.2122  0.0503 -0.1573
 3018SOL    HW120513   4.008   0.642  13.199 -0.7394  1.8858  1.2275
 3018SOL    HW220514   4.093   0.757  13.150 -2.0332 -0.3348 -0.6646
 3019SOL     OW20515   2.041   3.154   8.864  0.1879 -0.2447  0.3167
 3019SOL    HW120516   2.039   3.074   8.916 -1.4036 -0.0097  0.6266
 3019SOL    HW220517   1.981   3.131   8.793  2.0998 -1.4196 -0.9057
 3020SOL     OW20518   2.821   2.840  11.297 -0.1606 -0.6068  0.6141
 3020SOL    HW120519   2.786   2.897  11.365 -1.3993 -0.7745  0.1050
 3020SOL    HW220520   2.900   2.815  11.346 -0.7716 -2.0145  0.8830
 3021SOL     OW20521   0.909   3.182   7.384  0.2504 -0.2487 -0.1824
 3021SOL    HW120522   0.976   3.237   7.425  0.4932  0.3464 -1.3720
 3021SOL    HW220523   0.855   3.242   7.332  1.4345  2.8517  2.2102
 3022SOL     OW20524   4.236   1.027  12.815  0.3752 -0.4372 -0.3160
 3022SOL    HW120525   4.289   1.095  12.773 -0.6806 -0.5978 -1.8966
 3022SOL    HW220526   4.236   0.954  12.753  1.3732 -1.6247  1.0794
 3023SOL     OW20527   1.958   3.583   2.677  0.0592 -0.4546 -0.0539
 3023SOL    HW120528   1.963   3.493   2.645 -0.2762 -0.7193  0.6432
 3023SOL    HW220529   2.048   3.615   2.670 -0.2941  0.6720  0.5731
 3024SOL     OW20530   3.452   1.956  12.145  0.1540 -0.2340 -0.7373
 3024SOL    HW120531   3.405   1.962  12.062  0.7135 -0.8510 -1.1036
 3024SOL    HW220532   3.440   2.041  12.188  0.5476 -1.0007  0.9224
 3025SOL     OW20533   3.945   2.789  16.635 -0.1484  0.3073 -0.0351
 3025SOL    HW120534   3.944   2.799  16.540  1.2144 -0.7336 -0.1566
 3025SOL    HW220535   3.920   2.696  16.643 -0.2073  0.2524 -0.8659
 3026SOL     OW20536   0.685   1.398   3.203 -0.2448 -0.3557  0.4138
 3026SOL    HW120537   0.713   1.309   3.184  0.2831 -0.4682  1.7966
 3026SOL    HW220538   0.670   1.429   3.113 -1.0626 -0.8349  0.3888
 3027SOL     OW20539   3.920   1.816  17.122  0.2451  0.3366  0.0159
 3027SOL    HW120540   3.944   1.729  17.154 -1.2108 -0.4725 -1.1001
 3027SOL    HW220541   4.008   1.852  17.113  0.1875  0.8403  1.5180
 3028SOL     OW20542   2.469   0.620  15.815 -0.3881 -0.0410  0.4171
 3028SOL    HW120543   2.405   0.687  15.792  0.6424  0.7009 -0.2979
 3028SOL    HW220544   2.541   0.671  15.852 -1.6690  1.4544  0.8350
 3029SOL     OW20545   2.977   0.944   8.730 -0.0247 -0.1945 -0.4563
 3029SOL    HW120546   3.002   0.974   8.643  0.7342  2.4028  0.6728
 3029SOL    HW220547   2.883   0.965   8.729  0.3046  1.3481  1.7042
 3030SOL     OW20548   2.994   0.855   4.959 -0.3503 -0.1352 -0.2111
 3030SOL    HW120549   2.952   0.827   4.877  2.2539 -1.4601 -1.1137
 3030SOL    HW220550   2.917   0.855   5.015  0.8429  3.4159  1.4276
 3031SOL     OW20551   0.721   4.002   0.202 -0.3963 -0.0432  0.7202
 3031SOL    HW120552   0.638   4.008   0.248  0.0660 -0.2916  1.5973
 3031SOL    HW220553   0.709   4.067   0.133  0.4302  0.2559  0.8545
 3032SOL     OW20554   2.241   0.145  16.041  0.1515 -0.7443  0.1159
 3032SOL    HW120555   2.266   0.112  16.127 -0.5419  0.8793  0.9627
 3032SOL    HW220556   2.242   0.240  16.056 -1.5855 -0.8276  0.8465
 3033SOL     OW20557   1.817   3.466   5.865  0.5196 -0.8491 -0.6951
 3033SOL    HW120558   1.835   3.465   5.959  1.4115  0.6213 -0.8583
 3033SOL    HW220559   1.809   3.373   5.841  3.2436 -1.3174  0.1894
 3034SOL     OW20560   2.805   2.451   8.110 -0.0903 -0.2505 -0.3270
 3034SOL    HW120561   2.767   2.470   8.196 -1.3256 -0.2598 -0.8657
 3034SOL    HW220562   2.870   2.519   8.091 -1.7366  1.1395 -1.0157
 3035SOL     OW20563   1.632   2.816   0.100  0.6674 -0.0083 -1.0673
 3035SOL    HW120564   1.563   2.750   0.095 -1.5367  2.1932  0.9020
 3035SOL    HW220565   1.673   2.810   0.013  1.5339 -0.8403 -0.6044
 3036SOL     OW20566   4.177   1.457   5.628 -0.3349 -0.0463 -0.3790
 3036SOL    HW120567   4.120   1.418   5.562  0.4407 -1.3946 -0.2698
 3036SOL    HW220568   4.134   1.427   5.709  0.1814  1.8645  0.6067
 3037SOL     OW20569   2.890   0.508   6.478  1.4064  0.1191  0.2609
 3037SOL    HW120570   2.871   0.564   6.404 -0.7680 -0.3042  0.4978
 3037SOL    HW220571   2.964   0.462   6.437  1.2096 -1.3176  1.5107
 3038SOL     OW20572   3.640   1.356   4.019  0.1928  0.7289 -0.2895
 3038SOL    HW120573   3.612   1.389   4.105  0.5329  1.4047 -0.4386
 3038SOL    HW220574   3.692   1.435   4.003  1.2679 -0.0316 -0.5247
 3039SOL     OW20575   3.228   3.997   4.472 -0.0789 -0.5999 -0.4557
 3039SOL    HW120576   3.150   4.029   4.519 -0.6099 -1.2886 -0.8633
 3039SOL    HW220577   3.299   4.042   4.517 -0.8612 -2.1700  2.3532
 3040SOL     OW20578   3.760   4.079  13.640  0.2162 -0.3843  0.0926
 3040SOL    HW120579   3.684   4.128  13.673 -0.6085 -1.2942 -0.4464
 3040SOL    HW220580   3.809   4.157  13.617  1.2626 -1.0699 -0.0064
 3041SOL     OW20581   1.242   2.508   5.874  0.0995 -0.0325  0.0687
 3041SOL    HW120582   1.266   2.427   5.921  0.9223  0.3463  0.3065
 3041SOL    HW220583   1.156   2.476   5.846  0.9787 -1.1385 -1.3964
 3042SOL     OW20584   4.255   0.312  10.721  0.6951  0.5302  0.0473
 3042SOL    HW120585   4.177   0.274  10.681 -0.0947  0.4512  1.6892
 3042SOL    HW220586   4.309   0.345  10.649 -0.9707 -0.1414 -1.5290
 3043SOL     OW20587   3.671   0.178   8.815  0.1457 -0.5364 -0.7002
 3043SOL    HW120588   3.591   0.201   8.863 -0.5794 -2.0429 -1.1708
 3043SOL    HW220589   3.733   0.251   8.826 -2.1549  1.5325 -1.3950
 3044SOL     OW20590   3.218   2.243  15.515 -0.0187 -0.4988 -0.0473
 3044SOL    HW120591   3.196   2.280  15.430  1.3361  1.4864  0.4791
 3044SOL    HW220592   3.298   2.289  15.538  0.3875 -2.1267  1.8668
 3045SOL     OW20593   0.126   2.593   7.869 -0.6004  0.6120  0.1778
 3045SOL    HW120594   0.193   2.633   7.814 -1.1649 -1.4900 -2.0389
 3045SOL    HW220595   0.160   2.614   7.956  0.4956 -0.3906 -0.0256
 3046SOL     OW20596   0.562   2.090   9.065  0.2227  0.0982  0.1575
 3046SOL    HW120597   0.528   2.002   9.046  1.4802 -0.4270  0.3743
 3046SOL    HW220598   0.623   2.077   9.138  0.1561 -1.5626 -0.0775
 3047SOL     OW20599   2.885   1.468   4.939 -0.0679 -0.2525 -0.1366
 3047SOL    HW120600   2.866   1.551   4.984 -1.1687 -0.5507 -0.0758
 3047SOL    HW220601   2.947   1.431   5.003 -0.3082 -0.5171 -0.0604
 3048SOL     OW20602   3.091   2.704   3.527 -0.0383 -0.3034 -0.5146
 3048SOL    HW120603   3.113   2.678   3.617 -2.6198 -0.9101 -0.0590
 3048SOL    HW220604   3.137   2.637   3.476 -1.0836 -0.8447 -0.7557
 3049SOL     OW20605   1.376   3.057  11.583 -1.5180 -0.6763 -0.1929
 3049SOL    HW120606   1.306   3.007  11.625  0.1148 -0.7993  2.3218
 3049SOL    HW220607   1.355   3.027  11.494 -1.5102 -0.9994 -0.0831
 3050SOL     OW20608   0.851   3.077   7.799 -0.0891  0.1106  0.1270
 3050SOL    HW120609   0.826   3.151   7.855 -2.0238 -1.0219  0.7291
 3050SOL    HW220610   0.915   3.032   7.854  1.5184  1.5588 -0.5569
 3051SOL     OW20611   1.052   0.383   0.409 -0.0500  0.1573  0.1268
 3051SOL    HW120612   1.092   0.317   0.352  1.3022 -0.1967  1.5091
 3051SOL    HW220613   0.972   0.406   0.361 -0.5061 -3.6106 -1.0018
 3052SOL     OW20614   2.662   0.087   2.070  0.5870  0.0692  0.4175
 3052SOL    HW120615   2.583   0.094   2.017 -0.1098  0.1622  1.4720
 3052SOL    HW220616   2.672   0.183   2.074  0.4178  0.0766  0.6678
 3053SOL     OW20617   2.540   0.258   4.414 -0.4378  0.4380 -0.1683
 3053SOL    HW120618   2.540   0.197   4.340 -2.7755  0.9733 -0.6016
 3053SOL    HW220619   2.528   0.342   4.370  0.4377  0.1405 -0.9729
 3054SOL     OW20620   3.763   1.835   4.540  0.0103  0.7815  0.3972
 3054SOL    HW120621   3.729   1.875   4.621  2.2474  0.0550  1.6964
 3054SOL    HW220622   3.822   1.767   4.572  1.6629  1.8283 -0.4504
 3055SOL     OW20623   1.807   4.209   9.027  0.2090  0.9239  0.0283
 3055SOL    HW120624   1.774   4.209   9.117 -0.9513  1.9259 -0.4109
 3055SOL    HW220625   1.841   4.298   9.020 -0.7933  1.4514  1.8821
 3056SOL     OW20626   0.844   4.099  15.844  0.3878  0.6166 -0.3730
 3056SOL    HW120627   0.798   4.144  15.915  0.5917 -1.1248  0.8662
 3056SOL    HW220628   0.783   4.032  15.812  1.5439 -0.7230  0.2464
 3057SOL     OW20629   2.135   3.573   6.790  0.0607  0.0468  0.7608
 3057SOL    HW120630   2.126   3.607   6.879  0.8320  1.8479  0.1416
 3057SOL    HW220631   2.116   3.482   6.813 -0.7807  0.1432  0.4455
 3058SOL     OW20632   2.472   2.475  12.608 -0.0999  0.0437  0.3906
 3058SOL    HW120633   2.561   2.498  12.580  0.2039  0.4620  1.6944
 3058SOL    HW220634   2.467   2.383  12.632  0.4281 -0.3437 -0.9896
 3059SOL     OW20635   1.784   4.639   7.020 -0.0430  0.4751 -0.2716
 3059SOL    HW120636   1.718   4.659   6.953 -1.8467  0.4502  1.4808
 3059SOL    HW220637   1.832   4.719   6.999  0.6550  0.2825  0.6103
 3060SOL     OW20638   3.116   1.309   5.341  0.4557 -0.2842  0.6341
 3060SOL    HW120639   3.172   1.231   5.337  1.0815  0.2256 -0.6560
 3060SOL    HW220640   3.064   1.293   5.420 -0.9237 -1.5610 -0.5218
 3061SOL     OW20641   3.291   3.017   3.134  0.3811 -0.4880  0.4876
 3061SOL    HW120642   3.196   3.017   3.143  0.3892 -0.1469  0.5610
 3061SOL    HW220643   3.310   3.102   3.174  0.3486  0.0548 -0.6514
 3062SOL     OW20644   0.362   4.649   5.825 -0.0422  0.0708 -0.0471
 3062SOL    HW120645   0.402   4.575   5.871 -0.8136  0.1694  0.7841
 3062SOL    HW220646   0.271   4.621   5.840  0.7133 -0.9552  2.7546
 3063SOL     OW20647   2.602   2.525  16.049 -0.1394  0.0766 -0.3115
 3063SOL    HW120648   2.585   2.618  16.058  2.2857  0.6505 -1.6902
 3063SOL    HW220649   2.562   2.527  15.963 -1.0482 -0.6298  0.0901
 3064SOL     OW20650   4.231   4.597  15.475 -0.2634 -0.1434 -0.1356
 3064SOL    HW120651   4.280   4.615  15.395 -1.0520  0.8533 -0.4000
 3064SOL    HW220652   4.304   4.566  15.527 -1.1982 -2.6040 -0.2848
 3065SOL     OW20653   2.460   4.547   1.950 -0.6068 -1.1181 -0.1053
 3065SOL    HW120654   2.547   4.507   1.938 -0.5029 -0.9869  0.2044
 3065SOL    HW220655   2.483   4.636   1.977  3.1433 -1.8990 -0.6210
 3066SOL     OW20656   4.196   0.678   9.145 -0.2534 -0.5095  0.0605
 3066SOL    HW120657   4.181   0.592   9.108  0.9845 -1.6939  2.2793
 3066SOL    HW220658   4.247   0.717   9.074  0.0171  0.1692  0.6164
 3067SOL     OW20659   2.632   4.712   2.694  0.4645  0.1174  0.0004
 3067SOL    HW120660   2.580   4.633   2.706 -4.4629  3.4546  0.4463
 3067SOL    HW220661   2.716   4.685   2.732  1.1656  0.4794 -1.2834
 3068SOL     OW20662   3.948   1.230   5.572 -0.0366 -0.3477  0.0406
 3068SOL    HW120663   3.853   1.224   5.575 -0.1647  1.0111 -1.2184
 3068SOL    HW220664   3.957   1.304   5.512  2.0128 -1.4777 -1.0560
 3069SOL     OW20665   0.006   2.832   7.087  0.0293  0.1938 -0.2653
 3069SOL    HW120666   4.671   2.802   7.158 -2.4285  4.0433 -0.5423
 3069SOL    HW220667   0.064   2.899   7.125 -0.0816  0.7640 -1.0956
 3070SOL     OW20668   3.760   3.814   7.101  0.3929  0.3377  0.9457
 3070SOL    HW120669   3.747   3.848   7.189  1.0884  1.3291  0.6635
 3070SOL    HW220670   3.819   3.740   7.114 -2.4068 -2.4835 -2.4100
 3071SOL     OW20671   3.575   1.125   6.031  1.1639 -0.1841 -0.2107
 3071SOL    HW120672   3.644   1.158   5.973  0.6610 -0.6368 -1.0826
 3071SOL    HW220673   3.629   1.065   6.083  0.6236  1.3726  2.1197
 3072SOL     OW20674   4.282   0.335   3.236  0.3519 -0.1264 -0.0842
 3072SOL    HW120675   4.259   0.244   3.256  0.0487 -0.4297 -1.8203
 3072SOL    HW220676   4.305   0.329   3.143  0.4118 -1.4069  0.0132
 3073SOL     OW20677   1.749   0.660   8.944 -0.3586 -0.1318  0.2768
 3073SOL    HW120678   1.757   0.588   9.006  0.2589  0.4852  0.9207
 3073SOL    HW220679   1.688   0.713   8.996  0.1687 -0.1852  0.9585
 3074SOL     OW20680   4.328   3.445   4.914 -0.1803  0.5256 -0.4065
 3074SOL    HW120681   4.381   3.445   4.993  0.8552 -1.2059 -1.0953
 3074SOL    HW220682   4.344   3.356   4.884  2.5910  1.0591 -0.5092
 3075SOL     OW20683   4.119   3.248   8.498  0.1305  0.9432  0.4438
 3075SOL    HW120684   4.080   3.307   8.563 -0.9947 -0.6636  1.2352
 3075SOL    HW220685   4.188   3.302   8.461  1.0193 -0.4896  0.0149
 3076SOL     OW20686   0.842   2.047  13.941  0.4060 -0.3282 -0.1595
 3076SOL    HW120687   0.765   1.991  13.939 -1.5131  2.2755  0.0387
 3076SOL    HW220688   0.908   1.984  13.968 -1.9110 -3.1516 -1.0160
 3077SOL     OW20689   0.706   2.605   5.199 -0.0257  0.6474  0.1780
 3077SOL    HW120690   0.625   2.592   5.247 -1.0399  0.2502 -1.6620
 3077SOL    HW220691   0.699   2.525   5.148  1.6435  0.0161  0.9045
 3078SOL     OW20692   4.408   3.067  16.956  0.3556  0.5577  0.5147
 3078SOL    HW120693   4.453   3.025  16.883 -1.1806  0.3197 -0.2945
 3078SOL    HW220694   4.321   3.037  16.929  0.1588  2.8813 -1.4722
 3079SOL     OW20695   2.118   3.811   7.440 -0.0518 -0.8434 -0.5047
 3079SOL    HW120696   2.112   3.723   7.476  0.3963  0.0327  1.7514
 3079SOL    HW220697   2.030   3.842   7.461  0.1854  0.7912 -1.8912
 3080SOL     OW20698   4.058   1.044  16.872 -0.7066 -0.0586 -0.4692
 3080SOL    HW120699   3.962   1.050  16.870 -0.7891 -1.1550  0.0501
 3080SOL    HW220700   4.080   1.102  16.799  1.0090  0.1800  0.2422
 3081SOL     OW20701   0.131   0.077   3.777  0.0756  0.0605  0.2503
 3081SOL    HW120702   0.141   0.153   3.719  1.1984 -1.3459 -1.3894
 3081SOL    HW220703   0.036   0.074   3.784  0.1650  2.1442  2.7997
 3082SOL     OW20704   2.179   3.779   9.348  0.4646 -0.1351 -0.0101
 3082SOL    HW120705   2.115   3.742   9.408  1.1926 -0.7934  0.3563
 3082SOL    HW220706   2.234   3.808   9.421 -0.3863 -0.0871  0.6138
 3083SOL     OW20707   0.344   1.587   6.208  0.0239  0.2175 -0.3814
 3083SOL    HW120708   0.267   1.630   6.246 -1.6473 -2.0801 -1.1421
 3083SOL    HW220709   0.398   1.568   6.285  0.9179 -0.2836 -1.1338
 3084SOL     OW20710   4.631   0.130  16.318  0.0403  0.3188 -0.0069
 3084SOL    HW120711   4.684   0.161  16.245  0.5905  0.7142  0.5538
 3084SOL    HW220712   4.542   0.160  16.301 -0.4664 -1.2463 -0.0757
 3085SOL     OW20713   4.665   2.096  11.126  0.6662 -0.2152 -0.2273
 3085SOL    HW120714   0.026   2.112  11.174  0.2744  0.9705  0.0463
 3085SOL    HW220715   4.611   2.174  11.134  0.6365 -0.1564 -1.0677
 3086SOL     OW20716   2.074   1.827   6.775  0.3233 -0.2685 -0.7369
 3086SOL    HW120717   2.035   1.869   6.698 -0.9348 -0.6193 -0.2996
 3086SOL    HW220718   1.995   1.818   6.829  1.0649  1.8784  0.6861
 3087SOL     OW20719   1.417   1.043   2.761 -0.0529 -0.4728  0.2337
 3087SOL    HW120720   1.413   1.137   2.742 -0.1321 -0.8436 -1.5346
 3087SOL    HW220721   1.511   1.039   2.780  0.5271  0.7868 -2.4603
 3088SOL     OW20722   4.301   1.886  11.926  0.0594  0.1028 -0.7446
 3088SOL    HW120723   4.376   1.838  11.889  0.5429  0.4064 -0.1522
 3088SOL    HW220724   4.311   1.970  11.881  1.2202 -0.3812 -1.4106
 3089SOL     OW20725   3.452   1.993  14.825 -0.0457  0.4150 -0.0475
 3089SOL    HW120726   3.536   1.971  14.866 -1.1145 -1.0918  1.2851
 3089SOL    HW220727   3.431   2.068  14.881 -2.0410  0.7886 -1.2897
 3090SOL     OW20728   0.880   3.792   6.251  0.3897  0.9144  0.0236
 3090SOL    HW120729   0.915   3.772   6.338 -0.8840  0.6967  0.4761
 3090SOL    HW220730   0.960   3.786   6.198 -0.6918  1.0653 -1.6236
 3091SOL     OW20731   0.226   0.220   8.943  0.4363  0.1253 -0.2977
 3091SOL    HW120732   0.256   0.256   9.027  0.1126  0.2049 -0.2137
 3091SOL    HW220733   0.198   0.135   8.976 -0.1262  0.9309  1.3557
 3092SOL     OW20734   3.790   2.113   1.838 -0.1223 -0.2995 -0.1744
 3092SOL    HW120735   3.884   2.129   1.833 -0.2220  0.4524  0.2416
 3092SOL    HW220736   3.760   2.096   1.749 -2.6304  1.9565  0.2295
 3093SOL     OW20737   2.727   0.539  12.073  0.0053  0.8405 -0.1243
 3093SOL    HW120738   2.792   0.576  12.012  0.2748  1.1928  0.3821
 3093SOL    HW220739   2.752   0.447  12.080  0.6372  0.9185 -1.3866
 3094SOL     OW20740   1.220   2.913   1.996 -0.0262  0.3084  0.1651
 3094SOL    HW120741   1.295   2.914   2.055  1.1093 -1.0534 -1.2462
 3094SOL    HW220742   1.257   2.905   1.907 -2.8533  0.9127 -1.0412
 3095SOL     OW20743   0.724   2.757   0.776 -0.7763 -0.5806  0.0120
 3095SOL    HW120744   0.665   2.799   0.713  3.1435  2.2149 -1.7873
 3095SOL    HW220745   0.746   2.821   0.844  2.1610 -0.0051 -1.4666
 3096SOL     OW20746   3.204   3.784   4.316  0.3398  0.3858 -0.3123
 3096SOL    HW120747   3.226   3.866   4.360  0.7811  1.1159 -1.8777
 3096SOL    HW220748   3.291   3.745   4.306  0.9647  1.4580  0.9234
 3097SOL     OW20749   0.739   0.377  15.240  0.0366  0.6647 -0.2665
 3097SOL    HW120750   0.693   0.366  15.157  0.6611 -1.9834 -0.2637
 3097SOL    HW220751   0.826   0.376  15.199  0.7634  0.3927  1.2768
 3098SOL     OW20752   1.255   1.172   7.284  0.0672 -0.1543 -0.0533
 3098SOL    HW120753   1.330   1.221   7.250 -2.0376  1.3668 -2.4254
 3098SOL    HW220754   1.296   1.085   7.289 -1.2540 -0.9441 -3.2026
 3099SOL     OW20755   1.473   0.771   2.923  0.0014  0.0351  0.2155
 3099SOL    HW120756   1.414   0.826   2.873  1.5099  1.2318 -0.2689
 3099SOL    HW220757   1.440   0.682   2.928 -2.0410  0.8146  0.6704
 3100SOL     OW20758   1.091   0.479   3.951  0.0749  0.2646 -0.0424
 3100SOL    HW120759   1.123   0.552   4.004  0.2122 -0.1810  0.4884
 3100SOL    HW220760   1.121   0.500   3.863  1.1618  1.3171  0.5920
 3101SOL     OW20761   4.426   1.408   5.579  0.1667 -0.4903  0.0273
 3101SOL    HW120762   4.332   1.427   5.587  0.8575  3.1143 -0.7539
 3101SOL    HW220763   4.423   1.338   5.645  2.1699 -2.2746 -1.7954
 3102SOL     OW20764   0.240   1.972   9.175  0.1498 -0.0509 -0.2833
 3102SOL    HW120765   0.227   2.036   9.244 -3.3523 -0.6245 -0.4187
 3102SOL    HW220766   0.201   2.017   9.100 -0.4019  1.1541  0.7308
 3103SOL     OW20767   0.316   2.022   0.859  0.4311 -0.2642  0.2322
 3103SOL    HW120768   0.362   2.027   0.943 -0.0079 -0.2322  0.4716
 3103SOL    HW220769   0.354   1.946   0.815  2.3383  1.6538 -1.4298
 3104SOL     OW20770   3.710   1.857  15.863 -0.0057 -0.4778 -0.0721
 3104SOL    HW120771   3.652   1.798  15.814  1.1367 -2.1658  0.6275
 3104SOL    HW220772   3.801   1.835  15.844  0.5552  1.2410  0.6179
 3105SOL     OW20773   1.020   4.316   5.307  0.5177 -0.3938  0.1706
 3105SOL    HW120774   1.094   4.339   5.249  1.8794  0.4184  2.2327
 3105SOL    HW220775   0.963   4.298   5.232 -0.5576 -0.6271  1.0522
 3106SOL     OW20776   0.080   0.371   1.546 -0.2349  0.1502  0.5459
 3106SOL    HW120777   0.012   0.439   1.547 -0.2716  0.1175 -0.0938
 3106SOL    HW220778   0.134   0.393   1.622 -0.8803 -0.4547  1.1884
 3107SOL     OW20779   0.261   3.852  12.038  0.0669  0.4126  0.3253
 3107SOL    HW120780   0.241   3.867  11.946  2.1137 -1.5926 -0.4590
 3107SOL    HW220781   0.304   3.936  12.054  2.0685 -0.1745 -1.9084
 3108SOL     OW20782   3.926   1.475   9.128  0.0558 -0.3163 -0.0684
 3108SOL    HW120783   3.937   1.494   9.222  1.3764 -0.1843 -0.2436
 3108SOL    HW220784   3.983   1.398   9.127  0.3892 -0.0495 -1.4312
 3109SOL     OW20785   2.611   0.879   8.334 -0.3273 -0.4860 -0.2784
 3109SOL    HW120786   2.579   0.811   8.394 -3.7693  2.2028  0.9294
 3109SOL    HW220787   2.612   0.834   8.249 -1.7458  2.7671 -2.0137
 3110SOL     OW20788   0.918   3.711   5.861 -0.3842 -0.1008  0.1238
 3110SOL    HW120789   0.927   3.796   5.818 -3.2424 -0.9402 -2.1398
 3110SOL    HW220790   0.896   3.739   5.950 -1.2447  2.5883 -0.9365
 3111SOL     OW20791   3.820   4.342   2.041 -0.2736  0.1989  0.1086
 3111SOL    HW120792   3.800   4.334   1.948  3.4837  1.0761 -0.7669
 3111SOL    HW220793   3.740   4.379   2.079 -0.3088  1.8803 -1.6633
 3112SOL     OW20794   2.274   3.304   7.529 -0.2006  0.0443  0.0153
 3112SOL    HW120795   2.361   3.327   7.560 -0.2053 -1.0864  0.8852
 3112SOL    HW220796   2.265   3.364   7.455  0.4887 -0.7689 -0.7247
 3113SOL     OW20797   4.634   1.269  17.004  0.4222 -0.4079  0.1006
 3113SOL    HW120798   4.554   1.300  16.963  1.1993 -0.5841 -1.5322
 3113SOL    HW220799   4.686   1.349  16.996 -1.9477  0.7854 -2.9038
 3114SOL     OW20800   0.463   0.875   6.769  0.4520 -0.5369  0.1851
 3114SOL    HW120801   0.388   0.893   6.712  1.4422 -0.0916 -0.9752
 3114SOL    HW220802   0.440   0.922   6.849  1.8624 -0.1776  0.3805
 3115SOL     OW20803   2.724   3.533  10.738 -0.2560 -0.7207  0.2605
 3115SOL    HW120804   2.745   3.622  10.710 -0.4320 -0.2444  1.6739
 3115SOL    HW220805   2.714   3.543  10.832  0.1496 -0.8009  0.3117
 3116SOL     OW20806   1.222   2.116   3.785 -0.3905 -0.3213  0.4827
 3116SOL    HW120807   1.258   2.062   3.715 -1.6758 -1.3616  0.6248
 3116SOL    HW220808   1.285   2.089   3.852  0.5546 -1.1244 -0.7572
 3117SOL     OW20809   1.707   4.489  17.183 -0.2385 -0.1427 -0.2140
 3117SOL    HW120810   1.728   4.532  17.100  2.6716 -1.9163 -0.3816
 3117SOL    HW220811   1.778   4.531  17.232 -0.3246  0.3301 -0.4915
 3118SOL     OW20812   1.465   2.048   2.424  0.4552  0.0845  0.3211
 3118SOL    HW120813   1.446   1.955   2.436  1.0112 -0.3268 -1.8759
 3118SOL    HW220814   1.409   2.093   2.487  0.2544  1.5872 -0.9337
 3119SOL     OW20815   4.060   2.417   7.087 -0.2593  0.4099  0.3176
 3119SOL    HW120816   4.006   2.488   7.122 -0.2951  0.4411  0.1998
 3119SOL    HW220817   4.085   2.381   7.172 -1.0492 -1.3221 -0.1731
 3120SOL     OW20818   2.524   0.737  16.178  0.3034 -0.5005 -0.4768
 3120SOL    HW120819   2.506   0.762  16.268 -0.6705  2.1045 -1.3936
 3120SOL    HW220820   2.433   0.715  16.156  0.0299  0.8096 -0.6424
 3121SOL     OW20821   0.021   2.489   1.700 -0.3254  0.1255  0.0542
 3121SOL    HW120822   4.697   2.431   1.639  0.3310  1.2129 -1.4416
 3121SOL    HW220823   4.718   2.449   1.784  3.0286  1.3825  1.6188
 3122SOL     OW20824   1.866   0.585   1.453 -0.2635 -0.3907  0.0056
 3122SOL    HW120825   1.876   0.512   1.393  0.9664  1.2485 -1.7985
 3122SOL    HW220826   1.910   0.543   1.527  0.0867 -0.2174 -0.0998
 3123SOL     OW20827   2.002   2.440  11.619  0.0850 -0.4379 -0.3748
 3123SOL    HW120828   2.027   2.531  11.637 -0.0191 -0.2321 -1.2727
 3123SOL    HW220829   1.942   2.452  11.546 -2.6058 -0.4701  1.8118
 3124SOL     OW20830   4.261   4.656  16.305  0.0490 -0.4390  0.0226
 3124SOL    HW120831   4.169   4.667  16.328 -0.4585 -2.8513 -0.8983
 3124SOL    HW220832   4.292   0.021  16.333  0.8488 -1.1732  1.3522
 3125SOL     OW20833   1.309   2.892   2.840  0.5533 -0.1818 -0.3238
 3125SOL    HW120834   1.230   2.924   2.883  2.5858  2.3301  1.5430
 3125SOL    HW220835   1.300   2.806   2.880  2.1595 -0.6307 -0.9312
 3126SOL     OW20836   4.657   3.080  15.615  0.9534 -0.5121 -0.6067
 3126SOL    HW120837   4.675   3.067  15.522 -0.3976 -1.5328 -0.7180
 3126SOL    HW220838   4.634   3.171  15.594 -0.2799 -0.4018  1.2830
 3127SOL     OW20839   1.754   3.209   5.754  0.1061 -0.7674 -0.0675
 3127SOL    HW120840   1.671   3.242   5.718  2.3423  3.0068 -1.7881
 3127SOL    HW220841   1.733   3.138   5.814  1.2326  2.2377  3.8605
 3128SOL     OW20842   3.088   4.072   5.409 -0.3220 -0.2181  0.5065
 3128SOL    HW120843   3.040   4.148   5.442 -0.1022 -0.1172  0.5936
 3128SOL    HW220844   3.018   4.008   5.424 -0.4345  0.1050  1.3785
 3129SOL     OW20845   3.845   3.045   4.839 -0.2530  0.3656 -0.0603
 3129SOL    HW120846   3.931   3.020   4.806  1.6825  1.4930  4.1848
 3129SOL    HW220847   3.842   3.020   4.931  0.4402  1.4817  0.2723
 3130SOL     OW20848   4.059   1.730   8.725  0.1155  0.2042 -0.4207
 3130SOL    HW120849   4.083   1.663   8.662 -1.1090 -1.2532  0.6394
 3130SOL    HW220850   4.057   1.681   8.808 -0.1297 -0.6203 -0.9134
 3131SOL     OW20851   3.545   4.529   8.058 -0.5911  0.3745  0.2153
 3131SOL    HW120852   3.451   4.516   8.045 -0.8105  0.8966  1.2501
 3131SOL    HW220853   3.571   4.437   8.058 -0.3450  0.4472 -2.5361
 3132SOL     OW20854   0.804   4.017   7.700  0.3643 -0.2229 -0.3889
 3132SOL    HW120855   0.889   4.010   7.658  1.2634  0.1273  1.3917
 3132SOL    HW220856   0.784   4.110   7.695 -1.3410 -0.6237 -1.0759
 3133SOL     OW20857   3.990   2.676  15.038 -0.1454 -0.7677  0.2392
 3133SOL    HW120858   4.011   2.592  15.078  0.3047 -0.9258 -0.3304
 3133SOL    HW220859   4.008   2.746  15.100 -1.0220 -1.0093  0.7620
 3134SOL     OW20860   1.456   4.230   3.921 -0.7207  0.0731 -0.3702
 3134SOL    HW120861   1.390   4.285   3.878  0.3234  0.9312 -0.8735
 3134SOL    HW220862   1.507   4.195   3.849  1.4872 -0.0236  1.2304
 3135SOL     OW20863   0.445   4.151   8.024 -0.0082 -1.2881  0.2297
 3135SOL    HW120864   0.357   4.188   8.039  0.6435  1.0868 -1.7331
 3135SOL    HW220865   0.440   4.064   8.063  0.6983 -2.4468 -2.2914
 3136SOL     OW20866   3.368   2.837   6.358 -0.3666  0.3040 -0.1132
 3136SOL    HW120867   3.401   2.897   6.291  0.5369 -1.7215 -1.4776
 3136SOL    HW220868   3.436   2.785   6.399 -0.4609  0.9452  0.8385
 3137SOL     OW20869   2.387   0.269  15.451  0.7893 -0.6067 -0.2126
 3137SOL    HW120870   2.444   0.335  15.492 -0.6313  0.5598 -0.1391
 3137SOL    HW220871   2.332   0.325  15.397 -0.2220  0.3372  1.7967
 3138SOL     OW20872   1.203   3.629   3.478  0.5576  0.1037  0.2545
 3138SOL    HW120873   1.165   3.659   3.561 -0.1732  0.2367 -0.1268
 3138SOL    HW220874   1.188   3.703   3.418 -3.5450 -1.2788 -0.4716
 3139SOL     OW20875   1.760   3.398   8.241 -0.1715 -0.0531 -0.0543
 3139SOL    HW120876   1.818   3.337   8.288 -1.3160 -0.0313  1.3691
 3139SOL    HW220877   1.795   3.386   8.152  3.2113  2.6988  0.9026
 3140SOL     OW20878   4.268   4.375  16.283  0.1649 -0.6680  0.3653
 3140SOL    HW120879   4.271   4.470  16.295  0.6045 -0.9549  2.4229
 3140SOL    HW220880   4.292   4.381  16.190 -0.8000  0.1653  0.1562
 3141SOL     OW20881   1.062   4.272   3.308  0.5252 -0.4238 -0.1190
 3141SOL    HW120882   1.145   4.230   3.286  0.0851 -1.6436  0.5021
 3141SOL    HW220883   1.023   4.194   3.350  1.1677 -0.5625  0.2116
 3142SOL     OW20884   4.262   1.586  15.365  0.1836  0.3041  0.8971
 3142SOL    HW120885   4.320   1.635  15.423 -0.2119  2.3439 -0.4219
 3142SOL    HW220886   4.299   1.498  15.363  0.0732  0.2979 -1.1863
 3143SOL     OW20887   3.463   2.513   5.528  0.7626  0.1586  0.2860
 3143SOL    HW120888   3.517   2.575   5.577  0.3547 -0.6789  1.8129
 3143SOL    HW220889   3.512   2.436   5.558 -0.6314 -0.4799  0.9423
 3144SOL     OW20890   2.620   2.139   6.678  0.2836 -0.2984  0.1698
 3144SOL    HW120891   2.698   2.194   6.689 -0.1967  0.4806 -0.3034
 3144SOL    HW220892   2.638   2.093   6.596  0.3991 -0.1884  0.1314
 3145SOL     OW20893   1.223   3.426   0.299 -0.5315  0.2207  0.6433
 3145SOL    HW120894   1.272   3.367   0.357 -1.2790  0.8377  1.9162
 3145SOL    HW220895   1.243   3.396   0.211 -0.8339  2.0333 -0.0294
 3146SOL     OW20896   0.662   2.832  12.252 -0.6701 -0.1381 -0.3548
 3146SOL    HW120897   0.686   2.810  12.162 -3.2362  0.4324 -1.1797
 3146SOL    HW220898   0.582   2.884  12.246 -0.7539 -0.1760  0.4524
 3147SOL     OW20899   1.279   1.431  16.674 -0.7413 -0.3115  0.0714
 3147SOL    HW120900   1.188   1.412  16.653 -1.1808  1.2132  0.6147
 3147SOL    HW220901   1.307   1.476  16.595 -1.3761 -0.7490 -0.4042
 3148SOL     OW20902   4.004   0.842  15.764  0.3091  0.5014 -0.3770
 3148SOL    HW120903   3.964   0.829  15.850 -0.6330 -2.3213 -1.2270
 3148SOL    HW220904   4.036   0.753  15.744  1.1449  0.5139  0.8704
 3149SOL     OW20905   1.002   1.229  12.783 -0.1560 -0.0520 -0.4952
 3149SOL    HW120906   1.083   1.183  12.764 -1.2962 -2.9573  1.6716
 3149SOL    HW220907   0.972   1.247  12.694  0.9872 -0.4613 -0.9620
 3150SOL     OW20908   4.559   3.401   1.535  0.0591  0.5057  0.1366
 3150SOL    HW120909   4.637   3.378   1.485 -0.6047  1.9286 -1.5345
 3150SOL    HW220910   4.576   3.493   1.557 -1.0212  0.7091  0.1178
 3151SOL     OW20911   3.936   3.937   5.418 -0.2245  0.3181  0.3009
 3151SOL    HW120912   3.935   3.841   5.424 -0.0867  0.1863 -1.9522
 3151SOL    HW220913   3.884   3.948   5.339 -1.4402 -0.5190  0.9869
 3152SOL     OW20914   2.522   0.962  17.465 -0.6129 -0.4285 -0.1053
 3152SOL    HW120915   2.486   0.906  17.535  1.5890 -1.9121 -0.1770
 3152SOL    HW220916   2.470   1.042  17.469 -0.4039 -0.2217 -1.6796
 3153SOL     OW20917   1.765   2.159   3.009 -0.0182  0.1911  1.0516
 3153SOL    HW120918   1.700   2.214   2.965  2.3466 -0.2827 -3.0323
 3153SOL    HW220919   1.720   2.084   3.049  1.2428 -1.1302 -0.0063
 3154SOL     OW20920   0.232   3.330   2.008  0.1173  0.5340  0.0815
 3154SOL    HW120921   0.221   3.382   1.929 -0.6906  0.5232  0.1942
 3154SOL    HW220922   0.316   3.290   1.983 -0.6583 -1.4905  0.7162
 3155SOL     OW20923   2.186   1.519   2.033  0.0922  0.1472  0.5273
 3155SOL    HW120924   2.147   1.501   1.947  1.4719  2.6117 -0.6060
 3155SOL    HW220925   2.145   1.603   2.057 -1.1035 -0.7433  1.6183
 3156SOL     OW20926   0.376   2.858   7.890 -0.1577  0.5184  0.2695
 3156SOL    HW120927   0.289   2.875   7.926 -0.8527 -1.2193 -0.6237
 3156SOL    HW220928   0.420   2.939   7.918  0.7566 -0.1749  0.8127
 3157SOL     OW20929   2.486   1.143   3.466  0.3763 -0.4250 -0.0662
 3157SOL    HW120930   2.461   1.229   3.432  0.6323  0.1451  1.1654
 3157SOL    HW220931   2.558   1.130   3.405  1.5651 -3.2764  1.9312
 3158SOL     OW20932   3.087   2.675   7.838 -0.3529 -0.3929  0.0968
 3158SOL    HW120933   3.073   2.582   7.858  1.0240 -0.6566 -0.1684
 3158SOL    HW220934   3.181   2.687   7.852  0.2735 -2.2685 -2.3831
 3159SOL     OW20935   2.941   0.552   8.646 -0.2869  0.4084  0.4992
 3159SOL    HW120936   2.974   0.470   8.684 -2.1814  0.3972  2.1074
 3159SOL    HW220937   2.934   0.613   8.719 -0.6323  1.2000 -0.1869
 3160SOL     OW20938   2.015   0.341  17.200 -0.3924  0.6115 -0.4249
 3160SOL    HW120939   2.059   0.414  17.156 -0.0633 -1.2110 -3.0810
 3160SOL    HW220940   1.925   0.355  17.171 -0.5740 -1.4393 -0.8498
 3161SOL     OW20941   4.502   1.207   7.006  0.6614  0.5714  0.2461
 3161SOL    HW120942   4.454   1.271   6.954  0.7374 -0.3412 -0.9528
 3161SOL    HW220943   4.440   1.188   7.076  0.9193  2.3485  0.9507
 3162SOL     OW20944   1.998   0.269   9.979 -0.4144  0.0743 -0.0142
 3162SOL    HW120945   2.021   0.246  10.069  1.3771 -0.7907 -0.7092
 3162SOL    HW220946   2.081   0.257   9.934 -0.4294  0.5610 -0.1754
 3163SOL     OW20947   0.637   0.765  10.728 -0.1650 -0.1672  0.0494
 3163SOL    HW120948   0.670   0.710  10.657 -0.3105 -2.2430  1.6123
 3163SOL    HW220949   0.707   0.744  10.789 -1.9501 -1.7254  1.5422
 3164SOL     OW20950   1.305   1.145  12.150  0.1367 -0.1715  0.0591
 3164SOL    HW120951   1.314   1.167  12.243 -1.5614  0.1304  0.1587
 3164SOL    HW220952   1.254   1.221  12.123 -0.8876 -1.2068 -0.8959
 3165SOL     OW20953   3.918   3.029   9.243  0.2726 -0.0853  0.1401
 3165SOL    HW120954   3.929   2.965   9.313  1.1150 -0.9582 -0.7928
 3165SOL    HW220955   3.854   3.089   9.281  1.7777 -0.0231  2.5406
 3166SOL     OW20956   2.118   0.882   2.601  0.1307  0.5333  0.6159
 3166SOL    HW120957   2.059   0.948   2.564  0.8084  1.4017  1.0618
 3166SOL    HW220958   2.156   0.838   2.525  2.6372  3.0656  0.3768
 3167SOL     OW20959   2.551   3.583   4.455 -0.2357 -0.0308 -0.3998
 3167SOL    HW120960   2.508   3.533   4.386 -0.5015 -1.9587  1.1489
 3167SOL    HW220961   2.574   3.660   4.403 -0.5401 -0.0542 -0.5714
 3168SOL     OW20962   1.426   1.063   3.542  0.8770 -0.0891  0.0399
 3168SOL    HW120963   1.332   1.049   3.534  0.9290 -0.9245  0.9624
 3168SOL    HW220964   1.455   1.086   3.454  1.4540  1.4438  0.6224
 3169SOL     OW20965   3.693   0.842  13.600  0.2415 -0.3466  0.2702
 3169SOL    HW120966   3.767   0.785  13.583  0.8134  0.8639 -1.3239
 3169SOL    HW220967   3.677   0.826  13.693  0.3265 -1.0454  0.1634
 3170SOL     OW20968   4.179   2.550   5.733 -0.3013  0.6155 -0.3963
 3170SOL    HW120969   4.201   2.458   5.721  1.3824  1.0355 -0.4189
 3170SOL    HW220970   4.128   2.556   5.814 -2.7248 -0.7601 -1.7933
 3171SOL     OW20971   4.051   1.789   7.008 -0.6091  0.3074  0.4210
 3171SOL    HW120972   3.990   1.740   6.954 -1.3426  0.9387  0.6765
 3171SOL    HW220973   4.090   1.835   6.934  0.8657 -2.5733 -0.6040
 3172SOL     OW20974   2.104   2.978   5.238  0.4210 -0.1726  0.1623
 3172SOL    HW120975   2.141   3.067   5.239 -0.5025  0.1850  2.6016
 3172SOL    HW220976   2.111   2.952   5.330 -1.0336  3.3755  1.2811
 3173SOL     OW20977   1.974   0.480  12.738 -0.6945  0.3920  0.1713
 3173SOL    HW120978   1.953   0.398  12.784 -0.2677 -0.8297 -1.8104
 3173SOL    HW220979   2.069   0.473  12.731 -1.0968 -1.0321 -3.6614
 3174SOL     OW20980   1.762   0.108   6.679  0.2145  0.6604  0.6916
 3174SOL    HW120981   1.696   0.061   6.730  2.6092 -3.6882 -0.1853
 3174SOL    HW220982   1.833   0.063   6.724  0.3355 -0.3325 -0.4619
 3175SOL     OW20983   4.711   3.155   1.802  0.1777 -0.4060 -0.3946
 3175SOL    HW120984   4.630   3.148   1.752  1.5936  1.9100 -2.9960
 3175SOL    HW220985   4.703   3.085   1.867  1.8854 -0.2021  0.0276
 3176SOL     OW20986   3.225   3.138   6.379 -0.5381  0.3236  0.5117
 3176SOL    HW120987   3.144   3.158   6.426 -1.2416 -1.0010 -0.1562
 3176SOL    HW220988   3.238   3.046   6.401  0.5962  0.6388  1.1776
 3177SOL     OW20989   1.616   0.713   1.869  0.0442 -0.1731  0.9461
 3177SOL    HW120990   1.673   0.774   1.915  2.1684  0.8956 -3.1448
 3177SOL    HW220991   1.603   0.645   1.935 -1.1457 -1.8961 -1.0330
 3178SOL     OW20992   3.347   3.393   6.476  0.2553 -0.2372  0.2714
 3178SOL    HW120993   3.401   3.327   6.520 -0.4037 -1.1830 -0.3331
 3178SOL    HW220994   3.282   3.335   6.436  0.1773  0.8731 -1.2368
 3179SOL     OW20995   3.073   3.108  12.222  0.3328  0.1236 -0.4404
 3179SOL    HW120996   2.993   3.064  12.249  0.1481 -0.8545 -2.5882
 3179SOL    HW220997   3.097   3.050  12.150 -0.0879 -0.3159 -0.2219
 3180SOL     OW20998   2.699   1.360   9.307 -0.0978 -0.0409 -0.0134
 3180SOL    HW120999   2.777   1.316   9.342 -0.0794 -1.1025 -1.4096
 3180SOL    HW221000   2.636   1.361   9.379 -0.0995  0.7232 -0.0228
 3181SOL     OW21001   0.589   0.139   1.950 -0.3980 -0.0372 -0.0786
 3181SOL    HW121002   0.606   0.148   2.044  0.2286  1.8267 -0.3609
 3181SOL    HW221003   0.545   0.055   1.952 -0.1466 -0.1679 -0.0726
 3182SOL     OW21004   2.679   0.837  17.047 -0.8489 -0.6808 -0.6679
 3182SOL    HW121005   2.681   0.895  17.123  2.1834 -0.1805 -1.1370
 3182SOL    HW221006   2.688   0.896  16.972  1.2899  0.4112  0.4402
 3183SOL     OW21007   1.062   0.726   4.336  0.1734  0.1709  0.2377
 3183SOL    HW121008   1.041   0.810   4.295 -0.2708  0.6675  1.4815
 3183SOL    HW221009   1.143   0.693   4.298 -0.7603 -2.7418  0.7554
 3184SOL     OW21010   0.260   0.323   6.658  0.1299  0.1584  0.1353
 3184SOL    HW121011   0.180   0.296   6.703 -0.2797  0.2288 -0.5466
 3184SOL    HW221012   0.282   0.244   6.608  0.6840  0.3414  0.0871
 3185SOL     OW21013   4.677   4.087   6.971  0.1111  0.2927 -0.3891
 3185SOL    HW121014   0.033   4.032   6.957  1.2311  2.4036 -2.5122
 3185SOL    HW221015   4.644   4.115   6.886 -2.2499 -2.4838 -0.3771
 3186SOL     OW21016   1.824   1.654   6.107  0.5375  0.4517 -0.4924
 3186SOL    HW121017   1.800   1.640   6.198 -0.1520  1.1203 -0.5740
 3186SOL    HW221018   1.906   1.701   6.124 -0.6750  1.8643  1.5228
 3187SOL     OW21019   0.642   2.809   4.583 -0.0455 -0.2919  0.7469
 3187SOL    HW121020   0.731   2.775   4.582  0.4187  0.9222  0.1635
 3187SOL    HW221021   0.599   2.752   4.519 -1.6917  0.8675  0.7988
 3188SOL     OW21022   4.513   4.158  12.198 -0.1159  0.6562 -0.5599
 3188SOL    HW121023   4.605   4.174  12.178  0.3222 -1.4218 -0.1868
 3188SOL    HW221024   4.516   4.175  12.292  0.0394 -0.0244 -0.4373
 3189SOL     OW21025   3.705   4.101  15.616 -0.2525 -0.1849 -0.1426
 3189SOL    HW121026   3.728   4.137  15.530 -2.1153 -2.0331 -1.4126
 3189SOL    HW221027   3.668   4.018  15.587  0.5543  0.0730 -1.9019
 3190SOL     OW21028   2.916   4.198   9.428  0.5094  0.0204  0.0408
 3190SOL    HW121029   2.898   4.291   9.414  2.3773  0.1636 -1.4149
 3190SOL    HW221030   3.004   4.212   9.463 -0.0310  0.5612  1.1760
 3191SOL     OW21031   3.432   4.117   8.606  0.3807 -0.1020 -0.4834
 3191SOL    HW121032   3.435   4.109   8.701 -1.5819  0.6465 -0.3453
 3191SOL    HW221033   3.372   4.048   8.577  0.9801 -1.1218  0.7134
 3192SOL     OW21034   0.018   4.137   6.613 -0.4832  0.7623 -0.7314
 3192SOL    HW121035   0.092   4.140   6.674  1.8293 -1.4014 -3.4336
 3192SOL    HW221036   0.012   4.048   6.578  1.6933  0.0862  0.5822
 3193SOL     OW21037   1.227   4.019   8.030  0.6418  0.8766 -0.1184
 3193SOL    HW121038   1.186   4.012   7.944  0.0159 -3.4250  0.5090
 3193SOL    HW221039   1.173   3.968   8.091  0.6471  0.1703 -0.6983
 3194SOL     OW21040   2.882   3.315   2.536  0.1536  0.2699 -0.3893
 3194SOL    HW121041   2.793   3.292   2.510 -0.4459 -0.1858  2.1076
 3194SOL    HW221042   2.926   3.281   2.458 -0.5913 -0.5848 -0.4423
 3195SOL     OW21043   0.454   0.068  17.037  0.0094 -0.1719 -0.6737
 3195SOL    HW121044   0.533   0.029  17.073  0.5473  0.6498 -0.9566
 3195SOL    HW221045   0.428   0.102  17.123 -1.9971  0.1559 -1.4130
 3196SOL     OW21046   1.502   2.936  15.844  0.0381 -0.2728 -0.0684
 3196SOL    HW121047   1.460   2.884  15.776 -1.1817 -3.0875  2.8455
 3196SOL    HW221048   1.577   2.964  15.791  3.1723 -2.8368  2.9381
 3197SOL     OW21049   4.505   3.924   5.005  0.5245 -0.6068 -0.4706
 3197SOL    HW121050   4.464   4.009   4.995 -1.8862 -1.5236  1.6085
 3197SOL    HW221051   4.573   3.944   5.070 -0.1275  0.5559 -0.1580
 3198SOL     OW21052   1.637   3.251   2.313  0.2289  0.3360 -0.6363
 3198SOL    HW121053   1.594   3.326   2.270  0.8428  1.5062  0.8078
 3198SOL    HW221054   1.630   3.196   2.235 -2.6918 -1.1639  0.6905
 3199SOL     OW21055   1.423   1.811   9.106 -0.7769 -0.2995 -0.0722
 3199SOL    HW121056   1.506   1.837   9.067 -0.3495 -1.4070  0.0818
 3199SOL    HW221057   1.437   1.716   9.097  0.9974 -0.0409 -0.0007
 3200SOL     OW21058   4.389   3.953  10.400  0.6943 -0.0015 -0.2723
 3200SOL    HW121059   4.472   3.971  10.444  0.4920 -1.1898  0.6004
 3200SOL    HW221060   4.339   3.913  10.471 -0.4964 -0.4967 -1.3976
 3201SOL     OW21061   0.981   3.401   0.026 -0.4624  0.0051 -0.0788
 3201SOL    HW121062   1.065   3.419  17.671 -1.0960 -0.1203 -1.4105
 3201SOL    HW221063   0.975   3.307   0.007 -1.9769  0.2526 -0.7978
 3202SOL     OW21064   1.785   1.414   7.433 -0.3409  0.2267  0.4699
 3202SOL    HW121065   1.730   1.483   7.396 -0.4942 -0.6295 -0.8902
 3202SOL    HW221066   1.718   1.374   7.489 -1.4283 -1.0214 -1.7106
 3203SOL     OW21067   4.085   0.948  13.171 -0.1796 -0.0677 -0.1889
 3203SOL    HW121068   3.997   0.972  13.202 -1.1418 -1.8803 -1.5418
 3203SOL    HW221069   4.126   1.030  13.145  0.1048 -0.1768 -0.0832
 3204SOL     OW21070   2.404   0.553  15.269 -0.1751 -0.0035 -0.9918
 3204SOL    HW121071   2.483   0.582  15.223  0.4315 -0.1348 -0.0200
 3204SOL    HW221072   2.382   0.486  15.204 -2.1112  1.3101 -1.6899
 3205SOL     OW21073   3.084   0.127   9.885 -0.0540  0.0156  0.3748
 3205SOL    HW121074   3.108   0.043   9.924 -0.5459 -0.8900 -1.2484
 3205SOL    HW221075   3.020   0.162   9.948  0.0060 -3.2833  2.2467
 3206SOL     OW21076   4.341   3.387   7.905  0.0997  0.1163  0.4409
 3206SOL    HW121077   4.335   3.453   7.837  0.2117 -0.5905 -0.2523
 3206SOL    HW221078   4.437   3.382   7.908  0.3227  3.7368 -0.9414
 3207SOL     OW21079   0.467   1.438  10.764  0.0510  0.4214 -0.0268
 3207SOL    HW121080   0.458   1.524  10.804  1.6511  1.2977 -1.5607
 3207SOL    HW221081   0.521   1.387  10.824 -0.1144  1.0914  0.6960
 3208SOL     OW21082   2.155   0.702   6.467  0.5049  0.0997  0.5021
 3208SOL    HW121083   2.234   0.657   6.496 -0.8016 -1.0285  2.3364
 3208SOL    HW221084   2.173   0.792   6.494  0.6489  0.1768  0.1461
 3209SOL     OW21085   4.021   0.863   7.719 -0.6269  0.5084 -0.5604
 3209SOL    HW121086   4.086   0.876   7.649 -0.2632 -0.9218 -0.4881
 3209SOL    HW221087   3.977   0.945   7.740 -0.1331  0.4856  0.5411
 3210SOL     OW21088   4.702   1.455   9.009  0.2258 -0.5530 -0.1015
 3210SOL    HW121089   4.662   1.404   9.079 -0.0279 -0.9981 -0.5675
 3210SOL    HW221090   4.651   1.536   9.012 -0.0032 -0.7758  1.8657
 3211SOL     OW21091   3.987   0.410  15.161  0.2175  0.1797  0.5859
 3211SOL    HW121092   3.932   0.416  15.239  0.6917  0.7383  0.8816
 3211SOL    HW221093   4.049   0.340  15.183  0.1822 -0.4886 -1.5188
 3212SOL     OW21094   2.994   3.918   3.235 -0.0744  0.1102  0.4118
 3212SOL    HW121095   2.909   3.946   3.271 -0.7180  0.2635 -1.2192
 3212SOL    HW221096   2.996   3.950   3.145 -1.0934 -2.2181 -0.4499
 3213SOL     OW21097   2.516   0.896   7.992  0.6066  0.8378 -0.8753
 3213SOL    HW121098   2.489   0.805   7.995  0.5322  0.9518  1.6484
 3213SOL    HW221099   2.546   0.913   7.903  2.2310 -2.2030 -0.8897
 3214SOL     OW21100   1.648   2.685   8.079  0.1185 -0.4819 -0.3545
 3214SOL    HW121101   1.553   2.677   8.077  0.2586 -2.0735 -0.7695
 3214SOL    HW221102   1.656   2.664   8.172 -0.5305 -1.2666 -0.4724
 3215SOL     OW21103   4.569   3.779  15.338 -0.1353  0.7151 -0.1719
 3215SOL    HW121104   4.592   3.689  15.313  1.2127  1.1572 -0.5288
 3215SOL    HW221105   4.637   3.800  15.402  1.6641 -1.5880 -1.3114
 3216SOL     OW21106   1.785   0.076  13.365 -0.2627 -0.5133 -0.4013
 3216SOL    HW121107   1.765   0.077  13.271 -0.5772  0.4769 -0.3263
 3216SOL    HW221108   1.700   0.041  13.389 -0.1314 -0.8548 -0.4430
 3217SOL     OW21109   2.253   1.966  12.818 -0.6695  0.0411 -0.3957
 3217SOL    HW121110   2.309   1.899  12.781  0.7217 -0.2136  2.1736
 3217SOL    HW221111   2.307   2.045  12.816 -0.4362 -0.0177  2.9682
 3218SOL     OW21112   0.167   2.737   2.230 -0.1158 -0.8355  0.5362
 3218SOL    HW121113   0.215   2.814   2.261 -0.3733 -1.1223  1.6229
 3218SOL    HW221114   0.090   2.729   2.286 -1.2140 -0.0801 -0.8537
 3219SOL     OW21115   3.849   3.398  13.400  0.4298 -0.3487  0.6022
 3219SOL    HW121116   3.849   3.446  13.482  0.2300  0.4242  0.1489
 3219SOL    HW221117   3.781   3.450  13.357 -2.3693 -2.4874  2.4373
 3220SOL     OW21118   2.444   3.676  10.895 -0.1550 -0.2389 -0.5686
 3220SOL    HW121119   2.528   3.690  10.937 -0.5696  3.8713 -1.1778
 3220SOL    HW221120   2.481   3.683  10.807  0.1970 -2.1058 -0.5813
 3221SOL     OW21121   1.147   0.060   9.269  0.1342  0.0063 -0.3488
 3221SOL    HW121122   1.196   4.705   9.300 -2.4186 -1.9279 -1.1103
 3221SOL    HW221123   1.205   0.107   9.209  0.7856 -0.7972 -0.3550
 3222SOL     OW21124   4.489   4.528   9.763  0.2400 -0.1537  0.3864
 3222SOL    HW121125   4.505   4.601   9.823 -1.7040  1.0648 -0.6001
 3222SOL    HW221126   4.396   4.544   9.753  0.2712 -0.4647 -0.3629
 3223SOL     OW21127   0.647   4.257   3.266 -0.3195  0.3098 -0.0888
 3223SOL    HW121128   0.663   4.335   3.212  1.4380 -0.1375 -0.2151
 3223SOL    HW221129   0.618   4.284   3.353 -0.6722 -0.7585  0.1270
 3224SOL     OW21130   3.621   0.682   4.682  0.2391  0.0274 -0.6051
 3224SOL    HW121131   3.638   0.665   4.590 -1.6089 -1.1216 -0.7272
 3224SOL    HW221132   3.526   0.693   4.687  0.3446  0.3395  0.8881
 3225SOL     OW21133   0.476   1.725   3.988  0.1146  0.1634  0.4215
 3225SOL    HW121134   0.550   1.777   4.019 -2.1361  3.4468  0.2877
 3225SOL    HW221135   0.428   1.790   3.938 -0.8369 -0.8011  0.0859
 3226SOL     OW21136   3.121   3.347  16.066  0.7357 -0.3320  0.1490
 3226SOL    HW121137   3.164   3.402  16.001  3.3178 -2.2393  0.2575
 3226SOL    HW221138   3.031   3.332  16.036  0.5878 -0.2164  0.5330
 3227SOL     OW21139   2.634   2.447  14.167 -0.9699  0.3213  0.4961
 3227SOL    HW121140   2.635   2.387  14.241  1.0779  1.1110  1.1239
 3227SOL    HW221141   2.613   2.525  14.218 -2.7329  0.1246  0.0662
 3228SOL     OW21142   0.290   4.103   9.515 -0.0980  0.1060  0.2289
 3228SOL    HW121143   0.314   4.145   9.598 -0.4810  1.4478 -0.3310
 3228SOL    HW221144   0.195   4.092   9.521  0.0018 -1.7008 -1.7172
 3229SOL     OW21145   0.037   4.685   5.315 -0.3580 -0.0911  0.7810
 3229SOL    HW121146   0.130   4.662   5.308 -0.3135  0.1450  0.5564
 3229SOL    HW221147   0.033   0.059   5.298  2.2281 -0.2638 -0.8986
 3230SOL     OW21148   3.414   2.814   8.845  0.6441 -0.4917  0.2583
 3230SOL    HW121149   3.486   2.826   8.783  0.1212  1.0019 -0.0394
 3230SOL    HW221150   3.406   2.719   8.838  0.6128 -0.5468  1.0409
 3231SOL     OW21151   2.524   1.031   7.187 -0.3386  0.5756  0.2280
 3231SOL    HW121152   2.596   0.969   7.171 -1.4812 -0.6412 -0.1747
 3231SOL    HW221153   2.467   1.018   7.111  2.6038  1.8883 -2.2140
 3232SOL     OW21154   0.199   3.681   2.310 -0.9508  0.3141 -0.3429
 3232SOL    HW121155   0.199   3.590   2.282  2.5483 -0.3205  1.6766
 3232SOL    HW221156   0.162   3.680   2.399  0.6087  0.8792  0.3141
 3233SOL     OW21157   0.324   2.074   2.355  0.8179 -1.2888 -0.4720
 3233SOL    HW121158   0.320   2.146   2.292 -0.6773 -0.7652  0.2201
 3233SOL    HW221159   0.256   2.023   2.310 -0.5202 -0.0204  0.1247
 3234SOL     OW21160   4.009   3.270   9.167 -0.1032  0.1495 -0.2839
 3234SOL    HW121161   3.919   3.286   9.195  0.7476 -0.2452  2.7470
 3234SOL    HW221162   4.011   3.174   9.170 -2.1313  0.0670 -1.6439
 3235SOL     OW21163   0.606   2.825   1.660 -0.4066 -0.1457  0.2125
 3235SOL    HW121164   0.528   2.875   1.686  0.5427  1.5321 -0.1430
 3235SOL    HW221165   0.591   2.820   1.566  2.2956  1.0613 -0.2691
 3236SOL     OW21166   0.665   1.153   6.739  0.2350 -0.2214 -0.4752
 3236SOL    HW121167   0.693   1.151   6.830 -1.3605  3.6062  0.1253
 3236SOL    HW221168   0.744   1.124   6.693  0.7387  1.5578 -0.7430
 3237SOL     OW21169   1.045   1.825  11.158  0.5061 -0.5456  0.2003
 3237SOL    HW121170   0.969   1.865  11.201 -1.2287 -1.0216 -2.3809
 3237SOL    HW221171   1.011   1.796  11.073 -1.4553 -0.8006  1.0809
 3238SOL     OW21172   2.396   3.581   4.753  0.4632 -0.3516 -0.2859
 3238SOL    HW121173   2.364   3.655   4.701 -0.6124  1.0743  2.4442
 3238SOL    HW221174   2.491   3.594   4.752  0.1144  2.5025  2.2643
 3239SOL     OW21175   4.565   3.471   8.433 -0.5107  0.3019 -0.1373
 3239SOL    HW121176   4.564   3.563   8.458 -0.8597 -0.3468  2.1702
 3239SOL    HW221177   4.473   3.472   8.406 -1.1320 -2.6983  1.9384
 3240SOL     OW21178   0.005   1.466   3.989 -0.3862  0.3274 -0.4408
 3240SOL    HW121179   0.062   1.442   3.916  1.8577 -1.3171  1.8557
 3240SOL    HW221180   4.699   1.548   3.949  0.4247  0.4239 -0.7925
 3241SOL     OW21181   1.358   0.936  13.916 -0.0777 -0.0681 -0.6035
 3241SOL    HW121182   1.449   0.965  13.906 -0.2971  1.2953  1.4429
 3241SOL    HW221183   1.363   0.841  13.910  0.0547 -0.1766  1.2519
 3242SOL     OW21184   3.233   0.488   9.484 -0.2516  0.4764  0.0641
 3242SOL    HW121185   3.174   0.563   9.480 -0.2918  0.5131  1.4095
 3242SOL    HW221186   3.247   0.481   9.578  2.1606  2.7681 -0.1199
 3243SOL     OW21187   3.125   2.096   8.301  0.3198  0.1846  0.0279
 3243SOL    HW121188   3.064   2.108   8.373 -0.5955 -0.4795 -0.6191
 3243SOL    HW221189   3.080   2.146   8.233 -0.7459 -0.3132  0.3681
 3244SOL     OW21190   3.203   0.373   7.474  0.5011  0.5811 -0.0671
 3244SOL    HW121191   3.254   0.367   7.393  2.0799 -0.6098  1.0129
 3244SOL    HW221192   3.120   0.327   7.462  1.3621 -0.7822 -0.7421
 3245SOL     OW21193   4.336   4.313  16.557  0.4701 -0.0285 -0.3672
 3245SOL    HW121194   4.326   4.329  16.463  2.0234 -2.2082 -0.9048
 3245SOL    HW221195   4.349   4.219  16.571  0.1135  0.0054  0.1692
 3246SOL     OW21196   1.874   1.788   5.814 -0.2895  0.0428  0.0132
 3246SOL    HW121197   1.855   1.720   5.878 -2.7438 -1.3503 -2.1752
 3246SOL    HW221198   1.842   1.865   5.861  0.5178  0.3107  0.1212
 3247SOL     OW21199   3.530   1.164  12.831  0.1029 -0.6913  0.9892
 3247SOL    HW121200   3.465   1.151  12.762  2.3778 -2.3304 -0.8491
 3247SOL    HW221201   3.484   1.190  12.910 -0.4880  0.6840  0.2003
 3248SOL     OW21202   3.364   2.874   7.633 -0.1590 -0.2192  0.2265
 3248SOL    HW121203   3.309   2.937   7.680 -0.1603 -0.6286  0.7661
 3248SOL    HW221204   3.430   2.848   7.697 -1.4530 -1.0172  1.2347
 3249SOL     OW21205   4.680   2.383   8.898  0.0328  0.2638 -0.3976
 3249SOL    HW121206   4.611   2.383   8.832 -0.4373 -0.0674  0.0931
 3249SOL    HW221207   4.642   2.441   8.964  1.1673 -0.5812  1.0184
 3250SOL     OW21208   1.332   4.491   1.598  0.4034  0.2198  0.2170
 3250SOL    HW121209   1.262   4.494   1.663  1.7091 -0.6879  1.6476
 3250SOL    HW221210   1.329   4.577   1.556 -0.2461  0.1860  0.1877
 3251SOL     OW21211   3.132   1.890   4.792  0.4517 -0.5340  0.0659
 3251SOL    HW121212   3.185   1.966   4.814  0.4221 -1.0099  1.7578
 3251SOL    HW221213   3.171   1.822   4.848 -1.0139 -0.8368  0.6933
 3252SOL     OW21214   4.060   2.607   5.991  0.6224 -0.1124 -0.4782
 3252SOL    HW121215   4.001   2.637   6.060 -1.6873  1.6436 -3.2637
 3252SOL    HW221216   4.145   2.627   6.032  0.2267  1.1610 -0.3087
 3253SOL     OW21217   3.453   0.691  12.080 -0.0536 -0.2246  0.2841
 3253SOL    HW121218   3.499   0.770  12.053 -2.3039  0.9514 -0.1528
 3253SOL    HW221219   3.490   0.634  12.013 -2.5901  0.2350 -1.5102
 3254SOL     OW21220   4.440   0.307  15.494 -0.0099  0.3162 -0.2213
 3254SOL    HW121221   4.420   0.398  15.516 -0.6090  0.6346 -2.0660
 3254SOL    HW221222   4.412   0.250  15.566 -0.4404  0.5632 -0.1946
 3255SOL     OW21223   2.939   1.225   3.706 -0.1086 -0.1559 -0.3638
 3255SOL    HW121224   2.992   1.302   3.724 -0.7290  0.2943 -0.4306
 3255SOL    HW221225   2.930   1.187   3.793 -0.5441  1.1190  0.1567
 3256SOL     OW21226   1.170   1.105   8.690  0.2480 -0.3734  0.3829
 3256SOL    HW121227   1.220   1.040   8.642  2.2903  0.5001  1.3367
 3256SOL    HW221228   1.150   1.163   8.617  0.6805 -2.4401 -1.3452
 3257SOL     OW21229   0.743   1.296   3.614 -0.4726  0.6073  0.1226
 3257SOL    HW121230   0.729   1.204   3.637  1.2436  0.1742 -0.5623
 3257SOL    HW221231   0.805   1.281   3.543 -1.5775  1.7353 -1.0823
 3258SOL     OW21232   0.790   1.826  14.848  0.0536 -0.6007 -0.3080
 3258SOL    HW121233   0.855   1.842  14.780  0.6656 -1.5629  0.0455
 3258SOL    HW221234   0.772   1.733  14.833  2.7534 -1.1138 -0.4655
 3259SOL     OW21235   1.403   4.195   3.271 -0.0342 -0.1960  0.2639
 3259SOL    HW121236   1.428   4.111   3.309  2.5330 -0.0592 -1.1156
 3259SOL    HW221237   1.405   4.183   3.176 -1.0445  2.5427 -0.1146
 3260SOL     OW21238   1.413   2.465   2.689 -0.0610  0.6321 -0.0712
 3260SOL    HW121239   1.349   2.519   2.643  0.9860  1.3817 -0.6441
 3260SOL    HW221240   1.450   2.529   2.750 -1.7497  0.9334  0.6456
 3261SOL     OW21241   2.850   0.437   7.926 -0.2971  0.2159 -0.4953
 3261SOL    HW121242   2.868   0.461   7.835  0.8599 -1.5325 -0.7301
 3261SOL    HW221243   2.754   0.432   7.923 -0.2957 -0.0376 -0.0923
 3262SOL     OW21244   3.855   4.634   3.014 -0.0312  0.3059 -0.5710
 3262SOL    HW121245   3.932   4.691   3.019 -1.1245  1.4789  2.9043
 3262SOL    HW221246   3.799   4.705   3.044 -1.0601 -0.5264 -0.5448
 3263SOL     OW21247   3.886   2.748   0.883 -0.3100  0.3555  0.1186
 3263SOL    HW121248   3.839   2.771   0.963 -0.3304 -0.8038  0.4368
 3263SOL    HW221249   3.955   2.815   0.877  2.3300 -2.2685  1.1511
 3264SOL     OW21250   3.586   0.406   2.729  0.1203 -0.1886  0.1566
 3264SOL    HW121251   3.672   0.419   2.768  0.2460 -1.4345  0.2874
 3264SOL    HW221252   3.557   0.323   2.766  1.9020 -1.5406 -1.4679
 3265SOL     OW21253   4.064   1.158   4.623  0.0299 -0.0751 -1.0808
 3265SOL    HW121254   4.124   1.112   4.564  2.3020  2.3823 -0.6675
 3265SOL    HW221255   3.989   1.099   4.618 -1.1395  1.4633 -1.5523
 3266SOL     OW21256   4.387   1.952   4.995 -0.0815  0.1081 -0.1642
 3266SOL    HW121257   4.295   1.933   5.014 -0.2226 -1.2348 -2.1742
 3266SOL    HW221258   4.421   1.912   5.076 -0.1325 -0.4071 -0.3957
 3267SOL     OW21259   1.191   1.467   5.881  0.0385  0.4080  0.1229
 3267SOL    HW121260   1.126   1.516   5.931  0.7184  0.4188  0.9932
 3267SOL    HW221261   1.254   1.530   5.846  0.2916  0.7983  1.2806
 3268SOL     OW21262   0.138   1.094   5.084 -0.3417 -0.2419  0.5201
 3268SOL    HW121263   0.233   1.093   5.086 -0.3563 -2.5258  0.4928
 3268SOL    HW221264   0.110   1.010   5.047  0.0207  0.7478 -2.0217
 3269SOL     OW21265   0.858   2.664   3.659 -0.0709 -0.7947  0.5982
 3269SOL    HW121266   0.849   2.699   3.570  3.8762 -0.1613  0.4512
 3269SOL    HW221267   0.837   2.572   3.642  0.8459 -0.5845 -1.7453
 3270SOL     OW21268   1.730   4.596   3.303 -0.2910  0.0439 -0.4014
 3270SOL    HW121269   1.696   4.507   3.316  0.5520 -0.0755  1.0326
 3270SOL    HW221270   1.751   4.619   3.393  0.7518  1.8399 -1.1121
 3271SOL     OW21271   4.537   2.178   0.834  0.3162 -0.3519  0.0127
 3271SOL    HW121272   4.584   2.103   0.797 -0.0629 -0.4922 -0.1898
 3271SOL    HW221273   4.554   2.246   0.769 -1.5324 -0.4404 -0.5774
 3272SOL     OW21274   3.819   3.797  10.382 -0.4480  0.0438 -0.1146
 3272SOL    HW121275   3.878   3.728  10.413 -3.0603 -0.9584  2.6241
 3272SOL    HW221276   3.736   3.771  10.421 -0.6147 -1.9380 -1.7979
 3273SOL     OW21277   1.274   2.784  17.485 -0.6618  0.0587  0.0069
 3273SOL    HW121278   1.324   2.861  17.458  1.8823 -0.8524  2.1312
 3273SOL    HW221279   1.196   2.820  17.527 -0.7101  1.8020 -1.5930
 3274SOL     OW21280   1.711   4.290   5.850 -0.8879 -0.4368 -0.0123
 3274SOL    HW121281   1.745   4.380   5.852  1.7618 -1.4147 -1.1646
 3274SOL    HW221282   1.654   4.283   5.927 -0.3720  1.2094  0.5232
 3275SOL     OW21283   0.618   0.922   0.714 -0.2719  0.1267 -0.0062
 3275SOL    HW121284   0.597   1.016   0.710 -4.3966 -0.7157  1.3590
 3275SOL    HW221285   0.530   0.883   0.714 -0.2021 -0.0668  2.5418
 3276SOL     OW21286   1.961   2.705   2.879 -0.4817 -0.1142 -0.4823
 3276SOL    HW121287   1.929   2.618   2.901  1.1388 -0.9911 -1.5616
 3276SOL    HW221288   1.990   2.698   2.788 -2.1824  1.8822 -1.1689
 3277SOL     OW21289   3.788   2.764   3.563  0.5641  0.1743 -0.3038
 3277SOL    HW121290   3.758   2.781   3.652  2.7627 -0.3324  0.5183
 3277SOL    HW221291   3.854   2.832   3.575  1.1067 -0.3542 -0.2706
 3278SOL     OW21292   0.284   3.282  10.677  0.3836  0.6305  0.4423
 3278SOL    HW121293   0.326   3.348  10.731  0.1835  1.0855  0.0439
 3278SOL    HW221294   0.357   3.249  10.624  0.8213  1.8750  0.2870
 3279SOL     OW21295   0.987   4.447   5.885  0.1621  0.0410  0.5273
 3279SOL    HW121296   1.022   4.437   5.796  1.3084  0.5776  0.9090
 3279SOL    HW221297   0.924   4.375   5.889  0.1024  0.1457  1.4577
 3280SOL     OW21298   1.236   3.659   6.591 -0.4809  0.6408 -0.1700
 3280SOL    HW121299   1.258   3.568   6.613  1.2015  0.1031 -3.8945
 3280SOL    HW221300   1.252   3.713   6.668 -2.6680  0.1902  0.5783
 3281SOL     OW21301   1.039   2.578  17.434 -0.3121 -0.5088  0.2009
 3281SOL    HW121302   1.069   2.639  17.367  0.3012 -1.4824 -0.3961
 3281SOL    HW221303   1.009   2.514  17.370  1.8060 -1.4311  0.1241
 3282SOL     OW21304   3.920   4.117  15.035  0.5159 -0.3002 -0.2536
 3282SOL    HW121305   3.972   4.069  14.970 -0.8655 -1.0153 -0.8285
 3282SOL    HW221306   3.917   4.049  15.102  1.0342 -0.3866 -0.3175
 3283SOL     OW21307   0.602   0.785   8.203 -0.1184 -0.1214 -0.1433
 3283SOL    HW121308   0.528   0.842   8.184 -0.3056  0.1162  1.2679
 3283SOL    HW221309   0.589   0.746   8.290  0.0174 -0.0891 -0.1074
 3284SOL     OW21310   1.608   3.388   1.329  0.5501  0.3295 -0.2883
 3284SOL    HW121311   1.593   3.425   1.416 -0.0648 -0.8322  0.1008
 3284SOL    HW221312   1.693   3.431   1.319  0.4088  0.8345  0.6412
 3285SOL     OW21313   3.122   0.296   4.610  0.1278 -0.6004  0.0772
 3285SOL    HW121314   3.199   0.347   4.586  0.2414 -0.6222  0.3931
 3285SOL    HW221315   3.080   0.280   4.525 -0.8368  1.3138  0.1944
 3286SOL     OW21316   0.223   3.607  11.804  0.4617 -0.5254  0.0580
 3286SOL    HW121317   0.231   3.592  11.898  0.9536 -0.2147  0.0661
 3286SOL    HW221318   0.234   3.702  11.793 -0.3984 -0.5363 -0.8987
 3287SOL     OW21319   0.966   2.286   5.962 -0.0309  0.0759  0.4773
 3287SOL    HW121320   0.988   2.328   5.879  1.8034 -0.7157  0.5651
 3287SOL    HW221321   0.886   2.239   5.943  0.3039 -1.1847  2.1999
 3288SOL     OW21322   1.240   1.401  14.596  0.7817  0.3263  0.6730
 3288SOL    HW121323   1.164   1.344  14.581  1.3468 -0.4209  0.6671
 3288SOL    HW221324   1.292   1.358  14.528 -1.0195  0.0066 -0.5147
 3289SOL     OW21325   4.287   1.860  12.674 -0.2353  0.4167  0.0778
 3289SOL    HW121326   4.343   1.810  12.735 -1.6042  0.3722  1.2910
 3289SOL    HW221327   4.209   1.882  12.725 -0.2809  2.1097 -0.7500
 3290SOL     OW21328   4.249   4.682  13.204 -0.0465  0.0040 -0.0729
 3290SOL    HW121329   4.163   4.679  13.162 -0.2813  0.9391  0.3458
 3290SOL    HW221330   4.224   4.618  13.271 -1.7676 -0.7612 -1.4300
 3291SOL     OW21331   2.830   3.533   9.437 -0.5668  0.0532 -0.1871
 3291SOL    HW121332   2.752   3.577   9.470 -0.0207  1.0021 -0.1632
 3291SOL    HW221333   2.886   3.609   9.423  1.5412 -1.8381 -2.0028
 3292SOL     OW21334   1.483   2.999   3.054 -0.0440 -0.1419  0.0632
 3292SOL    HW121335   1.529   3.083   3.062  0.9155 -0.4167 -2.5174
 3292SOL    HW221336   1.486   2.985   2.959  1.5536  2.2731 -0.2466
 3293SOL     OW21337   4.327   2.522   7.031  0.3858 -0.1064 -0.1298
 3293SOL    HW121338   4.245   2.475   7.044  0.1986  1.0083  2.7087
 3293SOL    HW221339   4.380   2.472   7.094 -1.4225 -2.0868 -0.1671
 3294SOL     OW21340   1.165   0.211   8.576  1.0246 -0.4907  0.7058
 3294SOL    HW121341   1.155   0.206   8.481 -0.1854 -1.4342  0.8854
 3294SOL    HW221342   1.073   0.231   8.591  1.5558  1.2211  1.5968
 3295SOL     OW21343   0.225   4.602   3.558  0.4901  0.3189  0.0273
 3295SOL    HW121344   0.233   4.682   3.610  0.7625 -0.4381  1.1434
 3295SOL    HW221345   0.131   4.608   3.543  0.4268  0.1052  0.3578
 3296SOL     OW21346   1.540   1.021   7.874 -0.3919 -0.4942 -0.9245
 3296SOL    HW121347   1.515   1.008   7.965  0.4718  0.6659 -0.5079
 3296SOL    HW221348   1.491   1.101   7.855 -0.2027  0.5159  2.7366
 3297SOL     OW21349   2.485   3.138   2.060 -0.2140  0.2879  0.3700
 3297SOL    HW121350   2.485   3.163   2.152 -1.1549 -0.5986  0.6137
 3297SOL    HW221351   2.400   3.174   2.033 -1.0954 -1.8211  0.3325
 3298SOL     OW21352   4.104   1.471   2.565 -0.3620 -0.4424 -0.0288
 3298SOL    HW121353   4.044   1.545   2.553  2.0793  0.9969 -3.5353
 3298SOL    HW221354   4.055   1.435   2.639 -0.7351 -0.8853 -0.4850
 3299SOL     OW21355   1.017   2.909   1.141  0.3852  0.3177 -0.1660
 3299SOL    HW121356   1.041   2.881   1.229 -1.3259 -0.0146  0.1838
 3299SOL    HW221357   1.096   2.901   1.087  0.2468 -1.4258 -0.1234
 3300SOL     OW21358   0.009   1.977   0.776 -0.2058  0.0366 -0.1725
 3300SOL    HW121359   0.018   1.900   0.833  1.6295  0.2924 -0.1236
 3300SOL    HW221360   0.100   1.989   0.749  0.0866  1.2755  1.4046
 3301SOL     OW21361   2.769   0.858   3.448 -0.0439  0.1512 -0.2448
 3301SOL    HW121362   2.791   0.810   3.369 -0.6778  1.9100 -1.4856
 3301SOL    HW221363   2.758   0.947   3.414  0.0897 -0.0895 -0.9195
 3302SOL     OW21364   0.086   4.375   1.814  0.0861 -0.3248 -0.0860
 3302SOL    HW121365   0.045   4.451   1.856  0.6604  0.5729 -1.1393
 3302SOL    HW221366   0.146   4.413   1.750  0.1041  0.6536  0.5038
 3303SOL     OW21367   1.222   1.461   6.315 -0.0497 -0.1033  0.4419
 3303SOL    HW121368   1.230   1.370   6.343  0.9332  0.1138  0.8699
 3303SOL    HW221369   1.128   1.477   6.326  0.1786  1.0407  0.7615
 3304SOL     OW21370   0.664   4.582   2.328 -0.0986  0.1386  0.3923
 3304SOL    HW121371   0.600   4.653   2.323  1.2574  1.2359 -1.1546
 3304SOL    HW221372   0.685   4.582   2.422  0.3817 -1.4391  0.2870
 3305SOL     OW21373   2.810   3.337  13.799 -0.7135  0.2942 -0.6212
 3305SOL    HW121374   2.800   3.291  13.716  1.8362 -0.2386 -0.6361
 3305SOL    HW221375   2.802   3.259  13.854  0.1879  0.8448  0.2941
 3306SOL     OW21376   2.320   1.207   5.473 -0.5253 -0.3550 -0.0393
 3306SOL    HW121377   2.264   1.177   5.544  0.2261 -2.4148 -0.3032
 3306SOL    HW221378   2.404   1.172   5.503 -0.7549 -2.2415 -1.5995
 3307SOL     OW21379   3.622   2.837   2.614 -0.8937 -0.2085 -0.0116
 3307SOL    HW121380   3.562   2.871   2.548  0.9641  2.0368 -0.5391
 3307SOL    HW221381   3.560   2.812   2.683  0.8910  0.3746  1.8083
 3308SOL     OW21382   1.107   1.419   1.745  0.3980 -0.4719 -0.5516
 3308SOL    HW121383   1.060   1.465   1.815 -0.3242 -0.1125 -1.2816
 3308SOL    HW221384   1.104   1.479   1.671  2.5993  0.9860  0.5434
 3309SOL     OW21385   0.592   1.969   3.867  0.5112 -0.3773 -0.7501
 3309SOL    HW121386   0.660   1.943   3.805  0.7859 -1.6887  0.0843
 3309SOL    HW221387   0.605   2.063   3.865 -0.7960 -0.1083  2.3145
 3310SOL     OW21388   2.750   1.511   0.094 -0.2156  0.2533 -0.3014
 3310SOL    HW121389   2.731   1.603   0.110  0.7364  0.6671 -1.5524
 3310SOL    HW221390   2.705   1.466   0.165  2.2536 -0.4895  0.8046
 3311SOL     OW21391   1.507   2.879  15.215 -0.5446 -0.3205  0.1725
 3311SOL    HW121392   1.412   2.870  15.206 -0.7236  1.3378  0.2492
 3311SOL    HW221393   1.513   2.917  15.303  0.8540  0.6200 -0.3390
 3312SOL     OW21394   2.373   1.735   7.087 -0.0585  0.4977  0.2032
 3312SOL    HW121395   2.350   1.816   7.132 -0.4869  1.3025 -1.4789
 3312SOL    HW221396   2.469   1.742   7.092 -0.0408  0.4437 -0.1049
 3313SOL     OW21397   4.541   2.598   8.582 -0.3989  0.4088  0.4606
 3313SOL    HW121398   4.556   2.657   8.656  0.7897  0.4023  0.2193
 3313SOL    HW221399   4.461   2.554   8.612  0.6912 -0.7637  1.6738
 3314SOL     OW21400   3.463   1.950   1.643  0.3500  0.2597  0.4500
 3314SOL    HW121401   3.485   2.033   1.601  1.9638 -0.3369  0.0923
 3314SOL    HW221402   3.413   1.975   1.720  0.9774  1.6430  0.4145
 3315SOL     OW21403   4.095   4.130   7.790 -0.1515  0.0736 -0.3108
 3315SOL    HW121404   4.015   4.181   7.773  0.3730  1.0504  0.1352
 3315SOL    HW221405   4.165   4.190   7.765  0.5431 -0.4845  0.3210
 3316SOL     OW21406   3.368   3.610   6.876 -0.5764 -0.1598  0.4020
 3316SOL    HW121407   3.324   3.558   6.944  0.2278  0.1461  1.1547
 3316SOL    HW221408   3.403   3.680   6.930 -0.5005  1.1772 -1.3773
 3317SOL     OW21409   3.876   3.633   7.702 -0.0034 -0.7024 -0.1702
 3317SOL    HW121410   3.919   3.646   7.787 -0.7329  0.0662  0.0923
 3317SOL    HW221411   3.829   3.555   7.730 -0.9661  0.2194  0.8131
 3318SOL     OW21412   0.116   2.254   6.675  0.3883 -0.6395  0.1700
 3318SOL    HW121413   0.198   2.210   6.698  0.4137 -1.9067 -2.3134
 3318SOL    HW221414   0.090   2.301   6.754  0.9946 -0.3357  0.1908
 3319SOL     OW21415   2.573   4.228   6.779  0.1186  0.3179  0.7935
 3319SOL    HW121416   2.665   4.252   6.769 -1.0305  3.3040 -2.7763
 3319SOL    HW221417   2.542   4.237   6.689 -2.7411  1.0562  1.8608
 3320SOL     OW21418   3.686   4.078   8.560  0.4327 -0.2282  0.1480
 3320SOL    HW121419   3.592   4.084   8.579  0.7126  1.4263  1.0359
 3320SOL    HW221420   3.723   4.144   8.619  0.0391 -1.2157  1.4909
 3321SOL     OW21421   2.070   1.740  11.857 -0.1453  0.0281 -0.2244
 3321SOL    HW121422   2.083   1.740  11.952  3.1831 -3.1604 -0.6599
 3321SOL    HW221423   1.980   1.712  11.842 -0.3190 -0.3247  1.4410
 3322SOL     OW21424   2.751   3.843   7.199 -0.1291  0.5777  0.1614
 3322SOL    HW121425   2.678   3.885   7.153  1.6128  1.9041 -1.3865
 3322SOL    HW221426   2.831   3.877   7.160  0.9514 -1.2860  0.7741
 3323SOL     OW21427   2.978   4.223   3.735 -0.0192 -0.3125  0.2080
 3323SOL    HW121428   2.953   4.315   3.734  3.1542  0.5404 -1.2769
 3323SOL    HW221429   2.896   4.178   3.756  0.5135 -0.3024  2.2164
 3324SOL     OW21430   3.758   2.907   7.986  0.3534  0.2411 -0.1251
 3324SOL    HW121431   3.721   2.966   8.052 -0.7489  0.8201 -1.2802
 3324SOL    HW221432   3.715   2.828   8.017  1.1191  0.8603  2.5787
 3325SOL     OW21433   1.645   0.489  12.506  0.0771 -0.2056  0.5383
 3325SOL    HW121434   1.646   0.538  12.588 -1.3987  1.7573 -0.6081
 3325SOL    HW221435   1.682   0.411  12.547 -2.0932 -0.9036  1.1547
 3326SOL     OW21436   4.427   0.996   9.390 -0.4034 -0.1409 -0.7715
 3326SOL    HW121437   4.434   0.907   9.356 -0.2465 -0.4395  0.0200
 3326SOL    HW221438   4.399   1.031   9.306 -2.5052  0.4968  0.2044
 3327SOL     OW21439   3.855   0.645  13.475  0.2396 -0.8265  0.2416
 3327SOL    HW121440   3.844   0.596  13.393  0.0834 -0.0204 -0.2194
 3327SOL    HW221441   3.867   0.572  13.536 -2.4608 -0.5885  1.0391
 3328SOL     OW21442   3.579   3.207  16.249 -0.4601  0.2902 -0.4502
 3328SOL    HW121443   3.488   3.184  16.272  0.0553  0.9715  2.3196
 3328SOL    HW221444   3.593   3.272  16.317  0.6453 -1.2142  0.7559
 3329SOL     OW21445   0.719   0.338   0.880  0.6123  0.1773  0.5181
 3329SOL    HW121446   0.798   0.328   0.828  0.6168  0.5486  0.4489
 3329SOL    HW221447   0.707   0.432   0.863  0.2071 -0.2425 -1.5126
 3330SOL     OW21448   3.265   3.365   9.406  0.2156 -0.0518 -0.0310
 3330SOL    HW121449   3.246   3.425   9.478 -0.1329  0.6459 -0.6992
 3330SOL    HW221450   3.343   3.399   9.362  0.0689  0.6189  0.2306
 3331SOL     OW21451   0.813   0.350   2.945  0.7088 -0.1082 -0.0642
 3331SOL    HW121452   0.839   0.276   2.999 -1.8730 -2.7052 -2.4180
 3331SOL    HW221453   0.899   0.392   2.943  1.5132 -1.9144 -2.7317
 3332SOL     OW21454   3.703   3.501  10.329 -0.1700  0.2812  0.1500
 3332SOL    HW121455   3.786   3.505  10.375  0.0139 -2.6296  0.0157
 3332SOL    HW221456   3.645   3.564  10.373  0.9956  2.1052 -0.8999
 3333SOL     OW21457   2.052   2.836   3.576  0.6818 -0.9712  0.2785
 3333SOL    HW121458   2.145   2.816   3.583  1.1413  0.3598 -1.7772
 3333SOL    HW221459   2.063   2.913   3.520 -0.3804 -0.1498  1.2126
 3334SOL     OW21460   2.849   2.382   3.380 -0.4094 -0.4935  0.5452
 3334SOL    HW121461   2.937   2.408   3.407 -0.7700  0.1838  1.0617
 3334SOL    HW221462   2.789   2.428   3.438 -1.9220 -1.5863 -0.1368
 3335SOL     OW21463   2.991   1.730   4.001 -0.1491 -0.3078  0.2906
 3335SOL    HW121464   3.031   1.714   3.915  0.4075 -0.7686  0.6378
 3335SOL    HW221465   2.899   1.738   3.977 -0.0907 -1.5346 -0.3320
 3336SOL     OW21466   2.570   4.428   9.445  0.1564  0.0365  0.5198
 3336SOL    HW121467   2.645   4.480   9.474  1.0638 -0.2318 -1.3368
 3336SOL    HW221468   2.602   4.339   9.432  0.0646  0.1473 -0.4564
 3337SOL     OW21469   2.320   2.091  12.040 -0.2811 -0.2476 -0.0623
 3337SOL    HW121470   2.260   2.124  11.972 -1.9670 -0.7874  1.1567
 3337SOL    HW221471   2.345   2.008  12.000 -3.7107 -1.5548  0.5137
 3338SOL     OW21472   1.695   0.404   5.138 -0.0083  0.1185  0.6351
 3338SOL    HW121473   1.718   0.446   5.221  0.4197 -0.0754  0.6112
 3338SOL    HW221474   1.701   0.312   5.162 -0.4324  0.6648  2.8614
 3339SOL     OW21475   3.308   1.472   3.934 -0.1858  0.3858  0.5369
 3339SOL    HW121476   3.372   1.458   4.003 -1.0451 -0.6969  1.1254
 3339SOL    HW221477   3.354   1.539   3.885 -0.4667  1.3951  1.6545
 3340SOL     OW21478   4.002   2.371   5.248 -0.3157 -0.3301 -0.0450
 3340SOL    HW121479   4.066   2.408   5.309  0.2635  0.4997 -1.1497
 3340SOL    HW221480   4.047   2.376   5.164 -1.2325  2.6316 -0.3578
 3341SOL     OW21481   3.770   0.767   0.317 -0.1505 -0.1442  0.2723
 3341SOL    HW121482   3.831   0.708   0.273 -0.3364  0.1088 -0.3392
 3341SOL    HW221483   3.694   0.708   0.315 -1.1761  1.2549 -2.5862
 3342SOL     OW21484   2.089   0.957  13.869 -0.0379 -0.1696 -0.2622
 3342SOL    HW121485   2.003   0.931  13.900 -0.5899  2.4150  0.3233
 3342SOL    HW221486   2.103   0.891  13.800  1.1341 -0.8542  0.6218
 3343SOL     OW21487   4.249   2.234   5.712 -0.1165  0.1240  0.6206
 3343SOL    HW121488   4.310   2.213   5.784 -1.4396 -0.4046  1.5804
 3343SOL    HW221489   4.309   2.248   5.638 -0.4942 -0.7271  0.1572
 3344SOL     OW21490   3.547   4.616  12.818 -0.6226  0.6317  0.0873
 3344SOL    HW121491   3.569   4.699  12.861 -1.0740  0.9026 -0.2059
 3344SOL    HW221492   3.628   4.600  12.770 -0.5716 -0.4818  0.5525
 3345SOL     OW21493   1.452   4.157   5.081  0.1348 -0.0120 -0.2012
 3345SOL    HW121494   1.534   4.180   5.124 -0.3520 -1.1222  1.2850
 3345SOL    HW221495   1.490   4.150   4.993  0.4952  2.8513 -0.2936
 3346SOL     OW21496   3.934   3.700  16.537 -0.8499  0.3464  0.0560
 3346SOL    HW121497   3.981   3.726  16.458  0.6230 -1.9894  0.1674
 3346SOL    HW221498   3.847   3.736  16.525 -1.0050 -0.4216 -1.0275
 3347SOL     OW21499   3.988   2.927   7.693  0.0039  0.0062 -0.2706
 3347SOL    HW121500   3.919   2.887   7.640 -1.1373  0.6962  0.6986
 3347SOL    HW221501   3.939   2.944   7.773 -2.2222 -1.6956 -1.2533
 3348SOL     OW21502   0.523   4.045   7.555 -0.3611  0.0296  0.1496
 3348SOL    HW121503   0.527   4.052   7.650  2.1984 -1.7914  0.1745
 3348SOL    HW221504   0.489   4.132   7.535 -0.5118  0.0217  0.3749
 3349SOL     OW21505   4.314   0.566  15.523 -0.4446 -0.3839 -0.1133
 3349SOL    HW121506   4.221   0.580  15.505 -0.4221  0.6992  0.5872
 3349SOL    HW221507   4.345   0.648  15.562  0.7906 -1.1339  0.4989
 3350SOL     OW21508   0.353   1.682  10.579 -0.5536 -0.2769 -0.1339
 3350SOL    HW121509   0.445   1.705  10.566 -0.0875 -0.7168  2.3242
 3350SOL    HW221510   0.319   1.772  10.581 -0.9184 -0.4063 -0.5695
 3351SOL     OW21511   0.729   3.961   8.867  0.1202  0.2251  0.3775
 3351SOL    HW121512   0.726   3.978   8.961 -1.2087 -0.1263  0.3935
 3351SOL    HW221513   0.643   3.994   8.843  0.9699  0.5855 -2.2377
 3352SOL     OW21514   4.611   4.511  11.134 -0.0601  0.3263 -0.1082
 3352SOL    HW121515   4.592   4.427  11.093 -0.7241  0.8335 -0.8625
 3352SOL    HW221516   4.522   4.537  11.158 -0.6226 -2.3346  0.6878
 3353SOL     OW21517   0.627   3.053  10.124  0.5169  0.0631  0.2883
 3353SOL    HW121518   0.559   3.105  10.082 -1.1623 -2.7597 -0.4917
 3353SOL    HW221519   0.616   2.964  10.092 -1.5780 -0.4169  2.3275
 3354SOL     OW21520   3.733   3.197   2.937 -0.1762  0.3886 -0.1582
 3354SOL    HW121521   3.788   3.274   2.923  0.4808 -0.0258  0.1495
 3354SOL    HW221522   3.729   3.156   2.850 -1.5388  1.4377 -0.5930
 3355SOL     OW21523   2.132   2.257   3.624 -0.5377 -0.5659 -0.8154
 3355SOL    HW121524   2.140   2.342   3.666  0.1002 -0.9785 -0.1115
 3355SOL    HW221525   2.222   2.228   3.636 -0.7806  0.0906  2.7760
 3356SOL     OW21526   2.158   2.975  14.791 -0.4052  0.3940 -0.3978
 3356SOL    HW121527   2.191   2.966  14.702 -1.4075  0.3782 -0.7675
 3356SOL    HW221528   2.174   2.886  14.823  2.7718  0.9845 -0.2879
 3357SOL     OW21529   3.084   0.581   7.840  0.5266 -0.0796  0.3769
 3357SOL    HW121530   3.177   0.580   7.862  1.0535  1.0996 -1.8130
 3357SOL    HW221531   3.038   0.541   7.915  3.1020 -1.3902  1.2832
 3358SOL     OW21532   3.021   1.674   3.733  0.2497 -0.2236  0.2467
 3358SOL    HW121533   2.949   1.713   3.685  1.7098  2.4190  0.2373
 3358SOL    HW221534   3.096   1.696   3.678  2.1901 -1.0073  2.5647
 3359SOL     OW21535   2.052   4.022  12.674  0.2081  0.8568  0.1271
 3359SOL    HW121536   2.089   3.934  12.664  1.6293  1.5642 -0.9662
 3359SOL    HW221537   2.077   4.068  12.593  2.7654 -0.2734  0.2604
 3360SOL     OW21538   4.087   0.773   4.599  0.3924  0.1599  0.5487
 3360SOL    HW121539   4.051   0.686   4.617 -0.7699  0.9340  2.0205
 3360SOL    HW221540   4.022   0.824   4.648  0.4913  1.8290 -1.0878
 3361SOL     OW21541   3.056   3.935   4.047  0.6468 -0.1422  0.4329
 3361SOL    HW121542   3.029   3.928   4.138 -1.5578  0.7163 -0.1502
 3361SOL    HW221543   3.128   3.997   4.038  0.7528 -0.6461 -2.4155
 3362SOL     OW21544   3.911   3.020  16.810  0.6014  0.4487 -0.0977
 3362SOL    HW121545   3.938   2.939  16.768  0.0644  0.1167  0.1979
 3362SOL    HW221546   3.826   3.038  16.769 -1.3761  0.7274  4.0538
 3363SOL     OW21547   3.380   0.937   3.403  0.3823  0.1484 -0.3375
 3363SOL    HW121548   3.293   0.920   3.366  0.8138  0.8487 -1.6528
 3363SOL    HW221549   3.343   0.955   3.489 -1.5314 -0.0510 -1.1097
 3364SOL     OW21550   4.105   0.138   3.305  0.0425  0.8366 -0.5295
 3364SOL    HW121551   4.023   0.167   3.345 -0.3542  0.3713 -1.0057
 3364SOL    HW221552   4.140   0.069   3.362 -2.7599 -1.5558 -1.7201
 3365SOL     OW21553   1.528   2.610  13.823 -0.4034  0.3469  0.5909
 3365SOL    HW121554   1.501   2.697  13.850 -0.2196  1.1489 -1.7950
 3365SOL    HW221555   1.545   2.628  13.730  0.8225  1.1642  0.9688
 3366SOL     OW21556   1.302   1.170  11.448 -0.2566 -0.0206  0.4032
 3366SOL    HW121557   1.239   1.225  11.401  1.9196  1.8005 -0.3508
 3366SOL    HW221558   1.312   1.220  11.529 -0.2602 -1.2383  1.1583
 3367SOL     OW21559   1.194   2.552  16.719 -0.2219  0.5646  0.1070
 3367SOL    HW121560   1.167   2.465  16.689 -1.5339  0.9760  0.0712
 3367SOL    HW221561   1.144   2.560  16.800  0.7958 -0.6428  0.8368
 3368SOL     OW21562   3.639   4.694   6.192 -0.0236  1.0590  0.0661
 3368SOL    HW121563   3.697   4.719   6.264  1.4359 -0.8954 -0.4168
 3368SOL    HW221564   3.665   4.603   6.178 -1.2688  1.1485 -2.7747
 3369SOL     OW21565   1.880   3.561   8.446 -0.0397  0.0351  0.3547
 3369SOL    HW121566   1.818   3.507   8.396  1.2135 -1.1047  0.0387
 3369SOL    HW221567   1.941   3.611   8.392  0.9175  2.2027  3.4544
 3370SOL     OW21568   0.613   4.567   5.252  0.3731  0.4012  0.3777
 3370SOL    HW121569   0.660   4.631   5.306  0.0978  0.3462  0.6847
 3370SOL    HW221570   0.638   4.484   5.293 -2.2619  0.7948  2.7664
 3371SOL     OW21571   0.425   1.348   7.016 -0.0593 -0.6691  0.0943
 3371SOL    HW121572   0.344   1.371   7.060  1.2917  2.7841  0.8307
 3371SOL    HW221573   0.465   1.277   7.065 -0.0715 -1.3865 -0.9508
 3372SOL     OW21574   1.100   4.018   4.879  0.0165 -0.2243 -0.1034
 3372SOL    HW121575   1.131   4.042   4.967 -0.3807  1.4360 -0.4343
 3372SOL    HW221576   1.006   4.030   4.893 -0.4700 -0.5927 -3.0562
 3373SOL     OW21577   0.444   1.709  17.448  0.5257  0.3873 -0.1538
 3373SOL    HW121578   0.405   1.788  17.486 -1.4059 -1.5337  1.8543
 3373SOL    HW221579   0.530   1.714  17.491  0.6247  3.6056 -0.7108
 3374SOL     OW21580   0.136   0.540   6.560  0.5944 -0.2343 -0.4301
 3374SOL    HW121581   0.185   0.551   6.479  2.6339 -2.2543  0.5577
 3374SOL    HW221582   0.179   0.469   6.607 -1.2112 -1.6195 -0.8576
 3375SOL     OW21583   0.007   1.225   6.267 -0.1316  0.5251  0.0314
 3375SOL    HW121584   4.720   1.321   6.272  0.6549  0.6081 -0.2948
 3375SOL    HW221585   0.074   1.213   6.334  1.0075  0.1390 -1.1650
 3376SOL     OW21586   1.120   1.271   7.493  0.5393  0.3186  0.3447
 3376SOL    HW121587   1.184   1.237   7.430 -1.2310  0.8080 -1.7211
 3376SOL    HW221588   1.122   1.362   7.463  1.9016  0.1162 -0.1878
 3377SOL     OW21589   2.548   2.604   1.656 -0.1727 -0.0584 -0.2966
 3377SOL    HW121590   2.616   2.669   1.636 -0.7045 -0.2688 -2.7551
 3377SOL    HW221591   2.595   2.523   1.636 -0.2933 -0.3796  0.7178
 3378SOL     OW21592   4.432   0.709   2.359 -0.1022 -0.0590 -1.1733
 3378SOL    HW121593   4.392   0.756   2.432  1.0101 -0.2651 -0.4365
 3378SOL    HW221594   4.466   0.789   2.320 -0.5455 -0.4092 -2.2679
 3379SOL     OW21595   0.177   1.222  16.452 -0.4386  0.2663 -0.6713
 3379SOL    HW121596   0.096   1.173  16.467 -1.4044  1.9503 -0.3536
 3379SOL    HW221597   0.165   1.280  16.377 -3.1117  0.2141 -0.2999
 3380SOL     OW21598   2.235   0.714   8.370 -0.1303 -0.1970  0.2663
 3380SOL    HW121599   2.279   0.773   8.309 -0.9254 -0.4920 -0.5931
 3380SOL    HW221600   2.315   0.681   8.411  1.2095 -0.0515 -2.2373
 3381SOL     OW21601   1.095   4.516   4.344  0.1961  0.3585  0.5272
 3381SOL    HW121602   1.031   4.488   4.410  0.8937 -0.5992  0.7946
 3381SOL    HW221603   1.132   4.436   4.305 -1.4049  0.0714 -0.4066
 3382SOL     OW21604   0.195   0.009   8.170  0.3374 -0.0883 -0.1203
 3382SOL    HW121605   0.194   0.104   8.180 -0.3310 -0.1144  0.0294
 3382SOL    HW221606   0.178   0.005   8.075  1.3614  0.1855 -0.3206
 3383SOL     OW21607   2.524   1.478  13.948 -0.4698  0.7741 -0.3760
 3383SOL    HW121608   2.609   1.520  13.961 -0.3500  0.2888  0.4362
 3383SOL    HW221609   2.512   1.430  14.030 -2.6948  0.6343 -0.7806
 3384SOL     OW21610   1.706   0.867   6.633  0.0925  1.0957  0.2663
 3384SOL    HW121611   1.737   0.850   6.722 -0.9168  0.4278  0.4897
 3384SOL    HW221612   1.703   0.775   6.610 -1.1952  0.7053  1.9506
 3385SOL     OW21613   0.416   2.518   8.453 -0.1167  0.0109 -0.3095
 3385SOL    HW121614   0.336   2.564   8.482  0.8921  2.7331 -1.8291
 3385SOL    HW221615   0.383   2.429   8.446  1.3415 -0.4600 -1.1932
 3386SOL     OW21616   0.886   3.908   2.527  0.2742 -0.2486 -0.5847
 3386SOL    HW121617   0.975   3.941   2.516 -0.1498  0.7108 -1.0917
 3386SOL    HW221618   0.864   3.914   2.434 -2.6381  1.9726  0.2305
 3387SOL     OW21619   2.989   0.811   9.345  0.4095  0.1684  0.4471
 3387SOL    HW121620   2.961   0.759   9.270  0.0171  0.6483  0.2591
 3387SOL    HW221621   2.936   0.777   9.417  0.3638  0.4769  0.5593
 3388SOL     OW21622   1.240   2.991   9.627  0.5666 -0.2514 -0.0580
 3388SOL    HW121623   1.187   3.018   9.702  1.1606 -1.8786  0.9478
 3388SOL    HW221624   1.307   2.933   9.664 -0.6860  0.2495  2.9926
 3389SOL     OW21625   0.697   1.790   9.525  0.1444 -0.3415 -0.3505
 3389SOL    HW121626   0.766   1.839   9.481  0.3580 -0.7831 -0.4993
 3389SOL    HW221627   0.667   1.716   9.471 -0.0171 -0.7207  0.2614
 3390SOL     OW21628   0.308   2.081   8.735  0.3399  0.5288  0.0412
 3390SOL    HW121629   0.253   2.027   8.679 -2.4247  2.8544  0.5149
 3390SOL    HW221630   0.298   2.042   8.822  0.7074 -0.7995 -0.5159
 3391SOL     OW21631   1.964   0.316   5.344 -0.4257 -0.4969  0.5638
 3391SOL    HW121632   2.036   0.274   5.392 -0.5125 -1.9302 -0.5821
 3391SOL    HW221633   2.011   0.337   5.263 -0.7679 -0.0946  0.4683
 3392SOL     OW21634   3.721   3.301   4.857 -0.1554  0.8291  0.1347
 3392SOL    HW121635   3.666   3.317   4.780  2.1759 -0.4819 -1.8108
 3392SOL    HW221636   3.754   3.214   4.837  0.9870  0.6273  2.9517
 3393SOL     OW21637   1.553   3.283   3.058 -0.1749  0.8661  0.0387
 3393SOL    HW121638   1.541   3.376   3.075  0.1343  0.6437  1.4772
 3393SOL    HW221639   1.497   3.258   2.984  0.2548 -0.9221  0.3075
 3394SOL     OW21640   4.100   4.421   8.135  0.4232  0.4723 -0.2060
 3394SOL    HW121641   4.136   4.377   8.213 -1.8906  0.1772  0.6976
 3394SOL    HW221642   4.111   4.513   8.157 -0.7999  0.4527  0.4753
 3395SOL     OW21643   3.227   3.021   7.838  0.3298  0.0101 -0.4176
 3395SOL    HW121644   3.248   3.114   7.833  0.3418  0.0859  1.0447
 3395SOL    HW221645   3.279   2.996   7.914  0.8160 -1.2761 -1.1707
 3396SOL     OW21646   4.438   1.403  17.327  0.5912  0.2602  0.1917
 3396SOL    HW121647   4.533   1.389  17.319  0.5492 -0.3884  0.7925
 3396SOL    HW221648   4.424   1.453  17.408  0.6400  1.2048 -0.3912
 3397SOL     OW21649   3.554   3.700  10.449 -0.0924  0.2877  0.1530
 3397SOL    HW121650   3.483   3.685  10.387  1.3497  0.9843 -1.6777
 3397SOL    HW221651   3.511   3.762  10.507 -0.7464  0.3464 -0.3960
 3398SOL     OW21652   0.881   0.457   6.664  0.0100  0.1576 -0.3964
 3398SOL    HW121653   0.794   0.457   6.704  0.3079 -1.9495  0.2565
 3398SOL    HW221654   0.892   0.376   6.614 -1.8721  2.3164 -4.3174
 3399SOL     OW21655   3.781   0.596   7.941  0.4211 -0.1447 -0.4581
 3399SOL    HW121656   3.687   0.587   7.926  0.2412  0.2052  0.4623
 3399SOL    HW221657   3.790   0.630   8.030  2.3767 -1.9263  0.0265
 3400SOL     OW21658   1.171   0.160   4.303 -0.1200 -0.0355  0.1618
 3400SOL    HW121659   1.149   0.112   4.382  0.1938  0.6879  0.6904
 3400SOL    HW221660   1.254   0.121   4.276  0.4983  1.4377 -0.0764
 3401SOL     OW21661   0.184   1.713   6.814 -0.1980  0.2071  0.2159
 3401SOL    HW121662   0.145   1.800   6.822 -0.0229  0.3650 -0.6289
 3401SOL    HW221663   0.268   1.749   6.784 -0.2037 -0.7081 -0.8761
 3402SOL     OW21664   2.948   4.495   5.099  0.2745  0.0263 -0.2899
 3402SOL    HW121665   3.033   4.460   5.127 -0.6067 -1.3991  0.5992
 3402SOL    HW221666   2.974   4.581   5.066 -0.8631 -1.0880 -4.0732
 3403SOL     OW21667   4.501   0.743  14.522 -0.4229 -0.2544  0.6051
 3403SOL    HW121668   4.553   0.756  14.443  0.9635  0.2827  1.6146
 3403SOL    HW221669   4.420   0.784  14.492  1.5504  1.1436 -2.6558
 3404SOL     OW21670   1.625   3.130   4.631 -0.8184  0.3726 -0.8838
 3404SOL    HW121671   1.594   3.221   4.628  1.5598  1.2086  0.2618
 3404SOL    HW221672   1.539   3.088   4.629  0.0750 -1.4603 -0.8590
 3405SOL     OW21673   2.246   3.566   6.403 -0.1751  0.5370 -0.1846
 3405SOL    HW121674   2.201   3.531   6.327  0.0286  1.2101 -0.6172
 3405SOL    HW221675   2.192   3.541   6.478 -0.9943 -0.3394 -1.0743
 3406SOL     OW21676   4.106   3.661   2.778  0.6608 -0.2931  0.7317
 3406SOL    HW121677   4.200   3.678   2.785  0.4455  0.8711  0.8132
 3406SOL    HW221678   4.075   3.647   2.868  1.4868 -0.8829  0.9208
 3407SOL     OW21679   2.225   2.876  13.414  0.6129 -0.3566 -0.1287
 3407SOL    HW121680   2.136   2.845  13.396  0.2975 -1.6782  3.6011
 3407SOL    HW221681   2.286   2.812  13.377  0.1884 -0.1832 -1.1212
 3408SOL     OW21682   3.453   3.406   0.758 -0.1126  0.2894  0.0549
 3408SOL    HW121683   3.542   3.398   0.726  0.5741 -3.1326  2.8752
 3408SOL    HW221684   3.447   3.336   0.822  2.2222  0.2396  0.1868
 3409SOL     OW21685   2.784   1.357   7.785 -0.4649 -0.3418  1.0663
 3409SOL    HW121686   2.708   1.413   7.803 -0.7222 -0.3482  0.0296
 3409SOL    HW221687   2.765   1.278   7.834 -0.2304  0.8173  3.0051
 3410SOL     OW21688   4.570   1.566   3.765  0.0209 -0.3324  0.4567
 3410SOL    HW121689   4.592   1.517   3.686 -2.8615  0.5647 -0.8989
 3410SOL    HW221690   4.490   1.521   3.791  0.8192 -2.4406 -0.6781
 3411SOL     OW21691   3.424   2.221  12.269 -0.4687 -0.3081  0.1328
 3411SOL    HW121692   3.504   2.253  12.312 -0.9844 -1.7595  2.1533
 3411SOL    HW221693   3.429   2.275  12.190 -0.3332 -0.2478  0.1815
 3412SOL     OW21694   3.738   3.436   8.802  0.4692 -0.3415 -0.3996
 3412SOL    HW121695   3.733   3.454   8.708  0.5649 -2.0026 -0.7197
 3412SOL    HW221696   3.756   3.343   8.790 -1.4998 -0.5661 -1.6420
 3413SOL     OW21697   1.054   3.931   5.711 -0.3027 -0.2951  0.4438
 3413SOL    HW121698   1.061   3.914   5.617 -0.1452  0.0096  0.3988
 3413SOL    HW221699   1.147   3.943   5.728 -0.1662 -0.6724 -0.0228
 3414SOL     OW21700   4.599   2.254   1.600 -0.0457 -0.0273 -0.3081
 3414SOL    HW121701   4.585   2.183   1.538 -1.1635 -0.7299  0.7421
 3414SOL    HW221702   4.597   2.205   1.682  0.1466  1.9201  0.8742
 3415SOL     OW21703   3.783   1.643   3.810 -0.2968  0.8290  0.0321
 3415SOL    HW121704   3.853   1.702   3.837 -0.9600  0.9929  1.3637
 3415SOL    HW221705   3.809   1.615   3.722  1.0988  1.2460  0.3191
 3416SOL     OW21706   1.338   2.730  16.118  0.2807  0.0226 -0.4418
 3416SOL    HW121707   1.296   2.688  16.193 -1.2759  1.1383 -0.6936
 3416SOL    HW221708   1.403   2.775  16.172  0.7505 -0.9400 -0.2035
 3417SOL     OW21709   3.484   2.426   0.495  0.0719  0.0893 -0.0855
 3417SOL    HW121710   3.576   2.417   0.471 -0.3364 -0.1214 -1.5814
 3417SOL    HW221711   3.447   2.339   0.478  0.8305 -0.2589  0.0874
 3418SOL     OW21712   0.587   2.418   7.185  0.1922  0.1369 -0.3745
 3418SOL    HW121713   0.499   2.386   7.205 -0.8137  1.6091 -2.4661
 3418SOL    HW221714   0.574   2.512   7.201  1.3246 -0.0274  1.5124
 3419SOL     OW21715   1.847   4.318   1.264 -0.2938  0.3107  0.0496
 3419SOL    HW121716   1.847   4.346   1.356 -1.0198  0.0193  0.1448
 3419SOL    HW221717   1.751   4.313   1.262 -0.2513 -0.4630  0.1020
 3420SOL     OW21718   3.322   0.721   7.710 -0.3076  0.2272  0.3548
 3420SOL    HW121719   3.352   0.812   7.719 -0.2371  0.6278 -3.7740
 3420SOL    HW221720   3.403   0.671   7.699 -0.5474  0.1647 -1.1226
 3421SOL     OW21721   2.283   1.220   6.726  0.0818  0.0587  0.3168
 3421SOL    HW121722   2.234   1.203   6.646 -1.0057 -0.5936  1.1304
 3421SOL    HW221723   2.337   1.292   6.694  0.7215  1.1047  3.7047
 3422SOL     OW21724   4.097   2.037   8.059 -0.3276 -0.3792  0.2266
 3422SOL    HW121725   4.097   2.036   8.154  0.2974  1.6181  0.2568
 3422SOL    HW221726   4.006   2.053   8.032 -0.4865 -0.3696  0.7731
 3423SOL     OW21727   0.509   3.570   1.935  0.1490 -0.5955  0.2236
 3423SOL    HW121728   0.465   3.605   2.013  1.2267  2.4295 -0.5349
 3423SOL    HW221729   0.584   3.530   1.979 -1.0569 -2.6745  0.3850
 3424SOL     OW21730   3.795   1.534   8.228 -0.2562  0.5563 -0.5534
 3424SOL    HW121731   3.735   1.461   8.213  0.8301 -0.1330 -1.5265
 3424SOL    HW221732   3.843   1.503   8.304 -0.7783  1.7527  0.2606
 3425SOL     OW21733   2.407   0.097  15.154  0.1197 -0.2095  0.2310
 3425SOL    HW121734   2.489   0.108  15.106 -0.8281  0.0414 -1.3331
 3425SOL    HW221735   2.351   0.063  15.084  3.0832  1.8230 -3.1590
 3426SOL     OW21736   4.374   1.261   1.533 -0.9188  0.4276 -0.7560
 3426SOL    HW121737   4.463   1.271   1.498 -0.9135  0.0882 -0.8357
 3426SOL    HW221738   4.334   1.348   1.527 -1.1698  0.3967  0.5302
 3427SOL     OW21739   3.949   4.154  11.495  0.3446 -0.2097  0.2663
 3427SOL    HW121740   3.942   4.233  11.548 -3.2139 -1.1521  1.1610
 3427SOL    HW221741   3.935   4.095  11.569 -0.7397  0.1749  0.3631
 3428SOL     OW21742   1.714   4.317   7.024 -0.3758 -0.6986  0.4638
 3428SOL    HW121743   1.808   4.301   7.014  0.0052  1.7662  0.0035
 3428SOL    HW221744   1.718   4.412   7.034  0.1959 -0.8013  1.2104
 3429SOL     OW21745   1.942   2.744   6.163 -0.4918 -0.0824 -0.7584
 3429SOL    HW121746   1.898   2.659   6.158  2.0659 -1.4311 -0.1052
 3429SOL    HW221747   2.029   2.724   6.131  0.2260  0.7157  0.7044
 3430SOL     OW21748   3.159   1.074   6.903  0.2456  0.1564 -0.6827
 3430SOL    HW121749   3.188   1.044   6.817  1.1755  0.8721 -0.6097
 3430SOL    HW221750   3.117   1.155   6.875  1.8324  1.4404  0.7443
 3431SOL     OW21751   3.310   1.859  16.104 -0.0214 -0.3746  0.8630
 3431SOL    HW121752   3.400   1.891  16.111  0.4377 -1.1568 -1.4556
 3431SOL    HW221753   3.321   1.780  16.157 -2.3979 -1.7346 -0.6595
 3432SOL     OW21754   0.701   2.212   8.452 -0.2291  0.8921 -0.7091
 3432SOL    HW121755   0.731   2.301   8.472  1.0740  0.8617 -2.5036
 3432SOL    HW221756   0.640   2.183   8.519 -1.3206  2.1231 -1.1833
 3433SOL     OW21757   0.360   1.158   4.468 -0.5392  0.3937 -0.2629
 3433SOL    HW121758   0.395   1.069   4.461 -0.5462  0.3482  0.2982
 3433SOL    HW221759   0.435   1.217   4.461 -1.3547  1.6570  1.4881
 3434SOL     OW21760   1.477   0.398  14.240 -0.4026 -0.2339  0.1864
 3434SOL    HW121761   1.431   0.422  14.159  2.4809 -0.2840 -1.4547
 3434SOL    HW221762   1.564   0.434  14.223  0.0984 -1.2407  0.5555
 3435SOL     OW21763   0.552   0.841   7.580  0.2255  0.3316  0.4899
 3435SOL    HW121764   0.543   0.857   7.486 -2.6443 -0.4768  0.6277
 3435SOL    HW221765   0.631   0.787   7.572 -0.6041 -0.8707  0.4497
 3436SOL     OW21766   1.456   1.711   4.849  0.2128 -0.2727 -0.1967
 3436SOL    HW121767   1.502   1.730   4.767 -0.2665 -0.9394 -0.6156
 3436SOL    HW221768   1.533   1.711   4.907  0.0749 -1.4846 -0.0228
 3437SOL     OW21769   1.296   2.936   0.098 -0.2197 -0.1629  0.0075
 3437SOL    HW121770   1.279   2.972   0.185  0.8671  0.5750 -0.0850
 3437SOL    HW221771   1.381   2.978   0.085 -1.6467  2.8199  0.3192
 3438SOL     OW21772   3.513   2.477  10.866 -0.3777 -0.2562 -0.2214
 3438SOL    HW121773   3.559   2.558  10.843  2.0554 -1.8376 -0.8504
 3438SOL    HW221774   3.539   2.419  10.795  0.5597  0.6606 -0.6306
 3439SOL     OW21775   0.547   1.739   7.024 -0.5938  0.7669  0.4946
 3439SOL    HW121776   0.453   1.758   7.024 -0.7590 -0.0618  0.8460
 3439SOL    HW221777   0.550   1.699   6.937  0.7496 -0.6075  1.1737
 3440SOL     OW21778   2.541   1.628   9.929 -0.1959  0.2978  0.2092
 3440SOL    HW121779   2.473   1.696   9.923  0.2845  0.9514  2.3523
 3440SOL    HW221780   2.589   1.646   9.848 -2.5673  1.2770 -0.9904
 3441SOL     OW21781   0.165   0.141   2.705  0.0867 -0.0011 -0.1217
 3441SOL    HW121782   0.217   0.118   2.782 -0.4309  1.1198  0.5663
 3441SOL    HW221783   0.230   0.149   2.636  0.7523 -0.5123  0.4464
 3442SOL     OW21784   0.094   3.005  13.842  0.2011 -0.2312  0.0111
 3442SOL    HW121785   0.020   2.946  13.836  0.2346 -0.3466  0.6661
 3442SOL    HW221786   0.063   3.076  13.899 -1.9671 -0.7643 -0.5089
 3443SOL     OW21787   3.076   2.454   2.929 -1.0335 -0.0260 -0.4818
 3443SOL    HW121788   3.123   2.524   2.884 -0.1340 -0.3747 -0.0879
 3443SOL    HW221789   3.036   2.502   3.002  1.0248  0.9244  0.0049
 3444SOL     OW21790   1.408   3.854   2.759 -0.6110 -0.1156 -0.3973
 3444SOL    HW121791   1.428   3.905   2.680 -1.7178  0.2880 -0.4190
 3444SOL    HW221792   1.458   3.773   2.749  1.6578  1.2834 -0.3349
 3445SOL     OW21793   0.813   3.524   5.268  0.0751  0.6271 -0.2839
 3445SOL    HW121794   0.822   3.546   5.360  0.6110  2.8890 -0.8854
 3445SOL    HW221795   0.720   3.505   5.251  0.3860 -0.2446 -1.0243
 3446SOL     OW21796   4.637   2.310  11.690 -0.2183  0.1672  0.1621
 3446SOL    HW121797   4.613   2.245  11.624  0.2896 -0.0164  0.1513
 3446SOL    HW221798   4.608   2.391  11.648  1.3266  0.5628 -0.1634
 3447SOL     OW21799   4.333   0.234   2.932 -0.5546 -0.4544  0.0751
 3447SOL    HW121800   4.268   0.165   2.916 -0.7592 -0.3289  0.3515
 3447SOL    HW221801   4.375   0.181   3.000 -1.7210  0.5543  1.6062
 3448SOL     OW21802   1.761   2.410   5.064  0.0999  0.2569  0.4057
 3448SOL    HW121803   1.803   2.324   5.061 -3.0339 -1.3124  1.3874
 3448SOL    HW221804   1.826   2.469   5.027  0.6880 -0.8227 -0.2918
 3449SOL     OW21805   0.442   2.761   3.288 -0.3966  0.3425  0.2795
 3449SOL    HW121806   0.511   2.768   3.223 -1.0211  0.5325 -0.3563
 3449SOL    HW221807   0.412   2.851   3.300  0.1346  0.6675 -0.9205
 3450SOL     OW21808   1.766   0.546  14.615 -0.0146  0.4957  0.0301
 3450SOL    HW121809   1.701   0.565  14.682  0.5993  0.5718  0.5971
 3450SOL    HW221810   1.717   0.498  14.548 -0.3940 -1.3842  1.6414
 3451SOL     OW21811   4.273   4.590   9.439 -0.0903  0.2606  0.0931
 3451SOL    HW121812   4.368   4.596   9.449  0.0613  0.2973 -1.2874
 3451SOL    HW221813   4.243   4.668   9.391 -0.4476  0.0155 -0.0854
 3452SOL     OW21814   4.441   4.261  17.648  0.0504  0.0991 -0.0810
 3452SOL    HW121815   4.381   4.253  17.574 -0.6398  0.3874  0.4507
 3452SOL    HW221816   4.389   4.326   0.008  0.8931  0.5752  0.1930
 3453SOL     OW21817   4.274   1.513   4.449  0.5312 -0.6263 -0.3718
 3453SOL    HW121818   4.277   1.583   4.514 -0.6055 -0.4265 -0.5361
 3453SOL    HW221819   4.319   1.448   4.502 -0.7315  0.1107  1.6322
 3454SOL     OW21820   3.099   3.953  16.772 -0.0507 -0.4549  0.4525
 3454SOL    HW121821   3.182   3.906  16.778 -0.7828 -1.9937 -1.3240
 3454SOL    HW221822   3.103   4.009  16.694 -0.8791  0.3132  0.9714
 3455SOL     OW21823   3.184   1.737   5.148  0.2603 -0.8162  0.1992
 3455SOL    HW121824   3.091   1.725   5.168  0.3479 -2.2265 -0.2517
 3455SOL    HW221825   3.214   1.813   5.199 -0.6802 -0.1956 -0.1544
 3456SOL     OW21826   1.220   4.268   1.882  0.2431 -0.0067  0.4052
 3456SOL    HW121827   1.150   4.322   1.847  0.9260 -0.3106 -1.4524
 3456SOL    HW221828   1.239   4.322   1.959  0.2517 -0.8250  0.9723
 3457SOL     OW21829   1.661   0.835  13.247 -0.3343 -0.0063 -0.0129
 3457SOL    HW121830   1.669   0.743  13.272 -2.9763 -0.0525  0.5904
 3457SOL    HW221831   1.754   0.859  13.254 -0.7611  1.8530 -0.6816
 3458SOL     OW21832   3.789   2.681   3.287  0.0989  0.4952  0.2923
 3458SOL    HW121833   3.823   2.647   3.369  0.2698  1.2623  0.5423
 3458SOL    HW221834   3.823   2.771   3.285  1.3370  0.0355  0.5137
 3459SOL     OW21835   0.847   4.653   7.222  0.1482  0.0010 -0.8801
 3459SOL    HW121836   0.806   4.571   7.249  0.3418 -0.2925 -1.4827
 3459SOL    HW221837   0.903   4.669   7.299 -0.3343  1.8085 -0.9087
 3460SOL     OW21838   0.440   4.395   2.217  0.0097 -0.1642  0.9164
 3460SOL    HW121839   0.348   4.398   2.242 -0.2841 -1.2665 -0.0683
 3460SOL    HW221840   0.474   4.470   2.267  2.2731  0.2087 -1.1829
 3461SOL     OW21841   4.423   0.149   7.658  0.5723  0.1042 -0.3080
 3461SOL    HW121842   4.345   0.121   7.705  1.3028 -1.0911  0.2095
 3461SOL    HW221843   4.424   0.240   7.686 -0.2023  0.3778 -1.2037
 3462SOL     OW21844   4.111   2.709   3.425 -0.2421 -0.0052  0.2924
 3462SOL    HW121845   4.201   2.687   3.449  0.1283  0.5250 -0.5779
 3462SOL    HW221846   4.080   2.634   3.373  1.1845 -0.8771  0.6962
 3463SOL     OW21847   2.724   2.021  16.949 -0.0215  0.2641  0.2391
 3463SOL    HW121848   2.794   2.050  17.008  0.0522  0.2322  0.1672
 3463SOL    HW221849   2.649   2.016  17.008 -1.4426  0.1164 -1.5530
 3464SOL     OW21850   0.739   2.712   0.043 -0.3488 -0.1256  0.3372
 3464SOL    HW121851   0.820   2.690  17.685  1.0361 -0.9302  3.2038
 3464SOL    HW221852   0.672   2.659  17.686  0.8103 -2.3849  1.3101
 3465SOL     OW21853   0.906   2.737   4.154 -0.6348 -0.1987 -0.0729
 3465SOL    HW121854   0.925   2.804   4.219  1.7937 -0.5466 -0.4120
 3465SOL    HW221855   0.988   2.739   4.104 -0.8262  0.7833 -0.3580
 3466SOL     OW21856   2.949   3.429   7.432  0.1417  0.4458 -1.1411
 3466SOL    HW121857   2.918   3.494   7.495  1.5406 -0.1865  0.1960
 3466SOL    HW221858   2.905   3.465   7.355 -4.1030 -0.9369  0.6488
 3467SOL     OW21859   1.078   1.738   3.827 -0.0969 -0.6801 -0.0149
 3467SOL    HW121860   1.129   1.682   3.884  1.4477  0.9415  0.2122
 3467SOL    HW221861   1.129   1.745   3.746  2.4828 -0.8157  1.5827
 3468SOL     OW21862   2.618   3.186   7.978 -0.3046  0.1995 -0.4885
 3468SOL    HW121863   2.575   3.154   7.898  0.8114 -0.9795 -0.6280
 3468SOL    HW221864   2.702   3.216   7.943 -0.6978  0.7269 -0.9857
 3469SOL     OW21865   1.002   4.068  11.873 -0.1348 -0.2435 -0.1431
 3469SOL    HW121866   0.989   3.979  11.906 -1.0645 -0.3342 -0.7639
 3469SOL    HW221867   1.096   4.072  11.856 -0.7384  0.5653 -3.2178
 3470SOL     OW21868   2.471   0.649   8.462 -0.5036 -0.3409 -0.2901
 3470SOL    HW121869   2.563   0.624   8.476 -0.6000 -0.2085  0.5621
 3470SOL    HW221870   2.430   0.589   8.524  0.5662 -0.1226  0.6267
 3471SOL     OW21871   1.990   3.859  11.718 -0.5405  0.5768 -0.2025
 3471SOL    HW121872   1.972   3.898  11.632  2.3635 -0.4996 -1.3173
 3471SOL    HW221873   2.083   3.878  11.721 -0.4809  0.1177  0.7656
 3472SOL     OW21874   3.175   2.531   8.269  0.4082  0.5436  0.0595
 3472SOL    HW121875   3.107   2.585   8.227  0.0491  0.1862  0.1736
 3472SOL    HW221876   3.210   2.482   8.195  1.3257  0.4044  0.5935
 3473SOL     OW21877   0.861   2.587   9.548 -0.4004  0.7057  0.2079
 3473SOL    HW121878   0.843   2.553   9.635  0.1149  1.3864  0.5764
 3473SOL    HW221879   0.896   2.675   9.560 -4.0297  2.2741 -0.4864
 3474SOL     OW21880   2.901   0.958   3.161  0.1066  0.7348 -0.1960
 3474SOL    HW121881   2.866   0.887   3.107 -0.4854  1.9168 -1.3705
 3474SOL    HW221882   2.881   1.028   3.098 -0.4530  0.1870 -0.6198
 3475SOL     OW21883   1.909   4.544  15.007  0.6184 -0.2355  0.2190
 3475SOL    HW121884   1.882   4.604  15.077  1.3760 -1.7664  1.8296
 3475SOL    HW221885   1.834   4.484  15.009  0.1845  0.2896 -0.4508
 3476SOL     OW21886   1.340   0.452   1.781 -0.3272  0.3094  0.3578
 3476SOL    HW121887   1.378   0.509   1.715 -0.0207  0.2849  0.5113
 3476SOL    HW221888   1.258   0.500   1.787  0.0755  0.9649  0.5867
 3477SOL     OW21889   2.600   0.419   6.464  0.0931 -0.0295 -0.1562
 3477SOL    HW121890   2.679   0.368   6.482  0.7642  1.1845  0.3551
 3477SOL    HW221891   2.631   0.434   6.374 -1.4405  1.5308 -0.4284
 3478SOL     OW21892   3.655   3.783   6.481  0.0260 -0.6592 -0.0977
 3478SOL    HW121893   3.641   3.787   6.575  0.4668  1.1630 -0.1216
 3478SOL    HW221894   3.563   3.769   6.458 -0.2709 -2.1211  2.0382
 3479SOL     OW21895   2.809   0.741   8.074  0.2435 -0.1589 -0.2634
 3479SOL    HW121896   2.715   0.753   8.060  0.2396  0.0744 -0.0392
 3479SOL    HW221897   2.848   0.746   7.987 -1.7789 -1.3830 -1.2461
 3480SOL     OW21898   1.233   0.519   7.103 -0.4727 -0.1742  0.8339
 3480SOL    HW121899   1.260   0.610   7.115  0.8744 -0.1950 -2.0545
 3480SOL    HW221900   1.144   0.522   7.068 -0.1506 -0.3283  0.0027
 3481SOL     OW21901   1.149   3.001  17.222  0.4597 -0.8681 -0.2136
 3481SOL    HW121902   1.127   3.087  17.189 -0.3724 -0.2045  2.0798
 3481SOL    HW221903   1.084   2.995  17.293 -0.5653 -1.3724 -1.2020
 3482SOL     OW21904   4.248   4.454   8.988 -0.2674  0.2624  0.0955
 3482SOL    HW121905   4.231   4.465   8.895 -0.5054  1.5804  0.2839
 3482SOL    HW221906   4.220   4.366   9.011 -1.0567  0.5730  0.3347
 3483SOL     OW21907   0.775   4.072   7.400  0.3068 -0.3384 -0.0650
 3483SOL    HW121908   0.767   4.164   7.377 -0.3097 -0.4261 -0.1921
 3483SOL    HW221909   0.683   4.046   7.406  0.0642  0.2965 -0.9845
 3484SOL     OW21910   3.980   1.033  16.515 -0.5136  0.4128 -0.8868
 3484SOL    HW121911   3.890   1.038  16.546 -0.0866 -1.1594  0.5697
 3484SOL    HW221912   4.027   1.100  16.564 -0.3633 -0.0241 -0.4420
 3485SOL     OW21913   2.457   0.198   7.573  0.0947 -0.8574 -0.2144
 3485SOL    HW121914   2.412   0.194   7.489 -0.8176 -0.2769  0.2462
 3485SOL    HW221915   2.443   0.110   7.606 -0.8018 -0.8874 -0.6676
 3486SOL     OW21916   1.623   1.964  10.950  0.3269 -0.5682 -0.1795
 3486SOL    HW121917   1.551   2.022  10.974 -0.7401 -1.1798 -1.9382
 3486SOL    HW221918   1.621   1.975  10.855 -0.8783  1.5807  0.0821
 3487SOL     OW21919   0.289   3.028  14.778 -0.5994 -0.3679 -0.4422
 3487SOL    HW121920   0.224   2.963  14.804  0.4165 -1.4231 -0.5716
 3487SOL    HW221921   0.353   2.969  14.737 -1.1314 -0.1384 -1.5905
 3488SOL     OW21922   1.668   4.205  17.576  0.1537 -0.1526  0.0589
 3488SOL    HW121923   1.716   4.164  17.649 -1.0307  1.6565  1.8530
 3488SOL    HW221924   1.734   4.266  17.545 -0.3823  0.2603 -0.2669
 3489SOL     OW21925   2.716   0.349   5.351 -0.4444 -0.3263  0.0911
 3489SOL    HW121926   2.791   0.384   5.399 -0.9885  0.9092  0.0557
 3489SOL    HW221927   2.750   0.265   5.320 -2.2449 -0.8131 -0.5615
 3490SOL     OW21928   0.650   3.847   3.013  0.5385  0.1809 -0.4399
 3490SOL    HW121929   0.715   3.918   3.016  0.4732  0.3081 -2.0338
 3490SOL    HW221930   0.568   3.889   2.989 -0.9367 -2.7896 -0.5760
 3491SOL     OW21931   4.591   0.893  14.280 -0.7814  0.4856  0.6458
 3491SOL    HW121932   4.613   0.963  14.342  1.9223  0.9145 -0.7953
 3491SOL    HW221933   4.644   0.923  14.206 -0.5853 -2.6673 -0.4967
 3492SOL     OW21934   1.548   3.993  10.634 -0.1228 -0.1583  0.4921
 3492SOL    HW121935   1.505   4.046  10.701  1.3416 -0.2510  1.5099
 3492SOL    HW221936   1.471   3.960  10.587 -0.7274 -0.2879  1.5713
 3493SOL     OW21937   1.903   3.879  14.455  0.3046 -0.2393 -0.1971
 3493SOL    HW121938   1.882   3.972  14.445 -0.7747 -0.2491  2.2005
 3493SOL    HW221939   1.823   3.832  14.431  1.0300 -1.2083 -0.7012
 3494SOL     OW21940   3.967   0.641   8.919  0.6575  0.5155 -0.6473
 3494SOL    HW121941   3.983   0.552   8.951  1.3672  0.7027 -0.4854
 3494SOL    HW221942   3.994   0.629   8.828  0.1627 -3.7744 -0.2277
 3495SOL     OW21943   3.908   3.809   2.270  0.0205  0.2053 -0.4230
 3495SOL    HW121944   3.903   3.749   2.196  1.1271  0.5397 -0.7623
 3495SOL    HW221945   4.003   3.819   2.281 -0.2692 -0.1029  2.2881
 3496SOL     OW21946   4.115   0.203   5.682  0.5610 -0.0201 -0.3301
 3496SOL    HW121947   4.061   0.125   5.695 -0.3051  0.9225  1.7487
 3496SOL    HW221948   4.103   0.213   5.587 -0.3582  0.6726 -0.1376
 3497SOL     OW21949   2.197   1.542   9.467  0.5790  0.4334 -0.0009
 3497SOL    HW121950   2.139   1.513   9.538  1.0796  1.6217  0.8984
 3497SOL    HW221951   2.157   1.497   9.393 -2.2234 -0.0720  1.7894
 3498SOL     OW21952   0.416   3.027   1.736  0.3082 -0.1607  0.0575
 3498SOL    HW121953   0.450   2.981   1.813  0.0580  0.5971  0.6264
 3498SOL    HW221954   0.378   3.109   1.767 -1.4300 -0.7241 -0.6053
 3499SOL     OW21955   3.130   3.264  14.645 -0.3367 -0.0668  0.1556
 3499SOL    HW121956   3.137   3.304  14.558  0.4838 -0.7046 -0.0752
 3499SOL    HW221957   3.218   3.226  14.653 -0.2016 -0.1002 -1.4930
 3500SOL     OW21958   0.091   0.861   7.498  0.1893 -0.3548 -0.4807
 3500SOL    HW121959   0.043   0.809   7.562 -1.2832 -1.8299 -2.7883
 3500SOL    HW221960   0.121   0.931   7.556  1.5515 -0.2254 -1.3430
 3501SOL     OW21961   1.663   3.547  12.526 -0.2168  0.1374 -0.2545
 3501SOL    HW121962   1.667   3.463  12.572 -0.8668 -0.2964 -0.9774
 3501SOL    HW221963   1.567   3.551  12.524 -0.1561  1.9609  0.4602
 3502SOL     OW21964   0.715   3.897   5.019 -0.4144  0.5790 -0.5874
 3502SOL    HW121965   0.752   3.809   5.013 -4.5128 -1.1050 -0.9918
 3502SOL    HW221966   0.755   3.937   4.942 -0.4626  1.1933 -0.2923
 3503SOL     OW21967   4.648   1.477   9.573  0.1040 -0.1670 -0.3000
 3503SOL    HW121968   4.701   1.530   9.633  1.2390 -2.9539  1.1586
 3503SOL    HW221969   4.569   1.481   9.626  0.4258  0.9168  0.0942
 3504SOL     OW21970   2.649   0.668   6.619 -0.1426 -0.1631  0.2866
 3504SOL    HW121971   2.669   0.600   6.555  2.2479  0.8661 -0.0518
 3504SOL    HW221972   2.554   0.674   6.631 -0.3936 -2.9500 -0.2156
 3505SOL     OW21973   1.831   1.084   5.637 -0.1801  0.1534  0.2868
 3505SOL    HW121974   1.737   1.066   5.642  0.0438 -0.5561  1.8008
 3505SOL    HW221975   1.866   0.998   5.657 -0.4891  0.0921  0.5571
 3506SOL     OW21976   2.919   3.321  12.877  0.2036 -0.2441 -0.4680
 3506SOL    HW121977   2.894   3.230  12.893  0.5192 -0.5473 -1.6648
 3506SOL    HW221978   2.929   3.319  12.781 -1.7916 -0.9638 -0.6623
 3507SOL     OW21979   1.350   2.673   6.980  0.5026  0.0901  0.5041
 3507SOL    HW121980   1.336   2.743   7.044  1.8508  0.0757  0.8023
 3507SOL    HW221981   1.267   2.692   6.936  0.9090 -1.4188 -0.9238
 3508SOL     OW21982   1.312   2.430   9.939 -0.3414  0.1944  0.3077
 3508SOL    HW121983   1.408   2.435   9.935 -0.3199  1.3169  2.7328
 3508SOL    HW221984   1.290   2.420   9.846 -3.0695  0.6643  0.8959
 3509SOL     OW21985   4.029   0.431   6.129  0.2447  0.0553  0.2037
 3509SOL    HW121986   4.035   0.336   6.132 -1.2435 -0.0117  1.1699
 3509SOL    HW221987   4.040   0.445   6.223 -2.2507 -2.0405  0.7984
 3510SOL     OW21988   2.649   1.888   6.078  0.4944 -0.1830 -0.3224
 3510SOL    HW121989   2.702   1.812   6.104  0.3871 -0.6258 -1.3864
 3510SOL    HW221990   2.605   1.851   6.002  1.5643 -0.3991 -0.8400
 3511SOL     OW21991   2.157   4.590   7.328  0.0791  0.5473 -0.0297
 3511SOL    HW121992   2.189   4.515   7.379  0.2802  0.6525 -0.0012
 3511SOL    HW221993   2.062   4.581   7.328  0.2220 -0.9604  1.2316
 3512SOL     OW21994   4.677   0.442   3.489 -0.0456 -0.3224  0.3691
 3512SOL    HW121995   4.697   0.533   3.510  0.8247 -0.5952  0.7627
 3512SOL    HW221996   4.702   0.441   3.397  0.0343 -0.8858  0.3999
 3513SOL     OW21997   3.896   4.349   7.699  0.1917  0.1772 -0.1570
 3513SOL    HW121998   3.871   4.411   7.768  0.7944  1.3358 -0.9741
 3513SOL    HW221999   3.806   4.321   7.683  0.1946  1.9821 -3.2902
 3514SOL     OW22000   3.741   4.230  13.273 -0.3442  0.1730  0.1127
 3514SOL    HW122001   3.781   4.261  13.192 -1.2165 -0.2748 -0.4884
 3514SOL    HW222002   3.748   4.135  13.268  0.5166  0.1964  0.8250
 3515SOL     OW22003   4.696   4.516   2.196  0.1095 -0.1279 -0.0216
 3515SOL    HW122004   4.604   4.539   2.208  0.3309  2.4316 -3.5213
 3515SOL    HW222005   4.690   4.459   2.119 -2.0427 -0.1514  0.1469
 3516SOL     OW22006   0.375   2.984  13.886 -0.3412  0.2924  0.3560
 3516SOL    HW122007   0.389   2.916  13.820  0.9670  2.3032 -1.4236
 3516SOL    HW222008   0.281   3.003  13.881  0.4456  3.6653 -1.7549
 3517SOL     OW22009   2.527   4.164  11.775  0.5739 -0.4819  0.1477
 3517SOL    HW122010   2.562   4.171  11.864 -0.4021  0.5098  0.4513
 3517SOL    HW222011   2.455   4.227  11.764 -1.1342 -2.2753  0.9641
 3518SOL     OW22012   1.567   2.689   6.103  0.1309  0.0865 -0.1021
 3518SOL    HW122013   1.591   2.697   6.195  0.0922 -0.1575 -0.0702
 3518SOL    HW222014   1.540   2.779   6.086  1.9065  0.2720 -1.8843
 3519SOL     OW22015   1.312   3.183  15.726 -0.2284  0.0582 -0.0808
 3519SOL    HW122016   1.319   3.149  15.815  3.7034 -0.1222 -0.4708
 3519SOL    HW222017   1.292   3.109  15.669 -1.0858 -0.9089  1.4587
 3520SOL     OW22018   0.955   0.004  17.521 -0.4870 -0.0231  0.3955
 3520SOL    HW122019   0.873   0.053  17.519  0.6011  1.7748  0.0243
 3520SOL    HW222020   0.951   4.686  17.433 -1.0111  0.4993  0.1855
 3521SOL     OW22021   2.444   4.646   2.305 -0.5663 -0.8576  0.5769
 3521SOL    HW122022   2.435   0.014   2.273 -0.5087 -1.1283 -0.1859
 3521SOL    HW222023   2.392   4.648   2.386  0.9233 -0.4038  1.5285
 3522SOL     OW22024   2.293   3.454  15.224 -0.5411  0.6674 -0.2284
 3522SOL    HW122025   2.302   3.360  15.240 -0.4613  0.8705  0.9478
 3522SOL    HW222026   2.260   3.452  15.135  1.0016 -0.1306 -0.7783
 3523SOL     OW22027   0.275   2.959   4.130  0.0980  0.1133  0.2837
 3523SOL    HW122028   0.247   2.908   4.205 -0.6341  1.0131  0.6186
 3523SOL    HW222029   0.196   2.960   4.076  0.4628  1.3325 -0.2300
 3524SOL     OW22030   1.422   3.697   5.394  0.0168 -0.4452  0.0537
 3524SOL    HW122031   1.401   3.612   5.354  0.9418  0.0555 -1.4987
 3524SOL    HW222032   1.414   3.758   5.320  2.9978  1.3158  1.1740
 3525SOL     OW22033   3.994   3.518   3.292  0.1723 -0.6295  0.1578
 3525SOL    HW122034   3.997   3.453   3.361  0.6709 -3.0496 -2.1308
 3525SOL    HW222035   3.983   3.603   3.335  0.3765  1.1085 -3.1665
 3526SOL     OW22036   3.885   2.732   2.721 -0.4064  0.0763 -0.0440
 3526SOL    HW122037   3.808   2.764   2.675 -0.5908 -1.1229 -0.5830
 3526SOL    HW222038   3.840   2.707   2.802  1.5261  1.3159  1.4035
 3527SOL     OW22039   4.532   2.847  15.930 -0.3412 -0.1149 -0.4507
 3527SOL    HW122040   4.445   2.826  15.964 -0.9244 -0.0074 -1.8676
 3527SOL    HW222041   4.538   2.942  15.920  3.4345 -0.2421  0.9012
 3528SOL     OW22042   2.240   2.419  10.300  0.4586  0.6728  0.6933
 3528SOL    HW122043   2.198   2.357  10.241 -2.1018  1.9330  1.1860
 3528SOL    HW222044   2.328   2.382  10.305 -0.4254 -1.3303  1.8204
 3529SOL     OW22045   1.180   3.659   2.763 -0.0960  0.3591  0.1407
 3529SOL    HW122046   1.260   3.678   2.811  1.0813  0.9033 -2.0342
 3529SOL    HW222047   1.115   3.635   2.829 -0.8517 -0.5035 -0.8982
 3530SOL     OW22048   1.134   4.705  10.130  0.4319  0.5641  0.2361
 3530SOL    HW122049   1.223   4.683  10.156  0.0342  1.8685  2.7409
 3530SOL    HW222050   1.111   4.619  10.095 -1.6396  1.5707 -0.8994
 3531SOL     OW22051   1.449   0.227  10.686  0.3620  0.3743 -0.0792
 3531SOL    HW122052   1.366   0.195  10.722 -0.8514  2.5925 -0.9239
 3531SOL    HW222053   1.449   0.313  10.728 -0.7551 -0.8901  2.5076
 3532SOL     OW22054   4.199   1.546   3.130  0.4855  0.0172  0.2861
 3532SOL    HW122055   4.123   1.533   3.073  1.7272  2.1648 -1.8216
 3532SOL    HW222056   4.205   1.465   3.180 -0.9235 -1.3874 -1.7904
 3533SOL     OW22057   0.320   3.569  12.382  0.3335  0.4714 -0.5668
 3533SOL    HW122058   0.319   3.545  12.475  0.1394 -0.7235 -0.8827
 3533SOL    HW222059   0.339   3.486  12.339 -0.0704 -0.8330  1.7379
 3534SOL     OW22060   3.731   0.727  13.846  0.2718 -0.2582 -0.0342
 3534SOL    HW122061   3.745   0.818  13.869  1.7161 -0.2161 -1.0790
 3534SOL    HW222062   3.823   0.703  13.854  0.8130  1.5386 -1.0364
 3535SOL     OW22063   2.922   0.629   1.791 -0.0401 -0.5112 -0.0538
 3535SOL    HW122064   2.973   0.678   1.726  0.4684  0.6122  1.1935
 3535SOL    HW222065   2.858   0.696   1.817 -1.3597 -1.1627 -1.6263
 3536SOL     OW22066   1.554   0.186   7.736  0.3655 -0.2224  0.5415
 3536SOL    HW122067   1.576   0.278   7.751 -1.2250  0.1668  0.3935
 3536SOL    HW222068   1.569   0.142   7.819 -0.1555  1.2892  1.4394
 3537SOL     OW22069   4.080   1.098   7.045 -0.9033  0.5177 -0.3358
 3537SOL    HW122070   4.036   1.033   7.100  2.4026 -0.9993  0.4926
 3537SOL    HW222071   4.019   1.125   6.976 -1.3641 -0.2043 -0.2197
 3538SOL     OW22072   3.102   3.328  10.189  0.0448 -0.4372  0.2548
 3538SOL    HW122073   3.051   3.301  10.265  2.2876 -2.3212  1.0833
 3538SOL    HW222074   3.045   3.366  10.122  0.4244 -0.7724 -0.2517
 3539SOL     OW22075   4.586   4.410   3.397 -0.2665  0.0852 -0.0165
 3539SOL    HW122076   4.617   4.327   3.431 -1.2547 -0.5944 -0.7836
 3539SOL    HW222077   4.638   4.470   3.451 -0.8441 -0.7313  1.4598
 3540SOL     OW22078   0.766   2.310   7.990 -0.7228  0.4311 -0.1259
 3540SOL    HW122079   0.802   2.398   7.980 -0.3688  0.4081  0.9472
 3540SOL    HW222080   0.811   2.257   7.924  0.5886  1.4233 -0.0439
 3541SOL     OW22081   2.578   2.874   6.912 -0.2492  0.1089  0.3147
 3541SOL    HW122082   2.643   2.943   6.919 -0.5918  0.7057 -2.2212
 3541SOL    HW222083   2.551   2.873   6.820  0.0067  1.7564  0.2103
 3542SOL     OW22084   3.281   0.444  16.495  0.7320 -0.2294 -0.0508
 3542SOL    HW122085   3.372   0.414  16.486  0.5187 -1.5153  1.9185
 3542SOL    HW222086   3.268   0.458  16.402 -0.8144  1.4500  0.4271
 3543SOL     OW22087   4.196   2.682   9.450 -0.0933 -0.7886 -0.0478
 3543SOL    HW122088   4.246   2.757   9.480 -1.9772  0.6020 -0.3681
 3543SOL    HW222089   4.146   2.644   9.523  0.1315 -0.2070  0.4014
 3544SOL     OW22090   4.008   4.210  16.280 -0.0960 -0.3665  0.5803
 3544SOL    HW122091   4.031   4.125  16.243 -1.7724 -1.0135  1.0063
 3544SOL    HW222092   4.064   4.277  16.241 -0.1618 -0.9872 -0.5779
 3545SOL     OW22093   1.757   3.217  17.567  0.2674 -0.3087  0.4778
 3545SOL    HW122094   1.784   3.136  17.610  1.0931 -0.4848 -0.3778
 3545SOL    HW222095   1.827   3.278  17.593 -0.4914 -0.5014  3.0229
 3546SOL     OW22096   1.175   1.706  12.033 -0.0108  0.3578 -0.0576
 3546SOL    HW122097   1.122   1.722  11.955 -1.6855 -0.6061  0.8952
 3546SOL    HW222098   1.245   1.770  12.022  0.5894 -0.5291 -1.4847
 3547SOL     OW22099   3.792   0.943   4.349  0.1452  0.1284 -0.1353
 3547SOL    HW122100   3.779   0.849   4.356 -0.7021  0.4331  2.1994
 3547SOL    HW222101   3.774   0.977   4.437  1.4151  0.7171 -0.1090
 3548SOL     OW22102   3.642   2.150   4.525  0.1417 -0.4487  0.0127
 3548SOL    HW122103   3.602   2.067   4.550 -0.3762  0.0087  0.7262
 3548SOL    HW222104   3.565   2.206   4.540  0.6813  0.0519  0.9752
 3549SOL     OW22105   4.181   4.089   2.413  0.1900  0.0553  0.0146
 3549SOL    HW122106   4.099   4.082   2.461  0.4242  0.4195  0.4748
 3549SOL    HW222107   4.212   3.999   2.402  0.2293  0.1819 -0.8783
 3550SOL     OW22108   4.297   2.182  10.102  0.4686 -0.1825  0.4517
 3550SOL    HW122109   4.388   2.187  10.074  1.0569 -1.1125  2.2106
 3550SOL    HW222110   4.308   2.119  10.173  0.1000  2.3648  2.7802
 3551SOL     OW22111   1.653   0.750  12.914  0.5914 -0.0138 -0.2118
 3551SOL    HW122112   1.727   0.802  12.944  0.3662 -0.0686  0.4217
 3551SOL    HW222113   1.671   0.664  12.951 -0.4383  0.6330  1.7704
 3552SOL     OW22114   4.431   3.814  15.105  0.0649 -0.2503  0.2368
 3552SOL    HW122115   4.489   3.830  15.180 -0.9473 -1.0817  1.2010
 3552SOL    HW222116   4.346   3.806  15.150  0.1298 -1.5737  0.1312
 3553SOL     OW22117   1.010   4.343   7.807 -0.0721 -0.1041  0.1644
 3553SOL    HW122118   0.960   4.262   7.808 -0.5434  0.1660 -1.0607
 3553SOL    HW222119   0.978   4.376   7.723  0.2126  0.6221  0.3356
 3554SOL     OW22120   2.980   3.535   3.665 -1.1298 -0.2145  0.3211
 3554SOL    HW122121   2.959   3.581   3.584  1.2442  0.4787  0.1190
 3554SOL    HW222122   2.901   3.482   3.674 -0.7934 -0.6521  0.6825
 3555SOL     OW22123   1.245   2.367  15.512 -0.1704 -0.4801  0.3733
 3555SOL    HW122124   1.181   2.426  15.553 -0.9869 -0.6457 -0.6465
 3555SOL    HW222125   1.305   2.354  15.585 -0.5241  0.3040  0.8095
 3556SOL     OW22126   1.292   2.781  14.641 -0.2327 -0.6924 -0.4386
 3556SOL    HW122127   1.200   2.761  14.657  0.7984 -2.2475  3.5987
 3556SOL    HW222128   1.298   2.874  14.664 -0.5113 -1.0999  1.2434
 3557SOL     OW22129   3.513   1.684  15.762 -0.0630  0.3949 -0.1064
 3557SOL    HW122130   3.517   1.639  15.847  1.0866  3.0152  1.2353
 3557SOL    HW222131   3.419   1.678  15.743 -0.0585  0.0549 -0.0139
 3558SOL     OW22132   2.895   0.583   4.545  0.4372 -0.5167 -0.6958
 3558SOL    HW122133   2.815   0.609   4.591  0.4705 -0.2845 -0.7676
 3558SOL    HW222134   2.938   0.665   4.521 -1.3753 -0.0668 -2.3777
 3559SOL     OW22135   1.106   2.192   2.728 -0.4131 -0.0783 -0.4563
 3559SOL    HW122136   1.025   2.192   2.676 -0.1518 -0.0773 -0.8626
 3559SOL    HW222137   1.093   2.259   2.796  0.2634 -3.3571  2.8832
 3560SOL     OW22138   0.068   0.034  16.577 -0.1059 -0.2993 -0.4838
 3560SOL    HW122139   4.716   0.062  16.522 -1.4651 -0.9145  1.0141
 3560SOL    HW222140   0.039   0.052  16.666 -1.1308 -0.7070 -0.7389
 3561SOL     OW22141   1.777   1.391  15.515 -0.0010  0.1606 -0.1650
 3561SOL    HW122142   1.837   1.388  15.590 -0.2336  1.3970  0.0813
 3561SOL    HW222143   1.740   1.303  15.521 -0.2319  0.2882  0.2978
 3562SOL     OW22144   4.027   3.973   5.931  0.0604 -0.4361 -0.3189
 3562SOL    HW122145   4.092   3.918   5.886  0.4395 -2.0135  2.1483
 3562SOL    HW222146   4.063   4.061   5.921  0.7693 -0.6196  0.6146
 3563SOL     OW22147   3.703   4.040   6.358  0.1067 -0.5834  0.5103
 3563SOL    HW122148   3.655   3.967   6.397 -1.5088 -0.5641 -1.4304
 3563SOL    HW222149   3.774   4.004   6.305 -0.5718 -1.7581  0.3910
 3564SOL     OW22150   3.386   0.930   1.704 -0.3674 -0.0011 -0.6607
 3564SOL    HW122151   3.312   0.951   1.761 -0.0660 -0.5195 -0.0765
 3564SOL    HW222152   3.380   0.835   1.692  1.8391 -0.2056 -0.0580
 3565SOL     OW22153   2.877   1.580  16.243 -0.1888 -0.5372 -0.1251
 3565SOL    HW122154   2.923   1.655  16.205 -0.2245  0.2045  1.2637
 3565SOL    HW222155   2.881   1.596  16.338 -0.4229  0.6098 -0.3003
 3566SOL     OW22156   4.468   1.044   3.566 -0.2582  0.2677 -0.1037
 3566SOL    HW122157   4.392   1.014   3.515 -0.5398 -0.2391  0.6026
 3566SOL    HW222158   4.536   1.073   3.505  1.0327 -0.0202  1.1995
 3567SOL     OW22159   2.694   1.782   6.484 -0.4165 -0.9987  0.0337
 3567SOL    HW122160   2.641   1.783   6.563 -1.2617 -0.4306 -0.5437
 3567SOL    HW222161   2.783   1.773   6.517  0.3372 -3.1226 -2.5246
 3568SOL     OW22162   0.035   1.917   8.363 -0.8238  0.1406  0.4308
 3568SOL    HW122163   4.720   1.936   8.276 -1.4487 -0.1998  0.6160
 3568SOL    HW222164   0.037   2.010   8.387  0.1446  0.3307 -0.3553
 3569SOL     OW22165   3.531   3.334   9.633 -0.1980  0.2069 -0.0321
 3569SOL    HW122166   3.488   3.276   9.696 -0.4151 -1.5678 -1.8197
 3569SOL    HW222167   3.533   3.279   9.555 -0.4988  1.2330 -0.7629
 3570SOL     OW22168   1.226   3.697   0.181 -0.1698  0.7157 -0.3981
 3570SOL    HW122169   1.147   3.733   0.222  0.0127  0.5910  0.0733
 3570SOL    HW222170   1.228   3.604   0.205  0.9291  0.3185 -2.0741
 3571SOL     OW22171   2.435   1.503   4.582  0.5824  0.2578 -0.1105
 3571SOL    HW122172   2.352   1.505   4.629 -0.3379  0.4647 -1.7287
 3571SOL    HW222173   2.499   1.466   4.642  1.9682 -0.2342 -1.9085
 3572SOL     OW22174   0.191   2.553   0.310 -0.7373  0.0784 -0.1409
 3572SOL    HW122175   0.219   2.495   0.381  2.1850  1.2580 -0.3469
 3572SOL    HW222176   0.137   2.618   0.355 -1.2278 -0.4298  0.0196
 3573SOL     OW22177   2.000   2.692  12.089  0.0467 -0.1187 -0.5658
 3573SOL    HW122178   1.932   2.750  12.125 -0.0028 -0.2899 -0.3865
 3573SOL    HW222179   2.074   2.697  12.149 -1.2197 -0.4987  1.0231
 3574SOL     OW22180   1.135   4.527   7.175  0.4774  0.4949 -0.2600
 3574SOL    HW122181   1.055   4.475   7.183 -0.4761  1.8974 -0.5885
 3574SOL    HW222182   1.202   4.467   7.207  1.0337  1.0840 -0.3284
 3575SOL     OW22183   0.059   1.449   4.809 -0.6665  0.1217  0.5776
 3575SOL    HW122184   0.007   1.498   4.745 -2.4866  0.4166  2.2797
 3575SOL    HW222185   0.136   1.436   4.754 -0.3092 -0.6545  1.2580
 3576SOL     OW22186   3.285   0.653   3.704  0.3839 -0.3561  0.0654
 3576SOL    HW122187   3.278   0.706   3.783 -1.3521 -1.5251  0.6730
 3576SOL    HW222188   3.213   0.592   3.715 -1.7732  2.1646 -0.1852
 3577SOL     OW22189   0.902   2.329   0.090 -0.4523  0.8098 -0.3771
 3577SOL    HW122190   0.831   2.360   0.035 -0.2789  1.6820 -0.1090
 3577SOL    HW222191   0.949   2.288   0.017  0.9009  0.1048  0.8879
 3578SOL     OW22192   3.811   0.440  14.759  0.2172  0.0931  0.3187
 3578SOL    HW122193   3.783   0.511  14.817 -0.5842 -0.0788  0.1551
 3578SOL    HW222194   3.737   0.436  14.698  1.4537  1.5166 -1.2368
 3579SOL     OW22195   2.722   0.740   3.186 -0.5816  0.0105 -0.3274
 3579SOL    HW122196   2.682   0.680   3.249  1.8792 -2.2654 -0.8917
 3579SOL    HW222197   2.754   0.691   3.110  1.1261  0.0855  0.3365
 3580SOL     OW22198   0.269   1.489   9.504 -0.4047 -0.0259  0.0074
 3580SOL    HW122199   0.229   1.532   9.580 -0.6670  2.3108 -1.4500
 3580SOL    HW222200   0.195   1.508   9.446 -1.1787  0.6460  1.2005
 3581SOL     OW22201   2.470   0.348   1.370  0.0952 -0.3193 -0.4919
 3581SOL    HW122202   2.487   0.395   1.452  0.3022 -1.3062  0.0362
 3581SOL    HW222203   2.386   0.387   1.347 -0.0892  0.5749  1.6642
 3582SOL     OW22204   2.646   1.660   7.409 -0.1598 -0.1415 -0.3309
 3582SOL    HW122205   2.608   1.577   7.437 -0.8562  0.2919  0.0215
 3582SOL    HW222206   2.711   1.622   7.350 -0.2839 -1.0635  0.1199
 3583SOL     OW22207   4.651   0.844   8.980  0.4161 -0.2666 -0.7703
 3583SOL    HW122208   4.717   0.786   9.019 -1.5345 -1.7907  0.2805
 3583SOL    HW222209   4.691   0.861   8.895 -1.9991  2.6836 -1.2832
 3584SOL     OW22210   2.591   0.444   2.795 -0.4334  0.3419 -0.0052
 3584SOL    HW122211   2.524   0.444   2.727  0.8183  0.8468 -1.2321
 3584SOL    HW222212   2.597   0.537   2.818 -0.7531  0.8201 -1.9244
 3585SOL     OW22213   0.638   1.558   5.640 -0.5738 -0.5173  0.0627
 3585SOL    HW122214   0.603   1.500   5.707  0.4364 -1.3703 -0.1500
 3585SOL    HW222215   0.714   1.507   5.611 -0.9911 -1.6586  0.9844
 3586SOL     OW22216   4.631   3.800   5.813 -0.4202 -0.6469 -0.1576
 3586SOL    HW122217   4.584   3.790   5.730  1.3932 -1.8662 -1.0361
 3586SOL    HW222218   4.550   3.798   5.864  0.3319 -0.8950  1.0147
 3587SOL     OW22219   0.612   1.188  16.038  0.3969  0.5454 -0.2424
 3587SOL    HW122220   0.604   1.238  16.119  0.4412 -2.5827  1.6907
 3587SOL    HW222221   0.520   1.161  16.033  0.3288  0.5010  1.2913
 3588SOL     OW22222   2.618   2.565   2.018  0.6592  0.0383 -0.5216
 3588SOL    HW122223   2.534   2.605   1.997  0.1767 -0.7124 -0.0310
 3588SOL    HW222224   2.594   2.484   2.064  0.4533  0.7361  0.5919
 3589SOL     OW22225   0.241   3.260   7.848  0.9401  0.1745  0.2687
 3589SOL    HW122226   0.272   3.333   7.900  1.4000  0.6386 -0.6573
 3589SOL    HW222227   0.280   3.279   7.763  1.0454  1.2825  0.5714
 3590SOL     OW22228   0.257   3.989   2.224  0.2350  0.4261 -0.1309
 3590SOL    HW122229   0.224   3.899   2.222 -0.7230  0.7649  0.6186
 3590SOL    HW222230   0.222   4.030   2.145 -1.2945 -3.0439 -1.2969
 3591SOL     OW22231   1.651   2.175   5.319  0.6467 -0.0271 -0.1544
 3591SOL    HW122232   1.692   2.261   5.331 -2.1001  1.2059  0.2603
 3591SOL    HW222233   1.568   2.191   5.364 -0.4965 -0.3668 -2.1265
 3592SOL     OW22234   4.008   2.267   8.424 -0.2231 -0.0051  0.7371
 3592SOL    HW122235   3.997   2.344   8.480  0.1138  0.9131 -0.4753
 3592SOL    HW222236   4.103   2.265   8.430 -0.2282  1.4611  1.3679
 3593SOL     OW22237   3.447   4.720   5.910 -0.6138 -0.4551 -0.2649
 3593SOL    HW122238   3.429   0.092   5.896  2.7470  0.1881 -0.2402
 3593SOL    HW222239   3.359   4.686   5.893 -0.8114 -0.1164  0.0833
 3594SOL     OW22240   3.752   2.194  12.819 -0.5904  0.1575  0.5728
 3594SOL    HW122241   3.762   2.120  12.879 -0.9505 -0.7384 -0.4707
 3594SOL    HW222242   3.711   2.159  12.740  0.3232  1.2408 -0.3621
 3595SOL     OW22243   2.521   4.011  13.908  0.7853  0.2615  0.1257
 3595SOL    HW122244   2.454   3.994  13.841  0.5686 -0.4058  0.5060
 3595SOL    HW222245   2.552   3.920  13.908  0.1401  0.0506  2.1107
 3596SOL     OW22246   1.573   1.359   2.068 -0.1761 -0.2535  0.0599
 3596SOL    HW122247   1.529   1.379   1.986 -1.1394  1.2982  0.9545
 3596SOL    HW222248   1.516   1.291   2.102 -1.3923  0.5375 -0.4082
 3597SOL     OW22249   1.861   0.723  12.178 -0.1210  0.1609  0.0083
 3597SOL    HW122250   1.930   0.787  12.162  0.2296 -0.3341 -0.4587
 3597SOL    HW222251   1.787   0.771  12.140 -0.5595 -0.8001 -0.3502
 3598SOL     OW22252   4.279   3.753   3.135  0.0586 -0.0895  0.5244
 3598SOL    HW122253   4.306   3.837   3.171  0.1977 -0.5807  1.5532
 3598SOL    HW222254   4.317   3.700   3.205  1.1226  0.4838  0.3883
 3599SOL     OW22255   1.902   0.262   8.760  0.4841 -0.0214  0.1471
 3599SOL    HW122256   1.889   0.208   8.838  0.3976  0.6724  0.6147
 3599SOL    HW222257   1.997   0.273   8.759  0.5849 -0.7728  1.2336
 3600SOL     OW22258   2.188   1.009   7.994  0.1592 -0.3017 -0.6675
 3600SOL    HW122259   2.182   0.924   7.950  2.6926 -0.2528 -1.1136
 3600SOL    HW222260   2.228   1.057   7.921  0.8229 -0.2761 -0.2849
 3601SOL     OW22261   0.844   0.999  12.475  0.4221  0.2362  0.5674
 3601SOL    HW122262   0.767   0.953  12.511  0.7303 -1.2647 -0.7043
 3601SOL    HW222263   0.828   1.086  12.512  2.3937  0.1331  1.6366
 3602SOL     OW22264   0.415   4.414   3.119  0.4571  0.9216  0.3788
 3602SOL    HW122265   0.477   4.372   3.179 -0.0809  0.5890  0.7089
 3602SOL    HW222266   0.383   4.496   3.157  2.2838  1.0937  1.5573
 3603SOL     OW22267   2.666   4.227   4.440  0.0711 -0.3412  0.1360
 3603SOL    HW122268   2.624   4.313   4.449  0.8174 -0.1211  1.5123
 3603SOL    HW222269   2.614   4.174   4.500  0.0538 -0.1450  0.2981
 3604SOL     OW22270   3.479   0.380   9.510  0.1584 -0.2816 -0.1822
 3604SOL    HW122271   3.392   0.417   9.521 -0.4879 -1.2763 -1.9256
 3604SOL    HW222272   3.481   0.313   9.578 -0.8277 -1.3609 -1.2169
 3605SOL     OW22273   4.392   1.854   4.229 -0.2107  0.0003 -0.4183
 3605SOL    HW122274   4.369   1.817   4.144  0.7214  2.3670 -1.6935
 3605SOL    HW222275   4.332   1.927   4.241  1.0138  0.7954  0.9124
 3606SOL     OW22276   2.248   3.955  12.333  0.6400  0.3923 -0.6608
 3606SOL    HW122277   2.157   3.927  12.344 -0.0046  1.7561 -2.5533
 3606SOL    HW222278   2.240   4.049  12.350 -1.5669  0.0328  0.3144
 3607SOL     OW22279   1.544   0.615  12.222  0.7796 -0.3471  0.0382
 3607SOL    HW122280   1.494   0.690  12.191 -0.2943 -1.8586 -1.8837
 3607SOL    HW222281   1.482   0.549  12.191  0.7771 -0.2586 -0.1431
 3608SOL     OW22282   4.339   0.708   8.560 -0.0869 -0.1614  0.3713
 3608SOL    HW122283   4.382   0.668   8.636 -0.9743 -1.7423  0.0499
 3608SOL    HW222284   4.372   0.797   8.564  0.2909 -0.3703  1.7999
 3609SOL     OW22285   0.006   1.280   7.127 -0.6798  0.6078  0.5950
 3609SOL    HW122286   4.653   1.229   7.094 -0.4385  0.8556 -0.3371
 3609SOL    HW222287   0.049   1.303   7.045  0.7104 -2.2409  0.5336
 3610SOL     OW22288   1.523   2.321   4.009 -0.0442 -0.6061 -0.5961
 3610SOL    HW122289   1.431   2.293   4.003 -0.1618 -0.4769  0.7947
 3610SOL    HW222290   1.548   2.265   4.082  1.3686 -1.3811 -1.6619
 3611SOL     OW22291   2.641   1.336   5.344  0.0749 -0.5968  0.1246
 3611SOL    HW122292   2.686   1.275   5.402  2.5543  1.5121  0.4177
 3611SOL    HW222293   2.646   1.300   5.255  0.0102  1.2904 -0.6434
 3612SOL     OW22294   0.170   3.384  13.007 -0.1401 -0.0559  0.2197
 3612SOL    HW122295   0.264   3.399  12.994 -0.6205  2.8319  0.0389
 3612SOL    HW222296   0.177   3.289  13.017 -0.7375 -0.1893 -0.6490
 3613SOL     OW22297   1.261   0.581   3.379 -0.0685  0.0456  0.3665
 3613SOL    HW122298   1.298   0.566   3.292 -0.1365 -2.1677  0.7302
 3613SOL    HW222299   1.276   0.676   3.379 -1.2330  0.2391 -1.0349
 3614SOL     OW22300   0.828   4.317   3.618  0.4841 -0.2947 -0.2023
 3614SOL    HW122301   0.763   4.336   3.685  0.1665 -1.4530 -0.1942
 3614SOL    HW222302   0.841   4.223   3.614 -2.2693 -0.5664 -2.5768
 3615SOL     OW22303   3.689   3.531   8.517 -0.4712 -0.2373  0.3935
 3615SOL    HW122304   3.701   3.626   8.512  0.4741 -0.3013  1.4453
 3615SOL    HW222305   3.747   3.492   8.452 -2.5122 -0.2114 -1.4598
 3616SOL     OW22306   1.977   0.190  11.266 -1.0244  0.3471  0.1530
 3616SOL    HW122307   1.939   0.272  11.233 -0.7872 -0.7999 -2.9726
 3616SOL    HW222308   1.982   0.142  11.184 -1.9835  0.4111  0.0538
 3617SOL     OW22309   2.931   2.196  12.297  1.1525 -0.1916  0.2924
 3617SOL    HW122310   2.900   2.121  12.246  0.3945  1.8391 -2.2667
 3617SOL    HW222311   2.845   2.222  12.328  1.7188  0.3820  1.3807
 3618SOL     OW22312   3.874   1.817   6.048  0.4057  0.3967  0.4651
 3618SOL    HW122313   3.944   1.833   6.112  1.8059  0.7515 -1.1489
 3618SOL    HW222314   3.922   1.791   5.969  0.1598  1.6236 -0.1022
 3619SOL     OW22315   3.827   4.339   5.389 -0.2823 -0.3222  0.0228
 3619SOL    HW122316   3.897   4.280   5.362 -1.1455 -0.9569 -0.8149
 3619SOL    HW222317   3.766   4.312   5.322  0.0461  1.8924 -1.1694
 3620SOL     OW22318   3.885   0.489   5.498 -0.0412 -0.3139 -0.2274
 3620SOL    HW122319   3.862   0.397   5.482 -1.2253  0.1940 -1.4474
 3620SOL    HW222320   3.796   0.518   5.518 -1.1078 -2.4467 -1.8405
 3621SOL     OW22321   0.781   0.892  12.831 -0.4261 -0.5478  0.0633
 3621SOL    HW122322   0.711   0.867  12.891  0.3326 -0.9794  0.7482
 3621SOL    HW222323   0.778   0.829  12.759  0.6126 -1.5561  0.9212
 3622SOL     OW22324   1.092   0.446   6.834 -0.1136 -0.0561  0.0027
 3622SOL    HW122325   1.118   0.538   6.839  0.8582 -0.3999  1.1019
 3622SOL    HW222326   1.026   0.455   6.765 -0.4457 -1.6044  0.1211
 3623SOL     OW22327   1.624   1.617   7.369  0.4777  0.0970 -0.2984
 3623SOL    HW122328   1.681   1.683   7.411  1.2935 -0.9303  0.2254
 3623SOL    HW222329   1.538   1.647   7.397 -0.1477  0.0050 -2.1406
 3624SOL     OW22330   0.256   3.287   9.464  0.5776 -0.4984  0.2012
 3624SOL    HW122331   0.318   3.321   9.399  1.6868 -0.3469  1.3351
 3624SOL    HW222332   0.302   3.332   9.535  1.0511  1.3450 -1.2879
 3625SOL     OW22333   0.952   0.671   7.156  0.2117 -0.2659  0.0170
 3625SOL    HW122334   0.902   0.593   7.180 -0.1774 -0.0946 -0.2280
 3625SOL    HW222335   0.922   0.677   7.065 -1.6853 -1.7931  0.5365
 3626SOL     OW22336   4.076   1.121   8.599  0.2319  0.6413  0.0340
 3626SOL    HW122337   4.043   1.111   8.689 -0.9828 -1.5343 -0.6642
 3626SOL    HW222338   4.014   1.174   8.549 -0.1533 -0.6108 -0.8130
 3627SOL     OW22339   2.915   4.644   2.734  0.4401 -0.3634 -0.0194
 3627SOL    HW122340   2.869   4.569   2.773  0.7657 -0.5508  0.0062
 3627SOL    HW222341   2.967   4.600   2.666 -0.2433  0.4485 -1.0641
 3628SOL     OW22342   4.230   2.711   7.230  0.3314  0.1452  0.4861
 3628SOL    HW122343   4.256   2.693   7.139  2.2858 -1.4914  1.3587
 3628SOL    HW222344   4.216   2.621   7.260  0.6665 -0.2198 -0.4457
 3629SOL     OW22345   3.213   1.537   0.965  0.0797 -0.0776  0.1799
 3629SOL    HW122346   3.155   1.607   0.991 -1.4974 -0.6205 -1.8981
 3629SOL    HW222347   3.146   1.472   0.945 -1.3066  1.4179 -0.0135
 3630SOL     OW22348   1.292   0.093   2.161  0.4192 -1.0694  0.0202
 3630SOL    HW122349   1.331   0.127   2.242  0.3535  1.7490 -1.1363
 3630SOL    HW222350   1.207   0.137   2.166  1.3148  0.8037 -1.1215
 3631SOL     OW22351   0.318   2.381   7.830 -0.3109 -0.5790  0.2857
 3631SOL    HW122352   0.322   2.398   7.924 -1.6499  1.0989  0.0414
 3631SOL    HW222353   0.298   2.473   7.813 -0.4605 -0.5896  0.3998
 3632SOL     OW22354   2.116   3.007   2.472  0.2594 -0.0206 -0.2826
 3632SOL    HW122355   2.156   2.992   2.387  0.6473  0.0445 -0.1128
 3632SOL    HW222356   2.039   3.055   2.443 -0.9260 -0.7654  1.6688
 3633SOL     OW22357   4.293   3.206   4.783  0.1515  0.4097 -0.2812
 3633SOL    HW122358   4.248   3.125   4.760  1.3433 -0.5469  0.8305
 3633SOL    HW222359   4.266   3.248   4.701  0.0744 -1.2944 -1.1255
 3634SOL     OW22360   2.971   3.276   4.739 -0.0398  0.4142 -0.0957
 3634SOL    HW122361   3.034   3.217   4.696 -0.1145 -1.2253  2.0841
 3634SOL    HW222362   2.888   3.230   4.733  0.2184 -0.1062  0.3736
 3635SOL     OW22363   0.818   1.446   7.604 -0.1707 -0.0192  0.2295
 3635SOL    HW122364   0.894   1.471   7.656 -0.6758  0.9973  0.4654
 3635SOL    HW222365   0.851   1.459   7.515  0.7203  0.4418  0.6330
 3636SOL     OW22366   1.861   1.148  11.519  0.6971  0.1167  0.3060
 3636SOL    HW122367   1.929   1.089  11.553 -0.8955 -0.7562  1.9958
 3636SOL    HW222368   1.812   1.090  11.461 -0.6244  0.7069  0.8192
 3637SOL     OW22369   3.230   2.791   4.323  0.4317  0.7578 -0.5027
 3637SOL    HW122370   3.242   2.845   4.401 -1.4440  1.7650 -0.9235
 3637SOL    HW222371   3.232   2.845   4.245  3.2881  2.3976  0.7403
 3638SOL     OW22372   0.990   1.142   7.713 -0.1122 -0.2336 -0.3818
 3638SOL    HW122373   1.030   1.187   7.638  0.8969 -0.4375  0.0453
 3638SOL    HW222374   1.046   1.064   7.710  0.2471  0.1115 -2.9767
 3639SOL     OW22375   1.889   2.885   4.784  0.7145  0.0302 -0.6000
 3639SOL    HW122376   1.906   2.895   4.878  0.5922  0.8788 -0.6681
 3639SOL    HW222377   1.951   2.818   4.755 -1.0620 -1.3444 -1.2323
 3640SOL     OW22378   1.165   2.378   5.345 -0.3348 -0.0592  0.3439
 3640SOL    HW122379   1.160   2.466   5.307 -0.0517  0.3142  1.1789
 3640SOL    HW222380   1.102   2.330   5.291  0.7182  0.5884 -1.4605
 3641SOL     OW22381   1.348   3.895   7.106 -0.5135 -0.0295 -0.2168
 3641SOL    HW122382   1.301   3.915   7.187  0.1399 -0.0699  0.1774
 3641SOL    HW222383   1.281   3.911   7.040 -0.3278  0.8399 -0.1979
 3642SOL     OW22384   0.136   2.349   5.804 -0.1904 -0.2744 -0.0840
 3642SOL    HW122385   0.208   2.396   5.762  1.2481 -0.9387  1.6198
 3642SOL    HW222386   0.173   2.325   5.889  0.0241 -1.0750 -0.4011
 3643SOL     OW22387   4.065   3.708  12.653  0.0760 -0.1275 -0.0992
 3643SOL    HW122388   4.057   3.746  12.741 -0.2942 -1.4004  0.4099
 3643SOL    HW222389   4.090   3.616  12.655 -1.8823 -0.6494  0.8855
 3644SOL     OW22390   3.367   4.077   7.195  0.0568 -0.3933 -0.4425
 3644SOL    HW122391   3.371   4.024   7.115  0.8034  0.5078 -1.0031
 3644SOL    HW222392   3.363   4.014   7.267  0.5923  0.0717 -0.0026
 3645SOL     OW22393   4.391   1.189   4.155  0.1055 -0.3190  1.2587
 3645SOL    HW122394   4.322   1.123   4.164  0.8533 -1.4065 -0.8831
 3645SOL    HW222395   4.464   1.139   4.191  0.3290 -0.4226  0.6701
 3646SOL     OW22396   0.500   0.858  15.929  0.3932  0.0779  0.6241
 3646SOL    HW122397   0.443   0.931  15.955 -4.0410 -2.6068 -1.5439
 3646SOL    HW222398   0.444   0.792  15.969  0.9098  0.9331  2.7410
 3647SOL     OW22399   1.174   3.180   3.802  0.0667  0.3653  0.0630
 3647SOL    HW122400   1.130   3.187   3.718 -1.3375  1.0621  0.8629
 3647SOL    HW222401   1.249   3.130   3.771  1.2702  2.1644  0.0438
 3648SOL     OW22402   0.706   1.372   2.429  0.0999  0.9211 -0.2923
 3648SOL    HW122403   0.645   1.416   2.489  1.8524  0.8122  1.5875
 3648SOL    HW222404   0.683   1.282   2.452  3.1428 -0.2444 -1.7645
 3649SOL     OW22405   0.939   4.455   4.964 -0.2238 -0.2402  0.1877
 3649SOL    HW122406   0.949   4.369   5.006 -1.9409  0.8906  2.9181
 3649SOL    HW222407   0.878   4.439   4.892 -0.6720  0.5633  0.3849
 3650SOL     OW22408   1.592   2.796   4.177 -0.1160 -0.2279  0.0743
 3650SOL    HW122409   1.605   2.749   4.095 -0.7195  0.8672 -0.6375
 3650SOL    HW222410   1.568   2.882   4.144 -3.3920 -1.6096 -1.1141
 3651SOL     OW22411   4.229   1.749  10.568 -0.6933  0.1379  0.0079
 3651SOL    HW122412   4.165   1.750  10.497  0.1773  1.7051 -0.7422
 3651SOL    HW222413   4.174   1.771  10.643  0.3490 -0.5922  0.9912
 3652SOL     OW22414   1.089   1.856  13.811 -0.4508 -0.2104  0.1783
 3652SOL    HW122415   1.171   1.898  13.787 -0.0408 -0.7698  0.5882
 3652SOL    HW222416   1.081   1.868  13.906 -0.7096  1.2482 -0.0359
 3653SOL     OW22417   3.514   1.278   3.779  0.0238 -0.7694  0.5646
 3653SOL    HW122418   3.538   1.311   3.866 -3.0434  0.6798  0.8499
 3653SOL    HW222419   3.487   1.360   3.737 -1.3680 -1.2546  0.5032
 3654SOL     OW22420   1.714   4.473  13.180 -0.4926 -0.4055 -0.3302
 3654SOL    HW122421   1.717   4.419  13.258  1.3226 -3.2443 -2.3629
 3654SOL    HW222422   1.648   4.428  13.127 -2.2603  0.7198  0.9320
 3655SOL     OW22423   4.573   4.393   4.028  0.0171  0.3529  0.1965
 3655SOL    HW122424   4.518   4.391   4.106 -1.3485  1.3248 -0.7439
 3655SOL    HW222425   4.590   4.487   4.033 -2.0459  0.6832  0.9752
 3656SOL     OW22426   0.516   2.107  10.047 -0.4659 -0.2013 -0.9983
 3656SOL    HW122427   0.537   2.053   9.970 -1.0336 -0.1871 -1.1645
 3656SOL    HW222428   0.460   2.047  10.096 -0.3099  0.6920  0.2879
 3657SOL     OW22429   0.220   3.904   8.323 -0.1057  0.0881  0.2912
 3657SOL    HW122430   0.235   3.876   8.413  1.0801 -1.2227 -0.3154
 3657SOL    HW222431   0.198   3.996   8.338 -0.7633  0.1046 -0.7458
 3658SOL     OW22432   1.194   3.503   9.461  0.2051  0.6767 -0.1672
 3658SOL    HW122433   1.192   3.483   9.555  0.8099  2.2140  0.1897
 3658SOL    HW222434   1.182   3.414   9.431  0.3731  1.0175 -1.2447
 3659SOL     OW22435   4.331   4.704   3.148 -0.4148 -0.6410  0.1759
 3659SOL    HW122436   4.328   4.627   3.205 -0.9600 -0.2894  0.6246
 3659SOL    HW222437   4.410   0.035   3.162  0.8660 -2.5949  0.1878
 3660SOL     OW22438   1.752   4.617   2.354 -0.5140  0.1350 -0.2586
 3660SOL    HW122439   1.715   4.533   2.380  0.2993  0.3775  1.7042
 3660SOL    HW222440   1.722   4.628   2.264 -0.1664  0.1247 -0.3773
 3661SOL     OW22441   1.145   0.828  13.712  0.4052 -0.0864  0.8801
 3661SOL    HW122442   1.192   0.852  13.792 -1.1062  0.9664  1.4477
 3661SOL    HW222443   1.089   0.903  13.694  0.6761  0.5042  2.4921
 3662SOL     OW22444   2.336   4.061  11.125 -0.5986 -0.6472  0.0686
 3662SOL    HW122445   2.322   3.974  11.089 -1.3757 -0.0286 -1.1382
 3662SOL    HW222446   2.269   4.108  11.075 -0.5964  0.2549  0.9178
 3663SOL     OW22447   4.004   1.961  14.346  0.0505  0.0215  0.1566
 3663SOL    HW122448   3.983   2.053  14.330 -0.7763 -0.5284 -1.9539
 3663SOL    HW222449   3.997   1.919  14.261 -0.9384 -1.0248  0.7531
 3664SOL     OW22450   3.702   2.904   4.336  0.6877  0.0591  0.2861
 3664SOL    HW122451   3.629   2.842   4.326  0.4796  0.4371 -0.5368
 3664SOL    HW222452   3.767   2.863   4.394  0.5064  0.6072  0.8751
 3665SOL     OW22453   4.261   1.855   7.911  0.5269 -0.1446  0.0250
 3665SOL    HW122454   4.187   1.907   7.945  0.6804 -0.1940  0.4431
 3665SOL    HW222455   4.324   1.924   7.893  0.0464  0.3832  0.3424
 3666SOL     OW22456   3.018   0.060   6.619 -0.4888 -0.3352 -0.1500
 3666SOL    HW122457   3.091   0.005   6.589 -0.1009  1.3327 -2.2524
 3666SOL    HW222458   2.979   0.000   6.683  0.5485  1.7105  2.3510
 3667SOL     OW22459   2.151   2.513  17.378  0.7426  0.3051  0.0270
 3667SOL    HW122460   2.129   2.591  17.429  0.5754  0.0405  0.3542
 3667SOL    HW222461   2.092   2.522  17.303  0.6512 -1.0693 -0.0722
 3668SOL     OW22462   3.916   1.484   6.632  0.1517  0.2836 -0.0613
 3668SOL    HW122463   3.990   1.540   6.609 -0.8284  0.8562 -1.8553
 3668SOL    HW222464   3.963   1.420   6.685 -0.9278  0.4088  1.0597
 3669SOL     OW22465   0.144   1.956  12.932 -0.2938  0.2812  0.0306
 3669SOL    HW122466   0.235   1.958  12.961 -0.9466 -0.3662  2.0985
 3669SOL    HW222467   0.167   1.982  12.843 -0.5872  0.9737  0.1628
 3670SOL     OW22468   1.631   2.809  17.062  0.5787 -0.3001  0.7207
 3670SOL    HW122469   1.545   2.850  17.062  0.2386 -1.0368 -1.3300
 3670SOL    HW222470   1.652   2.823  17.155  0.1393  2.7582  0.3484
 3671SOL     OW22471   1.034   0.960  17.663 -0.0460 -0.7003 -0.4723
 3671SOL    HW122472   1.048   0.949  17.568  0.5236 -1.1658 -0.3342
 3671SOL    HW222473   1.061   0.881   0.023 -0.5182 -1.9528 -2.2852
 3672SOL     OW22474   4.648   1.142   0.495  0.3816  0.3762 -0.5208
 3672SOL    HW122475   4.712   1.080   0.460 -1.7256 -1.2466 -1.4421
 3672SOL    HW222476   4.617   1.101   0.576 -0.0935 -0.1292 -0.9601
 3673SOL     OW22477   4.620   4.300   9.341 -0.3145 -0.3929 -0.1828
 3673SOL    HW122478   4.641   4.270   9.429 -1.4809 -1.0520 -0.1254
 3673SOL    HW222479   4.602   4.393   9.359  2.3904 -0.0255  0.6543
 3674SOL     OW22480   0.738   1.195  14.599  0.1374  0.0615 -0.2878
 3674SOL    HW122481   0.739   1.178  14.504 -0.2533  0.0215 -0.2855
 3674SOL    HW222482   0.657   1.244  14.614  0.6769  0.9296 -0.1966
 3675SOL     OW22483   2.881   0.630   9.890 -0.0836 -0.4116  0.6065
 3675SOL    HW122484   2.814   0.561   9.885  0.4766 -0.9781  1.0127
 3675SOL    HW222485   2.898   0.640   9.796 -1.6067  0.7674  0.4545
 3676SOL     OW22486   2.349   4.291   6.935  0.8698 -0.3960 -0.0453
 3676SOL    HW122487   2.421   4.285   6.872  0.7176 -1.0845 -0.1554
 3676SOL    HW222488   2.359   4.198   6.956  1.8945 -0.8468 -2.4741
 3677SOL     OW22489   1.064   2.737  17.180 -0.1372 -0.1268 -0.4844
 3677SOL    HW122490   1.101   2.816  17.219 -0.0570  0.2851 -1.3890
 3677SOL    HW222491   1.142   2.727  17.125 -0.4145 -1.6069 -0.6117
 3678SOL     OW22492   2.589   0.684   7.763  0.1295  0.2523  0.3330
 3678SOL    HW122493   2.596   0.616   7.696  1.9844  1.7135 -0.9723
 3678SOL    HW222494   2.680   0.714   7.761 -0.4041  1.8951  1.0467
 3679SOL     OW22495   1.023   2.099   4.095  0.6172 -0.2363 -0.4298
 3679SOL    HW122496   0.933   2.128   4.110  0.5862  0.0382 -1.1747
 3679SOL    HW222497   1.011   2.030   4.031 -0.7209 -0.4619  0.0755
 3680SOL     OW22498   0.810   0.097   5.804 -0.2551 -0.4379  0.0413
 3680SOL    HW122499   0.851   0.129   5.724  0.9238 -1.7251  0.1409
 3680SOL    HW222500   0.723   0.084   5.765  0.7254 -1.4194 -1.8247
 3681SOL     OW22501   0.174   4.406   9.509 -0.2322  0.0383 -0.0453
 3681SOL    HW122502   0.155   4.435   9.599 -0.1171 -1.0527  0.3241
 3681SOL    HW222503   0.141   4.317   9.509  3.4581 -1.3175 -2.8270
 3682SOL     OW22504   0.974   0.271   2.439  0.7076  0.4904 -0.0943
 3682SOL    HW122505   1.051   0.325   2.423  1.4140 -0.8781 -1.3129
 3682SOL    HW222506   0.896   0.326   2.434  0.3372  0.0435  0.6988
 3683SOL     OW22507   2.085   3.257  15.163  0.1793 -0.5468 -0.5477
 3683SOL    HW122508   2.064   3.248  15.256  0.4834 -0.3994 -0.4650
 3683SOL    HW222509   1.999   3.241  15.125 -0.1067  0.6643 -0.4033
 3684SOL     OW22510   3.699   0.761   1.769  0.1266 -0.2632 -0.0126
 3684SOL    HW122511   3.620   0.744   1.821  1.2569  1.7990  2.3701
 3684SOL    HW222512   3.728   0.846   1.802 -0.3512  0.5524 -1.7029
 3685SOL     OW22513   0.993   2.378  17.250  0.2400 -0.3013 -0.2880
 3685SOL    HW122514   1.066   2.317  17.241 -0.9405 -1.7551 -0.0007
 3685SOL    HW222515   0.914   2.327  17.230 -0.1933 -0.1935  1.1880
 3686SOL     OW22516   0.392   2.972   2.186  0.2222  0.2005 -0.0281
 3686SOL    HW122517   0.404   3.046   2.245 -1.6151  1.2527 -0.9804
 3686SOL    HW222518   0.308   3.001   2.150  1.4115  1.3811 -1.8235
 3687SOL     OW22519   3.691   3.218  11.825  0.1583  0.0042  0.0267
 3687SOL    HW122520   3.730   3.293  11.870 -0.1663  0.0287  0.2680
 3687SOL    HW222521   3.628   3.263  11.770 -1.0610  2.4238  3.3802
 3688SOL     OW22522   4.553   1.707   4.401  0.3077 -0.1051 -0.0004
 3688SOL    HW122523   4.569   1.632   4.344  0.3304 -0.4538  0.4650
 3688SOL    HW222524   4.502   1.757   4.338 -0.7758  1.0737  1.7996
 3689SOL     OW22525   1.031   0.547   2.953  0.6273 -0.0364  0.3460
 3689SOL    HW122526   1.079   0.573   2.874 -0.2102 -2.0895 -0.8450
 3689SOL    HW222527   1.105   0.509   3.001  0.6940 -1.7913 -1.1257
 3690SOL     OW22528   1.493   1.582   9.398 -0.4976 -0.1608 -0.2252
 3690SOL    HW122529   1.561   1.624   9.451 -0.7363  0.0634 -0.0962
 3690SOL    HW222530   1.438   1.545   9.468 -0.5607  0.0050 -0.1889
 3691SOL     OW22531   4.603   1.585  12.418  0.0571 -0.2866  0.0902
 3691SOL    HW122532   4.589   1.582  12.513 -1.6721 -0.1309 -0.1712
 3691SOL    HW222533   4.617   1.679  12.406  5.1000 -1.0457 -0.2228
 3692SOL     OW22534   2.555   0.444  15.579 -0.1023 -0.5008 -0.0844
 3692SOL    HW122535   2.534   0.525  15.625 -1.9577 -0.1962 -1.4592
 3692SOL    HW222536   2.561   0.373  15.641 -0.9966 -1.2821 -0.9007
 3693SOL     OW22537   4.598   2.945  13.512  0.0430  0.1671  0.0426
 3693SOL    HW122538   4.594   3.041  13.519  2.5695  0.1993  1.2097
 3693SOL    HW222539   4.616   2.927  13.605  1.0070  1.8788  0.1990
 3694SOL     OW22540   4.621   4.583   6.489  0.1953 -0.0124  0.6278
 3694SOL    HW122541   4.530   4.587   6.461 -0.0745 -2.4138  1.1613
 3694SOL    HW222542   4.638   4.493   6.462  2.0131 -0.1031  2.0334
 3695SOL     OW22543   0.799   0.774   7.755  0.6843 -0.5318 -0.6599
 3695SOL    HW122544   0.843   0.729   7.827  0.5068  0.2696 -0.0470
 3695SOL    HW222545   0.793   0.859   7.799  0.6220 -0.4756 -0.7766
 3696SOL     OW22546   0.621   0.902   6.001  0.9609 -0.1785 -0.1070
 3696SOL    HW122547   0.680   0.851   6.056  0.5745 -1.0075 -0.4669
 3696SOL    HW222548   0.641   0.844   5.927 -0.7100 -0.1650 -0.5713
 3697SOL     OW22549   3.466   2.443  12.091  0.3242  0.1108  0.4447
 3697SOL    HW122550   3.561   2.442  12.095  0.3251  2.3198  1.0598
 3697SOL    HW222551   3.444   2.503  12.021 -0.9017  0.6171  1.2596
 3698SOL     OW22552   3.870   4.569  13.804  0.1809  0.2782  0.2877
 3698SOL    HW122553   3.903   4.653  13.836  1.8294  0.4657 -1.8373
 3698SOL    HW222554   3.824   4.544  13.884  2.6534 -2.0687  0.9941
 3699SOL     OW22555   0.815   4.388  15.805 -0.5623 -0.1798 -0.5060
 3699SOL    HW122556   0.822   4.322  15.736  2.2397  0.7582 -1.0988
 3699SOL    HW222557   0.726   4.415  15.783 -0.2029  0.7149 -0.8636
 3700SOL     OW22558   2.065   4.715   3.957  0.5155  0.0681 -0.1513
 3700SOL    HW122559   2.010   4.696   4.033  1.8340  0.7532  0.9864
 3700SOL    HW222560   2.081   4.627   3.923  2.9552 -0.2772  1.8825
 3701SOL     OW22561   4.545   1.028   6.252 -0.1379 -0.2197  0.0776
 3701SOL    HW122562   4.625   1.081   6.256 -0.9428  0.9091  1.1998
 3701SOL    HW222563   4.563   0.957   6.313  0.2177  0.5348  0.8588
 3702SOL     OW22564   0.863   1.953   6.284  0.0694 -0.1763  0.2220
 3702SOL    HW122565   0.811   1.983   6.358  1.1447  0.3463  0.7519
 3702SOL    HW222566   0.948   1.987   6.313 -0.7751  1.1644  1.1210
 3703SOL     OW22567   3.664   1.090   4.551 -0.0514  0.0519  0.2975
 3703SOL    HW122568   3.594   1.063   4.492  0.5166  0.1404 -0.4074
 3703SOL    HW222569   3.626   1.161   4.603  1.1959  0.7455  0.2717
 3704SOL     OW22570   1.664   1.833   4.672 -0.4111  0.1527 -0.1889
 3704SOL    HW122571   1.613   1.900   4.719  2.5644  1.5717  1.0677
 3704SOL    HW222572   1.742   1.820   4.727 -0.7319  0.6351  0.3899
 3705SOL     OW22573   1.393   4.130   0.944 -0.5870 -0.5264 -0.6074
 3705SOL    HW122574   1.375   4.194   0.875 -0.8645  0.7750  0.6746
 3705SOL    HW222575   1.403   4.053   0.888  0.0503 -0.5354 -0.4808
 3706SOL     OW22576   0.692   1.276   8.406 -0.6277  0.4929 -0.3589
 3706SOL    HW122577   0.695   1.315   8.319 -1.4158  4.0644  1.2249
 3706SOL    HW222578   0.763   1.212   8.406 -1.5813 -0.5776  0.8836
 3707SOL     OW22579   0.123   0.912   6.387  0.9785 -0.4281  0.3806
 3707SOL    HW122580   0.192   0.849   6.405  1.3926 -0.0755  0.0067
 3707SOL    HW222581   0.060   0.892   6.458  1.0570  0.1105  0.5988
 3708SOL     OW22582   2.033   1.353   2.539  0.4032 -0.0597 -0.0165
 3708SOL    HW122583   2.108   1.412   2.524 -0.2848  0.8629  0.1607
 3708SOL    HW222584   1.956   1.403   2.514  0.4432 -0.0877 -0.1959
 3709SOL     OW22585   0.441   1.932   5.031 -0.2133  0.3972 -0.8616
 3709SOL    HW122586   0.523   1.884   5.044  1.1341  1.8581 -3.7609
 3709SOL    HW222587   0.393   1.872   4.974 -0.6006 -0.2764  0.1753
 3710SOL     OW22588   1.580   3.643   8.682  0.6879 -0.0144 -0.1016
 3710SOL    HW122589   1.489   3.645   8.711  1.2519  0.7956  1.6233
 3710SOL    HW222590   1.579   3.713   8.617  1.7583  2.1851  2.2374
 3711SOL     OW22591   3.029   0.084  16.596  0.0878  0.1753  0.3962
 3711SOL    HW122592   3.066   0.103  16.682  3.7375 -1.2572 -0.8761
 3711SOL    HW222593   2.952   0.140  16.600 -1.0151 -1.4318  1.7081
 3712SOL     OW22594   0.135   3.619   6.783 -0.6503 -0.9659  0.2114
 3712SOL    HW122595   0.084   3.642   6.860  1.1884  0.5577  0.9702
 3712SOL    HW222596   0.126   3.701   6.733  0.0517 -0.3669  1.0688
 3713SOL     OW22597   4.153   3.361  10.894 -0.3084 -0.4253 -0.5210
 3713SOL    HW122598   4.200   3.381  10.975 -1.7369 -0.2003  0.2703
 3713SOL    HW222599   4.152   3.266  10.894 -0.2967 -0.4231 -2.2969
 3714SOL     OW22600   2.311   3.450  13.444  0.1155  0.4709  0.1222
 3714SOL    HW122601   2.255   3.391  13.494 -0.4413  0.6861 -0.2472
 3714SOL    HW222602   2.375   3.472  13.512  2.8504 -0.1282 -2.2560
 3715SOL     OW22603   4.432   1.341   3.019  0.1374  0.2956  0.6129
 3715SOL    HW122604   4.479   1.268   3.059  0.8524  0.1893 -0.3998
 3715SOL    HW222605   4.371   1.301   2.956  1.1545 -1.0261  0.4738
 3716SOL     OW22606   3.792   1.785   5.078 -0.1559  0.6209 -0.1078
 3716SOL    HW122607   3.789   1.861   5.137  0.6617  1.1691 -0.7853
 3716SOL    HW222608   3.872   1.804   5.030 -0.5978  0.7338 -0.8074
 3717SOL     OW22609   0.672   3.635  15.907 -0.0296  0.2831  0.3754
 3717SOL    HW122610   0.590   3.676  15.935 -1.6457 -3.4843  1.2486
 3717SOL    HW222611   0.726   3.621  15.985 -1.5942 -1.6141  1.1300
 3718SOL     OW22612   0.464   2.106   9.594  0.1433  0.3277  0.0625
 3718SOL    HW122613   0.395   2.173   9.595 -0.0177  0.1773 -0.8182
 3718SOL    HW222614   0.418   2.023   9.584  2.3448 -1.1295  1.9901
 3719SOL     OW22615   3.096   3.150   1.340 -0.1087 -0.2473  0.2305
 3719SOL    HW122616   3.034   3.094   1.294  0.6081  0.9556 -2.2180
 3719SOL    HW222617   3.050   3.233   1.347 -0.2503 -0.3192  0.1437
 3720SOL     OW22618   1.128   0.492  10.026  0.0953 -0.0277  0.4505
 3720SOL    HW122619   1.223   0.487  10.013 -0.5050 -2.1818 -3.3264
 3720SOL    HW222620   1.102   0.400  10.023  0.2876 -0.0464 -1.1026
 3721SOL     OW22621   1.867   1.566   5.378  0.0185 -0.6977  0.4106
 3721SOL    HW122622   1.774   1.592   5.379  0.1481 -0.2487  0.5079
 3721SOL    HW222623   1.871   1.472   5.357 -1.1028 -0.9502  1.2692
 3722SOL     OW22624   2.882   1.940   5.272  0.6467  0.2466  0.1829
 3722SOL    HW122625   2.876   1.921   5.365 -0.1276 -2.3561 -0.4188
 3722SOL    HW222626   2.974   1.966   5.261  0.3257  0.7154 -1.3806
 3723SOL     OW22627   2.870   3.014   0.425 -0.1849 -0.0041  0.8308
 3723SOL    HW122628   2.873   2.939   0.484 -0.6115 -1.0112 -0.4330
 3723SOL    HW222629   2.912   3.079   0.482  0.0811  1.2210 -0.7700
 3724SOL     OW22630   4.481   3.618  14.518 -0.4592 -0.3152 -0.0994
 3724SOL    HW122631   4.511   3.548  14.576  0.1895 -0.4975 -0.6546
 3724SOL    HW222632   4.497   3.697  14.569 -2.0452  0.2410 -0.4799
 3725SOL     OW22633   3.254   4.644   6.569  0.4966  0.5323  0.4277
 3725SOL    HW122634   3.232   4.672   6.479  0.0442 -0.8544  0.1144
 3725SOL    HW222635   3.342   4.679   6.579  1.4287 -1.4002 -1.0437
 3726SOL     OW22636   1.423   4.601   6.212 -0.4998  0.1145 -0.1017
 3726SOL    HW122637   1.428   4.660   6.137 -0.2971  0.3810  0.1211
 3726SOL    HW222638   1.344   4.549   6.206 -0.7731  0.3886  1.2326
 3727SOL     OW22639   0.332   2.754   2.534  0.1599  0.0407  0.1088
 3727SOL    HW122640   0.280   2.714   2.604 -1.0110 -1.0493 -1.3906
 3727SOL    HW222641   0.262   2.805   2.493  2.3855  3.0820  0.1504
 3728SOL     OW22642   1.681   0.552  13.288 -0.5942  0.4796  0.2400
 3728SOL    HW122643   1.610   0.511  13.338 -0.8573 -0.9092 -1.2590
 3728SOL    HW222644   1.661   0.526  13.198  0.1392 -0.7766  0.4467
 3729SOL     OW22645   2.819   1.709  11.750  0.6646 -0.0041  0.1694
 3729SOL    HW122646   2.740   1.755  11.723 -0.3710 -1.8938 -0.0370
 3729SOL    HW222647   2.791   1.663  11.828 -0.2314  3.9154  2.1326
 3730SOL     OW22648   1.571   1.310   9.765  0.9225  0.5016  0.3498
 3730SOL    HW122649   1.558   1.294   9.858  1.5256  1.4984  0.5943
 3730SOL    HW222650   1.582   1.405   9.762  0.2319  0.5828  0.4165
 3731SOL     OW22651   4.259   2.777   4.669 -0.5620  0.1517  0.2387
 3731SOL    HW122652   4.253   2.731   4.585 -0.1350 -0.4354  0.5349
 3731SOL    HW222653   4.324   2.719   4.707  0.1933  1.6547  1.2236
 3732SOL     OW22654   3.463   3.522  15.996  0.3774 -0.1678 -0.4586
 3732SOL    HW122655   3.466   3.611  15.961 -0.5521 -0.8583 -2.2539
 3732SOL    HW222656   3.372   3.500  15.979  1.0380 -1.7496 -1.9098
 3733SOL     OW22657   0.881   0.798   8.930 -0.3207 -0.2534  0.7080
 3733SOL    HW122658   0.848   0.755   9.009 -2.0106  0.6033  0.4794
 3733SOL    HW222659   0.816   0.867   8.918  1.2436  0.6911 -2.4946
 3734SOL     OW22660   0.945   3.363   3.349 -0.4381 -0.2249 -0.6456
 3734SOL    HW122661   0.911   3.421   3.417  2.6508  0.5805  0.2061
 3734SOL    HW222662   1.023   3.416   3.331 -0.3525 -0.2954 -0.4766
 3735SOL     OW22663   3.230   4.638   9.488  0.0589 -1.1425  0.1643
 3735SOL    HW122664   3.289   4.594   9.428 -0.2164 -0.9410 -0.2600
 3735SOL    HW222665   3.251   4.587   9.566  0.5427 -0.3416  0.5528
 3736SOL     OW22666   1.409   0.325   7.077  0.3760 -0.0043 -0.2560
 3736SOL    HW122667   1.379   0.414   7.095 -0.0331  0.3466 -2.6461
 3736SOL    HW222668   1.325   0.284   7.058 -0.5289  1.7974 -0.1307
 3737SOL     OW22669   3.652   2.508  17.643  0.1561  0.8031  0.5354
 3737SOL    HW122670   3.567   2.469  17.627  0.8426  0.0706 -1.4045
 3737SOL    HW222671   3.707   2.430  17.653 -0.0411  0.0405 -4.0277
 3738SOL     OW22672   0.416   4.707   2.290 -0.4932 -0.8149  0.0172
 3738SOL    HW122673   0.324   4.689   2.268 -0.8483  1.1211 -0.0177
 3738SOL    HW222674   0.407   0.048   2.361  0.3374  1.7250 -2.0957
 3739SOL     OW22675   2.809   0.365   6.695 -0.4276  0.3695  0.5246
 3739SOL    HW122676   2.821   0.440   6.637 -0.5830 -0.1815 -0.2116
 3739SOL    HW222677   2.831   0.293   6.635  0.7828  0.1605  1.1985
 3740SOL     OW22678   0.288   2.668   1.864 -0.2456 -0.3617  0.1262
 3740SOL    HW122679   0.346   2.606   1.820  0.6504  0.8737 -0.4340
 3740SOL    HW222680   0.340   2.725   1.920 -0.5211 -0.9970  1.0327
 3741SOL     OW22681   0.055   1.509  16.879  0.3096  0.1408  0.2817
 3741SOL    HW122682   0.089   1.553  16.802  1.8437 -0.5934  0.5467
 3741SOL    HW222683   4.717   1.570  16.924 -2.5247 -2.1058 -0.3656
 3742SOL     OW22684   3.167   4.580   8.962 -0.3526 -0.0991  0.2605
 3742SOL    HW122685   3.193   4.492   8.991  1.3183  0.0410 -0.8270
 3742SOL    HW222686   3.141   4.569   8.871  1.2285 -1.7209  0.0010
 3743SOL     OW22687   2.351   1.170  15.485 -0.0182 -0.2723  0.6879
 3743SOL    HW122688   2.438   1.190  15.450 -0.5523  0.6978 -0.0888
 3743SOL    HW222689   2.293   1.160  15.410  1.0883  1.1179 -0.3476
 3744SOL     OW22690   1.529   1.812  16.006  0.3864  0.1060  0.0912
 3744SOL    HW122691   1.597   1.782  15.946  1.1643 -0.8256  1.4421
 3744SOL    HW222692   1.507   1.733  16.056  0.6573  0.7061  1.1459
 3745SOL     OW22693   1.486   4.283   9.049  0.3540  0.3091 -0.0061
 3745SOL    HW122694   1.473   4.221   9.120 -1.1781  0.4745 -0.1596
 3745SOL    HW222695   1.472   4.226   8.974  3.1135  1.8981 -1.7418
 3746SOL     OW22696   1.990   2.140   6.137  0.4219  0.1666  0.3825
 3746SOL    HW122697   2.013   2.233   6.133  3.7055 -0.6787 -0.8682
 3746SOL    HW222698   2.074   2.094   6.136  1.1241  1.4407  0.3958
 3747SOL     OW22699   1.164   1.843   1.881 -0.6197  0.0196  0.3568
 3747SOL    HW122700   1.118   1.876   1.958  0.1005 -0.2219  0.8903
 3747SOL    HW222701   1.112   1.877   1.808  0.8652 -0.7364 -1.0604
 3748SOL     OW22702   0.491   1.168   0.779  0.2274  0.0823  0.0298
 3748SOL    HW122703   0.396   1.179   0.768  0.5414  1.3412 -1.3414
 3748SOL    HW222704   0.518   1.259   0.770  2.0463 -0.6468 -1.8861
 3749SOL     OW22705   1.314   0.116  17.605 -0.1875  0.1545  0.0375
 3749SOL    HW122706   1.234   0.168  17.608 -2.2823 -3.0758  0.4617
 3749SOL    HW222707   1.300   0.072  17.521  1.5064  0.6411 -0.5007
 3750SOL     OW22708   2.262   2.564   7.951 -0.3823  0.4614 -0.2827
 3750SOL    HW122709   2.269   2.637   7.890 -1.5448  1.0682  0.3012
 3750SOL    HW222710   2.303   2.488   7.909  0.9329  1.8375 -1.4961
 3751SOL     OW22711   3.809   2.770  15.468  0.2417 -0.4776 -0.2824
 3751SOL    HW122712   3.880   2.759  15.531 -0.0811 -0.9885 -0.0018
 3751SOL    HW222713   3.752   2.833  15.512 -0.4325 -0.0584 -1.7529
 3752SOL     OW22714   2.150   2.260   5.827  0.1389 -0.1255  0.5246
 3752SOL    HW122715   2.103   2.192   5.778  1.4912  0.2445 -1.3075
 3752SOL    HW222716   2.237   2.225   5.805  1.3990  2.3824  1.5916
 3753SOL     OW22717   4.500   4.248   5.252  0.0441  1.0044  0.6083
 3753SOL    HW122718   4.461   4.330   5.221  1.8526  1.5755 -0.1888
 3753SOL    HW222719   4.422   4.198   5.276 -0.0183  0.9634  0.3151
 3754SOL     OW22720   4.378   0.441   5.376  0.0162 -0.5389 -0.1375
 3754SOL    HW122721   4.439   0.440   5.302  0.9891  2.8100  0.6297
 3754SOL    HW222722   4.431   0.439   5.456 -1.9458  1.8606  1.2466
 3755SOL     OW22723   0.408   0.312   2.331  0.1296 -0.3728 -0.4077
 3755SOL    HW122724   0.315   0.319   2.309  0.1612 -0.1585 -0.4791
 3755SOL    HW222725   0.420   0.402   2.361  0.6692 -0.0813 -1.4813
 3756SOL     OW22726   1.258   0.628   4.172 -0.1215  0.8768  0.2116
 3756SOL    HW122727   1.290   0.540   4.190  1.1741  1.0451 -1.2667
 3756SOL    HW222728   1.320   0.669   4.111 -0.7675 -1.0535 -1.7557
 3757SOL     OW22729   2.777   0.289   7.172 -0.0851 -0.6242 -0.4864
 3757SOL    HW122730   2.823   0.366   7.205 -1.3380 -0.8137  1.6883
 3757SOL    HW222731   2.699   0.335   7.141 -0.8019 -1.5695 -0.0675
 3758SOL     OW22732   3.189   0.504  10.027 -0.0856  0.0992  0.4221
 3758SOL    HW122733   3.254   0.490   9.958  0.5091 -0.5848  1.1185
 3758SOL    HW222734   3.226   0.440  10.088 -1.5977 -0.1368  1.0985
 3759SOL     OW22735   4.003   1.203   4.874 -1.0358 -0.3285 -0.0621
 3759SOL    HW122736   4.058   1.223   4.798  0.2671  3.2765  1.8244
 3759SOL    HW222737   3.992   1.108   4.875 -2.6045 -0.1412 -0.4355
 3760SOL     OW22738   2.956   0.964   7.586 -0.7875 -0.2661  0.3378
 3760SOL    HW122739   2.995   0.882   7.555  2.4012  0.1887  3.1639
 3760SOL    HW222740   3.033   1.006   7.625 -0.4414  0.3272 -1.0171
 3761SOL     OW22741   3.636   1.308   8.234 -0.2389 -0.2862 -0.1198
 3761SOL    HW122742   3.688   1.229   8.247  0.7651  0.9567  3.4749
 3761SOL    HW222743   3.561   1.267   8.191  0.2627 -0.0276 -1.2335
 3762SOL     OW22744   2.048   0.905   8.439 -0.8933 -0.0259  0.4394
 3762SOL    HW122745   2.126   0.850   8.438 -0.5741  0.4862 -2.9631
 3762SOL    HW222746   2.013   0.884   8.352  0.4814  2.7312 -0.7634
 3763SOL     OW22747   1.137   2.116   6.062 -0.4096  0.0541 -0.0273
 3763SOL    HW122748   1.118   2.107   6.155  0.1255 -0.1403  0.0654
 3763SOL    HW222749   1.083   2.190   6.035 -1.9334 -0.0417  2.7479
 3764SOL     OW22750   3.170   1.530   5.771  0.4007  0.2848  0.5619
 3764SOL    HW122751   3.226   1.604   5.749  0.1216  0.1450 -0.5752
 3764SOL    HW222752   3.150   1.551   5.863 -1.0790 -1.5931  0.6593
 3765SOL     OW22753   3.547   2.124   6.029 -0.0334 -0.4034 -0.1231
 3765SOL    HW122754   3.456   2.133   5.998 -0.4687 -0.6326  1.0717
 3765SOL    HW222755   3.562   2.209   6.070 -2.1676 -0.1822  0.2498
 3766SOL     OW22756   1.244   2.737  11.342  0.6279  0.3166 -0.1627
 3766SOL    HW122757   1.215   2.819  11.304 -2.3251  0.6378  2.7344
 3766SOL    HW222758   1.339   2.744  11.337  0.7473 -0.0125  1.3763
 3767SOL     OW22759   3.230   3.959   9.128  0.3694 -0.4465  0.4644
 3767SOL    HW122760   3.151   3.909   9.147  0.8779 -1.7577 -0.8289
 3767SOL    HW222761   3.300   3.894   9.128 -0.0781 -0.9273  1.4981
 3768SOL     OW22762   1.306   1.454   7.382 -0.3017 -0.2153  0.5902
 3768SOL    HW122763   1.336   1.535   7.422  0.4933 -0.8444  1.2764
 3768SOL    HW222764   1.318   1.466   7.288 -0.3978 -0.3851  0.5567
 3769SOL     OW22765   0.583   1.635  15.282 -0.4022 -0.0944 -0.0652
 3769SOL    HW122766   0.587   1.579  15.359  1.1446 -0.1144 -0.1566
 3769SOL    HW222767   0.659   1.692  15.295 -0.0826 -0.4724 -0.2968
 3770SOL     OW22768   1.347   2.436   7.750 -0.1076 -0.5799  0.4793
 3770SOL    HW122769   1.357   2.344   7.723 -2.2453 -1.0731  1.3454
 3770SOL    HW222770   1.258   2.441   7.785 -1.1082  3.6980 -2.7789
 3771SOL     OW22771   4.406   1.216  16.385 -0.1869  0.3953 -0.2063
 3771SOL    HW122772   4.437   1.271  16.313 -0.7011  2.6124  1.2809
 3771SOL    HW222773   4.356   1.154  16.332 -1.1543  1.0455 -0.0556
 3772SOL     OW22774   1.383   3.587  12.045 -0.0683  0.1033  0.1033
 3772SOL    HW122775   1.450   3.630  11.993  0.3397 -1.9678 -1.1121
 3772SOL    HW222776   1.438   3.540  12.108 -0.3084 -0.8610 -0.3958
 3773SOL     OW22777   1.885   2.324   5.407 -0.1441 -0.0888 -0.2271
 3773SOL    HW122778   1.915   2.238   5.435 -2.6925 -0.4461  1.4146
 3773SOL    HW222779   1.957   2.355   5.351 -0.1750 -1.0920 -0.8214
 3774SOL     OW22780   1.122   2.753   7.902  0.5739 -0.1124  0.0103
 3774SOL    HW122781   1.131   2.839   7.944  0.3320  0.0365 -0.2434
 3774SOL    HW222782   1.076   2.722   7.980  0.3400 -0.9168 -0.4462
 3775SOL     OW22783   0.931   2.421   6.628 -0.7589 -0.7228  0.1983
 3775SOL    HW122784   0.926   2.341   6.679 -0.9151 -0.3924  0.7047
 3775SOL    HW222785   0.861   2.478   6.662  0.4903  0.0264  1.4966
 3776SOL     OW22786   3.050   0.458  16.891  0.0993  0.2027 -0.6078
 3776SOL    HW122787   3.020   0.543  16.923 -0.0738  0.9778 -2.8417
 3776SOL    HW222788   3.033   0.474  16.799  1.2986  0.2032 -0.8347
 3777SOL     OW22789   3.987   0.567   9.635  0.0649  0.0444 -0.0968
 3777SOL    HW122790   4.002   0.489   9.688  2.7433  0.8155  0.2897
 3777SOL    HW222791   3.942   0.611   9.708  0.7740 -3.0520  2.1946
 3778SOL     OW22792   3.725   3.670   2.443 -0.6801 -0.0280  0.0419
 3778SOL    HW122793   3.749   3.738   2.380  1.4211  1.8924  2.9018
 3778SOL    HW222794   3.777   3.691   2.520  0.9595 -1.4423 -0.6590
 3779SOL     OW22795   3.081   1.245   7.861 -0.1518 -0.4850 -0.3137
 3779SOL    HW122796   3.150   1.298   7.902  1.6474 -1.0012 -2.6781
 3779SOL    HW222797   3.022   1.310   7.822 -3.4205 -0.9120  3.9228
 3780SOL     OW22798   2.859   1.635   7.243 -0.3984  0.7280 -0.4459
 3780SOL    HW122799   2.933   1.695   7.233  0.8886 -0.3700  2.3353
 3780SOL    HW222800   2.901   1.552   7.269 -2.4886 -0.3481 -0.5157
 3781SOL     OW22801   0.329   3.015   3.369  0.1644  0.5534 -0.0171
 3781SOL    HW122802   0.411   3.052   3.401  0.6045  2.5345 -3.3592
 3781SOL    HW222803   0.284   3.094   3.339  1.2272  1.8246  1.7856
 3782SOL     OW22804   0.661   3.750   2.592  0.6214  0.4872  0.3918
 3782SOL    HW122805   0.749   3.784   2.579  0.6518 -0.8094 -2.7998
 3782SOL    HW222806   0.608   3.816   2.548 -0.1937 -0.3056  0.1778
 3783SOL     OW22807   4.051   4.080  15.376  0.2322  0.5682  0.2075
 3783SOL    HW122808   4.143   4.079  15.352 -0.0771  0.0158 -0.9786
 3783SOL    HW222809   4.059   4.036  15.461 -1.3286 -0.2071 -0.0497
 3784SOL     OW22810   3.197   1.731   8.476  0.1031  0.0384  0.2886
 3784SOL    HW122811   3.281   1.723   8.522 -0.1327 -2.7059  0.2709
 3784SOL    HW222812   3.211   1.796   8.407 -0.2595 -1.4700 -1.2121
 3785SOL     OW22813   2.584   2.597   9.623  0.3349  0.4146  0.0722
 3785SOL    HW122814   2.654   2.636   9.676 -0.2745  1.1522  0.3444
 3785SOL    HW222815   2.512   2.654   9.651  0.5887  0.8026 -0.0642
 3786SOL     OW22816   4.323   1.986  14.322 -0.0072  0.1062 -0.3011
 3786SOL    HW122817   4.305   1.897  14.293  1.9734 -0.7842  1.2278
 3786SOL    HW222818   4.245   2.019  14.366  0.5680  0.7252  0.2639
 3787SOL     OW22819   2.072   4.347   8.599  0.1108 -0.6009  0.4153
 3787SOL    HW122820   2.097   4.423   8.651  2.0262 -0.5230 -0.5888
 3787SOL    HW222821   2.146   4.288   8.616  0.0289 -0.0717  2.5445
 3788SOL     OW22822   0.947   2.561  14.236  0.0342 -0.3413  0.1044
 3788SOL    HW122823   0.908   2.498  14.176  1.5374 -1.6696  0.5197
 3788SOL    HW222824   0.869   2.608  14.267  0.4127  0.0977  0.3993
 3789SOL     OW22825   3.646   3.567   6.827 -0.5902  0.4386 -0.5199
 3789SOL    HW122826   3.557   3.555   6.793 -0.8097  1.2793 -0.2667
 3789SOL    HW222827   3.702   3.582   6.752  2.4261 -0.3445  1.5824
 3790SOL     OW22828   0.177   3.133  13.069 -0.2268  0.0164 -0.2812
 3790SOL    HW122829   0.175   3.044  13.103  0.3328  0.5474  1.1076
 3790SOL    HW222830   0.222   3.113  12.987  2.3876 -1.0793  1.4552
 3791SOL     OW22831   1.957   0.019   1.314  0.4050 -0.0544  0.1508
 3791SOL    HW122832   2.000   4.687   1.247  1.1249  1.0944 -0.3048
 3791SOL    HW222833   1.867   0.002   1.289  0.8871  0.0345 -1.6115
 3792SOL     OW22834   2.582   1.890   7.219  0.6846 -0.0187 -0.1834
 3792SOL    HW122835   2.607   1.810   7.265  0.4919  0.5217  0.8655
 3792SOL    HW222836   2.611   1.957   7.280 -0.1284  1.2022 -1.1360
 3793SOL     OW22837   3.645   1.592   5.625 -0.2822  0.2123 -0.3347
 3793SOL    HW122838   3.606   1.577   5.711 -0.4352  0.7691 -0.3069
 3793SOL    HW222839   3.738   1.607   5.643 -0.0382  0.7909 -2.0942
 3794SOL     OW22840   1.433   3.327   7.616  0.0583 -0.4196 -0.3669
 3794SOL    HW122841   1.420   3.351   7.708  2.6849 -0.1922 -0.0552
 3794SOL    HW222842   1.461   3.412   7.582 -1.0632 -0.7069 -2.0168
 3795SOL     OW22843   4.285   3.339   4.516  0.4413  0.6159  0.6762
 3795SOL    HW122844   4.226   3.390   4.461  0.2567  1.1549  1.3749
 3795SOL    HW222845   4.334   3.287   4.452  1.4711  3.0187 -0.4881
 3796SOL     OW22846   0.104   4.578   5.929  0.5342  0.1690 -0.3888
 3796SOL    HW122847   0.068   4.505   5.879  1.1330  0.6145 -1.4732
 3796SOL    HW222848   0.106   4.544   6.019 -2.1746  1.0040 -0.0289
 3797SOL     OW22849   0.656   0.165  16.797 -0.0653 -0.4310 -0.4448
 3797SOL    HW122850   0.620   0.209  16.874 -0.2649  0.4005 -1.0059
 3797SOL    HW222851   0.591   0.200  16.736  1.5055  2.3340 -0.5442
 3798SOL     OW22852   1.354   2.621  12.510  0.6479 -0.2702 -0.4399
 3798SOL    HW122853   1.401   2.702  12.492  1.4689 -0.9519 -1.4210
 3798SOL    HW222854   1.279   2.616  12.452 -0.4781  0.4664  0.9723
 3799SOL     OW22855   0.544   2.275   7.714  0.0831 -0.0119  0.2089
 3799SOL    HW122856   0.537   2.335   7.639 -3.4284  0.7373  1.1427
 3799SOL    HW222857   0.475   2.305   7.773 -0.0801 -1.5512  0.7917
 3800SOL     OW22858   4.640   4.439   0.003 -0.7692 -0.1748  0.0949
 3800SOL    HW122859   4.567   4.380  17.674 -2.1234  1.4167  0.4219
 3800SOL    HW222860   4.645   4.440   0.099  0.3001 -1.4206  0.0533
 3801SOL     OW22861   1.933   3.393  10.210  0.2788 -0.6002 -0.2480
 3801SOL    HW122862   1.927   3.340  10.131 -3.1575 -0.4368 -0.1102
 3801SOL    HW222863   2.020   3.434  10.206 -0.6520  1.7765  3.1729
 3802SOL     OW22864   2.352   0.859   2.804 -0.4186 -0.5941  0.0206
 3802SOL    HW122865   2.305   0.784   2.842 -2.0001  0.5096  0.2420
 3802SOL    HW222866   2.304   0.878   2.723 -2.7941 -3.9600  0.6159
 3803SOL     OW22867   0.112   4.145   9.972 -0.6988 -0.2492 -0.0350
 3803SOL    HW122868   0.206   4.136   9.986 -0.7755  1.8819  2.0171
 3803SOL    HW222869   0.089   4.080   9.906 -2.9824  1.2083 -0.6878
 3804SOL     OW22870   0.739   2.181  11.174  0.2977  0.0302  0.0449
 3804SOL    HW122871   0.821   2.135  11.192 -1.3203 -2.9294 -0.2452
 3804SOL    HW222872   0.756   2.256  11.232  0.5156  0.5475 -0.6888
 3805SOL     OW22873   0.204   3.088   4.452 -0.0537  0.0824  0.4050
 3805SOL    HW122874   0.262   3.049   4.517 -3.0045 -3.0098  1.2044
 3805SOL    HW222875   0.198   3.014   4.391 -4.2285  1.0762 -0.4203
 3806SOL     OW22876   3.324   0.154   8.402 -0.1127 -0.1066  0.4858
 3806SOL    HW122877   3.405   0.189   8.440  1.4265 -2.3923 -0.6386
 3806SOL    HW222878   3.278   0.228   8.362  1.7804 -0.5341 -2.5509
 3807SOL     OW22879   0.238   1.026  11.867 -0.5922  0.0142  0.1010
 3807SOL    HW122880   0.282   1.090  11.812 -0.0530  0.0433  0.5582
 3807SOL    HW222881   0.291   0.949  11.845  0.3186  0.0869  2.0185
 3808SOL     OW22882   3.019   2.990   7.520  0.3086 -0.7062 -0.0452
 3808SOL    HW122883   3.017   2.959   7.610  2.8694 -0.9419 -0.0647
 3808SOL    HW222884   2.969   3.070   7.537 -0.7652 -1.9231  2.4643
 3809SOL     OW22885   3.681   2.393   8.674  0.1455 -0.3291 -0.0126
 3809SOL    HW122886   3.597   2.434   8.652  0.4629 -0.6353 -1.8161
 3809SOL    HW222887   3.726   2.463   8.720 -0.0510  1.1441 -2.0507
 3810SOL     OW22888   0.106   2.550  14.695  0.0171  0.0311 -0.5012
 3810SOL    HW122889   0.135   2.458  14.694  0.0273  0.0353 -0.8670
 3810SOL    HW222890   0.125   2.566  14.787 -1.2830  1.6858 -0.5251
 3811SOL     OW22891   2.901   2.125  13.534  0.1071  0.4949  0.5318
 3811SOL    HW122892   2.873   2.107  13.624  0.3330 -3.4372 -0.1816
 3811SOL    HW222893   2.947   2.046  13.504 -1.3107 -0.1185 -0.0245
 3812SOL     OW22894   4.223   0.175   4.318 -0.0513 -0.4107 -0.2791
 3812SOL    HW122895   4.167   0.119   4.265 -1.2270 -0.5884  1.1240
 3812SOL    HW222896   4.209   0.140   4.406  0.3657  0.7592  0.2556
 3813SOL     OW22897   2.770   4.540   2.436  0.3201  0.2487 -0.1488
 3813SOL    HW122898   2.735   4.526   2.523  1.0330 -0.1978  0.0657
 3813SOL    HW222899   2.860   4.509   2.449  0.8600  0.6881 -2.6764
 3814SOL     OW22900   3.815   3.833  14.898  0.0160  0.5411  0.3626
 3814SOL    HW122901   3.848   3.770  14.833 -0.4227 -0.1971  0.8512
 3814SOL    HW222902   3.723   3.821  14.874 -0.3627  1.7154  1.2683
 3815SOL     OW22903   2.548   0.944   3.171 -0.0449 -0.4079  0.1285
 3815SOL    HW122904   2.597   0.862   3.160  1.9110  0.7840 -0.0267
 3815SOL    HW222905   2.618   0.994   3.212 -0.1797 -0.9409  1.0053
 3816SOL     OW22906   1.559   2.797   5.602 -0.0595  0.2012  0.0056
 3816SOL    HW122907   1.560   2.727   5.667 -1.1010  1.6587  1.5951
 3816SOL    HW222908   1.543   2.866   5.667  0.0927  0.1719  0.0748
 3817SOL     OW22909   3.813   1.087   8.391  0.1087 -0.3271 -0.7091
 3817SOL    HW122910   3.801   1.153   8.460  0.2485 -0.7469 -0.2835
 3817SOL    HW222911   3.787   1.003   8.428  0.3053  1.0947  2.7108
 3818SOL     OW22912   2.326   1.847   7.959  0.0149  0.6136 -0.6561
 3818SOL    HW122913   2.345   1.849   7.865  0.7406  1.0423 -0.5050
 3818SOL    HW222914   2.307   1.938   7.982  0.8104  0.8719 -1.0197
 3819SOL     OW22915   0.585   2.383   8.195  0.2669  0.3834 -0.0277
 3819SOL    HW122916   0.610   2.332   8.272  1.3038  1.4862  0.3684
 3819SOL    HW222917   0.646   2.355   8.127  0.5933  1.1848 -0.0643
 3820SOL     OW22918   0.204   1.754   3.061  0.8220 -0.5537 -0.3701
 3820SOL    HW122919   0.196   1.815   3.134  1.3032  0.5819 -1.2742
 3820SOL    HW222920   0.137   1.776   2.997  1.7743 -1.0188 -1.5247
 3821SOL     OW22921   4.005   1.101   8.188 -0.4130 -0.8105 -0.1512
 3821SOL    HW122922   3.985   1.160   8.116 -0.6948  0.1770  0.7335
 3821SOL    HW222923   3.942   1.128   8.255 -0.6529  0.5741 -0.9335
 3822SOL     OW22924   3.713   2.299   2.745  0.0030  0.0555  0.1028
 3822SOL    HW122925   3.738   2.268   2.833 -0.6666 -0.5504  0.0784
 3822SOL    HW222926   3.665   2.225   2.709 -2.9055  1.5569  0.8152
 3823SOL     OW22927   3.843   4.296   5.084  0.0593 -0.2094  0.1005
 3823SOL    HW122928   3.897   4.365   5.044  1.3909  0.7279  3.5000
 3823SOL    HW222929   3.909   4.230   5.104 -0.8566 -0.6313  1.7034
 3824SOL     OW22930   3.580   3.791   0.663 -0.3086  0.2126  0.6705
 3824SOL    HW122931   3.533   3.720   0.619 -1.6937  1.1946  0.5944
 3824SOL    HW222932   3.570   3.772   0.756 -1.4748  1.2993  0.7539
 3825SOL     OW22933   4.016   2.438   8.643  0.1339 -0.5772  0.3262
 3825SOL    HW122934   3.960   2.512   8.617 -1.7624 -2.4218 -0.9041
 3825SOL    HW222935   3.999   2.434   8.737 -0.8436 -1.3591  0.1233
 3826SOL     OW22936   2.931   0.968  11.640  0.3916  0.5199 -0.5529
 3826SOL    HW122937   2.920   0.996  11.731  1.4871 -1.3044  0.1530
 3826SOL    HW222938   2.869   1.033  11.607 -0.2647 -0.5860 -1.4913
 3827SOL     OW22939   2.494   2.425  13.925  0.3189 -0.4749  0.7133
 3827SOL    HW122940   2.553   2.442  13.998 -1.8835 -0.2577  2.4668
 3827SOL    HW222941   2.422   2.403  13.984 -0.6314 -1.6670 -0.8726
 3828SOL     OW22942   3.721   0.985   6.438  0.7759 -0.0512 -0.1391
 3828SOL    HW122943   3.800   1.026   6.474  1.5006  0.2662 -2.1008
 3828SOL    HW222944   3.718   0.903   6.488  1.3909 -1.7805 -2.9939
 3829SOL     OW22945   1.011   1.567   8.757  0.4220  0.2999  0.1654
 3829SOL    HW122946   1.095   1.605   8.781  0.1925  0.0520  1.3695
 3829SOL    HW222947   0.955   1.643   8.771 -0.4146  0.0383 -1.8360
 3830SOL     OW22948   2.743   1.821   1.682 -0.7403  0.3915  0.1480
 3830SOL    HW122949   2.798   1.819   1.604  0.5800 -0.6359  1.1212
 3830SOL    HW222950   2.671   1.764   1.654 -0.5514  0.2860 -0.1164
 3831SOL     OW22951   1.048   1.460   5.298 -0.0825  0.2123 -0.4046
 3831SOL    HW122952   1.069   1.447   5.390 -0.1351 -1.2054 -0.5994
 3831SOL    HW222953   0.987   1.388   5.285  0.3047  0.1959 -2.1675
 3832SOL     OW22954   4.107   1.239  16.651  0.3056  0.0061  0.1121
 3832SOL    HW122955   4.049   1.310  16.677 -0.4589 -0.3165 -0.6924
 3832SOL    HW222956   4.175   1.292  16.609 -0.7088  2.8930  2.1364
 3833SOL     OW22957   0.959   1.180   3.820 -0.1312 -0.2295  0.0937
 3833SOL    HW122958   0.877   1.132   3.825 -0.6187  0.6238  0.3943
 3833SOL    HW222959   0.958   1.240   3.894  0.0992 -0.2659  0.1252
 3834SOL     OW22960   2.531   4.483  10.503 -0.6855 -0.2316  0.0644
 3834SOL    HW122961   2.551   4.529  10.584 -0.4460 -0.7325  0.2911
 3834SOL    HW222962   2.542   4.548  10.433 -1.0753  1.0736  1.2175
 3835SOL     OW22963   4.194   2.053   0.393 -0.1888 -0.0727 -0.2863
 3835SOL    HW122964   4.124   1.992   0.417 -0.2803  0.6900  1.3430
 3835SOL    HW222965   4.262   1.992   0.365 -2.2598 -3.5411  2.3922
 3836SOL     OW22966   1.162   2.635   9.383  0.4412  0.1376 -0.3797
 3836SOL    HW122967   1.107   2.708   9.357 -1.2325  0.3502  3.7453
 3836SOL    HW222968   1.101   2.562   9.383 -0.4735  0.9165 -2.7679
 3837SOL     OW22969   0.520   1.869  11.993  0.0883  0.1689  0.3772
 3837SOL    HW122970   0.503   1.897  12.083 -1.6959 -1.5708  0.5928
 3837SOL    HW222971   0.479   1.783  12.002 -0.9054  0.5792 -0.0926
 3838SOL     OW22972   1.254   1.425   9.897 -0.1520 -0.3002  0.2385
 3838SOL    HW122973   1.258   1.497   9.834 -0.6127 -1.2331 -0.8664
 3838SOL    HW222974   1.183   1.459   9.952 -2.6023 -0.4941 -2.7918
 3839SOL     OW22975   1.617   1.879  15.384 -0.0397  0.0751 -0.3253
 3839SOL    HW122976   1.664   1.795  15.380 -0.3512 -0.1050 -0.2280
 3839SOL    HW222977   1.607   1.894  15.478  3.3551 -2.0320  0.3814
 3840SOL     OW22978   4.127   1.127   2.445  0.6382 -0.3480 -0.1100
 3840SOL    HW122979   4.200   1.181   2.477  0.1843  1.2688 -1.8115
 3840SOL    HW222980   4.168   1.057   2.394  1.0612  1.4116 -2.1697
 3841SOL     OW22981   3.432   3.058   1.105  0.1885 -0.3721 -0.2023
 3841SOL    HW122982   3.387   3.084   1.025 -1.7007 -0.8310  0.7157
 3841SOL    HW222983   3.484   2.984   1.073  0.2464  0.0987 -1.1892
 3842SOL     OW22984   0.431   4.100   6.032 -0.0741  0.1871  0.3373
 3842SOL    HW122985   0.419   4.005   6.037 -1.8514  0.3874 -0.0630
 3842SOL    HW222986   0.346   4.129   5.997 -1.2314 -2.4911  0.9393
 3843SOL     OW22987   2.593   0.525  12.981 -0.3562 -0.6138  0.1428
 3843SOL    HW122988   2.624   0.555  12.895  2.9311 -0.9328  1.2074
 3843SOL    HW222989   2.590   0.434  12.952 -0.3711 -0.1672 -1.2727
 3844SOL     OW22990   2.424   2.899   7.147 -0.7907 -0.1545  0.2680
 3844SOL    HW122991   2.380   2.814   7.154 -0.2400 -0.5477 -1.2138
 3844SOL    HW222992   2.484   2.881   7.075 -1.7785 -0.2129 -0.5420
 3845SOL     OW22993   2.960   3.213  12.623 -0.6513 -0.0378  0.0894
 3845SOL    HW122994   3.043   3.192  12.580 -0.6049  0.4141 -0.0440
 3845SOL    HW222995   2.949   3.133  12.674  2.1873 -0.3471  0.2364
 3846SOL     OW22996   1.979   1.000  12.988  0.4859  0.1919  0.4916
 3846SOL    HW122997   1.960   0.907  12.973  0.5887  0.0938  0.9903
 3846SOL    HW222998   1.955   1.030  12.900 -0.0175 -0.6813  0.3289
 3847SOL     OW22999   0.252   0.636   8.258  0.2589 -0.3965  0.0388
 3847SOL    HW123000   0.319   0.641   8.326 -1.1310 -1.4541  1.4837
 3847SOL    HW223001   0.296   0.618   8.174  1.1681 -0.3729  0.5056
 3848SOL     OW23002   3.827   2.721   4.147  0.0393 -0.5831  0.6491
 3848SOL    HW123003   3.739   2.757   4.140 -0.4922 -1.8683  0.6591
 3848SOL    HW223004   3.836   2.706   4.241 -0.8559 -0.0775  0.8177
 3849SOL     OW23005   0.304   4.148  13.446 -0.6473  0.0162 -0.4006
 3849SOL    HW123006   0.336   4.237  13.459  0.8969 -0.6436  0.2046
 3849SOL    HW223007   0.387   4.105  13.427 -0.8331 -0.4273 -0.2034
 3850SOL     OW23008   4.515   4.613  16.218  0.0872 -0.2269  0.3520
 3850SOL    HW123009   4.551   4.679  16.276  0.7044 -1.5099  1.4363
 3850SOL    HW223010   4.432   4.598  16.264 -0.2995  0.2622 -0.1934
 3851SOL     OW23011   0.414   3.475   1.461 -0.5045 -0.5925  0.3605
 3851SOL    HW123012   0.487   3.529   1.431 -0.3418  0.0336  1.9125
 3851SOL    HW223013   0.383   3.424   1.386 -0.4160 -0.5860  0.3194
 3852SOL     OW23014   0.681   1.337   8.136 -0.3854  0.3621 -0.8926
 3852SOL    HW123015   0.754   1.400   8.134  0.8591 -1.0642  0.0398
 3852SOL    HW223016   0.602   1.389   8.120 -0.4941  0.9133  1.5091
 3853SOL     OW23017   0.665   0.374   5.312  0.2500 -0.1496  0.1587
 3853SOL    HW123018   0.584   0.402   5.355  0.4911 -2.0547  1.8844
 3853SOL    HW223019   0.665   0.435   5.239  4.1830  1.3096  1.3698
 3854SOL     OW23020   1.487   0.423   5.476  0.4452 -0.4307 -0.4682
 3854SOL    HW123021   1.475   0.330   5.453 -1.7888 -0.3652  0.4198
 3854SOL    HW223022   1.581   0.440   5.472  0.4443 -0.3337  0.0294
 3855SOL     OW23023   4.274   4.531   4.101  0.7152 -0.4357  1.3173
 3855SOL    HW123024   4.333   4.605   4.090  0.2563 -0.0163  1.6778
 3855SOL    HW223025   4.326   4.479   4.163 -0.2591 -2.1189  0.7250
 3856SOL     OW23026   2.512   0.242   9.969 -0.4616  0.2759 -0.3035
 3856SOL    HW123027   2.579   0.229  10.036  0.9428 -0.0816 -1.7672
 3856SOL    HW223028   2.559   0.305   9.915 -0.3242  0.5173  0.0966
 3857SOL     OW23029   2.606   1.383  14.667  0.6634 -0.1838  0.6219
 3857SOL    HW123030   2.538   1.408  14.605  0.5342 -0.1884  0.7599
 3857SOL    HW223031   2.650   1.461  14.700 -0.5854 -0.1695  2.2648
 3858SOL     OW23032   0.667   3.362   2.693  0.4108  0.3857 -0.3654
 3858SOL    HW123033   0.682   3.399   2.606  0.0990 -1.8326 -1.3542
 3858SOL    HW223034   0.711   3.418   2.756  0.9407 -0.0746 -0.3331
 3859SOL     OW23035   0.941   0.266  11.812 -0.4008  0.5530 -0.2029
 3859SOL    HW123036   0.915   0.345  11.766 -2.2762  0.1507  0.1865
 3859SOL    HW223037   1.032   0.268  11.781 -0.3803 -0.9364 -0.2625
 3860SOL     OW23038   4.592   0.716   8.073 -0.0126 -0.1581 -0.4279
 3860SOL    HW123039   4.497   0.702   8.065  0.1156 -1.4894  0.3988
 3860SOL    HW223040   4.603   0.801   8.115  1.4571  0.9776 -3.1233
 3861SOL     OW23041   2.816   0.510   8.202 -0.3707  0.9933 -0.1468
 3861SOL    HW123042   2.857   0.482   8.121  0.9005 -2.1589  1.5931
 3861SOL    HW223043   2.815   0.604   8.185 -1.0150  1.6403  3.4838
 3862SOL     OW23044   2.092   0.620  13.785  0.0969 -0.4963 -0.2785
 3862SOL    HW123045   2.006   0.596  13.751 -0.1511 -0.1639  0.1139
 3862SOL    HW223046   2.102   0.704  13.741 -0.7721  0.8258  2.0231
 3863SOL     OW23047   0.129   4.215  11.667  0.2243 -0.1989 -0.2734
 3863SOL    HW123048   0.209   4.163  11.658 -0.9529 -1.8787 -0.9320
 3863SOL    HW223049   0.070   4.143  11.690  0.5751 -1.0033 -1.8850
 3864SOL     OW23050   3.765   2.728   9.353 -0.0797  0.6430  0.5889
 3864SOL    HW123051   3.675   2.733   9.321  0.4282  1.4337 -0.7374
 3864SOL    HW223052   3.764   2.765   9.441  1.0141  1.2577  0.3460
 3865SOL     OW23053   2.658   1.573   4.246 -0.0275  0.2713  0.9844
 3865SOL    HW123054   2.703   1.603   4.325  0.1372  0.4697  0.8126
 3865SOL    HW223055   2.726   1.524   4.199 -0.4512 -0.6699  1.3429
 3866SOL     OW23056   4.556   0.277  11.680  0.1813 -0.3338 -0.6282
 3866SOL    HW123057   4.607   0.198  11.698  0.1950 -0.2916 -0.4827
 3866SOL    HW223058   4.504   0.245  11.607  1.0167  0.7158 -1.6919
 3867SOL     OW23059   1.046   4.458   9.511  0.2431 -0.3918 -0.2341
 3867SOL    HW123060   1.053   4.498   9.424 -0.8146 -1.1521 -0.6751
 3867SOL    HW223061   1.137   4.430   9.513  0.1109 -0.9413 -1.7237
 3868SOL     OW23062   2.564   1.525   5.057 -0.4157 -0.0748  0.0393
 3868SOL    HW123063   2.609   1.545   5.139 -0.8505 -1.3685  0.5936
 3868SOL    HW223064   2.477   1.555   5.081  0.4870  2.6017 -0.0438
 3869SOL     OW23065   1.888   2.262  17.595  1.2845 -0.2541 -0.4291
 3869SOL    HW123066   1.915   2.204  17.667  0.5499  0.0371  0.0799
 3869SOL    HW223067   1.898   2.201  17.522 -0.7811 -1.3308  0.1810
 3870SOL     OW23068   1.036   1.307   8.260  0.3196  0.0994 -0.8025
 3870SOL    HW123069   1.019   1.365   8.186 -1.6350  0.2366 -0.2552
 3870SOL    HW223070   1.016   1.363   8.335  0.9208  1.7898 -1.9010
 3871SOL     OW23071   2.159   2.987  13.051  0.0839  0.7732 -0.2881
 3871SOL    HW123072   2.074   2.964  13.090  1.1355 -0.8499  1.0598
 3871SOL    HW223073   2.168   3.067  13.102  1.8053  0.9108 -0.8408
 3872SOL     OW23074   1.351   0.020   2.775 -0.4052  0.6542  0.1872
 3872SOL    HW123075   1.418   0.075   2.816  0.0231 -1.5840  2.5210
 3872SOL    HW223076   1.408   4.688   2.719  0.2791  1.6108 -0.0220
 3873SOL     OW23077   0.571   3.656   1.322  0.5098  0.3085 -0.1728
 3873SOL    HW123078   0.529   3.739   1.344  0.5896  0.1399  0.6338
 3873SOL    HW223079   0.657   3.661   1.362  0.6299  2.4273 -0.7081
 3874SOL     OW23080   0.334   2.518   5.657 -0.0925  0.2009 -0.1486
 3874SOL    HW123081   0.315   2.602   5.617  1.1173 -0.7087 -2.6085
 3874SOL    HW223082   0.389   2.540   5.732  0.4848 -0.5092 -0.3618
 3875SOL     OW23083   0.132   2.054   2.156  0.0397 -0.0905 -0.5162
 3875SOL    HW123084   0.101   1.963   2.148 -1.1448  0.4494 -1.8954
 3875SOL    HW223085   0.185   2.069   2.078  0.3335  3.4569  0.3956
 3876SOL     OW23086   0.523   3.237   3.387 -0.2602 -0.0651  0.1531
 3876SOL    HW123087   0.567   3.176   3.327 -0.9091 -0.2131 -0.1669
 3876SOL    HW223088   0.538   3.320   3.341  0.5487  1.2624  2.8101
 3877SOL     OW23089   4.700   2.526   9.473  0.2977 -0.3387  0.3078
 3877SOL    HW123090   0.040   2.487   9.412  0.7514 -0.6905  0.9864
 3877SOL    HW223091   4.629   2.535   9.409 -0.4544 -0.6227  1.1035
 3878SOL     OW23092   3.970   1.636   9.418 -0.1437  0.0081  0.3582
 3878SOL    HW123093   4.029   1.685   9.476 -1.3238 -1.2182  2.5931
 3878SOL    HW223094   4.016   1.653   9.336 -1.6536  0.9236 -0.3048
 3879SOL     OW23095   2.358   4.435   5.828 -0.1364  0.3402  0.4563
 3879SOL    HW123096   2.273   4.454   5.869 -0.3598 -0.2078  0.2411
 3879SOL    HW223097   2.346   4.443   5.734  0.1097 -1.5737  0.2588
 3880SOL     OW23098   0.090   1.394   0.750  0.2797  0.2394  0.1026
 3880SOL    HW123099   0.157   1.438   0.803 -0.7391  3.1560 -1.0321
 3880SOL    HW223100   0.048   1.464   0.700 -0.5239 -0.3788 -0.0853
 3881SOL     OW23101   0.742   4.391   4.787  0.3210  0.5607  0.5304
 3881SOL    HW123102   0.654   4.355   4.799 -0.3821  1.7638 -0.9532
 3881SOL    HW223103   0.722   4.457   4.720 -2.3362 -1.4960 -0.6748
 3882SOL     OW23104   4.473   0.065   9.310  0.4506  0.4512 -0.0054
 3882SOL    HW123105   4.381   0.085   9.325  0.5923  0.8516  0.3654
 3882SOL    HW223106   4.477   0.127   9.237  1.5293  0.5104  0.0960
 3883SOL     OW23107   1.384   2.061  11.054  0.1750  0.1032  0.2681
 3883SOL    HW123108   1.315   2.119  11.088  0.5903 -0.1490  1.5230
 3883SOL    HW223109   1.355   1.974  11.082  0.9457 -1.0250 -2.4406
 3884SOL     OW23110   0.111   4.249   4.464 -0.1592 -0.2574  0.1664
 3884SOL    HW123111   0.025   4.239   4.506 -1.4396  0.4568 -2.3020
 3884SOL    HW223112   0.080   4.306   4.394 -0.5564 -0.6428  0.0296
 3885SOL     OW23113   4.289   4.614   0.863 -0.0018 -0.0500 -0.0530
 3885SOL    HW123114   4.361   4.571   0.909 -2.1569 -2.1285  1.4040
 3885SOL    HW223115   4.295   4.572   0.777 -1.6595 -0.7644  0.1660
 3886SOL     OW23116   2.641   0.998   6.815 -0.0221 -0.1822  0.3995
 3886SOL    HW123117   2.550   1.010   6.840  0.0175 -0.3410  0.6264
 3886SOL    HW223118   2.683   1.056   6.878  0.9108  0.7865 -1.1281
 3887SOL     OW23119   2.110   1.630   5.009 -0.4507 -0.1776  0.3992
 3887SOL    HW123120   2.032   1.574   5.009  0.2712 -1.1993  3.9978
 3887SOL    HW223121   2.132   1.644   4.917 -2.0241 -0.0479  0.0336
 3888SOL     OW23122   2.182   2.227  17.004 -0.1926 -0.2843  0.3081
 3888SOL    HW123123   2.164   2.138  17.034  1.3308 -0.1774  1.5270
 3888SOL    HW223124   2.091   2.255  17.012  0.3195  1.8473 -1.3465
 3889SOL     OW23125   1.320   3.391  11.496 -0.0356 -0.2254  0.3335
 3889SOL    HW123126   1.255   3.354  11.556  0.2611 -1.0800  0.1408
 3889SOL    HW223127   1.296   3.355  11.410  0.6201  0.0597  0.0289
 3890SOL     OW23128   4.410   1.692   8.558 -0.0223 -0.2637 -0.2167
 3890SOL    HW123129   4.398   1.622   8.621 -0.4391  0.4405  0.4847
 3890SOL    HW223130   4.494   1.671   8.518  0.1890 -2.5413  1.4701
 3891SOL     OW23131   1.645   1.799  11.825  0.0746  0.7161 -0.3150
 3891SOL    HW123132   1.711   1.735  11.852 -1.0349 -0.7863 -1.1669
 3891SOL    HW223133   1.689   1.866  11.772 -0.4875  2.8017  1.8401
 3892SOL     OW23134   3.139   2.876  12.041  0.4394  0.1805 -0.0918
 3892SOL    HW123135   3.159   2.792  12.082  1.5809 -0.6882 -2.4287
 3892SOL    HW223136   3.181   2.875  11.955  0.2567  2.6104 -0.2300
 3893SOL     OW23137   3.878   4.458   8.566  0.2127  0.7467 -0.1083
 3893SOL    HW123138   3.876   4.378   8.515 -0.5668  1.3329 -1.0020
 3893SOL    HW223139   3.863   4.525   8.499 -0.8080 -0.4604 -1.0846
 3894SOL     OW23140   2.903   4.605   2.165 -0.4769  0.4104 -0.3285
 3894SOL    HW123141   2.922   4.639   2.078  0.8051  2.6888  0.8523
 3894SOL    HW223142   2.915   4.513   2.142 -3.2247  0.1631 -0.6794
 3895SOL     OW23143   1.551   4.187   7.423 -0.1135 -0.0052 -0.2693
 3895SOL    HW123144   1.635   4.229   7.439 -0.8481  1.5683 -0.5967
 3895SOL    HW223145   1.544   4.127   7.497 -0.7206 -0.4767 -0.7149
 3896SOL     OW23146   0.445   0.431  13.850 -0.0928 -0.1928 -0.0195
 3896SOL    HW123147   0.425   0.351  13.802  0.5712  0.3631 -1.2374
 3896SOL    HW223148   0.499   0.480  13.787  1.6252 -0.4420  1.2754
 3897SOL     OW23149   1.193   1.799   7.091 -0.0751  0.1896  0.1601
 3897SOL    HW123150   1.154   1.835   7.171 -3.7799  0.9634 -2.0365
 3897SOL    HW223151   1.258   1.870   7.091  0.0498  0.0887  2.5942
 3898SOL     OW23152   4.580   2.502  11.366  0.1328 -0.2084  0.2008
 3898SOL    HW123153   4.529   2.468  11.439  1.4529  0.0791  1.2551
 3898SOL    HW223154   4.615   2.415  11.345 -0.6276 -0.2181 -1.0459
 3899SOL     OW23155   2.888   1.899   0.786 -0.1406  0.1082 -0.1033
 3899SOL    HW123156   2.798   1.921   0.763 -0.4480 -0.7286  0.2963
 3899SOL    HW223157   2.906   1.950   0.865 -3.1137 -0.0773  0.7087
 3900SOL     OW23158   2.582   0.609  17.337  0.1064 -0.2920 -0.2887
 3900SOL    HW123159   2.617   0.520  17.343  0.2626 -0.1528  0.7974
 3900SOL    HW223160   2.656   0.662  17.306  0.7679  0.5086  2.6415
 3901SOL     OW23161   1.774   0.751   4.262  0.0602  0.0856  0.2731
 3901SOL    HW123162   1.844   0.691   4.289  0.3812 -0.0478 -0.8701
 3901SOL    HW223163   1.698   0.714   4.305  0.5657 -1.9888 -0.6237
 3902SOL     OW23164   0.029   4.172   0.255 -0.0190 -0.0080 -0.1195
 3902SOL    HW123165   0.111   4.220   0.265  1.2748 -2.3223  0.4934
 3902SOL    HW223166   4.689   4.222   0.310 -0.4134 -0.1096 -0.4613
 3903SOL     OW23167   0.461   0.906   4.437 -0.3710 -0.3818 -0.3830
 3903SOL    HW123168   0.534   0.892   4.376  1.9102 -4.1401  3.1901
 3903SOL    HW223169   0.460   0.816   4.471  1.4348 -0.7754 -1.3946
 3904SOL     OW23170   4.225   2.007   6.341 -0.3295  0.3963  0.4719
 3904SOL    HW123171   4.220   1.949   6.266  0.5508  0.0138  0.7106
 3904SOL    HW223172   4.198   2.081   6.287  2.2789 -0.5731 -2.1374
 3905SOL     OW23173   0.143   0.235   7.690 -0.2788  0.1975  0.0983
 3905SOL    HW123174   0.148   0.240   7.786  0.5598 -0.3919  0.0799
 3905SOL    HW223175   0.200   0.307   7.664 -0.3328 -0.6612 -2.3562
 3906SOL     OW23176   3.187   2.935   0.632  0.4785  0.0619  0.0577
 3906SOL    HW123177   3.172   2.952   0.725  1.9356  0.5607  0.1980
 3906SOL    HW223178   3.122   2.997   0.597  0.4863  0.1939  0.2757
 3907SOL     OW23179   4.194   4.040   5.310 -0.2572  0.2359 -0.5906
 3907SOL    HW123180   4.262   3.985   5.350 -1.0220  0.5182  1.0958
 3907SOL    HW223181   4.115   3.988   5.320 -0.3264  0.0957 -1.8033
 3908SOL     OW23182   3.454   1.079   7.470 -0.0360  0.2980 -0.2778
 3908SOL    HW123183   3.503   0.997   7.483  0.6114  0.3632 -2.2919
 3908SOL    HW223184   3.521   1.139   7.437 -1.6052  1.6038 -1.0855
 3909SOL     OW23185   2.220   1.654  10.548  0.6146  0.0734 -0.5162
 3909SOL    HW123186   2.214   1.565  10.513 -1.8276 -0.8370  2.2141
 3909SOL    HW223187   2.155   1.660  10.618 -0.2338 -1.5520 -1.1481
 3910SOL     OW23188   2.728   3.992   6.449 -0.3279 -0.1374 -0.0781
 3910SOL    HW123189   2.753   4.083   6.462  1.0390 -0.4083 -0.8363
 3910SOL    HW223190   2.690   3.965   6.533  1.6262 -2.7184 -0.0461
 3911SOL     OW23191   1.413   4.198   8.158  0.0166 -0.3117 -0.7654
 3911SOL    HW123192   1.321   4.175   8.155 -0.1201 -0.1497  2.7124
 3911SOL    HW223193   1.427   4.248   8.239  1.7237 -1.0346 -0.5971
 3912SOL     OW23194   2.170   4.696  15.007 -0.6724 -0.4896  0.3476
 3912SOL    HW123195   2.078   4.709  14.984 -0.3534  0.0599 -0.5844
 3912SOL    HW223196   2.209   4.675  14.922  2.0308 -0.5502  1.6254
 3913SOL     OW23197   4.283   1.844   2.385  0.1273 -0.3730 -0.5418
 3913SOL    HW123198   4.252   1.876   2.470  2.5372 -0.3154  0.3241
 3913SOL    HW223199   4.207   1.843   2.328 -1.5769  0.8110  1.7001
 3914SOL     OW23200   2.260   1.146   4.853 -0.0687  0.1354 -0.1616
 3914SOL    HW123201   2.208   1.099   4.919 -1.3640  1.5747 -0.1388
 3914SOL    HW223202   2.224   1.113   4.771  2.0901  1.8479 -1.7825
 3915SOL     OW23203   3.377   2.883   0.120 -0.2035  0.1027  0.1554
 3915SOL    HW123204   3.469   2.877   0.147  0.7220  2.1620 -2.5895
 3915SOL    HW223205   3.328   2.838   0.189  0.0613  0.0932  0.3365
 3916SOL     OW23206   2.695   1.529   6.628  0.4443  0.1556  0.7481
 3916SOL    HW123207   2.729   1.450   6.669  1.8448  0.9196  1.0499
 3916SOL    HW223208   2.705   1.582   6.707  0.2115  0.0437  0.8512
 3917SOL     OW23209   3.889   1.629   6.861 -0.2164 -0.5967 -0.2335
 3917SOL    HW123210   3.876   1.588   6.776 -0.1522  1.4872 -1.2429
 3917SOL    HW223211   3.813   1.593   6.907 -0.3725 -1.7225 -1.3842
 3918SOL     OW23212   3.263   2.891   9.181 -0.1728 -0.1793  0.2517
 3918SOL    HW123213   3.347   2.854   9.152 -0.0133 -0.4267  1.0332
 3918SOL    HW223214   3.230   2.948   9.111 -0.3818 -1.1426 -0.4483
 3919SOL     OW23215   1.580   2.743  15.626 -0.2498  0.1541 -0.5846
 3919SOL    HW123216   1.565   2.664  15.678 -2.5837 -0.2403 -1.8689
 3919SOL    HW223217   1.666   2.733  15.584  0.8080  2.0458  1.1416
 3920SOL     OW23218   1.912   4.230   3.326  0.2957 -0.3949  0.5717
 3920SOL    HW123219   1.832   4.226   3.273  0.8174 -1.0618 -0.1667
 3920SOL    HW223220   1.901   4.301   3.390 -0.9525  1.2664 -1.4601
 3921SOL     OW23221   1.530   3.557   7.503  0.0023  0.6870  0.0580
 3921SOL    HW123222   1.571   3.484   7.456  1.6742 -0.8516  3.9284
 3921SOL    HW223223   1.574   3.632   7.464 -0.1349  0.6069 -0.2523
 3922SOL     OW23224   2.385   2.760   3.095  0.7642  0.3896 -0.3594
 3922SOL    HW123225   2.334   2.748   3.176 -2.2068 -0.4298 -2.3399
 3922SOL    HW223226   2.473   2.748   3.130  0.5297 -2.1535 -0.6586
 3923SOL     OW23227   3.875   2.545  16.767  0.4454  0.3001 -0.0393
 3923SOL    HW123228   3.849   2.613  16.829 -2.1226 -0.8594  0.1481
 3923SOL    HW223229   3.786   2.540  16.733  0.2283  0.7067  0.4690
 3924SOL     OW23230   2.430   2.050   6.136  0.4860 -0.9046  0.2295
 3924SOL    HW123231   2.367   2.000   6.084 -1.8240 -0.0338  2.2459
 3924SOL    HW223232   2.507   1.994   6.122  0.2367 -0.2267 -4.0671
 3925SOL     OW23233   1.877   4.637  10.720 -0.2244  0.0070  0.1533
 3925SOL    HW123234   1.936   4.574  10.762  0.2909  2.6186  3.3436
 3925SOL    HW223235   1.851   4.590  10.641 -0.9418 -0.9034  0.9398
 3926SOL     OW23236   2.506   1.532   8.767  0.5577  1.0420 -0.1636
 3926SOL    HW123237   2.535   1.590   8.837  0.3165  0.1053  0.7199
 3926SOL    HW223238   2.433   1.487   8.810  0.1029  1.8146 -0.1284
 3927SOL     OW23239   2.943   2.387   9.841  0.0426  0.1928  0.0028
 3927SOL    HW123240   2.934   2.325   9.914 -0.8562  2.4342  1.7900
 3927SOL    HW223241   2.888   2.349   9.772 -0.4045  0.9750 -0.0704
 3928SOL     OW23242   3.591   0.121   2.939 -0.3898  0.1840 -0.1815
 3928SOL    HW123243   3.500   0.129   2.912 -0.0084  2.1895 -0.8920
 3928SOL    HW223244   3.576   0.038   2.984 -1.8612  0.7589  0.3986
 3929SOL     OW23245   0.938   2.130   8.373 -0.2212 -0.0791 -0.1983
 3929SOL    HW123246   0.847   2.158   8.390  0.0793  0.9317 -0.2594
 3929SOL    HW223247   0.946   2.128   8.278  2.6819 -1.3768  0.0989
 3930SOL     OW23248   4.150   3.574  16.563 -0.2362  0.5521 -0.2689
 3930SOL    HW123249   4.199   3.655  16.548 -2.7709  2.0790 -0.2124
 3930SOL    HW223250   4.062   3.607  16.581  0.5915  2.6865 -0.1496
 3931SOL     OW23251   3.438   1.954   6.921 -0.0079 -0.5442  0.6757
 3931SOL    HW123252   3.507   1.902   6.881  0.6482 -0.3086  1.4881
 3931SOL    HW223253   3.363   1.894   6.921 -2.2778  2.3022 -1.4615
 3932SOL     OW23254   4.145   1.654  11.857  0.0196 -0.4614  0.1702
 3932SOL    HW123255   4.163   1.745  11.880  0.0220  0.6344 -4.2077
 3932SOL    HW223256   4.173   1.611  11.938 -0.4997 -0.4528  0.3566
 3933SOL     OW23257   0.000   4.074   6.276  0.0552  0.1741  0.0884
 3933SOL    HW123258   4.715   4.016   6.200  0.5635  1.2217 -0.7637
 3933SOL    HW223259   0.092   4.101   6.275  0.1540 -0.1489  0.4252
 3934SOL     OW23260   1.513   2.215   9.030 -0.2373  0.4750  0.1499
 3934SOL    HW123261   1.564   2.138   9.056 -0.9596 -0.3335 -0.8279
 3934SOL    HW223262   1.553   2.293   9.068  1.4682 -0.6481  0.6587
 3935SOL     OW23263   0.688   4.551   1.869  0.2745  0.3129 -0.2755
 3935SOL    HW123264   0.777   4.584   1.882 -0.5718  1.6168  2.1415
 3935SOL    HW223265   0.694   4.480   1.805 -1.7081 -0.1608  0.0513
 3936SOL     OW23266   0.810   1.281   0.968 -0.1315 -0.1221  0.6732
 3936SOL    HW123267   0.825   1.238   0.884 -1.9246  0.1251  0.2363
 3936SOL    HW223268   0.889   1.259   1.019  0.5964  1.1584  0.0945
 3937SOL     OW23269   3.068   2.163   0.595 -0.6176  0.1318  0.4629
 3937SOL    HW123270   3.055   2.194   0.685 -3.4736  1.8645 -0.5827
 3937SOL    HW223271   3.145   2.214   0.571 -0.4935 -0.9421 -1.4483
 3938SOL     OW23272   1.846   4.264   7.513 -0.0851  0.3027 -0.4066
 3938SOL    HW123273   1.803   4.284   7.596  3.5337 -1.5061  1.9171
 3938SOL    HW223274   1.926   4.226   7.549 -1.5916 -0.7999  1.7064
 3939SOL     OW23275   3.149   1.950   7.149 -0.1798 -0.0191 -0.0724
 3939SOL    HW123276   3.182   1.861   7.154  0.5019  0.3379  2.0127
 3939SOL    HW223277   3.223   1.997   7.189 -0.2393 -0.3613  0.4319
 3940SOL     OW23278   0.959   2.461   1.809 -0.2516  0.2008  0.2760
 3940SOL    HW123279   1.001   2.530   1.758 -3.4673  0.9850 -1.3165
 3940SOL    HW223280   0.886   2.509   1.847 -3.4653 -2.5431 -2.4586
 3941SOL     OW23281   2.250   1.969   1.006  0.5149  0.0732 -0.1680
 3941SOL    HW123282   2.273   1.948   1.097  0.6333  0.0390 -0.2057
 3941SOL    HW223283   2.317   1.920   0.959  0.3657 -0.5635  0.2754
 3942SOL     OW23284   0.158   1.613   5.335 -0.3298  0.5619  0.7308
 3942SOL    HW123285   0.114   1.557   5.398 -1.2437 -0.2030 -0.5882
 3942SOL    HW223286   0.102   1.691   5.339  1.6003  1.9655  0.6685
 3943SOL     OW23287   3.716   2.626   3.817 -0.2243  0.1442  0.5548
 3943SOL    HW123288   3.762   2.557   3.866  0.6614 -0.5541 -1.2474
 3943SOL    HW223289   3.684   2.684   3.885 -0.5108 -1.8033  2.1050
 3944SOL     OW23290   3.873   2.409   3.914 -0.8276  0.1671 -0.1560
 3944SOL    HW123291   3.903   2.333   3.964 -2.5953  0.9694  2.1238
 3944SOL    HW223292   3.955   2.423   3.866 -0.6183 -0.9959 -0.1489
 3945SOL     OW23293   3.851   2.452   3.020  0.2668  0.0802 -0.3926
 3945SOL    HW123294   3.801   2.534   3.019 -0.5825 -0.4407 -2.5746
 3945SOL    HW223295   3.787   2.381   3.013  0.3846  0.0364 -1.0255
 3946SOL     OW23296   1.795   2.741  15.429  0.8714 -0.1492 -0.7497
 3946SOL    HW123297   1.877   2.692  15.440  1.3284  0.7708 -0.0592
 3946SOL    HW223298   1.792   2.714  15.337 -1.6221  1.2391 -1.0712
 3947SOL     OW23299   0.085   1.587  12.841 -0.6188 -0.4018 -0.0559
 3947SOL    HW123300   0.141   1.580  12.764 -1.3120  2.0706 -0.7871
 3947SOL    HW223301   0.132   1.520  12.891 -1.2685  0.1847  1.3366
 3948SOL     OW23302   0.134   1.916   3.990 -0.3188 -1.2216 -0.5288
 3948SOL    HW123303   0.042   1.900   3.969 -1.1128  2.3991  0.0548
 3948SOL    HW223304   0.154   1.882   4.077 -0.4105  1.5147  0.5698
 3949SOL     OW23305   2.952   2.687   1.235  0.0829  0.4384 -0.2468
 3949SOL    HW123306   2.929   2.596   1.257 -0.2766 -0.2163 -3.4118
 3949SOL    HW223307   3.000   2.711   1.315 -2.1128  2.6330  0.3960
 3950SOL     OW23308   4.648   2.885   1.512  0.0679  0.3899  0.6110
 3950SOL    HW123309   4.621   2.959   1.457 -1.3433  1.7520  3.1569
 3950SOL    HW223310   0.004   2.922   1.555 -0.1321  0.0904  1.2300
 3951SOL     OW23311   0.118   3.480   6.299 -0.3287 -0.0358  0.5821
 3951SOL    HW123312   0.031   3.442   6.295 -0.7609  0.9003  1.2828
 3951SOL    HW223313   0.097   3.541   6.369  0.4534 -1.2996  1.9341
 3952SOL     OW23314   4.615   1.388  12.991 -0.2983 -0.2029 -0.7794
 3952SOL    HW123315   4.589   1.384  12.899 -0.3914 -0.7651 -0.7332
 3952SOL    HW223316   4.530   1.379  13.035 -0.3243 -1.4430 -1.0656
 3953SOL     OW23317   1.462   2.100   0.246  0.4027 -0.0855  0.0865
 3953SOL    HW123318   1.430   2.069   0.330  0.0011  0.4116  0.1151
 3953SOL    HW223319   1.536   2.041   0.228  1.3901  1.2457 -0.2046
 3954SOL     OW23320   3.975   0.631  12.352 -0.5962 -0.2850 -0.0502
 3954SOL    HW123321   3.907   0.633  12.286 -1.0958  0.9124  0.4936
 3954SOL    HW223322   3.924   0.617  12.432  2.2711 -1.2481  1.6482
 3955SOL     OW23323   1.513   1.171   3.250 -0.2860  0.1047  0.1832
 3955SOL    HW123324   1.449   1.102   3.232 -2.1657  2.1747 -1.0305
 3955SOL    HW223325   1.519   1.210   3.163 -1.5126  0.9104  0.4537
 3956SOL     OW23326   3.347   0.844   5.145  0.0210  0.0790 -0.0009
 3956SOL    HW123327   3.265   0.796   5.137 -0.0129 -0.2432  2.1875
 3956SOL    HW223328   3.357   0.863   5.052  0.8591 -1.0331 -0.1247
 3957SOL     OW23329   2.145   2.256   5.014 -0.0133  0.4078  1.0696
 3957SOL    HW123330   2.231   2.239   4.977 -1.0415 -2.5688  0.0297
 3957SOL    HW223331   2.095   2.184   4.974 -2.5956  2.0627  1.2872
 3958SOL     OW23332   3.235   2.633  16.888  0.2914  0.3251  0.3002
 3958SOL    HW123333   3.176   2.701  16.919  0.0485  0.6595 -0.9008
 3958SOL    HW223334   3.317   2.679  16.869 -0.2471  2.2135  2.6261
 3959SOL     OW23335   1.319   4.269  17.287 -0.7298 -0.7336 -0.0795
 3959SOL    HW123336   1.414   4.265  17.275 -0.5351 -1.1030  1.5306
 3959SOL    HW223337   1.297   4.177  17.273  1.0393 -1.2243  0.3527
 3960SOL     OW23338   1.348   2.258   5.922  0.1661 -0.1459  0.5545
 3960SOL    HW123339   1.311   2.188   5.974 -0.0076 -0.4016  0.0914
 3960SOL    HW223340   1.429   2.268   5.971 -0.7391 -0.0104  2.0295
 3961SOL     OW23341   4.116   1.839   5.037  0.5378 -0.6658  0.1530
 3961SOL    HW123342   4.150   1.851   5.126 -0.3154 -1.6041  0.6082
 3961SOL    HW223343   4.092   1.929   5.017  1.9291 -0.1268  0.9198
 3962SOL     OW23344   0.060   4.635   8.839  0.1271 -0.3648  0.1161
 3962SOL    HW123345   0.043   4.639   8.933 -2.5537  1.2994 -0.4205
 3962SOL    HW223346   0.154   4.620   8.833 -0.0168 -1.3246  0.2387
 3963SOL     OW23347   0.183   1.701  17.576 -0.0618 -0.5374  0.2836
 3963SOL    HW123348   0.236   1.781  17.571 -1.2667  0.1382 -1.7338
 3963SOL    HW223349   0.093   1.730  17.576 -0.0844 -0.6066  0.2520
 3964SOL     OW23350   1.475   0.982  10.249  0.2782 -0.5563 -0.1792
 3964SOL    HW123351   1.429   0.945  10.174 -2.3486 -1.0245  1.6517
 3964SOL    HW223352   1.450   1.074  10.252 -2.3292 -1.2542 -0.5022
 3965SOL     OW23353   3.652   1.868   5.363 -0.2842 -0.4712  0.4642
 3965SOL    HW123354   3.662   1.943   5.422  1.2080 -0.5108  0.2610
 3965SOL    HW223355   3.568   1.884   5.320  0.0802 -1.5368 -0.6461
 3966SOL     OW23356   3.222   1.722  15.710  0.3542 -0.2501 -0.4349
 3966SOL    HW123357   3.160   1.688  15.646 -1.6355 -0.6533  1.7047
 3966SOL    HW223358   3.253   1.804  15.674 -2.8672  2.1256  2.2314
 3967SOL     OW23359   1.106   2.396  12.425  0.3907  0.7119  1.0542
 3967SOL    HW123360   1.028   2.401  12.370 -0.0063  1.6475  1.7089
 3967SOL    HW223361   1.118   2.301  12.424  2.5783  1.0024 -0.5292
 3968SOL     OW23362   1.478   1.467   3.989 -0.2467  0.1321  0.3042
 3968SOL    HW123363   1.560   1.516   3.994  0.1178 -0.4973  0.5245
 3968SOL    HW223364   1.511   1.380   3.964 -0.3306  0.9178 -2.5553
 3969SOL     OW23365   1.181   0.640  15.454 -0.2634  0.2547  0.3481
 3969SOL    HW123366   1.104   0.681  15.414 -0.9513 -0.6563  0.7532
 3969SOL    HW223367   1.162   0.672  15.542 -0.0018  1.3881  0.0020
 3970SOL     OW23368   4.278   2.723   6.042 -0.2939 -0.5771  0.0697
 3970SOL    HW123369   4.346   2.662   6.070  0.6622  0.4207 -0.1043
 3970SOL    HW223370   4.323   2.807   6.039  1.0372 -1.2829  0.2820
 3971SOL     OW23371   2.879   4.053   5.790 -0.1239  0.2016  0.3973
 3971SOL    HW123372   2.819   3.999   5.841 -0.6228 -2.0278 -2.5372
 3971SOL    HW223373   2.913   4.108   5.861 -0.2144 -1.5551  1.7947
 3972SOL     OW23374   0.639   3.239   6.950 -0.1790  0.0850  0.2089
 3972SOL    HW123375   0.578   3.165   6.959 -0.2947  0.0435 -0.9957
 3972SOL    HW223376   0.648   3.245   6.855  1.3510  2.2942  0.4902
 3973SOL     OW23377   0.153   4.432   3.902  0.6634  0.1080 -0.5329
 3973SOL    HW123378   0.081   4.458   3.844 -0.0870  0.4885  0.5599
 3973SOL    HW223379   0.234   4.467   3.864  1.5863 -0.6167  0.7568
 3974SOL     OW23380   2.098   2.809   4.236 -0.8071 -0.2272  0.4393
 3974SOL    HW123381   2.063   2.722   4.256 -2.4033 -0.0744 -1.6323
 3974SOL    HW223382   2.185   2.788   4.200  0.2286  1.7891  1.7768
 3975SOL     OW23383   1.259   4.670   8.180 -0.5442 -0.5360 -0.0104
 3975SOL    HW123384   1.328   4.618   8.139  0.0831 -0.3016  0.7396
 3975SOL    HW223385   1.208   4.602   8.224 -2.3382  0.5978 -0.3483
 3976SOL     OW23386   1.577   1.336   2.992 -0.7048  0.4837  0.3203
 3976SOL    HW123387   1.503   1.396   2.983 -1.7487 -0.8570 -0.0567
 3976SOL    HW223388   1.644   1.395   3.026 -1.0402  1.1800 -0.2289
 3977SOL     OW23389   1.252   1.813   0.170  0.0960 -0.3971 -0.6217
 3977SOL    HW123390   1.160   1.787   0.170 -0.1962  0.6330  0.2359
 3977SOL    HW223391   1.249   1.906   0.145 -0.3090  0.0613  1.1261
 3978SOL     OW23392   4.085   3.428   8.700  0.4343 -0.2688  0.2065
 3978SOL    HW123393   4.112   3.519   8.705  2.0921 -0.7473 -0.1838
 3978SOL    HW223394   4.048   3.416   8.788 -0.2657 -1.9031 -0.3127
 3979SOL     OW23395   1.630   4.400   6.619  0.1171 -0.0870  0.2954
 3979SOL    HW123396   1.627   4.429   6.528  0.5286 -2.1783 -0.3674
 3979SOL    HW223397   1.543   4.430   6.647  0.3962  1.6424 -0.6437
 3980SOL     OW23398   1.276   2.129   8.426  0.4992  0.4663 -0.4669
 3980SOL    HW123399   1.239   2.062   8.370  0.1501  0.1973  0.0851
 3980SOL    HW223400   1.238   2.107   8.512  2.9801  2.3660  1.1313
 3981SOL     OW23401   0.782   1.936   3.669  0.2386 -0.3372 -0.0377
 3981SOL    HW123402   0.815   2.012   3.620 -1.7243  0.5429 -0.0197
 3981SOL    HW223403   0.773   1.867   3.603 -1.2542 -0.4756  0.3127
 3982SOL     OW23404   4.427   1.383   2.094 -0.1825  0.0254 -0.3112
 3982SOL    HW123405   4.340   1.343   2.102 -0.5199  0.8928  0.3229
 3982SOL    HW223406   4.461   1.330   2.022 -0.0942  1.5170 -1.3660
 3983SOL     OW23407   1.851   2.500   0.866  0.2726  0.4053 -0.1530
 3983SOL    HW123408   1.784   2.567   0.878  0.5802  0.5822  0.5416
 3983SOL    HW223409   1.868   2.495   0.772 -0.6060  0.7951 -0.3231
 3984SOL     OW23410   2.526   0.178   6.787 -0.5918  0.3789  0.8573
 3984SOL    HW123411   2.460   0.220   6.732  0.5636 -0.7558 -1.4033
 3984SOL    HW223412   2.565   0.253   6.832  0.4015 -1.1139  2.5057
 3985SOL     OW23413   2.801   3.504   5.951  0.4750  0.4780 -0.0753
 3985SOL    HW123414   2.722   3.533   5.906 -0.0312 -2.4384 -1.1021
 3985SOL    HW223415   2.842   3.587   5.976  3.0044 -0.9575  0.6268
 3986SOL     OW23416   1.625   0.899   3.115 -0.1823 -0.4728 -0.3013
 3986SOL    HW123417   1.607   0.884   3.208  1.1494  0.1413  0.0521
 3986SOL    HW223418   1.577   0.831   3.068 -1.2592  0.7097 -0.8967
 3987SOL     OW23419   1.209   0.716   6.807 -0.0238 -0.2936  0.0626
 3987SOL    HW123420   1.295   0.742   6.773 -0.1940 -1.3840 -1.1617
 3987SOL    HW223421   1.223   0.736   6.900  1.2466 -2.4268  0.3229
 3988SOL     OW23422   3.670   4.537   5.831  0.0996  1.0247  0.0550
 3988SOL    HW123423   3.598   4.551   5.893 -0.6006  1.2173 -0.7977
 3988SOL    HW223424   3.648   4.448   5.803  2.7558  0.3404  0.1360
 3989SOL     OW23425   0.513   3.126   5.488  0.8600 -0.2690 -0.1650
 3989SOL    HW123426   0.606   3.116   5.465  0.7493 -0.8604 -0.3524
 3989SOL    HW223427   0.500   3.093   5.577  0.7129 -1.0621 -0.4769
 3990SOL     OW23428   1.321   1.384   3.542  0.1849 -0.7525 -0.1961
 3990SOL    HW123429   1.238   1.339   3.555  0.1983 -0.3501  1.3567
 3990SOL    HW223430   1.383   1.311   3.541 -0.2727 -1.1413 -0.1164
 3991SOL     OW23431   3.303   1.760  10.804  0.4216  0.1521 -0.6871
 3991SOL    HW123432   3.395   1.781  10.787  0.9570 -0.7194  1.2749
 3991SOL    HW223433   3.263   1.796  10.724 -0.2854  2.6312  0.7808
 3992SOL     OW23434   2.876   1.177   3.029  0.0628  0.0946  0.4994
 3992SOL    HW123435   2.930   1.247   2.992  1.5596 -1.0920  0.4335
 3992SOL    HW223436   2.799   1.186   2.973 -0.9713 -0.6599  1.7944
 3993SOL     OW23437   1.387   4.698   8.914 -0.1810  0.2528 -0.4339
 3993SOL    HW123438   1.412   4.609   8.890  0.8764  0.2287  0.7403
 3993SOL    HW223439   1.427   0.034   8.848  0.5424 -1.1701 -1.2300
 3994SOL     OW23440   3.348   3.637  10.308  0.3261  0.1737  0.1489
 3994SOL    HW123441   3.306   3.607  10.227  0.1975  1.5580 -0.3005
 3994SOL    HW223442   3.282   3.606  10.370 -0.4079  0.7827 -0.3278
 3995SOL     OW23443   2.636   0.082   4.652 -0.3285  0.3364 -0.2786
 3995SOL    HW123444   2.678   0.168   4.649  0.0237  0.1535 -0.6262
 3995SOL    HW223445   2.627   0.070   4.557  0.5473  0.7066 -0.4037
 3996SOL     OW23446   1.122   1.276   9.125  0.4808  0.3406 -0.5268
 3996SOL    HW123447   1.191   1.250   9.187 -0.0151 -0.0947 -0.1575
 3996SOL    HW223448   1.149   1.219   9.053 -1.8551  1.1687 -2.0512
 3997SOL     OW23449   1.879   1.135   8.426  0.1575  0.1363 -0.3488
 3997SOL    HW123450   1.946   1.071   8.451 -0.5478 -1.3065 -2.1725
 3997SOL    HW223451   1.803   1.095   8.469 -0.1331  0.7141 -0.3115
 3998SOL     OW23452   2.552   2.827   7.961  0.2402 -0.4330  0.1102
 3998SOL    HW123453   2.496   2.886   7.910 -1.2093 -1.8162  0.0768
 3998SOL    HW223454   2.553   2.748   7.906  0.4177  0.2311 -0.8409
 3999SOL     OW23455   2.494   0.396   7.198 -0.3349  0.4386  0.6893
 3999SOL    HW123456   2.425   0.357   7.252  0.9732  0.0177  2.0603
 3999SOL    HW223457   2.456   0.465   7.144 -0.8609  1.0422  1.8217
 4000SOL     OW23458   2.844   1.602  16.554  0.8938 -0.0706 -0.6722
 4000SOL    HW123459   2.907   1.656  16.601 -0.9203  2.0840 -0.6823
 4000SOL    HW223460   2.765   1.657  16.547 -1.8994 -3.5999  2.8691
 4001SOL     OW23461   3.278   1.745   7.407  0.0149  0.2804 -0.2804
 4001SOL    HW123462   3.357   1.726   7.458 -1.9323 -0.2241  2.5155
 4001SOL    HW223463   3.211   1.691   7.448 -1.2870  0.1690 -2.5633
 4002SOL     OW23464   1.587   3.498   0.973 -0.3543  0.0764  0.5575
 4002SOL    HW123465   1.680   3.493   0.949 -0.4754 -0.1236  0.1223
 4002SOL    HW223466   1.590   3.553   1.051 -1.8993  0.0695  0.6142
 4003SOL     OW23467   0.370   0.602   4.442 -0.2048 -1.0984  0.3515
 4003SOL    HW123468   0.462   0.580   4.455  0.0236  0.5017  1.4149
 4003SOL    HW223469   0.342   0.530   4.385 -1.4578 -1.6980  1.7274
 4004SOL     OW23470   1.769   2.827   3.023 -0.2498  0.3770  0.3603
 4004SOL    HW123471   1.810   2.772   2.957  1.4279  2.3934 -0.2829
 4004SOL    HW223472   1.756   2.901   2.963  0.3727  1.6578  1.7931
 4005SOL     OW23473   2.739   2.879   8.315 -0.3563 -0.6704  0.0134
 4005SOL    HW123474   2.694   2.964   8.318  1.6152  0.3160  1.6959
 4005SOL    HW223475   2.766   2.877   8.224 -3.7533 -0.8334 -1.0038
 4006SOL     OW23476   3.750   1.042  10.717 -1.1287  0.2256 -0.1247
 4006SOL    HW123477   3.782   1.094  10.644  0.5719 -1.5564 -0.6701
 4006SOL    HW223478   3.769   0.963  10.667  0.4338 -0.4624  1.5586
 4007SOL     OW23479   2.981   0.388   1.120  0.1751 -0.1271  0.2792
 4007SOL    HW123480   2.888   0.385   1.095  0.6365  2.7052 -1.8565
 4007SOL    HW223481   3.010   0.459   1.061 -1.7986  0.1672 -0.3587
 4008SOL     OW23482   0.664   1.625   6.802  0.4503 -0.5349 -0.1027
 4008SOL    HW123483   0.700   1.538   6.819 -1.6073 -0.9297  2.3523
 4008SOL    HW223484   0.688   1.640   6.711 -0.5485 -0.0772 -0.2966
 4009SOL     OW23485   4.226   4.453   5.913  0.9281  0.6807 -0.0637
 4009SOL    HW123486   4.145   4.501   5.892 -0.1961 -0.3568  1.8998
 4009SOL    HW223487   4.246   4.516   5.982  2.1254 -0.0870  0.2819
 4010SOL     OW23488   2.949   0.463   1.555 -0.2860 -0.0173  0.1097
 4010SOL    HW123489   2.883   0.395   1.565  0.8521 -1.2959 -1.0606
 4010SOL    HW223490   2.949   0.492   1.646 -1.1547 -1.2390  0.4914
 4011SOL     OW23491   4.309   3.921   4.640  0.5565  0.2673  0.1329
 4011SOL    HW123492   4.264   3.915   4.556  0.2399 -0.0670  0.3271
 4011SOL    HW223493   4.272   3.848   4.690  1.4117 -0.3428 -0.1206
 4012SOL     OW23494   2.180   4.590   6.406  0.0528 -0.0806 -0.5459
 4012SOL    HW123495   2.150   4.676   6.435 -1.4090 -0.3361 -1.2846
 4012SOL    HW223496   2.226   4.607   6.324  2.1264  2.9548  1.2504
 4013SOL     OW23497   4.348   1.067   8.594 -0.0404  0.2203 -0.6163
 4013SOL    HW123498   4.363   1.158   8.570  0.2357  0.5124  0.6370
 4013SOL    HW223499   4.252   1.074   8.598 -0.1421 -1.4171 -0.1358
 4014SOL     OW23500   0.232   1.469   8.998  0.0105  0.2726 -0.3668
 4014SOL    HW123501   0.136   1.463   8.997 -0.0940  1.3950  1.1705
 4014SOL    HW223502   0.236   1.562   9.023 -0.5466 -0.4357  2.4400
 4015SOL     OW23503   4.257   1.733   5.500 -0.1643 -0.1434  0.4905
 4015SOL    HW123504   4.201   1.656   5.507 -0.3846  0.1683  2.1658
 4015SOL    HW223505   4.321   1.706   5.566  2.5791  0.0168 -2.0824
 4016SOL     OW23506   4.069   2.094   5.077 -0.1651 -0.7207  0.3825
 4016SOL    HW123507   4.114   2.178   5.087  0.6403 -0.8909 -1.9344
 4016SOL    HW223508   4.011   2.102   5.153  1.6702  1.2401  1.5990
 4017SOL     OW23509   2.580   2.062   0.992  0.4566 -0.3963 -0.4763
 4017SOL    HW123510   2.521   1.991   0.965 -2.2813  1.4865  0.4829
 4017SOL    HW223511   2.635   2.073   0.915  2.8566  1.4724  1.5206
 4018SOL     OW23512   3.988   3.477   3.584  0.0277  0.2958 -0.3358
 4018SOL    HW123513   3.961   3.568   3.568  0.8234  0.7426  0.8326
 4018SOL    HW223514   4.084   3.484   3.587  0.1609 -1.1529 -1.3348
 4019SOL     OW23515   3.613   2.567  16.728 -0.0835  0.0482 -0.2706
 4019SOL    HW123516   3.539   2.602  16.678 -1.3113 -1.1725  0.6751
 4019SOL    HW223517   3.592   2.473  16.730 -0.2813  0.0801 -0.7195
 4020SOL     OW23518   1.194   3.603   7.957 -0.4099 -0.0677  0.4875
 4020SOL    HW123519   1.207   3.621   7.864  1.5139  0.5519  0.8829
 4020SOL    HW223520   1.278   3.609   8.001 -0.2130 -0.6224  0.1842
 4021SOL     OW23521   3.003   4.069  11.015 -0.3194 -0.0044 -0.4755
 4021SOL    HW123522   2.923   4.017  11.017  0.9931 -1.9289  1.3553
 4021SOL    HW223523   2.968   4.143  11.066 -0.0509  0.1638 -0.5341
 4022SOL     OW23524   2.593   4.704   7.806  0.1130  0.2007 -0.5829
 4022SOL    HW123525   2.512   4.698   7.755 -0.3695 -0.0988  0.2242
 4022SOL    HW223526   2.656   4.678   7.739  3.5377  0.7399  2.4491
 4023SOL     OW23527   0.912   0.218   6.261 -0.6598  0.0033  0.2716
 4023SOL    HW123528   0.870   0.269   6.192 -0.3388 -0.9084 -0.5842
 4023SOL    HW223529   0.925   0.136   6.214  1.4688  0.1859  0.5144
 4024SOL     OW23530   0.375   0.364   9.152  0.2556  0.4895  0.4066
 4024SOL    HW123531   0.336   0.439   9.198  0.0570 -0.3024  1.5202
 4024SOL    HW223532   0.435   0.408   9.091 -1.2349 -0.2349 -1.5868
 4025SOL     OW23533   0.627   0.543   8.667 -0.2948  0.4120  0.4442
 4025SOL    HW123534   0.692   0.473   8.674 -0.7779 -0.2771 -1.8701
 4025SOL    HW223535   0.679   0.612   8.626 -0.9882  0.7980  0.2157
 4026SOL     OW23536   1.583   1.536   6.606  0.3043  0.0402 -0.0833
 4026SOL    HW123537   1.487   1.534   6.602  0.3801 -3.6822 -0.1188
 4026SOL    HW223538   1.609   1.607   6.664  0.0003 -1.7005  2.2051
 4027SOL     OW23539   4.528   3.315   4.259  0.2175  0.0913 -0.2348
 4027SOL    HW123540   4.498   3.388   4.204  1.8282  1.2575  0.4334
 4027SOL    HW223541   4.546   3.252   4.189  0.0350  0.7686 -0.8999
 4028SOL     OW23542   2.248   2.966  12.743 -0.4411  0.2197 -0.5669
 4028SOL    HW123543   2.336   2.990  12.713  1.2406 -1.1256  3.3013
 4028SOL    HW223544   2.243   3.006  12.829 -1.6226  1.2847 -1.1364
 4029SOL     OW23545   4.004   3.385   2.645  0.7844  0.1083 -0.8641
 4029SOL    HW123546   3.954   3.416   2.720 -1.5438  0.1816 -2.4646
 4029SOL    HW223547   4.078   3.345   2.691 -1.1410 -0.7209  1.4699
 4030SOL     OW23548   4.677   1.921   5.223 -0.0983  0.4170 -0.4372
 4030SOL    HW123549   4.601   1.875   5.256  0.6297 -2.2044 -2.4694
 4030SOL    HW223550   4.685   1.849   5.161  3.9670  0.3090  0.1864
 4031SOL     OW23551   3.670   0.135   5.024 -0.3659  0.3962  0.3558
 4031SOL    HW123552   3.675   0.121   4.930 -1.1599 -0.2140  0.4100
 4031SOL    HW223553   3.580   0.107   5.041 -0.5056 -0.9204 -2.6132
 4032SOL     OW23554   2.654   2.154   0.748 -0.2353  0.0798  0.1995
 4032SOL    HW123555   2.679   2.187   0.662 -1.2102 -0.1504 -0.1841
 4032SOL    HW223556   2.617   2.068   0.731 -2.9529  0.8138  2.4006
 4033SOL     OW23557   3.625   1.389   5.432 -0.2446 -0.4252 -0.5428
 4033SOL    HW123558   3.663   1.449   5.368 -3.3200 -1.0497 -2.9826
 4033SOL    HW223559   3.607   1.454   5.499  0.3073 -0.7790 -0.0504
 4034SOL     OW23560   3.365   1.765   5.800 -0.2696  0.1845  0.2050
 4034SOL    HW123561   3.404   1.836   5.850 -2.9207  0.9361  1.1997
 4034SOL    HW223562   3.432   1.697   5.811  1.3065  1.5729 -0.8015
 4035SOL     OW23563   3.979   2.538  10.245 -0.3879 -0.2008 -0.3208
 4035SOL    HW123564   4.049   2.473  10.241  1.5275  1.7776  0.9487
 4035SOL    HW223565   3.908   2.483  10.278 -1.3713  1.5702  0.4999
 4036SOL     OW23566   4.608   1.523  10.244 -0.0913  0.0878  0.4962
 4036SOL    HW123567   4.614   1.431  10.218  1.1468  0.2197  0.3338
 4036SOL    HW223568   4.630   1.513  10.337 -0.8479 -0.6723  0.5917
 4037SOL     OW23569   1.179   1.275   4.560  0.5056  0.1249  0.2118
 4037SOL    HW123570   1.164   1.346   4.497 -0.6451 -0.0918  0.2543
 4037SOL    HW223571   1.199   1.199   4.504 -1.3142 -1.6930  2.0704
 4038SOL     OW23572   1.547   1.062   4.580 -0.2486 -0.5438 -0.1220
 4038SOL    HW123573   1.619   1.024   4.530 -3.0798 -2.6926 -2.5938
 4038SOL    HW223574   1.575   1.153   4.588  1.1620 -0.8134 -1.9054
 4039SOL     OW23575   2.492   0.077  11.389 -0.1339  0.0449 -0.6317
 4039SOL    HW123576   2.559   0.010  11.376 -2.1109 -1.6970 -1.6919
 4039SOL    HW223577   2.548   0.154  11.379  0.3346 -0.0902  0.9758
 4040SOL     OW23578   3.370   4.318  13.047  0.1315 -0.3628  0.2492
 4040SOL    HW123579   3.462   4.343  13.047  0.7919 -2.7903  1.3503
 4040SOL    HW223580   3.362   4.231  13.084  2.0300 -1.0806 -1.0306
 4041SOL     OW23581   1.815   2.873  12.177  0.4795  0.3390 -0.3773
 4041SOL    HW123582   1.846   2.956  12.214  1.5509  0.2041 -0.9894
 4041SOL    HW223583   1.768   2.840  12.253  0.9896 -2.8979 -1.4902
 4042SOL     OW23584   2.747   3.408   3.658 -0.2849 -0.1032  1.0218
 4042SOL    HW123585   2.801   3.337   3.624  0.7051  0.5883  1.1497
 4042SOL    HW223586   2.672   3.356   3.688 -0.1436 -1.4365 -0.9915
 4043SOL     OW23587   2.305   3.413   4.039  0.1139  0.2690  0.4933
 4043SOL    HW123588   2.386   3.458   4.017 -0.4990  0.6346 -1.0434
 4043SOL    HW223589   2.284   3.354   3.967  1.0677 -2.1825  2.2550
 4044SOL     OW23590   3.301   0.195  13.103 -0.0778  0.1621  0.0590
 4044SOL    HW123591   3.273   0.114  13.060  0.4157  0.9689 -1.8180
 4044SOL    HW223592   3.388   0.169  13.135 -0.2074 -0.9739 -0.5060
 4045SOL     OW23593   2.106   2.981   9.077  0.0538  0.5673 -0.1015
 4045SOL    HW123594   2.155   2.921   9.022 -0.6639  0.3834 -0.5433
 4045SOL    HW223595   2.069   2.924   9.145  3.1570 -0.7366  0.4595
 4046SOL     OW23596   2.645   3.070  16.651  1.1038  0.4303 -0.0597
 4046SOL    HW123597   2.735   3.094  16.674  1.6736 -1.5649 -0.1863
 4046SOL    HW223598   2.611   3.024  16.728  0.4792 -1.8249 -1.6747
 4047SOL     OW23599   1.400   4.176   5.838 -0.3521 -0.6408  0.2652
 4047SOL    HW123600   1.422   4.226   5.917 -0.1121 -2.3491  1.2712
 4047SOL    HW223601   1.306   4.194   5.831 -0.4003 -0.7439  0.6577
 4048SOL     OW23602   0.789   4.094   2.321 -0.3296 -0.5441  0.6329
 4048SOL    HW123603   0.730   4.040   2.268 -0.0538  0.9134 -1.1665
 4048SOL    HW223604   0.873   4.089   2.276 -1.2042 -2.1935 -0.7998
 4049SOL     OW23605   1.889   1.367   8.067  0.4742  0.5813  0.1592
 4049SOL    HW123606   1.975   1.329   8.048  0.9138  2.2574 -1.1816
 4049SOL    HW223607   1.863   1.407   7.984  1.4225  0.1003 -0.3650
 4050SOL     OW23608   3.305   3.961   9.648  0.3483  0.4439  0.1956
 4050SOL    HW123609   3.357   4.037   9.623 -0.8472  0.6607 -1.6233
 4050SOL    HW223610   3.221   3.974   9.604  0.3514  0.9395  0.3398
 4051SOL     OW23611   2.881   2.467   1.380  0.1555  0.4334 -0.1630
 4051SOL    HW123612   2.804   2.419   1.347  0.3177  0.6703 -0.8831
 4051SOL    HW223613   2.862   2.480   1.473 -1.2825 -1.0535 -0.2393
 4052SOL     OW23614   0.199   2.238   8.140  0.9545  0.0221  0.0809
 4052SOL    HW123615   0.275   2.183   8.119 -0.9983 -2.2277 -0.9487
 4052SOL    HW223616   0.232   2.327   8.125 -1.3249  1.0430  1.2255
 4053SOL     OW23617   4.545   0.919   8.463  0.1156 -0.0797  0.1955
 4053SOL    HW123618   4.471   0.971   8.494 -0.5554 -0.3652 -0.8877
 4053SOL    HW223619   4.592   0.975   8.401  1.1016 -0.4177  0.6343
 4054SOL     OW23620   1.058   4.131   9.073  0.2648 -0.5443 -0.1840
 4054SOL    HW123621   1.026   4.043   9.093 -1.4744  0.1228 -0.0389
 4054SOL    HW223622   1.131   4.137   9.134  0.7010  1.5690 -0.9087
 4055SOL     OW23623   0.661   2.553   5.684 -0.4480 -0.0437 -0.1893
 4055SOL    HW123624   0.689   2.492   5.615 -1.8888  0.0176 -0.8222
 4055SOL    HW223625   0.711   2.628   5.652 -0.4270  0.3886  0.8541
 4056SOL     OW23626   3.757   4.463   7.312 -0.1099  0.3413 -0.0719
 4056SOL    HW123627   3.845   4.428   7.301  0.3959  0.9366  2.2407
 4056SOL    HW223628   3.713   4.417   7.240 -0.1023 -1.8943  1.3441
 4057SOL     OW23629   1.654   1.089   2.894  0.1709 -0.4233 -0.2195
 4057SOL    HW123630   1.636   1.038   2.972 -0.4206 -1.5607 -1.1064
 4057SOL    HW223631   1.644   1.176   2.932 -0.8271 -0.4195 -0.5102
 4058SOL     OW23632   1.426   1.199   8.912  1.2152  0.0689 -0.8054
 4058SOL    HW123633   1.380   1.132   8.863  0.3429  0.0896 -0.0156
 4058SOL    HW223634   1.470   1.146   8.979  0.4585  1.0999  0.5175
 4059SOL     OW23635   1.657   0.029   8.214 -0.7148 -0.1329 -0.6786
 4059SOL    HW123636   1.713   0.095   8.256 -1.8635  0.9063 -0.7869
 4059SOL    HW223637   1.704   4.672   8.246 -0.3447 -0.0143 -0.9276
 4060SOL     OW23638   1.774   2.650   2.420  0.0609  0.0015  0.9553
 4060SOL    HW123639   1.807   2.643   2.510  2.1853  0.4768  0.2325
 4060SOL    HW223640   1.729   2.733   2.435 -1.5001 -0.8388  0.9259
 4061SOL     OW23641   3.458   1.044   3.127 -0.3540 -0.2411 -0.2806
 4061SOL    HW123642   3.425   1.009   3.210 -0.1697  1.4079  0.4890
 4061SOL    HW223643   3.491   0.967   3.083  0.4089  0.6087 -1.1824
 4062SOL     OW23644   1.042   1.957   7.749  0.1592 -0.1535  0.3457
 4062SOL    HW123645   1.121   2.009   7.737 -0.7448  1.8415  3.0490
 4062SOL    HW223646   0.970   2.017   7.729 -1.3846 -1.9155  0.6320
 4063SOL     OW23647   3.046   4.167   6.011 -0.3075 -0.4691 -0.3031
 4063SOL    HW123648   3.029   4.148   6.104  0.0246  1.1899  0.1009
 4063SOL    HW223649   3.142   4.167   6.009 -0.2905 -0.7476  0.3598
 4064SOL     OW23650   1.475   1.470  15.126  0.2982 -0.0711 -0.0800
 4064SOL    HW123651   1.568   1.488  15.111 -0.0530  1.8211 -0.0064
 4064SOL    HW223652   1.454   1.561  15.149 -2.5497 -1.6667  3.6808
 4065SOL     OW23653   1.902   0.447   9.811 -0.0857 -0.1260 -0.0534
 4065SOL    HW123654   1.902   0.391   9.889 -1.0837 -1.9654 -1.3720
 4065SOL    HW223655   1.945   0.526   9.843 -1.8317  1.1647 -0.8691
 4066SOL     OW23656   3.617   4.276   8.022  0.0054  0.1829  0.5627
 4066SOL    HW123657   3.538   4.225   8.041 -0.7440  1.3584  0.5731
 4066SOL    HW223658   3.658   4.223   7.953 -0.5806 -0.3153  0.5957
 4067SOL     OW23659   2.662   1.511  14.181 -0.4265 -0.1400  0.5696
 4067SOL    HW123660   2.677   1.604  14.195  1.4526 -0.0591 -2.1406
 4067SOL    HW223661   2.685   1.472  14.265  1.1500 -0.0787  0.1564
 4068SOL     OW23662   1.411   3.904  11.550  0.2654 -0.0439  0.1392
 4068SOL    HW123663   1.403   3.875  11.640  0.4781 -0.0791  0.1456
 4068SOL    HW223664   1.505   3.915  11.536  0.0042 -1.2093 -2.5496
 4069SOL     OW23665   1.907   3.144  10.407  0.3695 -0.1158 -0.5114
 4069SOL    HW123666   1.952   3.217  10.364  0.5040  0.3298  0.3700
 4069SOL    HW223667   1.983   3.090  10.425  0.4509 -0.0296 -0.6004
 4070SOL     OW23668   0.763   2.482   6.390 -0.2217  0.6087  0.5656
 4070SOL    HW123669   0.781   2.414   6.325 -1.0336  0.1310  0.8317
 4070SOL    HW223670   0.791   2.436   6.469 -1.3874  0.1502  0.7105
 4071SOL     OW23671   0.983   2.479   4.551  0.1403  0.4631 -0.0358
 4071SOL    HW123672   0.895   2.442   4.549  1.4062 -2.5377 -1.3592
 4071SOL    HW223673   0.963   2.573   4.550  1.4391  0.7393 -0.1574
 4072SOL     OW23674   2.419   3.811  14.230  0.2232  0.2345 -0.4376
 4072SOL    HW123675   2.440   3.812  14.323 -0.5739  0.2093 -0.2531
 4072SOL    HW223676   2.329   3.783  14.247  1.1666 -2.0139  0.9647
 4073SOL     OW23677   0.897   3.577   2.333 -0.0534  0.0521 -0.1099
 4073SOL    HW123678   0.909   3.572   2.427 -0.9385  2.5188  0.1319
 4073SOL    HW223679   0.910   3.486   2.306  0.5615 -0.0011  0.3764
 4074SOL     OW23680   0.389   1.827   2.450  0.4862 -0.1513 -0.3456
 4074SOL    HW123681   0.483   1.829   2.470  0.7465  3.0521 -1.8545
 4074SOL    HW223682   0.365   1.919   2.434  1.9532 -0.3823 -3.9025
 4075SOL     OW23683   1.279   2.756  15.841  0.1090  0.1413 -0.8979
 4075SOL    HW123684   1.322   2.767  15.926  0.5493  0.0121 -1.1022
 4075SOL    HW223685   1.233   2.673  15.852  0.7804  0.1410  1.9198
 4076SOL     OW23686   4.452   1.925   3.489  0.4242  0.3102  0.1121
 4076SOL    HW123687   4.436   1.896   3.399 -0.8947  3.4276 -0.6466
 4076SOL    HW223688   4.392   1.869   3.538  2.0248 -0.9195  0.6685
 4077SOL     OW23689   4.556   2.968   0.944  0.5659  0.2180 -0.4219
 4077SOL    HW123690   4.632   2.935   0.991 -0.2010 -1.8037 -0.6146
 4077SOL    HW223691   4.582   2.942   0.855  2.1146 -0.1874  0.1470
 4078SOL     OW23692   3.292   4.218   3.227 -0.4892  0.0678 -0.7183
 4078SOL    HW123693   3.372   4.214   3.175 -0.1108 -0.2552 -0.1121
 4078SOL    HW223694   3.234   4.154   3.185 -2.4479  0.8111  0.8432
 4079SOL     OW23695   1.495   4.210   4.788 -0.9192  0.4915  0.1495
 4079SOL    HW123696   1.511   4.116   4.786  0.1173  0.6885 -0.4534
 4079SOL    HW223697   1.409   4.223   4.747 -0.5647  0.2561 -0.6581
 4080SOL     OW23698   3.262   1.837   8.926 -0.5369  0.1647  0.1963
 4080SOL    HW123699   3.266   1.743   8.941  1.9017  0.2018 -0.2218
 4080SOL    HW223700   3.348   1.855   8.887  0.0129  0.3658  1.4946
 4081SOL     OW23701   2.957   0.766  10.542 -0.2909  0.1255 -0.5906
 4081SOL    HW123702   2.984   0.734  10.627 -1.3046  0.6499 -0.0685
 4081SOL    HW223703   3.036   0.801  10.500 -0.3608  1.1726  0.1525
 4082SOL     OW23704   0.338   4.312   5.026 -0.2387 -0.2653  0.5087
 4082SOL    HW123705   0.365   4.223   5.048  2.0751  0.2152 -0.3666
 4082SOL    HW223706   0.334   4.353   5.113 -2.8048  0.7495 -0.0896
 4083SOL     OW23707   0.537   4.048   8.445 -0.3924  0.3811  0.3632
 4083SOL    HW123708   0.572   3.961   8.463  1.8416  0.5524 -3.1615
 4083SOL    HW223709   0.484   4.031   8.367  0.8468 -0.0223 -0.3973
 4084SOL     OW23710   3.245   2.547   0.900  0.0771  0.5720 -0.2113
 4084SOL    HW123711   3.309   2.558   0.971  1.5348 -1.5149 -1.2120
 4084SOL    HW223712   3.199   2.631   0.899  2.2504  1.7533 -0.7420
 4085SOL     OW23713   1.514   0.061   3.230  0.1302 -0.2953  0.2475
 4085SOL    HW123714   1.586   0.008   3.265 -0.6197  0.0414  2.2935
 4085SOL    HW223715   1.499   0.009   3.151  1.0896 -2.5012  1.4985
 4086SOL     OW23716   2.357   2.499  17.009  0.7016 -0.6016  0.2113
 4086SOL    HW123717   2.287   2.491  16.944  0.5835 -0.3239  0.3025
 4086SOL    HW223718   2.401   2.414  17.009  2.6112  0.3912 -2.1924
 4087SOL     OW23719   1.501   0.878   4.241 -0.0250  0.1464  0.1212
 4087SOL    HW123720   1.597   0.883   4.238 -0.0046  0.9244  1.7878
 4087SOL    HW223721   1.489   0.815   4.312 -2.6874 -1.4076 -1.7212
 4088SOL     OW23722   0.030   1.707   5.858 -0.3788 -0.2668  0.6809
 4088SOL    HW123723   0.117   1.679   5.886  0.8733  1.3002 -1.6074
 4088SOL    HW223724   4.718   1.619   5.844 -3.4034  0.4723  3.2729
 4089SOL     OW23725   4.504   0.992   8.119 -0.2763 -0.0891 -0.7850
 4089SOL    HW123726   4.556   1.043   8.181 -0.2194 -0.8658 -0.1979
 4089SOL    HW223727   4.420   0.984   8.165  0.6838  0.5759  1.0636
 4090SOL     OW23728   4.179   3.548  15.087 -0.0945 -0.0421 -0.0621
 4090SOL    HW123729   4.230   3.580  15.013  1.4794 -2.5257 -0.0675
 4090SOL    HW223730   4.138   3.627  15.121 -0.0660 -0.7147  1.5283
 4091SOL     OW23731   4.296   1.555  16.977 -0.0755 -0.0785  0.4112
 4091SOL    HW123732   4.361   1.489  16.954 -1.7942 -0.7082 -2.7836
 4091SOL    HW223733   4.245   1.497  17.034 -0.9697 -2.9651 -3.3035
 4092SOL     OW23734   2.519   0.143   9.343 -0.5808  0.7668  0.0608
 4092SOL    HW123735   2.445   0.125   9.286  0.1145 -2.8247  0.2947
 4092SOL    HW223736   2.581   0.076   9.313  0.2343  1.4136  0.2896
 4093SOL     OW23737   1.949   4.599   9.937 -0.5397  0.1505 -0.4340
 4093SOL    HW123738   2.043   4.617   9.928 -0.9270  1.6416 -1.5727
 4093SOL    HW223739   1.918   4.663  10.001 -0.8996  0.1358 -0.5981
 4094SOL     OW23740   1.429   0.981   2.466  0.1636  1.1728 -0.1967
 4094SOL    HW123741   1.345   0.943   2.442  0.5868 -1.2798  2.1824
 4094SOL    HW223742   1.417   1.015   2.554  0.7109  1.0012 -0.0536
 4095SOL     OW23743   2.873   1.889   4.326 -0.6851  0.0638  0.3473
 4095SOL    HW123744   2.929   1.892   4.404 -0.1484  0.0824 -0.0443
 4095SOL    HW223745   2.907   1.807   4.290 -1.3516  1.0554 -2.5636
 4096SOL     OW23746   1.536   3.669   2.008 -0.2395 -0.5328  0.2091
 4096SOL    HW123747   1.571   3.595   1.959  0.6174 -0.3539  0.5526
 4096SOL    HW223748   1.518   3.738   1.944  1.7324  0.2668  0.5234
 4097SOL     OW23749   3.339   3.349   4.089  0.4407  0.4740  0.4614
 4097SOL    HW123750   3.296   3.301   4.017 -0.0520  2.5624 -0.6425
 4097SOL    HW223751   3.260   3.368   4.139 -0.1683  3.2446 -1.5249
 4098SOL     OW23752   4.339   2.694   2.859  0.7038  0.1145 -0.4087
 4098SOL    HW123753   4.267   2.637   2.886 -0.3834  1.0628 -1.3091
 4098SOL    HW223754   4.351   2.745   2.939  2.1056  1.8120 -1.7173
 4099SOL     OW23755   0.729   4.142   9.989 -0.1926  0.8411 -0.3852
 4099SOL    HW123756   0.804   4.095  10.026 -0.8710 -0.0785 -0.2033
 4099SOL    HW223757   0.673   4.065   9.987 -0.6290  1.1416  0.3489
 4100SOL     OW23758   1.843   4.015   5.591  0.3223  0.0761 -0.0459
 4100SOL    HW123759   1.827   3.988   5.501 -1.1547  0.2184  0.1757
 4100SOL    HW223760   1.762   4.005   5.640 -0.2997  1.6153 -0.7590
 4101SOL     OW23761   3.064   0.945  10.042  0.2033  0.4571  0.9102
 4101SOL    HW123762   3.121   1.014  10.075 -0.3913  1.3506  0.0363
 4101SOL    HW223763   2.978   0.977  10.069 -0.1218 -0.5514  1.1036
 4102SOL     OW23764   0.234   3.500   3.840  0.2009 -0.0280  0.0372
 4102SOL    HW123765   0.276   3.447   3.773 -1.2429  0.4745 -1.2652
 4102SOL    HW223766   0.310   3.531   3.889  0.5676  0.8507 -1.0938
 4103SOL     OW23767   4.511   0.207   2.402 -0.7052  0.1255 -0.1573
 4103SOL    HW123768   4.487   0.295   2.371  0.9458  1.2049  1.6946
 4103SOL    HW223769   4.572   0.189   2.330 -1.0252 -0.2363 -0.3403
 4104SOL     OW23770   3.691   3.429  15.708  0.9361  0.6511  0.4899
 4104SOL    HW123771   3.678   3.508  15.656 -0.6652  0.1500  0.1001
 4104SOL    HW223772   3.759   3.454  15.770 -1.0727 -0.0904  3.0082
 4105SOL     OW23773   3.973   3.336   4.428  0.0854 -0.1310 -0.0653
 4105SOL    HW123774   4.000   3.392   4.356  1.9520 -1.3139 -0.2872
 4105SOL    HW223775   3.883   3.308   4.409  0.2551 -0.1549 -0.8341
 4106SOL     OW23776   3.871   1.179   5.113 -0.3915 -0.2364  0.2090
 4106SOL    HW123777   3.918   1.109   5.068  0.0022 -1.1757  2.0831
 4106SOL    HW223778   3.914   1.251   5.067  0.1877 -0.7730 -0.0785
 4107SOL     OW23779   4.158   1.510  16.539  0.0269 -0.6086 -0.3260
 4107SOL    HW123780   4.152   1.554  16.624  1.8442 -1.5415  0.2728
 4107SOL    HW223781   4.196   1.581  16.486  0.9244 -1.2835 -0.5897
 4108SOL     OW23782   0.328   1.629   0.307 -0.9104 -0.2962 -0.7631
 4108SOL    HW123783   0.389   1.671   0.247 -0.3145 -0.7307 -0.4698
 4108SOL    HW223784   0.293   1.571   0.239 -2.4666 -1.6001  1.1374
 4109SOL     OW23785   4.662   4.347   8.782  0.0818  0.4538 -0.2853
 4109SOL    HW123786   4.671   4.442   8.792  0.4068  0.2999  0.8592
 4109SOL    HW223787   4.613   4.331   8.863 -0.1056  0.5785 -0.3724
 4110SOL     OW23788   4.023   1.169   7.511  0.2351  0.1615 -0.6451
 4110SOL    HW123789   3.958   1.121   7.459 -0.4854 -0.3281  0.6945
 4110SOL    HW223790   3.980   1.148   7.594 -0.5169  0.7444 -0.8840
 4111SOL     OW23791   0.270   0.633   6.894  0.0202  0.0789 -0.2108
 4111SOL    HW123792   0.257   0.633   6.799 -0.5042 -1.0178 -0.1304
 4111SOL    HW223793   0.214   0.707   6.917 -2.0431 -0.8798 -2.2641
 4112SOL     OW23794   3.232   1.686   3.556  0.5245 -0.1936  0.1554
 4112SOL    HW123795   3.315   1.643   3.573  1.5495  2.2427  1.3688
 4112SOL    HW223796   3.176   1.621   3.513  0.1987  0.6909 -0.7583
 4113SOL     OW23797   4.718   1.241   4.436  0.6194 -0.1209  0.1376
 4113SOL    HW123798   0.031   1.196   4.512  1.9439 -1.2391 -1.1328
 4113SOL    HW223799   4.697   1.322   4.482  0.4884  0.3971 -0.8219
 4114SOL     OW23800   4.207   0.601   4.962  0.1490  0.3849 -0.0637
 4114SOL    HW123801   4.134   0.540   4.977  1.6304 -0.9347  1.8402
 4114SOL    HW223802   4.176   0.679   5.008 -2.8142 -1.3607  0.8897
 4115SOL     OW23803   3.526   4.363   5.547 -0.1889  0.1445 -0.1794
 4115SOL    HW123804   3.611   4.402   5.563  0.8078 -1.8596 -0.5584
 4115SOL    HW223805   3.554   4.271   5.547 -1.9419 -0.4109  3.1065
 4116SOL     OW23806   3.681   4.298   4.760 -0.2921  0.5543  0.6786
 4116SOL    HW123807   3.627   4.277   4.684 -0.7564 -2.1904  1.7592
 4116SOL    HW223808   3.749   4.231   4.758  0.7418  1.6471 -0.5902
 4117SOL     OW23809   0.962   1.651   5.118  0.2972  0.1826  0.1518
 4117SOL    HW123810   0.972   1.593   5.194 -4.6547 -1.8207 -0.7614
 4117SOL    HW223811   1.053   1.665   5.089 -0.3768  4.6085  0.1467
 4118SOL     OW23812   1.661   1.584  16.808  0.2474 -0.9621  0.2630
 4118SOL    HW123813   1.710   1.607  16.887  0.6245  0.5638 -0.4217
 4118SOL    HW223814   1.718   1.600  16.733  0.5898  0.8386  0.9132
 4119SOL     OW23815   4.240   2.876   7.581  0.1128  0.3494  0.2623
 4119SOL    HW123816   4.157   2.896   7.625 -0.8629  0.7419 -1.7657
 4119SOL    HW223817   4.268   2.815   7.650  2.7491  0.2167 -0.9313
 4120SOL     OW23818   1.788   3.141   6.045  0.2219 -0.0349  0.2815
 4120SOL    HW123819   1.784   3.057   6.092 -0.9397 -0.8651 -1.3034
 4120SOL    HW223820   1.836   3.192   6.110 -0.6898  0.5221  0.5200
 4121SOL     OW23821   4.423   0.402  10.959  0.0127 -0.5493  0.0558
 4121SOL    HW123822   4.460   0.333  11.013 -0.8680  0.3793  1.8217
 4121SOL    HW223823   4.399   0.356  10.878 -0.6813 -2.6189  1.4650
 4122SOL     OW23824   0.408   1.558   0.544 -0.3446 -0.3782  0.3193
 4122SOL    HW123825   0.479   1.608   0.585  0.9603 -2.2855  0.3436
 4122SOL    HW223826   0.379   1.609   0.468 -1.7952  0.2934  1.3221
 4123SOL     OW23827   0.286   2.108   9.848  0.6461  0.9761  0.0863
 4123SOL    HW123828   0.377   2.088   9.869  0.7032  0.7894 -0.3394
 4123SOL    HW223829   0.256   2.052   9.776 -0.0552  0.7880  0.5184
 4124SOL     OW23830   0.981   2.585   0.030 -0.0465  0.5216  0.1041
 4124SOL    HW123831   0.983   2.494   0.059  0.6162  0.2900 -0.6722
 4124SOL    HW223832   1.035   2.585  17.638  0.5489 -0.7070  0.5166
 4125SOL     OW23833   0.491   4.553  13.297  0.2009  0.5406 -0.1009
 4125SOL    HW123834   0.445   4.503  13.364  1.0671  1.6846  1.3535
 4125SOL    HW223835   0.522   4.633  13.339  0.7549  0.3762 -0.1933
 4126SOL     OW23836   0.213   0.701   5.975 -0.3105  0.3130 -0.3896
 4126SOL    HW123837   0.218   0.777   5.917 -2.8947  1.0697  0.4011
 4126SOL    HW223838   0.138   0.650   5.946  0.0153 -1.8836  2.5804
 4127SOL     OW23839   1.092   0.781   7.862  0.1664 -0.4591 -0.2453
 4127SOL    HW123840   1.155   0.711   7.847 -2.6904 -3.0342 -0.3945
 4127SOL    HW223841   1.099   0.807   7.954 -0.1484 -0.1880 -0.2977
 4128SOL     OW23842   0.746   4.291   6.259  0.3825 -0.0556 -0.4205
 4128SOL    HW123843   0.783   4.248   6.182 -0.0026 -1.0706 -0.0449
 4128SOL    HW223844   0.664   4.326   6.226 -1.2165 -3.1235  0.2241
 4129SOL     OW23845   1.031   0.076   3.764  0.1065  0.1589  0.1782
 4129SOL    HW123846   0.985   4.717   3.789 -0.5303  0.6634  0.5970
 4129SOL    HW223847   1.039   0.118   3.849  0.0280  1.6068 -0.5370
 4130SOL     OW23848   4.355   3.734   9.388  0.3347 -0.6817 -0.4076
 4130SOL    HW123849   4.409   3.798   9.341 -1.3306  0.4710 -0.7565
 4130SOL    HW223850   4.360   3.758   9.480 -2.2190 -0.1718 -0.4057
 4131SOL     OW23851   1.775   1.285   2.228  0.0885  0.0424 -0.2657
 4131SOL    HW123852   1.720   1.328   2.162 -1.3588  0.4601  1.1939
 4131SOL    HW223853   1.707   1.275   2.296  1.5803 -6.3256  0.2996
 4132SOL     OW23854   1.330   3.857   8.291  0.2969 -0.4116 -0.0898
 4132SOL    HW123855   1.234   3.864   8.295  0.1457 -1.9650 -1.3047
 4132SOL    HW223856   1.345   3.938   8.242  3.0150 -1.9250 -1.7022
 4133SOL     OW23857   1.589   0.337   9.631 -0.3390  0.1702 -0.6502
 4133SOL    HW123858   1.531   0.406   9.600  0.6108  0.3513 -2.0485
 4133SOL    HW223859   1.534   0.264   9.604  0.3391 -0.4683 -0.3108
 4134SOL     OW23860   4.226   0.559   7.577 -0.2587 -0.5124 -0.3315
 4134SOL    HW123861   4.282   0.529   7.506  1.6191 -0.5439  1.1764
 4134SOL    HW223862   4.149   0.506   7.555 -1.4681  0.5574  1.2313
 4135SOL     OW23863   1.376   0.279  14.812  0.1354 -0.2347  0.3087
 4135SOL    HW123864   1.289   0.273  14.852 -0.6715  0.6318 -1.3003
 4135SOL    HW223865   1.370   0.232  14.729  1.0367 -1.1305  0.7469
 4136SOL     OW23866   0.607   3.718   6.180 -0.6592  0.2060  0.2220
 4136SOL    HW123867   0.691   3.759   6.203 -0.6477 -0.6023  1.6361
 4136SOL    HW223868   0.592   3.766   6.099  1.6944  2.2195  0.9749
 4137SOL     OW23869   3.113   0.387   1.345 -0.0202  0.0319 -0.4323
 4137SOL    HW123870   3.065   0.447   1.403 -2.0485 -0.2030 -1.8614
 4137SOL    HW223871   3.062   0.399   1.265 -1.5163 -0.2139  0.4801
 4138SOL     OW23872   0.621   0.361  17.028  0.5793 -0.0219 -0.5142
 4138SOL    HW123873   0.550   0.383  17.088 -0.6065  1.2817 -2.3955
 4138SOL    HW223874   0.697   0.347  17.084 -0.4028 -0.0006  0.8143
 4139SOL     OW23875   0.599   3.734   4.440 -0.2880  0.3081 -0.0106
 4139SOL    HW123876   0.648   3.810   4.471 -0.3602  0.2532  0.2352
 4139SOL    HW223877   0.611   3.675   4.514 -0.8314  1.0052  0.6321
 4140SOL     OW23878   0.824   4.346   8.600 -0.5982  1.0451 -0.1929
 4140SOL    HW123879   0.833   4.251   8.603  1.0032  1.2419  0.9499
 4140SOL    HW223880   0.867   4.369   8.682  1.0321  1.7873 -1.2563
 4141SOL     OW23881   4.265   1.815   3.673 -0.0228 -0.2081 -0.1160
 4141SOL    HW123882   4.266   1.722   3.692  1.4493  0.2580  2.1126
 4141SOL    HW223883   4.282   1.851   3.760  0.0091  0.2090 -0.2918
 4142SOL     OW23884   4.530   1.458  15.576 -0.0666 -0.5580 -0.1794
 4142SOL    HW123885   4.491   1.397  15.513  0.1602  1.9295 -2.7067
 4142SOL    HW223886   4.621   1.428  15.572  0.1748  0.5474 -2.6276
 4143SOL     OW23887   2.496   2.037   2.959  0.1483  0.6571 -0.0945
 4143SOL    HW123888   2.590   2.043   2.974  0.2108  1.1671 -0.7218
 4143SOL    HW223889   2.458   2.025   3.047 -1.4689 -3.0261 -1.3417
 4144SOL     OW23890   1.721   0.207   2.366  0.9374  0.0048  0.2924
 4144SOL    HW123891   1.816   0.217   2.356  1.2935 -0.8745  2.9265
 4144SOL    HW223892   1.705   0.116   2.340  3.2140 -0.1162 -0.6789
 4145SOL     OW23893   0.869   1.812   8.739  0.5370 -0.4002  0.2223
 4145SOL    HW123894   0.864   1.897   8.784 -1.6523  0.0215 -0.8050
 4145SOL    HW223895   0.780   1.812   8.703  0.5061  0.8720  0.3045
 4146SOL     OW23896   0.323   2.656   7.689 -0.2625  0.4611  0.1622
 4146SOL    HW123897   0.348   2.720   7.756  2.0749  0.9645 -1.1630
 4146SOL    HW223898   0.319   2.711   7.612  0.8838  1.0971  0.5592
 4147SOL     OW23899   0.629   0.414   5.798 -0.2118  0.1704 -0.0722
 4147SOL    HW123900   0.548   0.385   5.755 -0.2911 -0.6736  0.6213
 4147SOL    HW223901   0.694   0.420   5.729 -0.7019  0.1208 -0.5402
 4148SOL     OW23902   0.835   2.446   7.113 -0.0840 -0.1104  0.1223
 4148SOL    HW123903   0.754   2.425   7.160 -0.5406 -0.2012 -0.7199
 4148SOL    HW223904   0.878   2.517   7.161  0.9062  0.3121 -1.3897
 4149SOL     OW23905   0.721   2.400   4.462 -0.1524  0.5045 -0.2276
 4149SOL    HW123906   0.657   2.460   4.499 -0.8492 -0.5400  0.2526
 4149SOL    HW223907   0.723   2.425   4.370  0.0104 -0.7554 -0.5697
 4150SOL     OW23908   4.197   1.729   0.164 -0.3666 -0.6008 -0.1140
 4150SOL    HW123909   4.244   1.785   0.103  1.7770 -0.6310  1.5324
 4150SOL    HW223910   4.227   1.753   0.252 -0.0140  4.3806 -1.6371
 4151SOL     OW23911   0.512   4.606   3.851 -0.3002  0.6608 -0.4585
 4151SOL    HW123912   0.573   4.600   3.925 -0.1911 -1.6969 -0.7608
 4151SOL    HW223913   0.439   4.659   3.882  0.9970  1.1641  1.7670
 4152SOL     OW23914   3.016   0.524  14.600 -0.0101 -0.5663  0.4171
 4152SOL    HW123915   2.981   0.587  14.663  0.9300 -0.7055  1.0783
 4152SOL    HW223916   2.999   0.442  14.646 -0.3198 -0.9634 -0.3993
 4153SOL     OW23917   3.180   3.146   8.639 -0.2076 -0.0173 -0.0327
 4153SOL    HW123918   3.220   3.069   8.597 -0.0106  0.7823 -1.3011
 4153SOL    HW223919   3.251   3.176   8.696  0.9778  0.3805 -1.7529
 4154SOL     OW23920   1.109   4.429  10.053 -0.1229  0.2582 -0.2215
 4154SOL    HW123921   1.189   4.376  10.051  0.2310  0.7573  0.8622
 4154SOL    HW223922   1.046   4.366  10.090 -1.4225  1.3156 -0.6288
 4155SOL     OW23923   4.557   2.245   3.286  0.4175 -0.3646  0.4903
 4155SOL    HW123924   4.592   2.168   3.330  1.5261  0.7400  1.5581
 4155SOL    HW223925   4.510   2.283   3.361 -0.9892 -0.0115 -0.5650
 4156SOL     OW23926   4.139   4.089   3.476  0.6699 -0.0520 -0.1205
 4156SOL    HW123927   4.211   4.151   3.485 -0.8789  2.0937 -2.8855
 4156SOL    HW223928   4.077   4.129   3.538  1.3858 -0.7472  1.0519
 4157SOL     OW23929   1.070   1.515  12.930  0.0226 -0.6886  0.1532
 4157SOL    HW123930   1.072   1.510  12.834 -0.9435 -0.0433  0.0983
 4157SOL    HW223931   1.103   1.604  12.936  0.9619 -1.0342  0.0874
 4158SOL     OW23932   1.945   1.840   8.399 -0.4768  0.2610  0.3601
 4158SOL    HW123933   1.931   1.808   8.488 -1.1676 -1.4970 -0.3852
 4158SOL    HW223934   1.865   1.808   8.358  0.7911  0.1543 -2.0320
 4159SOL     OW23935   1.324   1.081   4.748 -0.3082  0.0640 -0.0346
 4159SOL    HW123936   1.413   1.082   4.714  0.2331 -1.4562  1.3653
 4159SOL    HW223937   1.281   1.138   4.684  1.0559  1.1279 -0.0032
 4160SOL     OW23938   2.371   1.648  17.665  0.8929 -0.1480 -0.6160
 4160SOL    HW123939   2.351   1.605   0.061  0.2119 -1.8303 -1.6450
 4160SOL    HW223940   2.328   1.728   0.005 -0.0830 -0.6979 -0.5433
 4161SOL     OW23941   0.032   3.269  10.639  0.7999 -0.1922  0.3389
 4161SOL    HW123942   0.123   3.262  10.668  0.7276 -0.8185  0.4184
 4161SOL    HW223943   0.022   3.363  10.627 -1.9019 -0.2796  1.9397
 4162SOL     OW23944   0.153   2.516   6.457  0.5810 -0.3223 -0.0423
 4162SOL    HW123945   0.122   2.599   6.421  3.8031 -0.2676 -2.6746
 4162SOL    HW223946   0.111   2.515   6.543 -2.3587 -0.6610 -1.4824
 4163SOL     OW23947   4.680   1.247   8.790 -0.2733 -0.3278 -0.1485
 4163SOL    HW123948   0.001   1.273   8.708  1.0129 -1.6805  0.0895
 4163SOL    HW223949   4.687   1.319   8.852  1.2056  0.3639 -1.1176
 4164SOL     OW23950   2.193   4.460   3.191  0.2728 -0.4689  0.5119
 4164SOL    HW123951   2.111   4.482   3.147  0.7535 -0.9772 -0.6251
 4164SOL    HW223952   2.185   4.498   3.279  1.7764 -0.7645  0.7743
 4165SOL     OW23953   3.483   1.079   8.056 -0.0589 -0.2278  0.0825
 4165SOL    HW123954   3.419   1.061   7.987 -0.1506 -0.7461  0.3020
 4165SOL    HW223955   3.427   1.070   8.133  1.5329  0.5652  1.3286
 4166SOL     OW23956   1.882   1.953  13.146 -0.1913  0.5800 -0.1705
 4166SOL    HW123957   1.842   2.037  13.167 -0.2880  1.0558 -2.2866
 4166SOL    HW223958   1.921   1.978  13.062 -1.8942  2.9259 -0.2650
 4167SOL     OW23959   1.925   3.684   6.177 -0.0697  0.0276 -0.1137
 4167SOL    HW123960   1.938   3.744   6.251 -1.4215 -0.2354  0.3524
 4167SOL    HW223961   1.948   3.744   6.107 -1.9608  0.4567 -0.3646
 4168SOL     OW23962   3.560   1.765   4.953 -0.0503 -0.3704  0.5074
 4168SOL    HW123963   3.645   1.772   4.996  0.4202 -1.7836 -0.1995
 4168SOL    HW223964   3.514   1.714   5.019  1.2739 -0.0333  1.6849
 4169SOL     OW23965   0.953   2.789   2.578 -0.0201  0.2709  0.0555
 4169SOL    HW123966   1.030   2.800   2.634  0.6980  1.3723 -1.1715
 4169SOL    HW223967   0.981   2.713   2.526 -1.5698 -1.1230  1.2355
 4170SOL     OW23968   0.486   2.474  11.222 -0.4214 -0.2470  0.3424
 4170SOL    HW123969   0.463   2.409  11.288  1.4165 -3.0140 -1.7162
 4170SOL    HW223970   0.464   2.432  11.138 -1.4467  0.7229  0.1187
 4171SOL     OW23971   1.090   2.516   7.786  0.5439 -0.1714  0.1760
 4171SOL    HW123972   1.004   2.530   7.827  0.0310 -2.3972 -0.1508
 4171SOL    HW223973   1.125   2.605   7.795 -0.2527  0.0687  0.9159
 4172SOL     OW23974   2.600   4.183   2.685 -0.2799 -0.2825 -0.3145
 4172SOL    HW123975   2.537   4.122   2.648  0.3342 -1.2753  0.2568
 4172SOL    HW223976   2.577   4.258   2.631  0.2193  0.3639  0.3585
 4173SOL     OW23977   3.009   2.427  16.157 -0.0681  0.1496 -0.1461
 4173SOL    HW123978   3.030   2.384  16.240  0.5699 -3.9285 -2.4070
 4173SOL    HW223979   2.936   2.372  16.129  1.4595 -1.3420 -1.2187
 4174SOL     OW23980   2.683   4.353   4.966 -0.2093 -0.0815  0.3770
 4174SOL    HW123981   2.725   4.407   5.033 -0.6717  0.6737  0.0492
 4174SOL    HW223982   2.681   4.413   4.892 -0.2197 -1.2778 -0.5946
 4175SOL     OW23983   0.999   3.477   4.655  0.2560 -0.4551 -0.0960
 4175SOL    HW123984   0.986   3.525   4.737 -0.8718 -0.1487 -0.4666
 4175SOL    HW223985   1.017   3.386   4.680 -3.0414 -1.2640 -0.6953
 4176SOL     OW23986   2.670   4.670   9.262  0.5576  0.1994 -0.1525
 4176SOL    HW123987   2.704   4.637   9.345 -0.5018  1.3134  0.7370
 4176SOL    HW223988   2.655   4.589   9.214  1.5883  0.6896 -1.2926
 4177SOL     OW23989   1.015   3.240  12.242  0.2981  0.1133  0.7426
 4177SOL    HW123990   0.944   3.179  12.220 -0.9051  1.3111  1.2841
 4177SOL    HW223991   1.021   3.296  12.164 -0.2562 -0.7232  0.0877
 4178SOL     OW23992   2.851   2.002   1.864  0.8851  0.5315  0.6191
 4178SOL    HW123993   2.834   1.930   1.803 -0.5334  0.5262  1.0185
 4178SOL    HW223994   2.947   2.007   1.863  0.8887  0.4597  0.5633
 4179SOL     OW23995   1.281   0.242   3.155 -0.2135  0.3796  0.0373
 4179SOL    HW123996   1.206   0.196   3.195 -1.1303  0.6489 -1.3807
 4179SOL    HW223997   1.343   0.172   3.175 -0.2843 -0.3453 -2.2171
 4180SOL     OW23998   2.184   3.568   6.109 -0.2089 -0.4347  0.1353
 4180SOL    HW123999   2.177   3.662   6.123  1.2353 -0.1188 -1.3548
 4180SOL    HW224000   2.173   3.574   6.014  1.1278  2.4756  0.1816
 4181SOL     OW24001   2.117   4.242   9.358  0.2806 -0.4751  0.0863
 4181SOL    HW124002   2.195   4.198   9.324 -0.3198 -0.3634 -1.4700
 4181SOL    HW224003   2.106   4.321   9.305  0.2372 -0.7241 -0.2751
 4182SOL     OW24004   3.176   4.413   7.653  0.0588 -0.3583 -0.2767
 4182SOL    HW124005   3.092   4.410   7.606  0.8363 -0.6966 -1.6311
 4182SOL    HW224006   3.154   4.388   7.742  1.6350 -1.8786 -0.3204
 4183SOL     OW24007   2.138   2.173  10.547  0.1306  0.2392 -0.2079
 4183SOL    HW124008   2.122   2.151  10.456 -1.5724  1.1730 -0.1256
 4183SOL    HW224009   2.097   2.258  10.557 -0.6569 -0.2826  1.0371
 4184SOL     OW24010   0.617   1.932   3.365  0.0438  0.3679  0.3082
 4184SOL    HW124011   0.605   1.838   3.348  1.6837  0.2865 -0.3770
 4184SOL    HW224012   0.545   1.937   3.428  1.7455 -0.7690  2.3286
 4185SOL     OW24013   1.588   1.166  12.066  0.1111 -0.3262  0.3599
 4185SOL    HW124014   1.496   1.140  12.062 -0.1142  0.2823  1.5232
 4185SOL    HW224015   1.591   1.248  12.018  1.5203 -0.5127  0.1394
 4186SOL     OW24016   3.199   3.492  15.861  0.2387  0.3489 -0.6380
 4186SOL    HW124017   3.261   3.468  15.793 -0.2709 -0.8052 -0.6969
 4186SOL    HW224018   3.127   3.519  15.804 -1.4773  0.8296  1.7343
 4187SOL     OW24019   1.910   0.387   3.277 -0.3470 -0.4550  0.1064
 4187SOL    HW124020   1.918   0.483   3.274 -1.2549 -0.3610  0.5196
 4187SOL    HW224021   1.837   0.375   3.216 -0.2786 -0.9464  0.1246
 4188SOL     OW24022   0.305   0.211  12.737 -1.1977 -0.3761  0.1193
 4188SOL    HW124023   0.366   0.238  12.805 -1.8984  0.7516  0.2973
 4188SOL    HW224024   0.236   0.169  12.790 -0.5640 -1.0410  0.4219
 4189SOL     OW24025   3.093   0.497   2.007 -0.3402  0.4791 -0.2413
 4189SOL    HW124026   3.033   0.562   1.970 -1.2552  1.4273  2.9740
 4189SOL    HW224027   3.159   0.487   1.938  0.5172 -1.7238  0.8968
 4190SOL     OW24028   4.677   1.997   4.904 -0.1290  0.4126  0.3719
 4190SOL    HW124029   4.582   1.997   4.910 -0.1772  3.3397 -0.5830
 4190SOL    HW224030   4.691   2.080   4.949 -3.0818  0.2522  1.5818
 4191SOL     OW24031   0.237   1.389   4.626  0.3318  0.1275 -0.1867
 4191SOL    HW124032   0.205   1.418   4.540 -0.1219  1.5465  0.4681
 4191SOL    HW224033   0.295   1.320   4.594 -1.1032 -1.0421 -0.2788
 4192SOL     OW24034   0.199   0.928  16.487 -0.4124  0.4405  0.2015
 4192SOL    HW124035   0.107   0.919  16.462  0.1114 -0.9830 -1.2458
 4192SOL    HW224036   0.180   0.911  16.580 -1.2091  0.2985  0.0130
 4193SOL     OW24037   0.249   3.741   7.818 -0.0044  0.0343  0.0550
 4193SOL    HW124038   0.332   3.711   7.854  0.7324  0.8193 -0.9527
 4193SOL    HW224039   0.216   3.808   7.878 -1.1012  0.4154 -0.9659
 4194SOL     OW24040   4.251   0.862   2.506  0.5433 -0.4399  0.0477
 4194SOL    HW124041   4.228   0.771   2.523  1.6535 -0.3073  2.3195
 4194SOL    HW224042   4.207   0.912   2.575 -0.2044 -1.4663  0.3073
 4195SOL     OW24043   2.924   2.506   7.059 -0.1555  0.2620 -0.1260
 4195SOL    HW124044   2.872   2.585   7.050  0.1978  0.4572 -0.4757
 4195SOL    HW224045   2.938   2.518   7.153  0.5804  0.0704 -0.2055
 4196SOL     OW24046   3.979   3.635  13.183 -0.5086  0.4319 -0.0150
 4196SOL    HW124047   3.901   3.590  13.152  0.0932 -1.2151  0.8845
 4196SOL    HW224048   4.032   3.570  13.228 -0.8719 -0.7537 -1.3152
 4197SOL     OW24049   4.577   0.606   4.568  0.0600 -0.1019 -0.0961
 4197SOL    HW124050   4.630   0.682   4.543  0.4871 -0.7962 -1.2864
 4197SOL    HW224051   4.547   0.634   4.654  0.1953 -1.0717  0.2671
 4198SOL     OW24052   4.600   4.567   5.496  0.3281 -0.3028 -0.6072
 4198SOL    HW124053   4.506   4.579   5.479 -0.1185 -0.7072  1.5530
 4198SOL    HW224054   4.632   4.608   5.416  1.3482 -1.0024 -0.5576
 4199SOL     OW24055   2.511   1.018   6.558  0.7253 -0.4372  0.0856
 4199SOL    HW124056   2.581   0.984   6.503  1.0099 -1.2790  0.9589
 4199SOL    HW224057   2.561   1.026   6.640 -1.5177  0.9202  1.3032
 4200SOL     OW24058   1.845   1.605  11.923  0.2645 -0.4810  0.5692
 4200SOL    HW124059   1.805   1.611  12.010 -0.4403 -1.2511  0.3027
 4200SOL    HW224060   1.864   1.511  11.919  1.7078  0.0050 -3.7524
 4201SOL     OW24061   3.968   2.553   7.947 -0.3219 -0.3367  0.2157
 4201SOL    HW124062   4.045   2.599   7.980 -0.4140 -0.0248 -0.0071
 4201SOL    HW224063   3.971   2.467   7.989  2.4208  0.0329  0.7472
 4202SOL     OW24064   3.541   2.530   1.811  0.0265 -0.2292 -0.1403
 4202SOL    HW124065   3.499   2.464   1.755 -0.9766 -0.6621  1.1150
 4202SOL    HW224066   3.527   2.494   1.899 -0.9263 -1.4155 -0.7724
 4203SOL     OW24067   1.861   1.537   8.270 -0.3643  0.0967  0.3521
 4203SOL    HW124068   1.885   1.611   8.213 -1.1500 -0.1782 -0.3331
 4203SOL    HW224069   1.873   1.471   8.202  0.2070 -0.4054  0.9405
 4204SOL     OW24070   3.549   0.444   3.901  0.4474  0.3732  0.0783
 4204SOL    HW124071   3.527   0.521   3.953  1.0719  1.5763 -1.4475
 4204SOL    HW224072   3.501   0.376   3.948  0.4724  0.5674  0.3877
 4205SOL     OW24073   3.482   0.442   3.079 -0.1277 -0.5147  0.2838
 4205SOL    HW124074   3.504   0.409   2.992 -0.5552 -0.2839  0.0913
 4205SOL    HW224075   3.553   0.503   3.096  0.8312 -1.2857 -0.9564
 4206SOL     OW24076   2.509   3.037   3.543  0.2276  0.4632  0.2734
 4206SOL    HW124077   2.521   3.036   3.638 -0.7357 -2.1975  0.3899
 4206SOL    HW224078   2.575   2.972   3.519  0.3726  1.1186 -1.0612
 4207SOL     OW24079   0.566   3.758  13.440 -0.1577 -0.1817  0.1717
 4207SOL    HW124080   0.614   3.723  13.365 -0.4660 -0.1470 -0.0385
 4207SOL    HW224081   0.555   3.688  13.505 -0.1825  0.5570  0.9608
 4208SOL     OW24082   2.092   4.240  11.094 -0.5092 -0.0127  0.1606
 4208SOL    HW124083   2.050   4.264  11.012 -1.1411 -1.9730 -0.0989
 4208SOL    HW224084   2.081   4.322  11.143 -1.2033 -0.2288  0.3690
 4209SOL     OW24085   0.443   3.885   4.978  0.5737  0.3811 -0.1874
 4209SOL    HW124086   0.477   3.831   4.908 -2.7176  0.8055 -2.0919
 4209SOL    HW224087   0.516   3.888   5.040 -0.4542  0.0193  1.0585
 4210SOL     OW24088   2.255   1.172  16.006 -0.7355 -0.3345 -0.2787
 4210SOL    HW124089   2.207   1.108  16.058 -1.9819 -0.6546 -1.8226
 4210SOL    HW224090   2.295   1.120  15.938  1.2125  0.0450  0.5824
 4211SOL     OW24091   0.487   1.416  11.449 -0.2477 -0.0266  0.3046
 4211SOL    HW124092   0.522   1.356  11.515  1.0816  0.9145  0.4708
 4211SOL    HW224093   0.427   1.464  11.507 -1.5964 -2.0285  0.5599
 4212SOL     OW24094   0.472   1.375   3.384 -0.4428  0.5615  0.3388
 4212SOL    HW124095   0.408   1.323   3.336  0.1539  0.7230 -0.6375
 4212SOL    HW224096   0.546   1.368   3.323  0.0279 -1.0183  1.0953
 4213SOL     OW24097   0.158   3.003   1.626  0.4154  0.1800  0.2423
 4213SOL    HW124098   0.226   2.966   1.681 -1.9893 -0.0479  3.0782
 4213SOL    HW224099   0.130   3.079   1.677 -2.3012 -0.4479 -0.2595
 4214SOL     OW24100   3.073   1.950   2.714 -0.2936  0.3728  0.5450
 4214SOL    HW124101   3.137   1.932   2.646  0.2053  0.8460  0.8906
 4214SOL    HW224102   3.111   1.894   2.781  0.4532  1.1299  0.7611
 4215SOL     OW24103   2.272   0.234  12.924  0.4133  0.2602 -0.0922
 4215SOL    HW124104   2.269   0.319  12.967 -2.5592  0.7244 -1.2572
 4215SOL    HW224105   2.192   0.200  12.963  0.1845 -0.8259 -1.5052
 4216SOL     OW24106   3.697   3.084   6.586 -0.3152 -0.0017 -0.0020
 4216SOL    HW124107   3.656   2.998   6.574  0.2720 -0.2785 -0.0401
 4216SOL    HW224108   3.758   3.109   6.517 -0.6940  1.3975  0.1704
 4217SOL     OW24109   2.191   3.099  15.529  0.2194  0.2082  0.2975
 4217SOL    HW124110   2.230   3.167  15.583  3.7727 -1.3404 -0.3139
 4217SOL    HW224111   2.124   3.155  15.490 -1.5972 -2.5464 -0.5240
 4218SOL     OW24112   1.771   3.825   0.932  0.2998  0.6227  0.4838
 4218SOL    HW124113   1.726   3.779   1.004  0.0670  0.5109  0.2672
 4218SOL    HW224114   1.855   3.840   0.975  1.3602  0.1782 -1.4512
 4219SOL     OW24115   0.276   1.414  16.085  0.0421  0.1304 -0.5770
 4219SOL    HW124116   0.247   1.403  15.994  0.2846 -0.8418 -0.5391
 4219SOL    HW224117   0.326   1.335  16.105  0.9556  1.1087  1.0229
 4220SOL     OW24118   2.893   3.611   6.229 -0.1948 -0.0106  0.1597
 4220SOL    HW124119   2.902   3.682   6.166 -2.1314 -0.3399 -0.4776
 4220SOL    HW224120   2.933   3.650   6.307  2.9808 -2.4169 -0.2593
 4221SOL     OW24121   0.247   4.276  11.378  0.5839 -0.1010 -0.4228
 4221SOL    HW124122   0.207   4.305  11.297 -0.1145  0.2966  0.0679
 4221SOL    HW224123   0.307   4.209  11.346  0.6789  0.1964 -0.8694
 4222SOL     OW24124   1.881   0.202   0.137 -0.5036 -0.6100 -0.5462
 4222SOL    HW124125   1.926   0.150   0.204  0.4609 -0.8319 -1.3644
 4222SOL    HW224126   1.837   0.134   0.086  0.2237 -1.7784  0.4033
 4223SOL     OW24127   1.728   4.233  10.565 -0.4428  0.6007 -0.2905
 4223SOL    HW124128   1.819   4.203  10.572 -0.3580  0.6839 -1.0769
 4223SOL    HW224129   1.690   4.155  10.605 -1.9515  0.9636 -1.0330
 4224SOL     OW24130   2.164   4.694  13.624  0.1179 -0.2612  0.0080
 4224SOL    HW124131   2.182   4.604  13.597  0.5130 -0.3743  0.6717
 4224SOL    HW224132   2.127   0.004  13.541 -1.7211 -0.2457  0.8208
 4225SOL     OW24133   0.746   1.415   6.478 -0.2473  0.3899 -0.3298
 4225SOL    HW124134   0.804   1.411   6.554  0.1175  0.0704 -0.6264
 4225SOL    HW224135   0.736   1.322   6.459  0.7328  0.8366 -3.0739
 4226SOL     OW24136   1.338   3.456   5.268 -0.2990 -0.3276  0.2849
 4226SOL    HW124137   1.367   3.460   5.177 -0.3882  1.1770  0.3205
 4226SOL    HW224138   1.399   3.393   5.305  0.5688 -0.0149 -0.6146
 4227SOL     OW24139   0.401   3.975   4.566 -0.4597 -0.3695  0.1067
 4227SOL    HW124140   0.389   3.977   4.471  2.5421  0.6163 -0.2722
 4227SOL    HW224141   0.424   3.882   4.570  0.9612 -0.0720 -1.0533
 4228SOL     OW24142   3.663   4.357  15.182  0.6863  0.3521 -0.0645
 4228SOL    HW124143   3.612   4.398  15.252 -2.9356  1.0258 -3.1340
 4228SOL    HW224144   3.693   4.276  15.223 -2.8368  0.0048  1.8381
 4229SOL     OW24145   0.248   1.340   8.196 -0.0837  0.0605  0.4542
 4229SOL    HW124146   0.292   1.383   8.269  0.4613 -0.9512  0.7186
 4229SOL    HW224147   0.165   1.388   8.192 -0.2851 -0.6070 -3.4462
 4230SOL     OW24148   2.177   2.392   3.326 -0.2857  0.0546 -0.4298
 4230SOL    HW124149   2.143   2.454   3.261 -1.1885  1.3425  1.2690
 4230SOL    HW224150   2.094   2.379   3.372  1.8570 -1.0818  3.0704
 4231SOL     OW24151   1.666   1.291   8.791 -0.3245  0.5007  0.5565
 4231SOL    HW124152   1.595   1.279   8.854  1.4042  0.2254  2.4548
 4231SOL    HW224153   1.698   1.201   8.786 -1.5672  0.1510 -0.8274
 4232SOL     OW24154   4.120   4.003   3.837 -0.2635 -0.2882  0.1177
 4232SOL    HW124155   4.179   4.065   3.881 -2.0717  0.5836  1.2845
 4232SOL    HW224156   4.040   4.053   3.821  0.1626  0.0440 -0.9730
 4233SOL     OW24157   4.121   1.910   6.773 -0.3592 -0.2164 -0.0344
 4233SOL    HW124158   4.134   1.898   6.679 -1.6036 -0.6495 -0.1562
 4233SOL    HW224159   4.046   1.969   6.762 -1.7639 -1.6328  1.9082
 4234SOL     OW24160   3.389   1.813  16.704 -0.5524 -0.3181 -0.0160
 4234SOL    HW124161   3.300   1.777  16.699 -1.7550  2.5774  0.7831
 4234SOL    HW224162   3.421   1.798  16.615 -0.0273 -0.2621  0.1592
 4235SOL     OW24163   1.140   0.120   7.978 -0.5640  1.0926 -0.6974
 4235SOL    HW124164   1.206   0.051   7.991 -0.9294  0.8626 -0.0656
 4235SOL    HW224165   1.168   0.177   8.049 -1.4076  1.1535 -0.4192
 4236SOL     OW24166   0.276   4.505   2.801 -0.3921 -0.3437 -0.0004
 4236SOL    HW124167   0.360   4.551   2.807 -0.8961  0.2755  2.1446
 4236SOL    HW224168   0.252   4.521   2.892  0.8386 -2.3829  0.6914
 4237SOL     OW24169   1.796   3.326  16.526  0.0727 -0.2113 -0.3309
 4237SOL    HW124170   1.702   3.326  16.507 -0.2559 -0.9427  1.3072
 4237SOL    HW224171   1.830   3.372  16.450  0.2546 -1.2081 -0.8509
 4238SOL     OW24172   4.588   3.195   0.339 -0.7581  0.5624  0.2307
 4238SOL    HW124173   4.594   3.264   0.274  0.9660 -0.2487 -0.4819
 4238SOL    HW224174   4.589   3.112   0.292 -0.8750  0.4917  0.3525
 4239SOL     OW24175   1.502   3.418  12.241  0.3990 -0.0112 -0.8024
 4239SOL    HW124176   1.472   3.420  12.332 -1.6718  3.4438 -1.5834
 4239SOL    HW224177   1.448   3.345  12.211  0.9950 -0.1016 -1.6437
 4240SOL     OW24178   1.980   4.216  15.048  0.1429  0.5043 -0.4185
 4240SOL    HW124179   1.904   4.239  14.994 -0.3467  1.0793  0.5187
 4240SOL    HW224180   1.932   4.170  15.117  0.9880  0.7765  0.3440
 4241SOL     OW24181   3.656   0.713   2.138 -0.4613 -0.5046 -0.5087
 4241SOL    HW124182   3.709   0.650   2.089  0.8274 -0.7037  1.1269
 4241SOL    HW224183   3.623   0.653   2.205 -2.0792 -0.9205 -1.6575
 4242SOL     OW24184   0.621   3.769   3.279  0.4653 -0.1264 -0.4218
 4242SOL    HW124185   0.644   3.849   3.327  1.7499 -0.8905  0.2332
 4242SOL    HW224186   0.637   3.800   3.190 -0.0579  0.4925 -0.3046
 4243SOL     OW24187   4.215   2.382  14.478 -0.6691 -0.0102  0.5075
 4243SOL    HW124188   4.304   2.414  14.466 -0.1041 -1.6550  0.3615
 4243SOL    HW224189   4.209   2.414  14.568  0.1212  0.6514  0.3143
 4244SOL     OW24190   3.263   1.472  15.177  0.0149 -0.3792  0.5779
 4244SOL    HW124191   3.322   1.424  15.119  3.4441  1.3355  2.6056
 4244SOL    HW224192   3.181   1.439  15.141 -0.8145  0.1535  1.9762
 4245SOL     OW24193   3.515   0.436  13.217 -0.2643 -0.2125 -0.7753
 4245SOL    HW124194   3.575   0.417  13.290 -1.3631 -1.1710 -0.1200
 4245SOL    HW224195   3.439   0.383  13.240 -0.1694 -0.5958 -1.3564
 4246SOL     OW24196   0.391   1.837   9.546  0.6211  0.6176  0.0647
 4246SOL    HW124197   0.479   1.810   9.570  1.1290  0.9135 -1.4627
 4246SOL    HW224198   0.370   1.766   9.485 -0.4269  1.5997 -0.7148
 4247SOL     OW24199   4.071   0.781  13.573 -0.4205  0.4001  0.5196
 4247SOL    HW124200   4.050   0.751  13.661 -0.0130 -1.7998 -0.1410
 4247SOL    HW224201   3.994   0.746  13.528  0.2522 -0.5656  0.1294
 4248SOL     OW24202   3.230   0.274  10.189  0.1827  0.0567 -0.0204
 4248SOL    HW124203   3.312   0.248  10.229  1.3657  1.0606 -1.8020
 4248SOL    HW224204   3.186   0.190  10.174  0.6013 -0.7832  3.5144
 4249SOL     OW24205   1.199   3.048  15.404 -0.1332  0.2811  0.5043
 4249SOL    HW124206   1.108   3.036  15.429 -0.3371  1.0519  0.1096
 4249SOL    HW224207   1.215   2.960  15.369  0.6809  0.5312  0.2332
 4250SOL     OW24208   0.272   1.068  10.384 -0.0394  0.2751  0.6954
 4250SOL    HW124209   0.352   1.121  10.372  0.1312 -0.0011  0.6218
 4250SOL    HW224210   0.255   1.054  10.477  0.2542 -1.2203  0.5134
 4251SOL     OW24211   3.295   4.340   5.764  0.6097  0.3920 -0.1621
 4251SOL    HW124212   3.321   4.248   5.764  1.4380  0.6224  1.1619
 4251SOL    HW224213   3.386   4.364   5.750  0.9779  0.2024  1.8776
 4252SOL     OW24214   2.406   4.455   4.153 -0.0174  0.1957  0.1848
 4252SOL    HW124215   2.353   4.376   4.158 -0.7870  0.6352 -1.0880
 4252SOL    HW224216   2.429   4.449   4.060 -1.5550  1.7956 -0.2924
 4253SOL     OW24217   1.455   4.527   8.046  0.3159 -0.3126  0.4269
 4253SOL    HW124218   1.502   4.483   8.117 -0.9569  1.4906  2.3975
 4253SOL    HW224219   1.411   4.460   7.994 -0.7462  1.5704 -1.1233
 4254SOL     OW24220   1.574   2.542   8.862  0.2880 -0.3721  0.3268
 4254SOL    HW124221   1.601   2.625   8.823 -0.4978 -1.2667 -2.0999
 4254SOL    HW224222   1.650   2.484   8.861  0.6673  0.1194  0.3884
 4255SOL     OW24223   3.812   1.315   6.398  0.5403  0.1721  0.0916
 4255SOL    HW124224   3.818   1.395   6.450  2.6462 -0.0930  0.2746
 4255SOL    HW224225   3.847   1.248   6.456 -0.9581 -0.8953 -0.2457
 4256SOL     OW24226   2.766   0.916   6.374  0.1684  0.2215  0.3484
 4256SOL    HW124227   2.783   1.009   6.363 -1.4812  0.8346  2.8302
 4256SOL    HW224228   2.846   0.897   6.423 -0.4097 -0.9536  0.8303
 4257SOL     OW24229   2.984   3.743  16.631 -0.0390 -0.3007 -0.0651
 4257SOL    HW124230   3.036   3.823  16.642 -0.2641 -0.1531 -0.0794
 4257SOL    HW224231   2.897   3.770  16.659  1.0770  2.4215  0.7991
 4258SOL     OW24232   0.051   4.206   4.820  0.1849  0.3439 -0.0119
 4258SOL    HW124233   0.110   4.136   4.795 -1.4870 -1.6330  1.5800
 4258SOL    HW224234   0.011   4.161   4.894 -0.5087 -1.4230 -1.4962
 4259SOL     OW24235   1.822   4.561   5.832 -0.1910  0.2446  0.1779
 4259SOL    HW124236   1.809   4.567   5.927  0.6710 -1.5139  0.4094
 4259SOL    HW224237   1.763   4.635   5.817 -0.0587  0.2867 -0.1257
 4260SOL     OW24238   2.660   3.647   3.064 -0.0143 -0.6786 -1.3467
 4260SOL    HW124239   2.661   3.701   2.985 -0.0873 -0.0124 -0.8905
 4260SOL    HW224240   2.580   3.594   3.054 -1.0842  1.0561 -1.8440
 4261SOL     OW24241   1.853   0.739  15.975  0.3465  0.1019  0.6467
 4261SOL    HW124242   1.850   0.716  15.882  2.4121  2.5922 -0.0361
 4261SOL    HW224243   1.779   0.691  16.012 -0.4035  1.6190  1.0980
 4262SOL     OW24244   0.586   2.197   1.669  0.2234 -0.2974 -0.0561
 4262SOL    HW124245   0.646   2.154   1.729  2.2546 -0.5028 -2.2055
 4262SOL    HW224246   0.590   2.292   1.683  0.9539 -0.1958 -0.9726
 4263SOL     OW24247   1.767   1.374  11.123 -0.4387  0.4610 -0.4343
 4263SOL    HW124248   1.727   1.289  11.140 -0.0501  0.6117  1.2752
 4263SOL    HW224249   1.728   1.395  11.038 -0.4589 -0.3090 -0.6143
 4264SOL     OW24250   1.608   0.385   6.847 -0.4513  0.2484  0.7757
 4264SOL    HW124251   1.653   0.337   6.916  0.8126  1.5648  0.8764
 4264SOL    HW224252   1.548   0.318   6.817 -0.3479 -0.2939  1.7862
 4265SOL     OW24253   1.276   2.315  11.783 -0.1655  0.2739  0.8385
 4265SOL    HW124254   1.344   2.324  11.717 -1.1124 -2.0669 -0.4390
 4265SOL    HW224255   1.314   2.353  11.862  0.5936  1.4591 -0.0989
 4266SOL     OW24256   1.144   2.638  14.404 -0.2376  0.3207  0.2121
 4266SOL    HW124257   1.100   2.577  14.463  1.2427 -0.6779  0.3022
 4266SOL    HW224258   1.101   2.614  14.322 -0.8306  1.9380  0.0598
 4267SOL     OW24259   0.472   3.898   1.305 -1.0827  0.5877  0.2876
 4267SOL    HW124260   0.504   3.907   1.215  0.0296 -1.8690  0.4286
 4267SOL    HW224261   0.422   3.980   1.304 -0.3350  1.0507  1.5330
 4268SOL     OW24262   0.496   4.695  15.820  0.3134 -0.1280  0.1949
 4268SOL    HW124263   0.522   0.017  15.738  1.4825 -0.4601  0.3904
 4268SOL    HW224264   0.530   4.605  15.813 -2.8323 -1.4011  1.4481
 4269SOL     OW24265   0.123   1.747   6.262  0.3711 -0.2927 -0.0182
 4269SOL    HW124266   0.040   1.790   6.241  0.9583  1.0156  0.3278
 4269SOL    HW224267   0.173   1.824   6.287 -0.3141 -0.5600  2.1724
 4270SOL     OW24268   2.335   2.637   8.693  0.2062 -0.6089  0.0983
 4270SOL    HW124269   2.391   2.697   8.644 -2.5727  1.6496 -0.2799
 4270SOL    HW224270   2.344   2.676   8.780 -0.3380 -0.9517  0.3061
 4271SOL     OW24271   3.788   1.720   1.211 -0.4896 -0.6431  0.5376
 4271SOL    HW124272   3.746   1.806   1.214 -1.8658 -1.2989  0.2680
 4271SOL    HW224273   3.722   1.653   1.190  1.3602 -2.0083 -0.9434
 4272SOL     OW24274   1.222   3.779   1.545 -0.1296 -0.2981 -0.2618
 4272SOL    HW124275   1.138   3.801   1.506 -1.9942 -1.9335  2.8194
 4272SOL    HW224276   1.285   3.831   1.494 -1.2158  1.1987 -0.0606
 4273SOL     OW24277   4.684   0.088   5.832 -0.0746  0.2855  0.4271
 4273SOL    HW124278   0.027   0.113   5.765  0.9397 -1.4212  0.7563
 4273SOL    HW224279   0.019   0.023   5.875  1.0811  0.7130 -0.4177
 4274SOL     OW24280   4.720   3.174  16.923 -0.1742 -0.0695 -0.7149
 4274SOL    HW124281   4.672   3.172  17.006 -0.7739 -0.0102 -1.0555
 4274SOL    HW224282   4.688   3.095  16.879 -1.9474 -0.0700  0.5991
 4275SOL     OW24283   3.352   3.884   8.188  0.8481 -0.1026 -0.0442
 4275SOL    HW124284   3.295   3.811   8.210  1.1818 -0.4259 -0.2460
 4275SOL    HW224285   3.333   3.942   8.262  0.1531 -2.0652  1.2977
 4276SOL     OW24286   0.640   2.313   9.651  0.3885  0.0267  0.3006
 4276SOL    HW124287   0.572   2.247   9.637  2.0685 -1.2876 -1.5637
 4276SOL    HW224288   0.600   2.368   9.719 -1.3717 -1.7658  0.7354
 4277SOL     OW24289   3.995   2.014  10.411 -0.0819  0.6365  0.1205
 4277SOL    HW124290   4.037   1.929  10.402  0.0837  0.6119  1.0324
 4277SOL    HW224291   4.008   2.049  10.323  0.6849  1.2962  0.4910
 4278SOL     OW24292   4.532   4.307   9.018  1.1051  0.4064  0.6915
 4278SOL    HW124293   4.496   4.221   9.038 -2.6312  1.6773 -0.5297
 4278SOL    HW224294   4.551   4.346   9.103  2.9406 -1.3273  1.0873
 4279SOL     OW24295   2.380   0.817   3.858  0.4260 -0.0927  0.1323
 4279SOL    HW124296   2.373   0.881   3.787  0.9900 -0.3562 -0.1616
 4279SOL    HW224297   2.353   0.737   3.812 -0.8978  0.3735  0.1187
 4280SOL     OW24298   2.001   0.524   2.346 -0.3510  0.0700 -0.0647
 4280SOL    HW124299   1.989   0.612   2.382 -0.4004 -0.0943  0.3151
 4280SOL    HW224300   2.079   0.537   2.291 -0.4945  0.5155 -0.1600
 4281SOL     OW24301   1.901   3.224   8.646 -0.7080  0.4538 -0.0245
 4281SOL    HW124302   1.866   3.312   8.664  0.0822  1.0091 -1.2455
 4281SOL    HW224303   1.877   3.206   8.556 -0.8633  1.8212 -0.2581
 4282SOL     OW24304   2.909   3.456   9.768 -0.6013 -0.4653  0.0759
 4282SOL    HW124305   2.989   3.409   9.790  0.4827  1.1957 -0.2712
 4282SOL    HW224306   2.941   3.497   9.687 -0.6672 -1.0012 -0.2160
 4283SOL     OW24307   0.595   2.528   0.436  0.1532 -0.3696 -0.7363
 4283SOL    HW124308   0.521   2.468   0.428  0.0405 -0.5401  1.5482
 4283SOL    HW224309   0.565   2.600   0.381  0.1002  1.1372  1.2776
 4284SOL     OW24310   0.109   2.413   5.373  0.7759  0.5066 -0.2817
 4284SOL    HW124311   0.083   2.461   5.295  0.5520 -1.6864 -1.5687
 4284SOL    HW224312   0.098   2.321   5.348  3.0730 -0.0988  0.8895
 4285SOL     OW24313   3.177   2.560   4.130 -0.4610 -0.3082 -0.0744
 4285SOL    HW124314   3.161   2.615   4.054  1.0258  2.9275  1.9357
 4285SOL    HW224315   3.214   2.483   4.086  1.5126  0.8785 -0.5074
 4286SOL     OW24316   1.300   0.376   4.776  0.1241  0.2537 -0.2995
 4286SOL    HW124317   1.296   0.284   4.803 -0.7687 -0.1044 -1.6823
 4286SOL    HW224318   1.210   0.386   4.746 -0.2396 -1.9622  0.0342
 4287SOL     OW24319   4.046   4.097   2.125  0.2503  0.4057 -0.4379
 4287SOL    HW124320   4.084   4.183   2.139  0.0635  0.7557 -1.9804
 4287SOL    HW224321   4.117   4.037   2.145 -1.5141 -1.2417  0.9308
 4288SOL     OW24322   3.123   2.997   5.173  0.0867  0.7533 -0.4971
 4288SOL    HW124323   3.205   2.967   5.213  0.3521 -0.0700 -1.6635
 4288SOL    HW224324   3.088   3.042   5.250  0.6066  0.5864 -0.1675
 4289SOL     OW24325   3.254   2.610   7.376 -0.2200 -0.1091  0.2465
 4289SOL    HW124326   3.260   2.582   7.467  0.5885 -1.7709 -0.3300
 4289SOL    HW224327   3.206   2.691   7.394  1.9874  1.0932  0.7484
 4290SOL     OW24328   1.374   4.090  10.284 -0.8957 -0.6937  0.5114
 4290SOL    HW124329   1.290   4.135  10.288 -0.4384  0.2497 -0.5055
 4290SOL    HW224330   1.359   4.034  10.360  2.3924  1.5904  2.8262
 4291SOL     OW24331   3.442   4.351   1.799 -0.4236  0.9663  0.3939
 4291SOL    HW124332   3.502   4.277   1.812  0.3110  1.2441 -1.3911
 4291SOL    HW224333   3.464   4.393   1.882  0.0908  2.0598 -0.3088
 4292SOL     OW24334   3.758   0.718  12.156 -0.1655 -0.1332 -0.2384
 4292SOL    HW124335   3.678   0.748  12.113  0.0801 -0.6373 -1.0629
 4292SOL    HW224336   3.790   0.800  12.192 -2.6243  0.8365 -0.2544
 4293SOL     OW24337   3.766   0.109   8.593 -0.4256  0.6078  0.9460
 4293SOL    HW124338   3.722   0.128   8.675 -0.4823  4.1509  0.1288
 4293SOL    HW224339   3.692   0.082   8.539 -0.1752 -1.1538  1.4899
 4294SOL     OW24340   1.408   3.349   7.273 -0.3098  0.6081 -0.7585
 4294SOL    HW124341   1.487   3.376   7.320 -0.3052  1.2111 -1.1108
 4294SOL    HW224342   1.422   3.255   7.279  2.2740  0.9695 -1.4616
 4295SOL     OW24343   1.835   1.033  17.315  0.0755  0.6166  0.3508
 4295SOL    HW124344   1.803   0.987  17.392 -1.5153 -0.6881 -1.1108
 4295SOL    HW224345   1.873   0.964  17.261 -0.0708  1.4433 -0.8157
 4296SOL     OW24346   4.412   0.124  10.240 -0.1706 -0.2216 -0.1197
 4296SOL    HW124347   4.334   0.168  10.206 -1.0776 -1.5449  0.2333
 4296SOL    HW224348   4.367   0.049  10.279  0.5887 -0.0477  1.1011
 4297SOL     OW24349   4.214   3.665   4.768 -0.0547  0.5478  0.1431
 4297SOL    HW124350   4.270   3.606   4.819 -1.7085 -0.0879  1.2216
 4297SOL    HW224351   4.144   3.610   4.731  0.0901  0.9997 -0.7983
 4298SOL     OW24352   1.619   4.379   4.577  0.0086 -0.2745  0.1402
 4298SOL    HW124353   1.532   4.419   4.579  1.0832  2.1261 -0.5811
 4298SOL    HW224354   1.608   4.325   4.655  1.1619 -1.5340 -0.5644
 4299SOL     OW24355   1.911   3.178   7.478  0.0621 -0.2937 -0.0934
 4299SOL    HW124356   1.870   3.096   7.451  1.3247 -0.6012 -1.0551
 4299SOL    HW224357   1.993   3.150   7.437 -0.0486 -1.6625  0.6192
 4300SOL     OW24358   3.253   4.683   2.768 -0.5181  0.1676 -0.5441
 4300SOL    HW124359   3.171   4.689   2.816 -0.6427  3.6972 -1.1959
 4300SOL    HW224360   3.226   4.650   2.682 -1.8649  0.8368 -0.3860
 4301SOL     OW24361   0.466   2.055   1.086 -0.6186 -0.0136 -0.0478
 4301SOL    HW124362   0.456   2.001   1.165  1.0639  1.2868  1.0455
 4301SOL    HW224363   0.560   2.048   1.075 -0.3189  2.2085  1.0189
 4302SOL     OW24364   0.485   1.082   9.867 -0.1755  0.1003  0.4357
 4302SOL    HW124365   0.398   1.046   9.851  0.4614 -1.1571 -0.2103
 4302SOL    HW224366   0.548   1.012   9.882 -1.2194 -1.1907 -1.1990
 4303SOL     OW24367   0.078   4.062  11.216  0.3885 -0.3320 -0.0189
 4303SOL    HW124368   0.107   4.151  11.199 -1.7594  0.6975  1.7603
 4303SOL    HW224369   0.009   4.069  11.282 -0.2504 -1.6123 -0.5521
 4304SOL     OW24370   4.352   4.364   5.566  0.3858  0.0040 -0.2233
 4304SOL    HW124371   4.345   4.453   5.530 -0.7458  0.4851  1.1919
 4304SOL    HW224372   4.392   4.381   5.651 -1.4048  1.4241  0.3394
 4305SOL     OW24373   3.081   4.600   7.874  0.4818  0.3407  0.1187
 4305SOL    HW124374   3.118   4.513   7.886 -0.8286 -0.4386 -1.5713
 4305SOL    HW224375   3.069   4.617   7.967 -1.4020 -0.0529 -0.0482
 4306SOL     OW24376   2.172   0.731   8.842 -0.2866 -0.2471  0.0056
 4306SOL    HW124377   2.144   0.749   8.931 -0.2248  1.3464 -0.2829
 4306SOL    HW224378   2.254   0.780   8.835 -0.7291  0.1711 -2.3836
 4307SOL     OW24379   0.976   0.832   8.391  0.1016 -0.2758 -0.3395
 4307SOL    HW124380   0.897   0.786   8.421 -0.3148 -0.0009 -1.0303
 4307SOL    HW224381   1.019   0.759   8.346  1.5738  0.5683 -0.3098
 4308SOL     OW24382   4.096   4.259  12.367 -1.1718  0.0045 -0.1304
 4308SOL    HW124383   4.134   4.319  12.304  0.2547  0.2380  0.9268
 4308SOL    HW224384   4.107   4.181  12.312  0.4118 -0.2084  0.4799
 4309SOL     OW24385   2.054   1.017   5.364  0.1480  0.0896  0.6081
 4309SOL    HW124386   1.987   0.950   5.373 -1.2525  1.4876  0.6126
 4309SOL    HW224387   2.097   1.020   5.449 -0.9131  0.0419  1.1378
 4310SOL     OW24388   4.664   0.609   5.962 -0.3917  1.5142  0.3148
 4310SOL    HW124389   4.688   0.517   5.949 -1.3860  1.5574 -1.7710
 4310SOL    HW224390   4.571   0.588   5.959  0.2371 -1.1757  0.0487
 4311SOL     OW24391   1.694   4.647   4.836  0.0451 -0.3330 -0.1276
 4311SOL    HW124392   1.619   4.676   4.886 -1.7209 -0.5361 -2.6494
 4311SOL    HW224393   1.712   0.001   4.779  0.2136 -1.0315 -1.0019
 4312SOL     OW24394   0.193   4.589   3.060  0.0620  0.3171 -0.0404
 4312SOL    HW124395   0.101   4.569   3.073 -0.0031  0.4867 -0.2290
 4312SOL    HW224396   0.235   4.595   3.146  0.2854  3.8710 -0.4027
 4313SOL     OW24397   4.536   2.167   5.786 -0.5288 -0.0633 -0.5497
 4313SOL    HW124398   4.496   2.081   5.798  0.9457 -0.7910 -0.8183
 4313SOL    HW224399   4.626   2.144   5.810 -0.5431 -1.0506 -1.4559
 4314SOL     OW24400   2.013   4.473  11.231  0.7526 -0.4017 -0.3972
 4314SOL    HW124401   1.925   4.511  11.229  0.7703 -0.3335  0.0984
 4314SOL    HW224402   2.067   4.551  11.218 -1.8723  1.3773 -0.8209
 4315SOL     OW24403   2.256   0.198   3.999  0.3060 -0.3785 -0.2801
 4315SOL    HW124404   2.272   0.216   3.907  0.6637 -0.9031 -0.3194
 4315SOL    HW224405   2.210   0.115   3.988 -1.4222  0.5090  0.3262
 4316SOL     OW24406   3.193   3.694   8.324  0.2954  0.3037  0.4927
 4316SOL    HW124407   3.254   3.683   8.396 -0.4044  2.3574  1.4219
 4316SOL    HW224408   3.122   3.738   8.371 -0.0571 -0.7776  0.9631
 4317SOL     OW24409   1.915   2.660  11.361 -0.1339  0.2659  0.4620
 4317SOL    HW124410   1.923   2.702  11.275  1.7523 -1.6132 -0.2583
 4317SOL    HW224411   1.997   2.692  11.398  1.5495 -1.6835 -1.5749
 4318SOL     OW24412   1.482   3.993   2.536 -0.6760  0.0738  0.2326
 4318SOL    HW124413   1.499   3.977   2.444  2.2506  1.4273  0.5678
 4318SOL    HW224414   1.456   4.085   2.541 -0.1667  0.1178  2.2590
 4319SOL     OW24415   0.643   3.083   3.198  0.3294 -0.1376  0.0930
 4319SOL    HW124416   0.639   3.002   3.146 -1.4435  0.9594 -1.4762
 4319SOL    HW224417   0.736   3.104   3.189  0.0455  0.3475 -1.7954
 4320SOL     OW24418   3.329   0.332   9.226  0.6154 -0.0319  0.2649
 4320SOL    HW124419   3.370   0.249   9.249 -1.0310 -0.6281  1.0249
 4320SOL    HW224420   3.304   0.370   9.310  3.2728  0.8910  0.6433
 4321SOL     OW24421   1.064   0.013   4.967  0.5379 -0.2615 -0.5673
 4321SOL    HW124422   1.062   4.683   4.886 -2.6139  0.4726 -0.9456
 4321SOL    HW224423   0.995   4.690   5.016 -0.2951  1.0033 -0.5948
 4322SOL     OW24424   1.747   1.497  13.882 -0.2582 -0.2630 -0.0857
 4322SOL    HW124425   1.721   1.581  13.845  1.3866 -0.4100 -1.5975
 4322SOL    HW224426   1.791   1.453  13.809 -0.3708  0.0287 -0.3277
 4323SOL     OW24427   1.012   3.169   1.431 -0.0444 -0.0372  0.1160
 4323SOL    HW124428   0.932   3.143   1.384 -0.3466 -0.0205  0.6241
 4323SOL    HW224429   1.037   3.229   1.360  0.4104 -1.0784 -0.6065
 4324SOL     OW24430   1.265   1.938   3.553  0.8586  0.0019 -0.3955
 4324SOL    HW124431   1.220   1.937   3.469  1.1993 -0.2461 -0.5764
 4324SOL    HW224432   1.262   1.848   3.586  0.2922 -0.6714 -2.2545
 4325SOL     OW24433   0.007   2.325  13.695  0.3479  0.8443 -0.1580
 4325SOL    HW124434   0.036   2.264  13.764 -1.8968 -0.5148 -0.4043
 4325SOL    HW224435   0.089   2.330  13.647  1.1266 -1.4625  0.9027
 4326SOL     OW24436   2.627   4.133   5.465  0.1261  0.2722 -0.1941
 4326SOL    HW124437   2.566   4.172   5.403 -0.2329 -1.1315 -0.7263
 4326SOL    HW224438   2.664   4.214   5.500 -0.6054  0.5596 -0.0744
 4327SOL     OW24439   1.680   0.086  11.930  0.6078 -0.7355  0.5602
 4327SOL    HW124440   1.604   0.053  11.978 -1.4955  1.2985 -1.3906
 4327SOL    HW224441   1.645   0.142  11.862  0.4722 -0.3117  0.9787
 4328SOL     OW24442   4.660   3.640   4.148  0.2801  0.7615  0.1866
 4328SOL    HW124443   4.685   3.590   4.226  2.7414 -0.4791 -1.3658
 4328SOL    HW224444   4.667   3.723   4.195 -2.2124  0.5273  0.9249
 4329SOL     OW24445   2.008   1.686  14.324 -0.0700 -0.6894 -0.1442
 4329SOL    HW124446   2.005   1.701  14.419 -0.4639  0.5376 -0.3408
 4329SOL    HW224447   1.973   1.599  14.308 -1.2180 -0.4026  0.7999
 4330SOL     OW24448   2.066   4.006   0.811  0.6362 -0.1656 -0.1475
 4330SOL    HW124449   1.986   4.047   0.778  0.6050 -2.2882 -2.6787
 4330SOL    HW224450   2.073   3.923   0.765 -2.4160 -0.0221 -0.8851
 4331SOL     OW24451   0.750   2.775   6.539 -0.3030 -0.1457  0.0300
 4331SOL    HW124452   0.761   2.757   6.446  0.6835 -1.8303  0.4666
 4331SOL    HW224453   0.655   2.781   6.550 -0.5497 -2.7575 -0.5008
 4332SOL     OW24454   0.407   3.336   2.695  0.5482  0.0158  0.5224
 4332SOL    HW124455   0.500   3.362   2.694  0.3359  0.7635  0.3777
 4332SOL    HW224456   0.360   3.419   2.695 -1.7997 -1.3337  0.3715
 4333SOL     OW24457   4.090   2.821   1.914  0.1258  0.2196 -0.1925
 4333SOL    HW124458   4.093   2.884   1.842 -1.0875  0.2032 -0.2557
 4333SOL    HW224459   4.178   2.832   1.952  0.0040 -1.1768  0.4661
 4334SOL     OW24460   0.735   1.047   3.874  0.7000 -0.2638 -0.5728
 4334SOL    HW124461   0.724   0.956   3.845  1.4543 -0.8371  0.9125
 4334SOL    HW224462   0.687   1.044   3.957  0.7920 -2.3561 -0.5917
 4335SOL     OW24463   3.866   0.706   9.826  0.5087 -0.5741 -0.4288
 4335SOL    HW124464   3.917   0.709   9.907  2.5061  1.5753 -1.7623
 4335SOL    HW224465   3.844   0.797   9.807 -1.7163 -1.3208 -1.5351
 4336SOL     OW24466   4.469   2.474  14.437  0.5206  0.1279  0.5214
 4336SOL    HW124467   4.524   2.549  14.414  2.3367 -0.7635  1.9985
 4336SOL    HW224468   4.521   2.410  14.484  0.4048 -0.5757 -0.3145
 4337SOL     OW24469   2.794   3.211   9.105 -0.6357 -0.4904  0.4506
 4337SOL    HW124470   2.852   3.167   9.044 -1.6922 -2.0524  0.5698
 4337SOL    HW224471   2.853   3.220   9.179  0.2858 -2.5202 -0.0344
 4338SOL     OW24472   3.774   1.638   7.960 -0.4172  0.3933 -0.3083
 4338SOL    HW124473   3.828   1.690   7.900 -0.5940  2.1968  1.0764
 4338SOL    HW224474   3.837   1.608   8.026 -0.6270  1.1151  0.2270
 4339SOL     OW24475   2.187   0.444   1.372 -0.1335  0.0969  0.3776
 4339SOL    HW124476   2.178   0.495   1.452 -0.0187  1.4093 -0.4353
 4339SOL    HW224477   2.153   0.358   1.399  0.5181 -1.0193 -2.3325
 4340SOL     OW24478   3.832   3.831  14.493 -0.0597 -0.5746  0.8113
 4340SOL    HW124479   3.831   3.906  14.551 -0.2344  0.4176 -0.4801
 4340SOL    HW224480   3.868   3.769  14.556  1.6931 -1.6748 -1.2571
 4341SOL     OW24481   4.089   3.593   3.048  0.3105 -0.4424 -0.5018
 4341SOL    HW124482   4.041   3.583   3.131  0.6621 -2.7353 -0.5568
 4341SOL    HW224483   4.150   3.661   3.075  0.7341 -0.6254 -1.0018
 4342SOL     OW24484   2.938   0.483   4.312  0.3521  0.2630  0.4937
 4342SOL    HW124485   2.853   0.515   4.283 -0.1040 -0.0263  1.4990
 4342SOL    HW224486   2.942   0.518   4.401 -1.1361 -0.0642  0.6971
 4343SOL     OW24487   3.815   0.709   6.765  0.3734  0.5885 -0.1214
 4343SOL    HW124488   3.777   0.622   6.758 -1.7391  1.4446  0.9038
 4343SOL    HW224489   3.873   0.687   6.838  0.9921 -0.7196 -1.0075
 4344SOL     OW24490   3.662   0.340   1.136  0.7228 -0.2303  0.6538
 4344SOL    HW124491   3.699   0.427   1.126 -2.0341  1.0860  1.9598
 4344SOL    HW224492   3.736   0.290   1.102 -0.1131 -1.1554  0.1969
 4345SOL     OW24493   3.450   2.275   0.176 -0.5228 -0.1443  0.4080
 4345SOL    HW124494   3.476   2.210   0.111 -0.5729  1.8639 -1.6057
 4345SOL    HW224495   3.537   2.312   0.194  0.7024 -3.8654  2.0025
 4346SOL     OW24496   4.017   4.440   7.415 -0.0607  0.0101  0.2249
 4346SOL    HW124497   3.981   4.462   7.501  1.6008  1.4538  0.5589
 4346SOL    HW224498   4.040   4.347   7.420  1.2287  0.4111  2.0616
 4347SOL     OW24499   0.771   2.729   3.398 -0.1855 -0.3923 -0.2817
 4347SOL    HW124500   0.811   2.724   3.311 -0.0482  1.1263 -0.3042
 4347SOL    HW224501   0.721   2.650   3.378  2.2123 -1.9528 -0.1581
 4348SOL     OW24502   3.574   3.351   3.762  0.1626 -0.0107  0.0935
 4348SOL    HW124503   3.603   3.433   3.722 -0.1206  0.9246  1.7914
 4348SOL    HW224504   3.518   3.388   3.831 -0.0536 -1.9272  0.9321
 4349SOL     OW24505   0.966   1.622   7.064  0.2154  0.6875 -0.1595
 4349SOL    HW124506   1.061   1.639   7.061  0.1118  1.7306  2.0089
 4349SOL    HW224507   0.967   1.538   7.018 -1.8909 -0.6793  2.2693
 4350SOL     OW24508   0.042   0.620   4.309 -0.3323  0.0154  0.2084
 4350SOL    HW124509   0.105   0.680   4.350  1.0325 -0.2343 -1.5451
 4350SOL    HW224510   0.020   0.562   4.383 -1.6533 -1.5747 -1.4146
 4351SOL     OW24511   1.267   1.959   0.758 -0.2380 -0.2843  0.0990
 4351SOL    HW124512   1.240   2.050   0.758  1.8984  0.3510  0.4158
 4351SOL    HW224513   1.226   1.925   0.838  1.2103 -1.7521  0.2248
 4352SOL     OW24514   0.404   0.747   8.933 -0.0605  0.2096  0.0856
 4352SOL    HW124515   0.437   0.827   8.892 -2.7699  0.5548 -1.3927
 4352SOL    HW224516   0.369   0.782   9.015  1.1092 -0.8313  1.0234
 4353SOL     OW24517   2.347   0.534   3.739 -0.1069 -0.0268 -0.1633
 4353SOL    HW124518   2.408   0.533   3.665  0.0673  3.1950 -0.0795
 4353SOL    HW224519   2.391   0.466   3.789  0.4993  1.2913  1.1123
 4354SOL     OW24520   2.782   0.099   4.989 -0.1618 -0.1051  0.6632
 4354SOL    HW124521   2.705   0.139   4.949  0.7409  0.0784 -0.8909
 4354SOL    HW224522   2.799   0.028   4.928 -0.7647 -0.6620  1.1489
 4355SOL     OW24523   3.604   4.113   4.979 -0.1548 -0.3652 -0.1042
 4355SOL    HW124524   3.571   4.185   4.925  1.8944  0.9394  0.3570
 4355SOL    HW224525   3.615   4.160   5.062  0.6751 -0.7710  0.0093
 4356SOL     OW24526   0.263   1.115   2.649  0.4197 -0.3433 -0.1806
 4356SOL    HW124527   0.248   1.210   2.655  0.0896 -0.3524 -0.8551
 4356SOL    HW224528   0.196   1.092   2.585  0.2885 -1.8243  0.4821
 4357SOL     OW24529   2.202   4.141  11.381  0.4434  0.0978  0.6622
 4357SOL    HW124530   2.251   4.114  11.304 -1.4699  0.3199 -0.6443
 4357SOL    HW224531   2.267   4.207  11.407 -0.0919 -0.0385  2.3466
 4358SOL     OW24532   2.342   4.189   2.887  0.7335 -0.0504  0.4278
 4358SOL    HW124533   2.420   4.206   2.834 -0.9110 -0.8139 -2.2245
 4358SOL    HW224534   2.315   4.102   2.857 -0.2249  0.5834 -0.5443
 4359SOL     OW24535   3.682   4.399   8.317  0.0784 -0.3887 -0.1198
 4359SOL    HW124536   3.739   4.340   8.267 -1.5645 -1.3900 -0.8234
 4359SOL    HW224537   3.739   4.476   8.321 -0.2980 -0.0759 -0.8541
 4360SOL     OW24538   3.331   4.662   4.227  0.5783  0.2899 -0.2481
 4360SOL    HW124539   3.275   4.709   4.166  0.6026  0.0764 -0.4387
 4360SOL    HW224540   3.281   4.580   4.227  0.6449  0.2494 -0.6053
 4361SOL     OW24541   0.543   1.795   6.521 -0.4187 -0.0230  0.0569
 4361SOL    HW124542   0.638   1.785   6.528 -0.1340  2.5798  0.1465
 4361SOL    HW224543   0.513   1.708   6.498  0.9683 -0.3953 -0.3469
 4362SOL     OW24544   0.127   2.141   8.971  0.2062  0.3445  0.3948
 4362SOL    HW124545   0.076   2.211   8.931  0.1104  0.2538  0.3562
 4362SOL    HW224546   0.183   2.195   9.026  1.6487  0.9612 -1.6668
 4363SOL     OW24547   3.972   1.087   8.847 -0.2211 -0.9077  0.1836
 4363SOL    HW124548   3.909   1.115   8.913 -0.3268 -0.5651 -0.0653
 4363SOL    HW224549   4.042   1.147   8.872 -0.4168 -0.5138 -0.2286
 4364SOL     OW24550   3.180   1.094   2.837 -0.2585  0.1446 -0.0966
 4364SOL    HW124551   3.187   0.999   2.850 -0.2940  0.0417 -0.8632
 4364SOL    HW224552   3.096   1.095   2.791  0.8510 -0.7229 -2.1206
 4365SOL     OW24553   4.487   2.412   4.813 -0.2858  0.3832 -0.4212
 4365SOL    HW124554   4.444   2.429   4.897  1.9518  1.4202  0.5212
 4365SOL    HW224555   4.415   2.399   4.751 -0.4249 -1.9841  0.2637
 4366SOL     OW24556   0.807   0.801   6.175  0.1453  0.1171  0.4575
 4366SOL    HW124557   0.822   0.854   6.254  0.2145 -0.3229  0.7415
 4366SOL    HW224558   0.893   0.783   6.139 -0.5629 -1.3087 -0.5137
 4367SOL     OW24559   0.043   0.203  12.545 -0.3055 -0.4492  0.1423
 4367SOL    HW124560   0.115   0.251  12.586  1.4154 -2.6020 -0.3830
 4367SOL    HW224561   0.012   0.272  12.487  1.5699  1.6474  1.6208
 4368SOL     OW24562   0.847   1.727  11.425 -0.3310  0.0388 -0.2328
 4368SOL    HW124563   0.874   1.699  11.337 -0.9787 -2.1073  0.2655
 4368SOL    HW224564   0.853   1.645  11.473 -1.0697  0.2613  0.2394
 4369SOL     OW24565   3.927   4.510   4.925 -0.3862  0.4267 -0.0525
 4369SOL    HW124566   3.942   4.519   4.831  2.9390 -0.8424  0.3614
 4369SOL    HW224567   3.837   4.543   4.924 -1.9908 -4.0284 -1.1579
 4370SOL     OW24568   2.221   1.437   4.771  0.3339 -0.2502  0.9383
 4370SOL    HW124569   2.151   1.380   4.739 -1.6007  2.7982 -0.2032
 4370SOL    HW224570   2.289   1.373   4.793 -0.4379 -1.7638 -1.0305
 4371SOL     OW24571   1.421   1.727  11.431  0.5974  0.1870  0.4305
 4371SOL    HW124572   1.369   1.734  11.511  3.0691  1.9543  1.9164
 4371SOL    HW224573   1.500   1.686  11.466  0.4340 -0.8480 -0.4489
 4372SOL     OW24574   4.384   0.728   5.813  0.9132 -0.1052 -0.5229
 4372SOL    HW124575   4.326   0.659   5.845  0.3132  1.0247  0.8455
 4372SOL    HW224576   4.318   0.792   5.784 -0.5135 -1.2126  0.2796
 4373SOL     OW24577   1.899   3.036  14.859  0.0299 -1.1371 -0.3893
 4373SOL    HW124578   1.851   2.957  14.882 -0.5165 -1.3864 -2.3847
 4373SOL    HW224579   1.990   3.007  14.868  0.0189 -1.2621 -0.6888
 4374SOL     OW24580   3.574   0.680  13.120  0.4322 -0.2175 -0.4568
 4374SOL    HW124581   3.537   0.599  13.157  1.3101 -0.9692 -1.2395
 4374SOL    HW224582   3.512   0.753  13.126 -0.1501 -0.8481  1.2240
 4375SOL     OW24583   0.206   1.277  16.867  0.1737  0.1521 -0.1939
 4375SOL    HW124584   0.227   1.270  16.774 -0.5942  1.6374 -0.4884
 4375SOL    HW224585   0.146   1.351  16.880 -0.0934  0.1391 -1.3525
 4376SOL     OW24586   1.777   1.291   5.389  0.1534  0.3705  0.1124
 4376SOL    HW124587   1.694   1.247   5.408 -1.0045  1.8130 -1.5595
 4376SOL    HW224588   1.806   1.297   5.480  1.8081 -1.6475 -0.2822
 4377SOL     OW24589   1.695   1.564   8.804 -0.1733  0.6560  0.2867
 4377SOL    HW124590   1.684   1.470   8.791 -0.0127  0.6246  0.3839
 4377SOL    HW224591   1.603   1.590   8.814  0.0774  1.3319  0.9021
 4378SOL     OW24592   2.717   2.010   1.469 -0.2898  0.6084  0.6772
 4378SOL    HW124593   2.666   1.985   1.391 -0.1391  0.3813  0.6502
 4378SOL    HW224594   2.797   1.963   1.444 -0.2854  0.7534  0.4215
 4379SOL     OW24595   1.181   1.721   6.809 -0.2336  0.1234 -0.0444
 4379SOL    HW124596   1.101   1.699   6.856 -2.1320  1.5788 -2.5576
 4379SOL    HW224597   1.210   1.795   6.862  1.4720 -0.0645 -0.7374
 4380SOL     OW24598   0.179   3.827   6.119 -0.4385 -0.0081 -0.5068
 4380SOL    HW124599   0.084   3.838   6.131 -0.5592  1.4899 -2.8959
 4380SOL    HW224600   0.215   3.864   6.200 -0.5648 -2.0535  0.4798
 4381SOL     OW24601   3.140   3.439   8.194  0.5028  0.1785 -0.3215
 4381SOL    HW124602   3.141   3.533   8.211 -1.0779  0.4642 -1.8015
 4381SOL    HW224603   3.102   3.406   8.275 -1.5669 -0.2132 -1.4332
 4382SOL     OW24604   1.142   0.553   5.553  0.2956  0.6054 -0.1298
 4382SOL    HW124605   1.199   0.626   5.532  0.7400 -0.0474 -1.1982
 4382SOL    HW224606   1.091   0.600   5.619 -0.2285 -0.6124  0.3456
 4383SOL     OW24607   2.445   4.086   9.463  0.6527 -0.8668 -0.1703
 4383SOL    HW124608   2.388   4.081   9.386  0.2682 -0.6087  0.0937
 4383SOL    HW224609   2.532   4.095   9.425  0.0098 -0.4472 -1.5453
 4384SOL     OW24610   0.635   1.687   4.318  0.0824  0.1066  0.1892
 4384SOL    HW124611   0.718   1.733   4.304 -0.5051  0.9652 -0.4663
 4384SOL    HW224612   0.602   1.751   4.382 -0.8611 -0.7595  0.5525
 4385SOL     OW24613   4.126   0.789   3.282  0.5115 -0.0556 -0.6795
 4385SOL    HW124614   4.184   0.715   3.297 -1.0856 -1.0432  0.6015
 4385SOL    HW224615   4.052   0.763   3.337  0.4301  2.4311  0.3693
 4386SOL     OW24616   1.639   1.286   3.470  0.0305 -0.2676 -0.3997
 4386SOL    HW124617   1.729   1.255   3.458 -0.0975  0.2983 -2.9330
 4386SOL    HW224618   1.593   1.240   3.399 -0.1171 -0.5793 -0.0976
 4387SOL     OW24619   0.078   0.859   4.961  0.2407  0.0234  0.3154
 4387SOL    HW124620   0.018   0.882   4.890  0.3296 -0.4931  0.0754
 4387SOL    HW224621   0.143   0.808   4.913 -0.2846 -1.9268  1.6540
 4388SOL     OW24622   1.494   0.921  15.640  0.0049  0.7092 -0.4414
 4388SOL    HW124623   1.578   0.876  15.630 -0.0069  0.9113 -1.3693
 4388SOL    HW224624   1.492   0.945  15.733  0.3695 -1.4591  0.1269
 4389SOL     OW24625   4.584   0.455   5.579 -0.3972  0.3134  0.0851
 4389SOL    HW124626   4.515   0.422   5.637  0.1772  1.4232  1.3867
 4389SOL    HW224627   4.575   0.550   5.586  0.7157  0.6561 -3.0804
 4390SOL     OW24628   0.700   1.332   9.882 -0.0623 -0.1602  0.3136
 4390SOL    HW124629   0.747   1.415   9.883 -0.3488  0.0178 -2.1856
 4390SOL    HW224630   0.758   1.287   9.944 -0.5536  1.7985  2.1958
 4391SOL     OW24631   1.110   4.042  10.890  0.1894  0.3567  0.0896
 4391SOL    HW124632   1.075   3.959  10.923 -0.5354  0.9739  0.8572
 4391SOL    HW224633   1.154   4.063  10.972 -0.0598  0.0573  0.2984
 4392SOL     OW24634   0.135   2.220  13.934  0.6804  0.3080  0.3278
 4392SOL    HW124635   0.209   2.277  13.954  0.1959  1.8318 -2.2755
 4392SOL    HW224636   0.074   2.248  14.002 -0.2404 -3.1775  0.9459
 4393SOL     OW24637   0.303   4.086   5.432 -0.6242  0.0210 -0.8183
 4393SOL    HW124638   0.211   4.080   5.458 -0.9816  0.9837 -1.8645
 4393SOL    HW224639   0.343   4.043   5.507  1.9268  2.5193 -0.7459
 4394SOL     OW24640   2.512   3.310  11.620 -0.3219 -0.6440  0.0086
 4394SOL    HW124641   2.443   3.273  11.676 -1.4788  0.0886 -0.9256
 4394SOL    HW224642   2.521   3.239  11.557 -0.1415 -2.9472  2.6248
 4395SOL     OW24643   2.084   0.846   3.035 -0.7352  0.1702 -0.1056
 4395SOL    HW124644   2.126   0.903   3.100  2.7059 -1.3712 -0.9927
 4395SOL    HW224645   2.036   0.913   2.986 -1.4636 -0.0011  0.3682
 4396SOL     OW24646   3.787   2.082   7.979 -0.0043  0.1266  0.6719
 4396SOL    HW124647   3.727   2.070   8.053  0.1986  0.3612  0.8757
 4396SOL    HW224648   3.774   2.173   7.951 -2.1294 -0.4723 -0.2618
 4397SOL     OW24649   1.636   4.061  16.225 -0.3242 -0.2345  0.4664
 4397SOL    HW124650   1.558   4.005  16.227 -0.7267  0.2996 -0.7284
 4397SOL    HW224651   1.661   4.059  16.133 -1.2175  1.3835  0.1993
 4398SOL     OW24652   3.042   0.890   1.400 -0.1885 -0.2182 -0.6573
 4398SOL    HW124653   2.987   0.905   1.323  0.8972 -1.0905 -1.6163
 4398SOL    HW224654   3.128   0.878   1.360  0.2585  1.1844 -0.0905
 4399SOL     OW24655   2.387   0.235   3.764 -0.8620  0.8627  0.1794
 4399SOL    HW124656   2.452   0.294   3.725 -0.8263 -0.2219 -1.4068
 4399SOL    HW224657   2.342   0.212   3.683 -0.2038 -0.8592  0.3144
 4400SOL     OW24658   2.894   3.678   6.901  0.2593 -0.6640  0.4772
 4400SOL    HW124659   2.800   3.663   6.906  0.2500 -0.4261  1.0027
 4400SOL    HW224660   2.906   3.709   6.812  1.9031 -1.7157  0.3255
 4401SOL     OW24661   2.310   4.102   7.244  0.1139 -0.4080  0.0820
 4401SOL    HW124662   2.352   4.077   7.326 -0.6624  2.6456  1.4027
 4401SOL    HW224663   2.265   4.026   7.207  0.5391 -0.2204 -0.8286
 4402SOL     OW24664   4.195   4.157   5.570  0.3056  0.4030 -0.2027
 4402SOL    HW124665   4.259   4.226   5.588  0.3720  0.6002 -1.2013
 4402SOL    HW224666   4.230   4.127   5.486 -0.5954  2.2991 -1.2638
 4403SOL     OW24667   1.157   2.301  11.536  0.3401  0.3622 -0.5521
 4403SOL    HW124668   1.174   2.297  11.630 -0.3677 -0.0007 -0.4378
 4403SOL    HW224669   1.189   2.389  11.518 -1.3362  1.6280  2.6295
 4404SOL     OW24670   3.664   2.399   3.616 -0.3973 -0.1337 -0.2779
 4404SOL    HW124671   3.660   2.486   3.655  2.3238 -0.2635  0.2739
 4404SOL    HW224672   3.698   2.422   3.529 -1.2119  0.2038 -0.5094
 4405SOL     OW24673   2.215   4.453   5.600  0.3853  0.4589 -0.7857
 4405SOL    HW124674   2.140   4.513   5.607  0.1626  0.0359  0.4234
 4405SOL    HW224675   2.175   4.395   5.536 -0.7844 -2.4724  2.6192
 4406SOL     OW24676   3.681   3.165   8.942 -0.2326 -0.4323 -0.3683
 4406SOL    HW124677   3.597   3.207   8.959  0.1778  0.0664  0.4178
 4406SOL    HW224678   3.673   3.081   8.988 -0.7515 -0.5246 -0.6259
 4407SOL     OW24679   2.651   0.206   1.242  0.2246  0.2771 -0.0210
 4407SOL    HW124680   2.587   0.261   1.285 -0.0594  0.6601 -0.9257
 4407SOL    HW224681   2.678   0.266   1.172 -1.3841  0.7471 -0.2208
 4408SOL     OW24682   0.465   0.275   7.395 -0.0079 -0.5828  0.2857
 4408SOL    HW124683   0.558   0.281   7.416  0.1538  1.6884 -1.0720
 4408SOL    HW224684   0.457   0.189   7.354  2.0385 -1.9996  2.8465
 4409SOL     OW24685   2.483   1.714   5.878  0.0501  0.0262  0.0958
 4409SOL    HW124686   2.507   1.745   5.790 -1.9808  0.8176 -0.1776
 4409SOL    HW224687   2.454   1.628   5.850 -1.5516  0.4620  0.4230
 4410SOL     OW24688   4.089   0.577   5.686 -0.0020  0.0169 -0.2842
 4410SOL    HW124689   4.079   0.659   5.638 -2.8492 -0.4049 -0.4235
 4410SOL    HW224690   4.032   0.528   5.627 -0.0424  1.6092 -1.5754
 4411SOL     OW24691   2.402   2.804   5.532  0.0659  0.0336 -0.6061
 4411SOL    HW124692   2.424   2.896   5.541  1.1786 -0.4926  2.1823
 4411SOL    HW224693   2.308   2.804   5.514 -0.0711  0.4609  0.1334
 4412SOL     OW24694   1.764   1.067   6.216 -0.1193 -0.2911  0.1598
 4412SOL    HW124695   1.752   0.976   6.188 -0.4231 -0.1586 -0.1393
 4412SOL    HW224696   1.810   1.061   6.300  2.8574 -0.5730 -1.4795
 4413SOL     OW24697   0.247   1.781   8.119 -0.5289  0.4342 -0.2362
 4413SOL    HW124698   0.278   1.805   8.031 -0.6300  0.3694 -0.2906
 4413SOL    HW224699   0.208   1.864   8.147 -1.5589  0.1160 -0.7203
 4414SOL     OW24700   4.703   1.209   2.855 -0.3926 -0.4810 -0.3177
 4414SOL    HW124701   4.709   1.279   2.920  0.0942  0.4784 -1.3914
 4414SOL    HW224702   4.719   1.269   2.782 -1.5082  0.8715  0.5461
 4415SOL     OW24703   3.308   1.024   7.844 -0.4198 -0.1662  0.0721
 4415SOL    HW124704   3.240   0.997   7.906  0.4207 -0.2219  0.9549
 4415SOL    HW224705   3.246   1.045   7.774  1.2756  2.0321 -0.7705
 4416SOL     OW24706   0.716   1.225  13.347  0.4283  0.0070 -0.8014
 4416SOL    HW124707   0.751   1.165  13.412  2.0807  1.2544 -0.5485
 4416SOL    HW224708   0.652   1.273  13.399  0.5162  0.7273 -1.3477
 4417SOL     OW24709   4.692   4.144   2.655 -0.0447 -0.4599 -0.3519
 4417SOL    HW124710   4.641   4.064   2.644  0.3502 -0.8587  0.7333
 4417SOL    HW224711   0.025   4.124   2.578  2.0987 -1.6780  1.4935
 4418SOL     OW24712   3.619   2.724   0.186  0.2916  0.8742 -0.2436
 4418SOL    HW124713   3.587   2.662   0.251 -0.7080  0.4718 -1.1154
 4418SOL    HW224714   3.665   2.664   0.128  0.6050  0.2669  0.6231
 4419SOL     OW24715   0.761   3.478   1.514 -0.4567 -0.0876 -0.3876
 4419SOL    HW124716   0.702   3.443   1.580  0.9596  1.7697  1.9015
 4419SOL    HW224717   0.846   3.450   1.548 -1.1200  0.6735  1.8916
 4420SOL     OW24718   3.735   2.213   9.038  0.0082 -0.3718 -0.4072
 4420SOL    HW124719   3.736   2.118   9.047 -2.1786 -0.2301  1.2153
 4420SOL    HW224720   3.643   2.237   9.029 -0.6511 -2.3372  1.0436
 4421SOL     OW24721   0.998   1.349  17.093  0.1137  0.8080 -0.6297
 4421SOL    HW124722   1.087   1.328  17.062 -0.0647 -2.3888  1.0189
 4421SOL    HW224723   1.015   1.377  17.183 -1.5112  0.1828 -0.1203
 4422SOL     OW24724   3.251   2.102   4.476  0.1638  0.3226 -0.0278
 4422SOL    HW124725   3.185   2.166   4.504  0.1648  0.2363  0.1691
 4422SOL    HW224726   3.300   2.148   4.408 -0.1238  2.4828  1.2015
 4423SOL     OW24727   0.335   4.511   8.100  0.3929  0.3739 -0.4443
 4423SOL    HW124728   0.281   4.584   8.131  0.6836 -0.3257  1.7602
 4423SOL    HW224729   0.359   4.544   8.014  0.6068 -2.1405 -1.3378
 4424SOL     OW24730   3.464   3.151  16.847  0.1786  0.5305 -0.3027
 4424SOL    HW124731   3.378   3.180  16.816  0.4209 -0.1682 -1.6294
 4424SOL    HW224732   3.504   3.127  16.763  1.8473  1.4249  0.2470
 4425SOL     OW24733   1.525   4.349   6.051 -0.0638 -0.2613 -0.0617
 4425SOL    HW124734   1.573   4.414   6.102 -0.2467 -0.3001  0.1591
 4425SOL    HW224735   1.533   4.282   6.118  0.0269  0.0913  0.2802
 4426SOL     OW24736   2.704   2.579   8.864 -0.1581 -0.0115  0.0887
 4426SOL    HW124737   2.696   2.486   8.845  1.6803  0.0761 -1.1483
 4426SOL    HW224738   2.712   2.564   8.958 -0.5491 -2.0816 -0.2185
 4427SOL     OW24739   3.265   0.551  15.523 -0.0707  0.1283 -0.1369
 4427SOL    HW124740   3.284   0.545  15.617 -0.0238  2.3177  0.0019
 4427SOL    HW224741   3.288   0.644  15.513 -1.0256  0.5197  1.3827
 4428SOL     OW24742   3.549   1.981   4.185  0.7199  0.0079  0.0852
 4428SOL    HW124743   3.635   1.981   4.226  1.6035  1.0825 -1.7976
 4428SOL    HW224744   3.565   1.961   4.093  1.3854 -1.3050  0.4777
 4429SOL     OW24745   0.277   0.945  16.237 -0.2297  0.3027 -0.0464
 4429SOL    HW124746   0.234   0.953  16.322 -0.7656 -0.0178 -0.2870
 4429SOL    HW224747   0.310   0.856  16.248 -1.9088 -0.7550 -3.5803
 4430SOL     OW24748   1.112   0.662   5.250  0.8534  0.8338 -0.6735
 4430SOL    HW124749   1.090   0.670   5.157 -0.6226 -1.4760 -0.5279
 4430SOL    HW224750   1.185   0.602   5.260 -0.7877 -1.1243 -0.4065
 4431SOL     OW24751   4.087   3.750  12.218  0.4154 -0.0822  0.0739
 4431SOL    HW124752   4.056   3.804  12.291  1.3326  2.1371 -1.1878
 4431SOL    HW224753   4.163   3.715  12.263  0.0717  1.3245  1.7504
 4432SOL     OW24754   3.868   1.385  11.778 -0.2835 -0.1218 -0.0228
 4432SOL    HW124755   3.850   1.389  11.684 -0.4914 -1.8769 -0.0614
 4432SOL    HW224756   3.963   1.389  11.771 -0.3659  1.5311 -0.1412
 4433SOL     OW24757   0.224   1.203   7.943  0.3852 -0.1956  0.0240
 4433SOL    HW124758   0.272   1.126   7.974 -0.1176  0.2674  1.9259
 4433SOL    HW224759   0.227   1.264   8.016 -0.4907  1.6594 -1.5090
 4434SOL     OW24760   0.520   1.904   8.343 -0.0972 -0.3924 -0.6296
 4434SOL    HW124761   0.570   1.860   8.412  0.8935  1.6505 -0.0354
 4434SOL    HW224762   0.506   1.987   8.389 -0.8697 -0.5477 -0.5792
 4435SOL     OW24763   1.868   2.404   7.778 -0.2168 -0.4864 -0.3219
 4435SOL    HW124764   1.945   2.452   7.749 -0.4645 -0.9266 -1.7422
 4435SOL    HW224765   1.858   2.351   7.699  1.8876  2.3252 -2.4700
 4436SOL     OW24766   2.049   1.067   1.373  0.2407 -0.2034 -0.1237
 4436SOL    HW124767   2.060   0.974   1.351  0.4378 -0.1024 -0.4517
 4436SOL    HW224768   2.137   1.103   1.372  0.4859 -0.8336 -1.0657
 4437SOL     OW24769   1.155   1.200   2.527  1.0006 -0.7001  0.4252
 4437SOL    HW124770   1.218   1.264   2.561 -2.4398  3.7066 -1.5540
 4437SOL    HW224771   1.144   1.241   2.441  0.1674 -2.1428 -0.1427
 4438SOL     OW24772   0.650   2.184   7.038 -0.5826  0.1454  0.1089
 4438SOL    HW124773   0.605   2.259   7.076  0.4864  1.2163 -0.7515
 4438SOL    HW224774   0.739   2.200   7.069 -1.2984  2.1572  1.0835
 4439SOL     OW24775   1.260   1.314   8.547  0.0695  0.4266  0.0147
 4439SOL    HW124776   1.245   1.347   8.635 -0.3486  1.6953 -0.5346
 4439SOL    HW224777   1.247   1.387   8.487  1.9134 -0.3447 -1.3272
 4440SOL     OW24778   1.525   2.148   6.668 -0.1978  0.2318 -0.1697
 4440SOL    HW124779   1.495   2.230   6.708  1.8078  0.5035  0.8191
 4440SOL    HW224780   1.591   2.187   6.609  1.5719 -1.9390  0.3952
 4441SOL     OW24781   1.395   1.442   5.391  0.3523 -0.1714  0.1201
 4441SOL    HW124782   1.363   1.506   5.455 -1.0799  0.8003 -1.5600
 4441SOL    HW224783   1.474   1.495   5.381 -0.5683  1.2725  0.4112
 4442SOL     OW24784   1.785   1.552   4.016 -0.0041  0.5411  0.0947
 4442SOL    HW124785   1.825   1.628   3.974  2.2532 -0.1644  0.9832
 4442SOL    HW224786   1.855   1.504   4.061 -0.7423  1.0631  1.7924
 4443SOL     OW24787   3.037   2.290   9.294  0.0566  0.0715  0.3640
 4443SOL    HW124788   3.005   2.275   9.382 -0.0965  2.5362  0.7315
 4443SOL    HW224789   3.100   2.219   9.279 -0.0652 -0.1458  0.8777
 4444SOL     OW24790   2.945   3.563   5.651  0.3042 -0.3157 -0.1017
 4444SOL    HW124791   2.953   3.610   5.734 -1.2983 -0.8791  0.3627
 4444SOL    HW224792   3.035   3.562   5.618  1.3608 -0.4999  2.7877
 4445SOL     OW24793   2.977   2.657   8.092 -0.2517  0.1783 -0.3037
 4445SOL    HW124794   2.916   2.722   8.125  0.0794  0.3521 -0.0393
 4445SOL    HW224795   3.022   2.710   8.026  0.2536  0.3020  0.1479
 4446SOL     OW24796   3.871   0.970   4.680 -0.2659 -0.6346 -0.0690
 4446SOL    HW124797   3.824   0.908   4.736  1.8097 -0.0754  2.2985
 4446SOL    HW224798   3.805   1.039   4.672 -1.2854 -1.3772  1.7832
 4447SOL     OW24799   1.920   1.181   4.266  0.3878  0.1816  0.2545
 4447SOL    HW124800   2.011   1.168   4.292  0.0814  0.0335  1.2292
 4447SOL    HW224801   1.946   1.214   4.180 -0.3510 -2.4609 -0.9717
 4448SOL     OW24802   0.798   0.182   3.314  0.0182  0.2194 -0.4783
 4448SOL    HW124803   0.851   0.175   3.235  1.6923  0.4369  0.6293
 4448SOL    HW224804   0.751   0.099   3.310  0.3742  0.0423 -1.0595
 4449SOL     OW24805   0.642   2.431  13.628 -0.0053  0.2218 -0.4856
 4449SOL    HW124806   0.653   2.499  13.562  1.0198  0.8281  0.3128
 4449SOL    HW224807   0.678   2.479  13.702 -0.3681  0.0059 -0.1674
 4450SOL     OW24808   0.528   2.605   6.366  0.0471 -0.4829  0.3038
 4450SOL    HW124809   0.612   2.565   6.345 -0.2255 -0.4972 -0.7613
 4450SOL    HW224810   0.524   2.671   6.297  1.2270  0.9023  1.5787
 4451SOL     OW24811   0.650   3.102  12.489  0.5440 -0.7042 -0.0932
 4451SOL    HW124812   0.630   3.139  12.575  1.1944  0.4681 -0.4541
 4451SOL    HW224813   0.656   3.012  12.521  1.0229 -0.4135  0.6337
 4452SOL     OW24814   3.269   4.356  16.878 -0.4123  0.1565  0.2713
 4452SOL    HW124815   3.245   4.379  16.968 -1.8216  2.7017 -0.7484
 4452SOL    HW224816   3.288   4.265  16.899 -2.1082 -0.5391 -1.1794
 4453SOL     OW24817   1.988   3.904   6.383 -0.3332  0.1197  0.6150
 4453SOL    HW124818   2.015   3.877   6.470  2.1361 -2.1222 -0.8405
 4453SOL    HW224819   1.971   3.995   6.409 -0.0160 -0.0548  1.4287
 4454SOL     OW24820   2.594   4.577  10.764  0.6911 -0.1588  0.2293
 4454SOL    HW124821   2.671   4.523  10.751  0.6280  0.6366 -3.3299
 4454SOL    HW224822   2.630   4.630  10.836  0.3471  0.5822 -0.1395
 4455SOL     OW24823   2.969   3.736   5.868  0.0816 -0.1790  0.9730
 4455SOL    HW124824   3.015   3.721   5.951  0.9355  1.9952  0.9157
 4455SOL    HW224825   2.892   3.777   5.907 -1.2908 -3.8583  2.1053
 4456SOL     OW24826   1.934   1.077   2.582 -0.6426  0.2827 -0.5116
 4456SOL    HW124827   1.856   1.075   2.526 -0.9965  1.4984 -0.0685
 4456SOL    HW224828   1.963   1.168   2.573  0.1745 -0.0138 -0.8515
 4457SOL     OW24829   2.598   3.287   6.681 -0.3709  0.2619 -0.0917
 4457SOL    HW124830   2.614   3.373   6.642  1.7002 -0.4535 -0.8589
 4457SOL    HW224831   2.537   3.240   6.624 -2.5683  1.6244  1.1489
 4458SOL     OW24832   3.714   2.845  15.914 -0.1522  0.1507  0.0595
 4458SOL    HW124833   3.703   2.874  15.823 -1.9291 -1.0595 -0.1023
 4458SOL    HW224834   3.629   2.864  15.953 -1.8529 -2.6441 -2.2540
 4459SOL     OW24835   2.867   2.664   6.726  0.1297  0.2397  0.5219
 4459SOL    HW124836   2.804   2.593   6.738 -0.3493  0.1958 -2.1960
 4459SOL    HW224837   2.820   2.722   6.666  2.1071  1.3327  0.0599
 4460SOL     OW24838   1.114   1.660   9.743  0.1879 -0.6041  0.2375
 4460SOL    HW124839   1.045   1.719   9.775  0.7895  0.8745 -1.1705
 4460SOL    HW224840   1.175   1.726   9.710  0.2982 -0.9937 -0.3301
 4461SOL     OW24841   1.627   1.170  11.211  0.0816 -0.3226 -0.1196
 4461SOL    HW124842   1.540   1.205  11.196 -0.4977 -0.7474  2.2133
 4461SOL    HW224843   1.638   1.108  11.140  0.3269 -0.7294  0.2749
 4462SOL     OW24844   0.530   0.766   4.780  0.0759 -0.5887  0.3499
 4462SOL    HW124845   0.549   0.860   4.780  0.9461 -0.7666 -0.3202
 4462SOL    HW224846   0.604   0.733   4.831 -0.3811 -0.7341  0.9200
 4463SOL     OW24847   2.082   2.281   1.923  0.2703  0.4018 -0.4407
 4463SOL    HW124848   2.021   2.245   1.988  1.2528 -0.4249  0.0319
 4463SOL    HW224849   2.141   2.205   1.921  2.5017  2.1016  0.2447
 4464SOL     OW24850   1.082   2.665   5.020 -0.1027 -0.6372  0.2783
 4464SOL    HW124851   1.014   2.636   5.080 -0.7458 -0.7048 -0.4754
 4464SOL    HW224852   1.162   2.674   5.070  0.0413 -1.3637  0.1771
 4465SOL     OW24853   2.030   3.517   3.041  0.1202 -0.1673 -0.1220
 4465SOL    HW124854   2.008   3.477   3.125 -1.2542 -0.4151 -0.6022
 4465SOL    HW224855   2.003   3.609   3.051  0.1903 -0.2398  0.7336
 4466SOL     OW24856   0.766   3.501   8.193  0.1449  0.2459 -0.0969
 4466SOL    HW124857   0.849   3.457   8.177 -0.1690 -1.0358  1.8320
 4466SOL    HW224858   0.782   3.519   8.285 -0.5412  0.4618 -0.0177
 4467SOL     OW24859   3.595   4.527   1.308  0.4796  0.4253 -0.1702
 4467SOL    HW124860   3.583   4.507   1.400 -1.8392 -3.2011 -1.2549
 4467SOL    HW224861   3.502   4.513   1.287  0.5961 -1.6517  0.6858
 4468SOL     OW24862   1.750   0.263  12.618 -0.1048 -0.3836  0.3231
 4468SOL    HW124863   1.754   0.168  12.602 -3.6552  0.0596 -3.3687
 4468SOL    HW224864   1.833   0.295  12.651  0.0970 -0.6567  0.0852
 4469SOL     OW24865   4.403   0.148   6.402  0.2765  0.0487  0.4056
 4469SOL    HW124866   4.419   0.212   6.472 -1.1103 -0.6788  1.3818
 4469SOL    HW224867   4.486   0.149   6.354 -0.6649 -1.3347 -1.2255
 4470SOL     OW24868   1.293   1.207  10.774  0.2764  0.2503 -0.0474
 4470SOL    HW124869   1.357   1.155  10.822  0.1126 -1.6386 -1.8813
 4470SOL    HW224870   1.222   1.191  10.837  0.6468 -2.3422 -0.2525
 4471SOL     OW24871   0.483   0.454   4.120  0.2124  0.0089 -0.4193
 4471SOL    HW124872   0.524   0.379   4.076  4.2048  1.2453  1.2526
 4471SOL    HW224873   0.437   0.417   4.195 -0.9228  0.0813 -1.0763
 4472SOL     OW24874   4.217   1.388  17.177  0.3334 -0.1864 -0.1565
 4472SOL    HW124875   4.301   1.400  17.222  0.6168 -0.8641 -0.5024
 4472SOL    HW224876   4.193   1.296  17.186  0.0940 -0.0633  0.4114
 4473SOL     OW24877   3.987   1.702   3.102  0.3748  0.4672 -0.6638
 4473SOL    HW124878   4.056   1.661   3.155  0.3775  0.5164 -0.6295
 4473SOL    HW224879   4.023   1.789   3.086  0.4330  0.3011 -1.4222
 4474SOL     OW24880   1.389   2.609  15.031  0.1461 -0.3133 -0.9278
 4474SOL    HW124881   1.358   2.563  15.109 -0.0948 -0.5633 -1.1714
 4474SOL    HW224882   1.448   2.540  15.001  1.2657 -0.7188  2.1721
 4475SOL     OW24883   3.324   4.339   0.980 -0.3176  0.0646  0.2361
 4475SOL    HW124884   3.252   4.277   0.992  1.7610 -2.5143 -0.6307
 4475SOL    HW224885   3.394   4.301   1.034 -0.6118 -2.3962 -1.1254
 4476SOL     OW24886   3.389   2.003   4.669  0.1143 -0.5044  0.0263
 4476SOL    HW124887   3.345   2.051   4.738 -2.0756 -1.6901 -0.5546
 4476SOL    HW224888   3.339   2.033   4.593 -1.3936  0.0214  1.2431
 4477SOL     OW24889   3.486   3.982  10.860 -0.3419  0.8615  0.1617
 4477SOL    HW124890   3.416   4.006  10.920  0.0400 -0.4377  1.1114
 4477SOL    HW224891   3.548   3.941  10.920 -0.2226 -0.1164 -0.6334
 4478SOL     OW24892   2.923   2.583   2.097  0.5272 -0.0111  0.9583
 4478SOL    HW124893   2.898   2.519   2.164 -1.1278  0.1414  0.4782
 4478SOL    HW224894   2.875   2.661   2.123 -2.0929 -1.6088  0.9043
 4479SOL     OW24895   3.784   0.654   3.051 -0.6536  0.1645 -0.4575
 4479SOL    HW124896   3.829   0.661   2.967  2.6605  0.4536  1.3477
 4479SOL    HW224897   3.814   0.569   3.084 -1.4613  0.1786  0.3126
 4480SOL     OW24898   2.472   3.121   4.923  0.8303 -0.2884  0.4672
 4480SOL    HW124899   2.497   3.044   4.973  1.2720 -0.5023 -0.0859
 4480SOL    HW224900   2.377   3.116   4.924  0.7941  0.2917 -0.3554
 4481SOL     OW24901   1.564   2.168   7.093 -0.0031 -0.0329  0.6013
 4481SOL    HW124902   1.561   2.261   7.073 -0.3598  0.0786  1.1596
 4481SOL    HW224903   1.629   2.138   7.030  0.3803 -1.5197  1.7081
 4482SOL     OW24904   1.695   4.488  16.795  0.1303  0.6123  0.0950
 4482SOL    HW124905   1.705   4.412  16.853  0.4100  0.5914  0.0185
 4482SOL    HW224906   1.645   4.451  16.722 -0.2256  1.5109 -0.1186
 4483SOL     OW24907   0.168   2.221  11.689 -0.0903 -0.5752 -0.2812
 4483SOL    HW124908   0.136   2.196  11.776 -0.5132  1.3320  0.1112
 4483SOL    HW224909   0.095   2.271  11.654 -0.0544 -0.9587 -0.9038
 4484SOL     OW24910   2.207   2.572  12.645 -0.0994 -0.7528 -0.3743
 4484SOL    HW124911   2.222   2.533  12.731 -1.9621  0.5920  0.5442
 4484SOL    HW224912   2.282   2.535  12.597 -0.0458 -0.5454 -0.4498
 4485SOL     OW24913   2.811   3.111   2.040  0.0441 -0.1622  0.3865
 4485SOL    HW124914   2.892   3.154   2.013  0.7213 -1.5401  0.1702
 4485SOL    HW224915   2.822   3.104   2.135 -0.3953 -0.0520  0.4465
 4486SOL     OW24916   1.625   1.245   6.498 -0.3428  0.8635  0.3434
 4486SOL    HW124917   1.626   1.256   6.403  1.2202 -1.6063  0.0591
 4486SOL    HW224918   1.583   1.323   6.533 -1.9159 -0.2300  0.8990
 4487SOL     OW24919   3.775   1.487   7.218  0.2334  0.2598  0.1178
 4487SOL    HW124920   3.850   1.443   7.259  0.9998 -0.1664 -1.7574
 4487SOL    HW224921   3.714   1.460   7.287 -1.0509  0.1319 -1.0731
 4488SOL     OW24922   2.926   1.260   9.408 -0.2102  0.0236  0.2858
 4488SOL    HW124923   2.990   1.282   9.475 -0.8831  1.3947  0.4652
 4488SOL    HW224924   2.937   1.165   9.401  1.9296  0.1459  2.1013
 4489SOL     OW24925   3.670   2.205  15.453 -0.2219 -0.2474  0.3919
 4489SOL    HW124926   3.692   2.125  15.501  0.6003 -0.1041  0.2481
 4489SOL    HW224927   3.664   2.168  15.364  0.4752  1.8274 -0.5083
 4490SOL     OW24928   1.631   0.500   8.073  0.0130  0.3562 -0.3891
 4490SOL    HW124929   1.613   0.466   8.161 -1.6412  1.1372 -0.4265
 4490SOL    HW224930   1.551   0.549   8.053 -0.8616 -1.4374 -1.2833
 4491SOL     OW24931   4.509   2.411   4.104  0.4603  0.4295 -0.3790
 4491SOL    HW124932   4.552   2.407   4.019 -0.8308 -1.0552 -0.9587
 4491SOL    HW224933   4.426   2.368   4.085  0.6720 -0.7930  1.4210
 4492SOL     OW24934   4.602   1.749   7.712 -0.0999  0.3637  0.1874
 4492SOL    HW124935   4.614   1.655   7.728 -0.1338  0.4191  0.5297
 4492SOL    HW224936   4.604   1.756   7.617  1.5260  1.0548  0.2768
 4493SOL     OW24937   4.442   3.790   6.452 -0.2222 -0.4146  0.0048
 4493SOL    HW124938   4.418   3.708   6.408  0.6179  0.0196 -1.2626
 4493SOL    HW224939   4.443   3.768   6.545  2.5084  0.8232  0.2509
 4494SOL     OW24940   0.466   0.858   7.325  0.2856  0.0349 -0.7183
 4494SOL    HW124941   0.428   0.940   7.294  1.3761  1.0519  0.5804
 4494SOL    HW224942   0.401   0.796   7.292  0.1026  0.4689 -1.1621
 4495SOL     OW24943   4.627   2.722   4.348 -0.6637  0.1973  0.2960
 4495SOL    HW124944   4.612   2.682   4.434  2.3411 -2.3703 -0.4047
 4495SOL    HW224945   4.560   2.789   4.333 -1.7734 -0.8950  0.4017
 4496SOL     OW24946   1.555   1.243   6.231  0.1096 -0.5017  0.0163
 4496SOL    HW124947   1.638   1.195   6.232  1.1844  1.3467  0.6743
 4496SOL    HW224948   1.485   1.180   6.243  0.0660 -0.2396  1.1363
 4497SOL     OW24949   1.996   2.043   8.718 -1.1021 -0.0619  0.0934
 4497SOL    HW124950   2.032   1.960   8.749 -1.5370 -0.1132  0.4611
 4497SOL    HW224951   1.905   2.029   8.744 -1.1071 -0.2616 -0.0284
 4498SOL     OW24952   0.584   4.424  15.692  0.0980 -0.2359 -0.5329
 4498SOL    HW124953   0.519   4.366  15.729  0.5668 -1.0196 -0.9476
 4498SOL    HW224954   0.545   4.462  15.613  0.0380 -0.1777 -0.4754
 4499SOL     OW24955   0.705   4.069  15.569  0.0805  0.4142 -0.2039
 4499SOL    HW124956   0.770   4.117  15.621 -0.0087 -0.1722  0.4426
 4499SOL    HW224957   0.720   4.109  15.483  1.2100 -0.5657 -0.4636
 4500SOL     OW24958   2.640   1.176   3.970 -0.4414 -0.7534 -0.3421
 4500SOL    HW124959   2.610   1.155   4.058  2.6186 -0.5826  0.7491
 4500SOL    HW224960   2.734   1.165   3.987 -0.3989  2.1983  1.3543
 4501SOL     OW24961   0.365   2.030  13.909  0.1447  0.8470  0.3465
 4501SOL    HW124962   0.290   2.060  13.960 -0.8811 -1.1726  0.0354
 4501SOL    HW224963   0.400   2.107  13.863 -2.2733  1.5562 -0.3258
 4502SOL     OW24964   1.590   1.636   5.399  0.1453 -0.0368  0.5033
 4502SOL    HW124965   1.601   1.665   5.489  2.7288 -0.9944  0.4919
 4502SOL    HW224966   1.559   1.713   5.351  0.6409  0.8602  1.6139
 4503SOL     OW24967   1.747   2.261   6.523  0.8472  0.6174  0.0898
 4503SOL    HW124968   1.803   2.297   6.592  0.1335  0.6112  0.6766
 4503SOL    HW224969   1.814   2.243   6.457  0.1478 -0.5152 -0.3104
 4504SOL     OW24970   2.420   1.836  16.732 -0.0370 -0.0451  0.4025
 4504SOL    HW124971   2.406   1.742  16.743  0.0419 -0.1032  0.0104
 4504SOL    HW224972   2.379   1.870  16.812 -3.5638 -0.1099 -1.3334
 4505SOL     OW24973   1.849   0.324   5.762 -0.0060 -0.0490  0.5385
 4505SOL    HW124974   1.760   0.357   5.779 -0.3858 -0.5792 -0.4412
 4505SOL    HW224975   1.893   0.408   5.763  1.1077 -0.6365  0.3953
 4506SOL     OW24976   1.618   2.898   0.342 -0.5733  0.5083 -0.0832
 4506SOL    HW124977   1.666   2.976   0.369 -0.1569  0.6868 -1.3491
 4506SOL    HW224978   1.628   2.898   0.246 -1.6418 -2.1901 -0.2037
 4507SOL     OW24979   3.019   1.260   7.220 -0.2303  0.0341  0.3301
 4507SOL    HW124980   2.926   1.242   7.238  0.3084 -1.1992  1.8811
 4507SOL    HW224981   3.022   1.327   7.152 -1.0944  0.2458  0.4986
 4508SOL     OW24982   3.406   0.336   5.258 -0.1044  0.2125  0.2591
 4508SOL    HW124983   3.311   0.336   5.264 -0.0982 -0.8757  0.2935
 4508SOL    HW224984   3.434   0.312   5.346  0.7498 -2.0096 -0.6305
 4509SOL     OW24985   1.823   2.666  15.806 -0.0488  0.4067 -0.2348
 4509SOL    HW124986   1.884   2.738  15.818  2.2028 -1.5052 -0.1914
 4509SOL    HW224987   1.750   2.694  15.861 -0.6151 -1.3381 -0.1017
 4510SOL     OW24988   1.797   4.368   0.170  0.5849 -0.7053  0.2615
 4510SOL    HW124989   1.744   4.291   0.146 -0.6813  0.3064 -0.2209
 4510SOL    HW224990   1.732   4.439   0.166 -0.0187 -1.2208  0.7807
 4511SOL     OW24991   1.050   4.656  16.782  0.0672 -0.1043  0.1110
 4511SOL    HW124992   1.060   0.029  16.769 -1.5882  0.3453  2.1144
 4511SOL    HW224993   0.959   4.632  16.802 -0.6653  2.9009  0.2709
 4512SOL     OW24994   3.639   3.462   6.010  0.0599  0.0965  0.2552
 4512SOL    HW124995   3.633   3.467   6.106  4.5171 -1.2009  0.6065
 4512SOL    HW224996   3.733   3.482   6.002  0.1434  0.1182  1.3028
 4513SOL     OW24997   1.186   3.320  16.495  0.0007 -0.5309  1.0439
 4513SOL    HW124998   1.143   3.236  16.481  2.0312 -1.5067  0.6905
 4513SOL    HW224999   1.278   3.306  16.473 -0.1750  0.6296 -0.4376
 4514SOL     OW25000   0.338   0.994  12.943 -0.0631 -0.4139  0.7122
 4514SOL    HW125001   0.244   0.987  12.959 -0.2013  1.1610  0.5709
 4514SOL    HW225002   0.377   0.947  13.017 -1.6451 -2.7093  0.1107
 4515SOL     OW25003   4.398   0.747   8.955 -0.2402 -0.3854 -0.2230
 4515SOL    HW125004   4.433   0.689   8.887  0.0476  0.4459 -0.7918
 4515SOL    HW225005   4.486   0.769   8.987  0.2437 -2.6594  0.0545
 4516SOL     OW25006   2.624   3.410   2.785  0.2934 -0.1561  0.5037
 4516SOL    HW125007   2.575   3.411   2.867  1.1644  0.6235  1.0255
 4516SOL    HW225008   2.619   3.502   2.761 -0.0590 -0.1735  0.5208
 4517SOL     OW25009   3.878   2.994   8.504 -0.3103 -0.0481 -0.0027
 4517SOL    HW125010   3.964   2.954   8.515  0.1399  1.5869  2.4764
 4517SOL    HW225011   3.889   3.065   8.568 -1.2464  1.7118 -1.8092
 4518SOL     OW25012   3.205   2.242   2.363  0.3784 -0.3292  0.1497
 4518SOL    HW125013   3.246   2.247   2.450  1.5716  1.9479 -0.5508
 4518SOL    HW225014   3.205   2.148   2.349  1.0513 -0.6390  2.2047
 4519SOL     OW25015   3.129   2.909   6.552 -0.3385 -0.0879  0.2786
 4519SOL    HW125016   3.164   2.821   6.537 -3.7811 -1.6205  1.2409
 4519SOL    HW225017   3.165   2.922   6.639  0.0624 -0.8868  0.2311
 4520SOL     OW25018   3.393   1.412   7.380  0.0464  0.0251 -0.3800
 4520SOL    HW125019   3.332   1.402   7.453  0.3860  0.6748 -0.0039
 4520SOL    HW225020   3.454   1.482   7.405 -0.4700  0.1143  0.6216
 4521SOL     OW25021   3.622   1.680   4.364 -0.2608  0.0045  0.1578
 4521SOL    HW125022   3.654   1.762   4.403 -1.6454  0.9192 -0.5831
 4521SOL    HW225023   3.549   1.659   4.422  0.0442  1.8291  1.2194
 4522SOL     OW25024   3.959   4.305   0.912  0.2588  0.0070  0.2346
 4522SOL    HW125025   3.987   4.364   0.982 -2.2426  2.2308 -0.6120
 4522SOL    HW225026   3.986   4.222   0.951  0.8236  0.7485  1.4268
 4523SOL     OW25027   4.687   0.414  12.335  0.6246  0.3522 -0.0397
 4523SOL    HW125028   4.717   0.485  12.393 -0.4912 -0.8966  2.0647
 4523SOL    HW225029   4.593   0.431  12.349  0.2825 -2.1131  0.6324
 4524SOL     OW25030   2.442   1.566   2.038 -0.2068  0.1255  0.2698
 4524SOL    HW125031   2.347   1.576   2.031 -0.4445 -1.4857  1.3723
 4524SOL    HW225032   2.446   1.472   2.054  0.7697  0.1139 -0.0441
 4525SOL     OW25033   1.509   1.541   9.135  0.0106 -0.4111  0.0183
 4525SOL    HW125034   1.582   1.481   9.117  1.6431  0.5627  3.5171
 4525SOL    HW225035   1.522   1.573   9.224  2.5194 -2.1665  0.3116
 4526SOL     OW25036   1.575   0.621  16.055  0.1647 -0.5285  0.5051
 4526SOL    HW125037   1.520   0.545  16.039 -1.5422  0.4456  1.7356
 4526SOL    HW225038   1.548   0.657  15.971  0.9316  0.1790  0.5573
 4527SOL     OW25039   0.448   4.333   4.785  0.0635 -0.2538  0.2756
 4527SOL    HW125040   0.401   4.335   4.869 -0.1057  0.4772  0.1605
 4527SOL    HW225041   0.389   4.365   4.717  2.2460  1.2985 -0.8646
 4528SOL     OW25042   2.794   2.743   0.837 -0.2416  0.2069 -0.1159
 4528SOL    HW125043   2.736   2.720   0.909  1.4305 -2.9453  0.2250
 4528SOL    HW225044   2.872   2.693   0.861  1.3664  2.4972 -0.5437
 4529SOL     OW25045   1.903   0.259   3.816 -0.0330  0.3795  0.4848
 4529SOL    HW125046   1.939   0.193   3.875  2.4060  1.0756 -0.2639
 4529SOL    HW225047   1.823   0.212   3.790  1.1959 -0.0752 -2.5300
 4530SOL     OW25048   0.743   3.843   5.281 -0.9380  0.3549  0.0424
 4530SOL    HW125049   0.726   3.934   5.305 -0.6862  1.0879 -2.6303
 4530SOL    HW225050   0.711   3.845   5.191 -0.6956  1.3654 -0.0195
 4531SOL     OW25051   1.353   3.267  15.386 -0.8744 -0.5046 -0.4632
 4531SOL    HW125052   1.444   3.244  15.366 -0.3880  1.7319 -0.7995
 4531SOL    HW225053   1.309   3.182  15.379 -1.2529 -0.3128 -0.4339
 4532SOL     OW25054   3.429   3.502   9.215  0.2773 -0.0367  0.3907
 4532SOL    HW125055   3.411   3.591   9.185  0.2051 -0.0581  0.3719
 4532SOL    HW225056   3.504   3.526   9.271 -0.3749 -1.6358  1.9523
 4533SOL     OW25057   0.966   2.314   6.893  0.2637  0.6670  0.8386
 4533SOL    HW125058   1.017   2.261   6.954  0.1529 -0.9743 -0.4878
 4533SOL    HW225059   0.909   2.360   6.955 -0.0687  1.2789  0.0870
 4534SOL     OW25060   3.645   2.318  14.735  0.0009  0.5367 -0.0220
 4534SOL    HW125061   3.613   2.283  14.818 -0.7913 -1.5194 -1.1772
 4534SOL    HW225062   3.708   2.384  14.762 -0.1688  0.8295 -0.3477
 4535SOL     OW25063   2.593   4.480   3.338  0.3990 -0.2998  0.1729
 4535SOL    HW125064   2.615   4.539   3.265  1.3972  0.7126  1.2916
 4535SOL    HW225065   2.514   4.522   3.372 -0.8313 -3.8203  1.6061
 4536SOL     OW25066   3.427   3.361   1.567 -0.0052 -0.9198 -0.5435
 4536SOL    HW125067   3.421   3.281   1.619 -1.2257  0.2720  1.1590
 4536SOL    HW225068   3.413   3.313   1.486 -0.9672  1.1809 -1.6124
 4537SOL     OW25069   3.738   1.723   2.682  0.4505 -0.2319 -0.0496
 4537SOL    HW125070   3.793   1.675   2.744 -1.6935  0.5967  2.4819
 4537SOL    HW225071   3.657   1.692   2.722  0.4761 -1.5275 -1.0030
 4538SOL     OW25072   0.372   4.668   4.367 -0.1484 -0.1250  0.4148
 4538SOL    HW125073   0.461   4.703   4.375 -0.4498  1.3827 -2.9816
 4538SOL    HW225074   0.354   4.671   4.461 -0.8500  2.8504  0.1798
 4539SOL     OW25075   4.374   0.139  11.518  0.1748  0.1871 -0.3757
 4539SOL    HW125076   4.289   0.183  11.507 -0.9491 -1.4032  1.9032
 4539SOL    HW225077   4.385   0.119  11.425 -2.2132 -4.0026  0.2486
 4540SOL     OW25078   2.744   2.239  12.782 -0.2574 -0.5042  0.4406
 4540SOL    HW125079   2.740   2.165  12.843  1.2925  0.0519  1.2207
 4540SOL    HW225080   2.833   2.225  12.749 -0.6370  0.5061 -1.0264
 4541SOL     OW25081   4.238   0.619  12.271 -0.5204  0.1416 -0.7714
 4541SOL    HW125082   4.226   0.583  12.183  0.2467 -3.8089  0.7758
 4541SOL    HW225083   4.150   0.650  12.294 -0.7191 -2.1635  1.5070
 4542SOL     OW25084   1.547   1.996  16.356 -0.5321  0.2398 -0.6544
 4542SOL    HW125085   1.604   2.054  16.306  0.8302 -0.8354 -0.3448
 4542SOL    HW225086   1.590   1.912  16.346  1.0472  0.9903 -0.1269
 4543SOL     OW25087   1.358   4.521   4.110 -0.0013 -0.1723  0.4488
 4543SOL    HW125088   1.363   4.591   4.046  1.9686 -0.0560  0.7435
 4543SOL    HW225089   1.388   4.571   4.186  1.2694 -0.8251  0.3635
 4544SOL     OW25090   1.121   0.756  15.673 -0.0319  0.1572  0.2810
 4544SOL    HW125091   1.188   0.732  15.738 -0.8004  1.8254  1.7175
 4544SOL    HW225092   1.077   0.821  15.728  1.2239  0.2909  1.1261
 4545SOL     OW25093   3.762   0.208   7.047 -0.3684  0.3642 -0.0334
 4545SOL    HW125094   3.763   0.119   7.083  0.8192 -0.4278 -1.9745
 4545SOL    HW225095   3.788   0.256   7.125  2.6876 -2.6915  0.8599
 4546SOL     OW25096   1.673   4.062  15.962  0.0438  0.0694  0.2268
 4546SOL    HW125097   1.602   4.125  15.950 -1.0745 -1.5140 -1.3159
 4546SOL    HW225098   1.747   4.107  15.921  1.3422 -0.7825  1.6543
 4547SOL     OW25099   4.599   3.524   9.589 -0.1447  0.3907 -0.0471
 4547SOL    HW125100   4.659   3.499   9.519 -1.6214 -0.5547 -0.9532
 4547SOL    HW225101   4.632   3.614   9.599 -2.4274  1.3461 -1.1958
 4548SOL     OW25102   0.846   2.888   2.857  0.7187 -0.1969  0.0442
 4548SOL    HW125103   0.812   2.813   2.808  1.0383  0.4629 -1.1873
 4548SOL    HW225104   0.786   2.953   2.820  0.1419 -1.1304 -0.6533
 4549SOL     OW25105   1.518   1.167   1.756  0.0208  0.0647  0.3067
 4549SOL    HW125106   1.581   1.146   1.686  2.6939 -0.5846  2.9175
 4549SOL    HW225107   1.522   1.262   1.760 -1.4925  0.2028 -1.1685
 4550SOL     OW25108   4.241   3.523   3.533 -0.0947  0.2913 -0.2711
 4550SOL    HW125109   4.236   3.618   3.543 -1.2112  0.2408 -0.3290
 4550SOL    HW225110   4.273   3.515   3.443  2.5759 -0.5609  0.7648
 4551SOL     OW25111   0.292   1.106   9.370 -0.2375 -0.2471 -0.1938
 4551SOL    HW125112   0.349   1.126   9.445 -2.6450 -1.1712  1.8574
 4551SOL    HW225113   0.205   1.125   9.404  0.4091  0.1220  1.2991
 4552SOL     OW25114   0.686   3.349   1.757  0.6844 -0.2825 -0.2695
 4552SOL    HW125115   0.708   3.275   1.814 -0.9849 -1.7633 -1.5521
 4552SOL    HW225116   0.687   3.426   1.813 -0.4270 -0.0816 -0.5296
 4553SOL     OW25117   3.318   4.090  11.919  0.1735  0.0641  0.7179
 4553SOL    HW125118   3.237   4.038  11.918 -0.3285  0.9093 -1.1724
 4553SOL    HW225119   3.361   4.065  11.838 -1.4627 -1.5718  0.3487
 4554SOL     OW25120   4.491   0.225   8.458  0.0443  0.0067 -0.0556
 4554SOL    HW125121   4.517   0.317   8.448  2.5757 -0.7689 -0.7199
 4554SOL    HW225122   4.545   0.209   8.536  0.8565  1.2624 -0.3424
 4555SOL     OW25123   1.325   0.416   6.560 -0.1378  0.1909 -0.5383
 4555SOL    HW125124   1.324   0.468   6.480 -3.0702 -1.0094 -1.2907
 4555SOL    HW225125   1.233   0.412   6.587 -0.1809  0.3876 -0.6561
 4556SOL     OW25126   2.169   3.053   7.455 -0.6622 -0.1048  0.5888
 4556SOL    HW125127   2.179   2.992   7.528  1.0505  0.1944  0.6141
 4556SOL    HW225128   2.212   3.132   7.488  0.3320 -0.6362  0.5634
 4557SOL     OW25129   1.637   2.001  15.142  0.3096  0.3981  0.4638
 4557SOL    HW125130   1.631   1.982  15.235 -1.1649 -2.4523 -0.2136
 4557SOL    HW225131   1.574   2.073  15.144 -0.0334  0.1474 -1.0393
 4558SOL     OW25132   4.122   4.227   5.863 -0.2434 -0.0529 -0.2708
 4558SOL    HW125133   4.174   4.293   5.908  1.1647 -2.5660  1.8042
 4558SOL    HW225134   4.110   4.257   5.773 -1.1518 -0.8654 -0.4237
 4559SOL     OW25135   1.767   1.516  15.095 -0.0174 -0.2855 -0.5201
 4559SOL    HW125136   1.850   1.552  15.126 -0.1952  0.2483 -0.6642
 4559SOL    HW225137   1.793   1.424  15.094 -2.5703 -1.0055  1.1432
 4560SOL     OW25138   3.503   1.286  16.076  0.9331 -0.0758 -0.0950
 4560SOL    HW125139   3.439   1.357  16.072 -1.9475 -2.6078  1.2333
 4560SOL    HW225140   3.585   1.327  16.103 -0.0233  2.3669 -0.8644
 4561SOL     OW25141   1.722   2.496  17.649  0.2674  0.3885  0.2147
 4561SOL    HW125142   1.792   2.431  17.654 -1.0488 -1.1039 -0.6745
 4561SOL    HW225143   1.709   2.513   0.055 -0.0465  0.4915  0.1539
 4562SOL     OW25144   1.250   3.844  14.658 -0.2309 -0.1963  0.3391
 4562SOL    HW125145   1.341   3.836  14.630 -0.1621 -0.2457  0.5732
 4562SOL    HW225146   1.262   3.826  14.751  0.6791 -0.8648  0.0896
 4563SOL     OW25147   2.331   0.434  13.459  0.3852 -0.8418 -0.4628
 4563SOL    HW125148   2.425   0.417  13.449  0.8197  1.1096  0.1828
 4563SOL    HW225149   2.327   0.424  13.554 -1.7273  2.5043 -0.2152
 4564SOL     OW25150   2.903   4.565  13.215 -0.2685  0.0839 -0.0779
 4564SOL    HW125151   2.996   4.546  13.207  0.3392  3.2759 -0.1963
 4564SOL    HW225152   2.888   4.519  13.297  1.1393  0.7476  0.5308
 4565SOL     OW25153   3.964   4.331  16.951 -0.0790  1.3046 -0.1975
 4565SOL    HW125154   3.894   4.359  17.010 -1.1026  2.0235 -1.7565
 4565SOL    HW225155   3.905   4.319  16.877 -0.2864  0.9046  0.0319
 4566SOL     OW25156   4.594   4.069  16.352 -0.6398 -0.1739 -0.6418
 4566SOL    HW125157   4.611   4.032  16.439  0.4480  0.4718 -0.5782
 4566SOL    HW225158   4.624   4.160  16.361 -1.5351  0.0834 -0.2263
 4567SOL     OW25159   3.153   2.159  16.814 -0.0620  0.1366  0.3681
 4567SOL    HW125160   3.222   2.216  16.849 -0.1194  0.6737 -0.3937
 4567SOL    HW225161   3.115   2.118  16.892 -0.0537  1.8815  1.3082
 4568SOL     OW25162   2.529   1.131   6.071  0.3482  0.0858  0.4811
 4568SOL    HW125163   2.616   1.096   6.093  0.7086  0.5354 -0.2127
 4568SOL    HW225164   2.505   1.157   6.160  1.9044 -1.2027  1.2903
 4569SOL     OW25165   1.083   2.782   1.452 -0.4009 -0.6125  0.2644
 4569SOL    HW125166   1.058   2.779   1.544 -0.4045  1.6573  0.3384
 4569SOL    HW225167   1.016   2.722   1.420 -2.2861  2.1126 -0.9508
 4570SOL     OW25168   4.375   2.142  12.792 -0.2961 -0.4849 -0.1392
 4570SOL    HW125169   4.414   2.060  12.823  1.1702  0.8804  1.6506
 4570SOL    HW225170   4.383   2.144  12.697 -0.9482  0.9667 -0.1619
 4571SOL     OW25171   0.335   2.462   9.499  0.0569  0.0771  0.1732
 4571SOL    HW125172   0.292   2.407   9.564  1.0262  0.9221  1.5411
 4571SOL    HW225173   0.321   2.543   9.550 -0.0224  0.4911 -0.5116
 4572SOL     OW25174   0.735   2.436  11.027 -0.0541 -0.1309 -0.3187
 4572SOL    HW125175   0.769   2.525  11.023  0.1431 -0.1162  1.7753
 4572SOL    HW225176   0.641   2.444  11.043  0.0527  0.3186  0.0563
 4573SOL     OW25177   0.941   1.150   6.863 -0.2712 -0.5043 -0.0030
 4573SOL    HW125178   0.961   1.088   6.793 -0.5060 -2.8816  2.0294
 4573SOL    HW225179   0.920   1.093   6.937 -1.2842 -0.0987  0.0214
 4574SOL     OW25180   1.455   2.623   6.617 -0.1081  0.6811 -0.0570
 4574SOL    HW125181   1.476   2.578   6.535 -1.3627 -2.2559  1.2721
 4574SOL    HW225182   1.464   2.551   6.679 -2.4413  0.0372 -0.4479
 4575SOL     OW25183   0.318   3.669   3.321 -0.0381 -0.0235  1.3822
 4575SOL    HW125184   0.376   3.663   3.245 -1.6656 -0.2435  0.1644
 4575SOL    HW225185   0.240   3.620   3.295  1.0195 -0.9910  0.0378
 4576SOL     OW25186   1.965   3.709   3.697 -0.1809  0.4144 -0.4465
 4576SOL    HW125187   2.042   3.652   3.703 -2.9633 -3.0998  1.9257
 4576SOL    HW225188   2.003   3.796   3.707 -0.9366  0.7702 -0.6439
 4577SOL     OW25189   3.567   0.803   6.009  0.2618  0.1693  0.1469
 4577SOL    HW125190   3.554   0.802   5.914  1.7349  2.1709 -0.0662
 4577SOL    HW225191   3.512   0.880   6.029  1.3914  0.5312  1.9005
 4578SOL     OW25192   0.939   3.427   0.372  0.1401  0.1729  0.0514
 4578SOL    HW125193   1.030   3.424   0.345  0.4644  2.3301  0.9349
 4578SOL    HW225194   0.934   3.343   0.417  1.0525 -0.3210 -0.7814
 4579SOL     OW25195   0.199   2.058   2.631  0.1039  0.5434 -0.1019
 4579SOL    HW125196   0.127   2.120   2.642 -2.6657 -2.7651  0.6366
 4579SOL    HW225197   0.198   2.043   2.536 -1.2624  0.4984 -0.0789
 4580SOL     OW25198   4.675   0.040  11.021 -0.2214  0.1282  0.6287
 4580SOL    HW125199   4.632   0.113  11.064 -1.2453 -0.7996  1.1764
 4580SOL    HW225200   4.645   4.683  11.067 -0.2511 -0.4130 -0.3118
 4581SOL     OW25201   3.469   3.227   2.938  0.3122 -0.1756  0.8170
 4581SOL    HW125202   3.564   3.232   2.942  0.1334  0.7081  3.6249
 4581SOL    HW225203   3.452   3.244   3.031  2.4167 -0.1769  1.1848
 4582SOL     OW25204   4.327   3.422   6.517 -0.0951 -0.2045  0.1642
 4582SOL    HW125205   4.281   3.346   6.554  1.3588 -2.1030 -1.9560
 4582SOL    HW225206   4.379   3.459   6.589  1.1454 -1.0377 -0.3012
 4583SOL     OW25207   3.603   2.427  11.288  0.0318 -0.2076  0.0264
 4583SOL    HW125208   3.675   2.440  11.350 -0.0054  0.1171  0.0000
 4583SOL    HW225209   3.540   2.496  11.309  1.0061  0.7581 -0.2304
 4584SOL     OW25210   4.654   2.027   7.373  0.1476  0.0100 -0.4962
 4584SOL    HW125211   4.719   1.981   7.319 -1.9709 -1.2137 -2.0479
 4584SOL    HW225212   4.629   1.951   7.426  0.4724  0.3270  0.1026
 4585SOL     OW25213   2.355   2.380   7.054  0.2040  0.2694 -0.1688
 4585SOL    HW125214   2.271   2.347   7.086  0.5297  0.3549  0.7849
 4585SOL    HW225215   2.380   2.324   6.981 -2.0543  0.4701 -1.0992
 4586SOL     OW25216   1.989   4.706   3.452 -0.7027  0.0615 -0.2392
 4586SOL    HW125217   1.900   0.019   3.461 -0.9415  0.2945 -3.3345
 4586SOL    HW225218   2.018   0.063   3.406 -0.4178  0.2999  0.3491
 4587SOL     OW25219   4.350   0.183  16.369  0.0751 -0.6834 -0.1109
 4587SOL    HW125220   4.291   0.231  16.310 -0.1611 -1.1162 -0.2261
 4587SOL    HW225221   4.377   0.253  16.429 -0.8410 -0.2281 -0.2229
 4588SOL     OW25222   4.348   2.284   8.103  0.1674  0.2808 -0.1370
 4588SOL    HW125223   4.352   2.243   8.017  1.2452 -0.7797  0.4157
 4588SOL    HW225224   4.442   2.278   8.121 -0.4241  0.8220  3.2107
 4589SOL     OW25225   1.561   0.569   4.314 -0.2480  0.6463  0.8001
 4589SOL    HW125226   1.514   0.565   4.397 -0.4598 -0.5458  0.6163
 4589SOL    HW225227   1.568   0.480   4.280 -2.5528  1.7372 -2.5059
 4590SOL     OW25228   2.373   4.497   9.227 -0.1885  0.4339  0.1891
 4590SOL    HW125229   2.447   4.454   9.184 -0.5546 -1.0060  0.9620
 4590SOL    HW225230   2.418   4.496   9.312  0.6388  0.5075 -0.2483
 4591SOL     OW25231   3.788   1.705  16.314 -0.0912 -0.0055 -0.1593
 4591SOL    HW125232   3.796   1.694  16.219  2.3294 -0.4208  0.0805
 4591SOL    HW225233   3.839   1.785  16.321 -0.8574  0.6908 -2.4981
 4592SOL     OW25234   1.820   0.169   4.115  0.5350 -0.3097 -0.2492
 4592SOL    HW125235   1.873   0.123   4.180 -1.6944  0.3310  2.0011
 4592SOL    HW225236   1.797   0.100   4.053  0.1708  0.8529 -1.3950
 4593SOL     OW25237   4.499   4.311   2.830  0.1315  0.3295  0.0441
 4593SOL    HW125238   4.571   4.301   2.768  2.0448  0.3829  2.2635
 4593SOL    HW225239   4.427   4.280   2.775 -0.8935  0.0074  1.5720
 4594SOL     OW25240   2.841   4.633   6.211 -0.1318  0.0442  0.6658
 4594SOL    HW125241   2.851   4.562   6.147 -1.4438 -1.1942  1.8539
 4594SOL    HW225242   2.896   4.702   6.174  0.7215 -1.0258 -0.0782
 4595SOL     OW25243   4.335   3.150   9.465  0.1856 -0.0627 -0.0721
 4595SOL    HW125244   4.366   3.202   9.390  0.1172 -0.5466 -0.4310
 4595SOL    HW225245   4.245   3.182   9.476 -0.2725 -1.4790  0.2895
 4596SOL     OW25246   2.253   3.846  16.456 -0.3605 -0.0688 -1.2349
 4596SOL    HW125247   2.161   3.857  16.478  0.1038  1.9809 -0.3173
 4596SOL    HW225248   2.264   3.865  16.363  1.0717 -2.3842 -1.5287
 4597SOL     OW25249   1.508   0.078   5.024  0.3975  0.0566 -0.1163
 4597SOL    HW125250   1.453   0.094   5.101  0.8386  0.1211  0.1851
 4597SOL    HW225251   1.590   0.058   5.069  0.4464  0.4936 -0.0139
 4598SOL     OW25252   1.864   0.812  14.665  0.4353  0.0082  0.3201
 4598SOL    HW125253   1.823   0.731  14.631  0.2252  0.4070 -0.3848
 4598SOL    HW225254   1.937   0.809  14.603  1.6750 -0.3987  1.7964
 4599SOL     OW25255   3.165   4.026   2.566  0.0824  0.1129 -0.4444
 4599SOL    HW125256   3.114   4.102   2.593 -3.1553 -1.3339 -2.4311
 4599SOL    HW225257   3.163   3.981   2.650 -1.6194 -2.0364 -1.6404
 4600SOL     OW25258   4.036   1.419  10.534 -0.3508 -0.3850 -0.0033
 4600SOL    HW125259   3.971   1.397  10.601  0.0103  0.1378  0.5037
 4600SOL    HW225260   4.000   1.504  10.509 -1.7985 -0.3469  2.2667
 4601SOL     OW25261   1.355   2.396   2.024 -0.9382  0.2011  0.0352
 4601SOL    HW125262   1.312   2.352   1.950  0.0637 -0.9394  0.1223
 4601SOL    HW225263   1.399   2.323   2.068  0.5350  0.1900 -1.4512
 4602SOL     OW25264   4.219   3.296   2.908  0.6252  0.3518  0.0584
 4602SOL    HW125265   4.240   3.214   2.864 -1.3513  0.1868 -0.5982
 4602SOL    HW225266   4.268   3.353   2.850 -0.9850 -1.2245 -2.8402
 4603SOL     OW25267   3.556   4.273   5.880 -0.0714 -0.2598  0.0248
 4603SOL    HW125268   3.532   4.181   5.884  0.8874 -0.5090 -0.0992
 4603SOL    HW225269   3.647   4.272   5.909  0.2220 -1.9377 -0.9398
 4604SOL     OW25270   1.689   1.012   8.795 -0.2468  0.3956 -0.3827
 4604SOL    HW125271   1.623   0.947   8.820 -0.3789  0.7977  0.3148
 4604SOL    HW225272   1.773   0.966   8.785 -1.5172 -1.4290 -2.8826
 4605SOL     OW25273   0.339   0.795  11.790  0.3355  0.1859  0.4444
 4605SOL    HW125274   0.317   0.757  11.705 -0.1231 -1.8560  1.4631
 4605SOL    HW225275   0.314   0.728  11.854  0.2867 -0.0724  0.1557
 4606SOL     OW25276   3.617   0.059   7.857 -0.1495 -0.7126 -0.8389
 4606SOL    HW125277   3.575   4.706   7.899 -1.9614  2.0493  2.2838
 4606SOL    HW225278   3.706   0.042   7.888  0.0876  0.6531 -0.7688
 4607SOL     OW25279   3.019   2.777   8.926  0.1872  0.2156  0.7275
 4607SOL    HW125280   3.109   2.745   8.921  0.3906  0.9425 -0.2220
 4607SOL    HW225281   2.980   2.729   8.999 -1.5258  0.6994  0.1498
 4608SOL     OW25282   0.893   0.932   7.075  0.2495 -0.1125 -0.6616
 4608SOL    HW125283   0.813   0.895   7.114  0.7905  0.2666  0.8242
 4608SOL    HW225284   0.948   0.863   7.112  1.5039  0.8267 -0.7615
 4609SOL     OW25285   1.040   2.472   3.210 -0.6375 -0.4567 -0.0623
 4609SOL    HW125286   1.016   2.565   3.211  0.4607 -0.1257 -2.7087
 4609SOL    HW225287   1.117   2.471   3.266 -1.1184 -2.0185  0.5477
 4610SOL     OW25288   1.937   2.881   5.068  0.4433  0.1021 -0.3063
 4610SOL    HW125289   1.876   2.950   5.092 -4.4427 -4.0031 -0.9613
 4610SOL    HW225290   2.004   2.905   5.131 -0.0682 -1.2473  0.7361
 4611SOL     OW25291   0.862   1.987   1.951  0.1013 -0.2100 -0.2392
 4611SOL    HW125292   0.926   2.059   1.950  0.7676 -0.7756  1.2310
 4611SOL    HW225293   0.830   1.993   1.861  1.3610 -1.4905 -0.7812
 4612SOL     OW25294   0.926   3.435   4.227 -0.0041  0.1964  0.0349
 4612SOL    HW125295   0.995   3.403   4.168 -0.0207  1.3207 -0.6093
 4612SOL    HW225296   0.943   3.529   4.222 -0.0778  0.2978  1.7526
 4613SOL     OW25297   2.400   4.666   4.331  0.4003  0.2201  0.3590
 4613SOL    HW125298   2.455   0.009   4.286 -1.1275  1.4586  0.2294
 4613SOL    HW225299   2.390   4.603   4.260  1.9994  0.8127 -0.3822
 4614SOL     OW25300   1.279   3.566  17.210  0.1369 -0.0311  0.3745
 4614SOL    HW125301   1.348   3.621  17.247 -0.9803  2.1407 -0.7698
 4614SOL    HW225302   1.279   3.581  17.115 -0.3755  1.2778  0.5911
 4615SOL     OW25303   0.894   4.663   6.012 -0.1310  0.2533 -0.3455
 4615SOL    HW125304   0.904   4.717   5.933  0.3109  2.1098  0.9915
 4615SOL    HW225305   0.918   4.580   5.970  0.0262  0.7059 -1.1568
 4616SOL     OW25306   3.583   2.379   6.110  0.0818 -0.4529  0.5230
 4616SOL    HW125307   3.651   2.386   6.177  0.5104  1.0236 -0.0371
 4616SOL    HW225308   3.513   2.407   6.169 -0.9820  0.6038 -1.2179
 4617SOL     OW25309   4.092   2.319   4.430  0.3334  0.4472 -0.0382
 4617SOL    HW125310   4.138   2.243   4.395 -0.1631  0.2457 -0.2538
 4617SOL    HW225311   4.059   2.364   4.353 -0.7894 -0.7921 -0.2812
 4618SOL     OW25312   2.327   1.176   0.831  0.4408 -0.0178 -0.1710
 4618SOL    HW125313   2.368   1.156   0.915  0.8503 -1.2630 -0.6552
 4618SOL    HW225314   2.239   1.152   0.861  0.4202  0.2436 -0.0280
 4619SOL     OW25315   4.090   0.383   9.842  0.0881 -0.4588  0.6045
 4619SOL    HW125316   4.097   0.300   9.890 -1.6941 -0.4947  0.8291
 4619SOL    HW225317   4.110   0.446   9.911  0.9496  1.2071 -1.1949
 4620SOL     OW25318   0.397   0.392   7.638  0.0262 -0.1381 -0.2268
 4620SOL    HW125319   0.410   0.358   7.549 -1.3686 -0.2254 -0.3930
 4620SOL    HW225320   0.407   0.310   7.686  0.5953 -0.1705 -0.3995
 4621SOL     OW25321   4.326   2.989   3.246 -0.1615  0.1553 -0.3571
 4621SOL    HW125322   4.276   3.056   3.200  0.1214  0.6773  0.1116
 4621SOL    HW225323   4.285   2.953   3.325 -1.7034 -0.2135 -1.3132
 4622SOL     OW25324   2.456   1.768  17.428  0.2234 -0.1482 -0.0942
 4622SOL    HW125325   2.551   1.785  17.429  0.1625  0.2489 -1.3376
 4622SOL    HW225326   2.443   1.732  17.516 -1.4098  1.4697  0.3415
 4623SOL     OW25327   0.939   1.638  15.665  0.4504  0.3025  0.8080
 4623SOL    HW125328   0.912   1.687  15.587  0.2080 -2.7271 -0.9992
 4623SOL    HW225329   1.034   1.630  15.654  0.1899  0.2801 -1.4561
 4624SOL     OW25330   2.717   1.105   3.312 -0.1618  0.0339  0.0720
 4624SOL    HW125331   2.751   1.191   3.333 -0.2886  0.0247  0.3040
 4624SOL    HW225332   2.794   1.078   3.262 -1.2630 -2.6159 -0.2135
 4625SOL     OW25333   0.384   3.543   2.497  0.0455  0.4769 -0.2967
 4625SOL    HW125334   0.393   3.595   2.576 -0.2635 -1.6515  1.1339
 4625SOL    HW225335   0.288   3.536   2.499  0.1480 -0.5948  0.5539
 4626SOL     OW25336   2.831   0.808   7.804  0.1246  0.3320  0.9810
 4626SOL    HW125337   2.860   0.895   7.831 -0.8542  1.1048 -0.4395
 4626SOL    HW225338   2.896   0.808   7.734 -0.6393  0.0873  0.2806
 4627SOL     OW25339   2.622   2.328   2.860 -0.3891 -0.0039 -0.0802
 4627SOL    HW125340   2.655   2.331   2.950 -1.8433 -1.8416  0.5242
 4627SOL    HW225341   2.690   2.277   2.816 -0.7187  0.0542 -0.6579
 4628SOL     OW25342   3.172   4.653   7.454 -0.1599  0.5161  0.3733
 4628SOL    HW125343   3.157   4.561   7.474 -0.7881  1.2748  3.4271
 4628SOL    HW225344   3.135   4.649   7.366 -1.9126  0.0949  1.1390
 4629SOL     OW25345   3.749   3.152  13.262  0.1054 -0.2377 -0.3938
 4629SOL    HW125346   3.835   3.135  13.223  0.7611 -0.2430  1.0682
 4629SOL    HW225347   3.765   3.241  13.293 -0.1882 -0.2776 -0.1328
 4630SOL     OW25348   1.418   4.711   4.300  0.7550  0.5564  0.2777
 4630SOL    HW125349   1.505   4.671   4.293  0.1913 -0.7693  0.8529
 4630SOL    HW225350   1.446   0.052   4.368 -0.5811  2.5943 -1.0248
 4631SOL     OW25351   4.644   4.206   8.297  0.1906 -0.5769  0.3614
 4631SOL    HW125352   4.600   4.254   8.367  0.4014 -1.2030  0.9174
 4631SOL    HW225353   4.703   4.160   8.356 -0.7824 -2.5544 -0.1936
 4632SOL     OW25354   3.714   1.347   3.566  0.5585 -0.5675 -0.1098
 4632SOL    HW125355   3.747   1.284   3.630 -2.3232 -1.7933  0.1977
 4632SOL    HW225356   3.781   1.413   3.548 -0.4194  0.6335  0.6423
 4633SOL     OW25357   2.707   3.159   1.447  0.6611  0.6059  0.2592
 4633SOL    HW125358   2.632   3.216   1.465 -0.9361 -0.6823 -2.3054
 4633SOL    HW225359   2.687   3.125   1.360  0.8067  1.2182 -0.0118
 4634SOL     OW25360   4.623   0.982   7.234 -0.2435 -0.0306 -0.1258
 4634SOL    HW125361   4.612   0.978   7.139  1.0626  1.4878 -0.3545
 4634SOL    HW225362   4.534   0.965   7.264 -1.0449 -0.0826 -2.4673
 4635SOL     OW25363   0.019   2.724   1.834  0.1591 -0.0349  0.0804
 4635SOL    HW125364   0.013   2.644   1.780  0.8781 -1.1215  1.6305
 4635SOL    HW225365   0.114   2.734   1.834  0.2972 -1.3449  2.0841
 4636SOL     OW25366   1.178   0.992  15.534 -0.1922 -0.5918 -0.1546
 4636SOL    HW125367   1.138   0.920  15.583 -1.0056  0.4470  0.6874
 4636SOL    HW225368   1.270   0.983  15.556 -0.0820  1.8375  0.3489
 4637SOL     OW25369   0.013   2.928   3.991  0.6041 -0.4101  0.3187
 4637SOL    HW125370   4.715   2.834   3.987  0.0038 -0.3072  0.9211
 4637SOL    HW225371   0.013   2.942   3.896 -1.2884 -0.2090  0.3572
 4638SOL     OW25372   3.557   0.707   3.671 -0.6124 -1.0107 -0.9204
 4638SOL    HW125373   3.529   0.724   3.581 -0.6875  1.7234 -0.3738
 4638SOL    HW225374   3.497   0.637   3.695 -0.7458 -0.8585 -0.8122
 4639SOL     OW25375   2.766   1.660  13.173  0.2111  0.1879  0.3194
 4639SOL    HW125376   2.828   1.732  13.161 -1.6147  1.6665 -0.3365
 4639SOL    HW225377   2.760   1.621  13.085 -2.6367  0.9268  0.1903
 4640SOL     OW25378   3.413   3.107   9.780 -0.0955  0.2147 -0.4888
 4640SOL    HW125379   3.422   3.044   9.852 -1.6274  0.3598 -0.1716
 4640SOL    HW225380   3.372   3.052   9.714 -1.1083  0.7893 -0.3393
 4641SOL     OW25381   2.354   2.037   0.703 -0.1915 -0.4554  0.6463
 4641SOL    HW125382   2.432   1.992   0.733 -0.0034 -1.4457 -1.2975
 4641SOL    HW225383   2.363   2.113   0.760 -2.7559  0.8549 -0.6945
 4642SOL     OW25384   0.489   2.033  11.266 -0.3137  0.4202  0.2180
 4642SOL    HW125385   0.577   2.068  11.269  0.0172 -0.3169 -0.7195
 4642SOL    HW225386   0.498   1.947  11.308 -0.4326  0.0008 -0.6142
 4643SOL     OW25387   2.757   1.401  14.417 -0.2288  0.0350  0.0356
 4643SOL    HW125388   2.777   1.309  14.431 -1.0401 -0.4064 -1.6996
 4643SOL    HW225389   2.685   1.420  14.477  0.3452 -0.5503  0.9105
 4644SOL     OW25390   3.538   4.693   2.532 -0.0349 -0.3778 -0.1299
 4644SOL    HW125391   3.631   4.678   2.549 -0.3762 -1.7988  0.5491
 4644SOL    HW225392   3.499   4.649   2.608  0.7668 -2.1502 -0.7496
 4645SOL     OW25393   2.671   2.426   8.396  0.1862  0.5327  0.4670
 4645SOL    HW125394   2.637   2.492   8.457 -0.4253  1.0003 -0.3870
 4645SOL    HW225395   2.765   2.423   8.415  0.0392 -1.8872  0.7818
 4646SOL     OW25396   1.018   0.493   4.752 -0.0328  0.4072 -0.1522
 4646SOL    HW125397   0.936   0.471   4.709  1.0455 -1.7302 -1.1048
 4646SOL    HW225398   1.029   0.426   4.820  1.6869  0.3193 -0.5056
 4647SOL     OW25399   1.317   2.848   6.685  0.1590  0.2360  0.0194
 4647SOL    HW125400   1.249   2.796   6.643 -1.0322  1.1649  0.8358
 4647SOL    HW225401   1.389   2.785   6.683  0.1386  0.1749  1.7546
 4648SOL     OW25402   0.126   3.907   9.852 -0.1459  0.1670  0.2297
 4648SOL    HW125403   0.087   3.827   9.887 -1.2099  0.0755 -1.1608
 4648SOL    HW225404   0.218   3.883   9.846  0.1370  1.4553 -0.3887
 4649SOL     OW25405   3.704   2.319   7.855  0.2708 -0.7021 -0.0272
 4649SOL    HW125406   3.794   2.318   7.820  1.1738  1.1856  2.2309
 4649SOL    HW225407   3.681   2.412   7.846 -1.7727 -1.0661  1.5600
 4650SOL     OW25408   2.846   2.823   5.880 -0.3220  0.0354  0.3522
 4650SOL    HW125409   2.757   2.800   5.906 -0.4886 -0.8598 -0.9975
 4650SOL    HW225410   2.835   2.917   5.868  0.2933 -0.1939 -1.9112
 4651SOL     OW25411   3.711   4.245   3.592  0.2326 -0.3332 -0.0151
 4651SOL    HW125412   3.618   4.257   3.608 -0.1537 -1.8167 -1.1618
 4651SOL    HW225413   3.751   4.331   3.602 -1.1010  0.3434 -0.6158
 4652SOL     OW25414   3.751   0.983  15.715 -0.0779  0.0973 -0.1889
 4652SOL    HW125415   3.817   0.921  15.747 -0.3931  0.9001  1.9749
 4652SOL    HW225416   3.713   0.931  15.644  1.6680 -0.7276 -0.5159
 4653SOL     OW25417   0.237   3.214   8.213 -0.1887 -0.5643  0.1327
 4653SOL    HW125418   0.319   3.255   8.186 -0.4651  0.6846  1.2001
 4653SOL    HW225419   0.175   3.287   8.220  1.6780  1.0658 -0.3727
 4654SOL     OW25420   1.805   0.831   2.046  0.2790  0.1255  0.1691
 4654SOL    HW125421   1.847   0.838   2.131  0.8471  2.4643 -0.3067
 4654SOL    HW225422   1.775   0.919   2.024 -2.5398 -1.2356 -1.4577
 4655SOL     OW25423   2.121   3.725   5.266 -0.5270 -0.0288  0.4884
 4655SOL    HW125424   2.095   3.750   5.355 -2.5418  0.0143 -0.1041
 4655SOL    HW225425   2.212   3.704   5.287 -0.6594 -1.0789  0.0225
 4656SOL     OW25426   1.470   1.859   2.182  0.7831  0.2704  0.1004
 4656SOL    HW125427   1.548   1.915   2.184  1.9391 -1.3796  0.8466
 4656SOL    HW225428   1.513   1.776   2.203 -1.1463 -0.9641 -0.9663
 4657SOL     OW25429   4.514   3.801   7.848  0.0743  0.3006  0.1760
 4657SOL    HW125430   4.465   3.801   7.930  2.5491  0.0290  1.6675
 4657SOL    HW225431   4.494   3.887   7.810  0.0432  0.0484 -0.3689
 4658SOL     OW25432   1.265   1.626   3.979 -0.5574  0.0651 -0.1735
 4658SOL    HW125433   1.334   1.559   3.980 -0.8704 -0.2948 -2.0380
 4658SOL    HW225434   1.256   1.659   4.068  1.7337  0.9065 -0.2324
 4659SOL     OW25435   4.572   0.118   6.083 -0.0854 -0.1201  0.0555
 4659SOL    HW125436   4.499   0.174   6.059  1.3011  1.5830 -0.1540
 4659SOL    HW225437   4.606   0.087   5.998 -1.3609 -1.6653  0.1092
 4660SOL     OW25438   4.328   1.119  13.137  0.3050 -0.2500 -0.4588
 4660SOL    HW125439   4.342   1.213  13.123 -1.6389  0.3733  1.6777
 4660SOL    HW225440   4.348   1.082  13.052  0.0007 -2.1173  0.2745
 4661SOL     OW25441   1.622   4.259   5.569 -0.2190 -0.5513 -0.1629
 4661SOL    HW125442   1.676   4.270   5.648 -1.1711 -0.6698  0.5082
 4661SOL    HW225443   1.562   4.330   5.591 -0.1320 -0.3009 -0.7365
 4662SOL     OW25444   2.366   3.938   2.014  0.2213  0.9485  0.3268
 4662SOL    HW125445   2.350   3.995   1.938 -0.6717  0.3490  0.0649
 4662SOL    HW225446   2.460   3.929   2.004 -0.0860 -0.8476 -0.9578
 4663SOL     OW25447   4.217   3.614   5.352 -0.3508 -0.6709  0.2526
 4663SOL    HW125448   4.204   3.613   5.257 -2.2913 -0.3132  0.4984
 4663SOL    HW225449   4.298   3.663   5.357 -0.4281 -0.6551  1.3279
 4664SOL     OW25450   0.210   4.659  10.687  0.1392 -0.1640 -0.6577
 4664SOL    HW125451   0.183   0.012  10.632  0.3396  0.8923  0.6460
 4664SOL    HW225452   0.301   4.656  10.658 -0.0862 -2.3064 -1.1355
 4665SOL     OW25453   0.774   3.439   4.478  0.1097  0.4021 -0.4385
 4665SOL    HW125454   0.844   3.492   4.515 -1.5324  1.7298  0.7274
 4665SOL    HW225455   0.785   3.443   4.383 -0.5894  0.1962 -0.5246
 4666SOL     OW25456   2.169   1.916   9.054  0.1748 -0.3895 -0.3445
 4666SOL    HW125457   2.184   1.998   9.008 -1.4147  0.4173  0.5614
 4666SOL    HW225458   2.146   1.849   8.989 -0.5999 -0.5070  0.0445
 4667SOL     OW25459   2.129   0.442   7.684  0.1809  0.1305  0.0548
 4667SOL    HW125460   2.201   0.482   7.635  1.1903  2.7604  3.6355
 4667SOL    HW225461   2.050   0.482   7.647  0.1656 -1.9274 -2.1494
 4668SOL     OW25462   3.492   3.729   7.090  0.3391  0.1319  0.2277
 4668SOL    HW125463   3.570   3.753   7.041 -0.7910  2.8237 -0.2403
 4668SOL    HW225464   3.499   3.785   7.167 -0.3949  1.4437 -0.6633
 4669SOL     OW25465   3.690   3.608   8.998 -0.0787  0.4795 -0.2713
 4669SOL    HW125466   3.712   3.542   8.933  1.8291  1.1029 -0.2668
 4669SOL    HW225467   3.664   3.689   8.954  2.1428  0.9478 -0.7030
 4670SOL     OW25468   2.537   1.284  11.901 -0.0022  0.0337 -0.4850
 4670SOL    HW125469   2.602   1.320  11.840 -0.2035  0.2781 -0.5566
 4670SOL    HW225470   2.500   1.220  11.841 -0.9621 -0.9222  1.1258
 4671SOL     OW25471   3.945   0.841  10.334 -0.3210  0.3558 -0.1931
 4671SOL    HW125472   3.987   0.927  10.341  2.7623 -1.3075  1.8306
 4671SOL    HW225473   3.878   0.846  10.401 -0.1801 -1.7381  0.0986
 4672SOL     OW25474   0.080   4.466   6.179 -0.3502  0.2964 -0.1481
 4672SOL    HW125475   0.139   4.491   6.251  0.3642 -4.2995  0.8166
 4672SOL    HW225476   0.020   4.419   6.236 -1.0811  3.9449  2.1131
 4673SOL     OW25477   2.249   2.256  16.730 -0.2751 -0.6017  0.3821
 4673SOL    HW125478   2.336   2.216  16.728 -0.5594 -1.2617  1.3431
 4673SOL    HW225479   2.242   2.267  16.825 -0.7542 -1.6487  0.4760
 4674SOL     OW25480   4.689   1.135   2.203 -0.0798  0.2722 -0.3106
 4674SOL    HW125481   4.626   1.067   2.228  0.5674  0.2976  1.3507
 4674SOL    HW225482   4.684   1.139   2.107 -3.5419  1.3563 -0.0993
 4675SOL     OW25483   3.785   3.574   4.794 -0.0356  0.0012  0.2953
 4675SOL    HW125484   3.869   3.548   4.757  0.5961  4.4649 -1.3832
 4675SOL    HW225485   3.737   3.491   4.797 -0.7118  0.2941 -3.2671
 4676SOL     OW25486   0.604   0.430   1.558  0.4168 -0.1830  0.1292
 4676SOL    HW125487   0.576   0.341   1.580 -0.7973 -0.0089 -0.7264
 4676SOL    HW225488   0.637   0.425   1.468 -0.6890  0.7479 -0.3226
 4677SOL     OW25489   2.162   3.499  10.345  0.5302 -0.0552  0.4694
 4677SOL    HW125490   2.070   3.511  10.370  0.0980  2.8238 -2.5633
 4677SOL    HW225491   2.210   3.581  10.358 -1.7672  1.8022 -2.8955
 4678SOL     OW25492   2.903   1.717   9.084  0.0230 -0.0302  0.5667
 4678SOL    HW125493   2.890   1.664   9.005  2.8852 -0.1334  0.1684
 4678SOL    HW225494   2.835   1.685   9.143  1.8969 -2.3411  1.4545
 4679SOL     OW25495   0.697   2.656   6.961  0.7603  0.0708 -0.5704
 4679SOL    HW125496   0.649   2.722   7.011  0.4649  0.7660 -1.7550
 4679SOL    HW225497   0.746   2.610   7.029  0.0237  0.6160  0.3354
 4680SOL     OW25498   4.229   2.434   9.217  0.1945 -0.0485  0.3638
 4680SOL    HW125499   4.253   2.434   9.124 -0.2369 -2.8003  0.2696
 4680SOL    HW225500   4.134   2.441   9.210  0.3064  0.4668 -0.6533
 4681SOL     OW25501   2.810   4.499  10.341 -0.2025 -0.0525 -0.0868
 4681SOL    HW125502   2.886   4.536  10.387  1.0472 -1.7118 -0.8210
 4681SOL    HW225503   2.828   4.508  10.248  2.4027  0.1122  0.4403
 4682SOL     OW25504   0.742   3.337  12.363 -0.4713 -0.0089 -0.0748
 4682SOL    HW125505   0.819   3.307  12.314  0.2117  0.3473  0.7810
 4682SOL    HW225506   0.712   3.256  12.406  0.2271  0.4185  1.2028
 4683SOL     OW25507   2.385   1.455   4.248  0.3034  0.2400 -0.0315
 4683SOL    HW125508   2.481   1.455   4.247  0.3003  2.3380  0.5576
 4683SOL    HW225509   2.355   1.518   4.314 -3.3666 -1.1815 -0.3204
 4684SOL     OW25510   3.542   3.714   0.936 -0.1672 -0.3588  0.3127
 4684SOL    HW125511   3.512   3.637   0.985  2.1927 -0.4494  1.5954
 4684SOL    HW225512   3.481   3.779   0.970 -0.8328 -1.3147  0.9558
 4685SOL     OW25513   3.281   1.682   7.158 -0.1348  0.1303  0.2005
 4685SOL    HW125514   3.296   1.725   7.242 -0.0685 -2.0465  1.2970
 4685SOL    HW225515   3.358   1.627   7.142  0.2762  0.7965 -0.1250
 4686SOL     OW25516   4.542   1.449  10.544 -0.0188 -0.4565 -0.3796
 4686SOL    HW125517   4.447   1.445  10.552  0.1328 -1.2513  1.1419
 4686SOL    HW225518   4.553   1.543  10.552  0.9251 -0.7290  1.6191
 4687SOL     OW25519   2.444   0.802   9.603  0.2838 -0.3443  0.7786
 4687SOL    HW125520   2.477   0.798   9.693  0.6970 -0.6169  0.6156
 4687SOL    HW225521   2.351   0.815   9.622 -0.3773 -0.9402 -2.0123
 4688SOL     OW25522   3.463   4.464   9.909  0.4007 -0.5779 -0.5522
 4688SOL    HW125523   3.547   4.506   9.926 -0.8839  1.5079  0.6004
 4688SOL    HW225524   3.477   4.376   9.944  0.8529  0.3084  1.5287
 4689SOL     OW25525   3.747   3.604   3.032  0.3420  0.5549 -0.3087
 4689SOL    HW125526   3.792   3.683   3.061  0.0020  1.0997 -1.2784
 4689SOL    HW225527   3.705   3.629   2.949 -2.3503  0.2114  0.9539
 4690SOL     OW25528   2.747   3.984   3.319 -0.2288 -0.2713  0.3065
 4690SOL    HW125529   2.690   3.942   3.255 -1.4544  0.4560  0.9100
 4690SOL    HW225530   2.688   4.052   3.351  0.3763 -0.4096  1.7105
 4691SOL     OW25531   3.279   0.309  16.773 -0.3101  0.0870  0.0568
 4691SOL    HW125532   3.224   0.328  16.849  0.0385  0.2319  0.2716
 4691SOL    HW225533   3.240   0.370  16.710 -0.8749 -0.0263  0.2948
 4692SOL     OW25534   4.434   1.687   9.207  0.2475 -0.1004  0.5240
 4692SOL    HW125535   4.460   1.600   9.237 -1.2648 -0.8317 -0.2741
 4692SOL    HW225536   4.491   1.699   9.132 -0.5329 -2.6321 -0.4577
 4693SOL     OW25537   1.614   1.930   1.299  0.3013 -0.2981  0.0559
 4693SOL    HW125538   1.698   1.897   1.267  0.3200 -0.4525  0.2700
 4693SOL    HW225539   1.630   2.024   1.289 -2.0271 -0.0072 -0.8683
 4694SOL     OW25540   4.113   1.602   4.028 -0.0180  0.0990  0.4195
 4694SOL    HW125541   4.102   1.586   4.122 -1.1758  2.1709  0.6363
 4694SOL    HW225542   4.097   1.510   4.006  1.1762 -0.1204  0.4571
 4695SOL     OW25543   1.727   0.309   3.068  0.2450 -0.0220  0.2988
 4695SOL    HW125544   1.754   0.222   3.039  0.0806 -0.1628  0.5697
 4695SOL    HW225545   1.783   0.366   3.016 -1.1237  1.6032  0.6239
 4696SOL     OW25546   1.452   2.205  16.563 -0.0516  0.5568 -0.1170
 4696SOL    HW125547   1.446   2.283  16.507 -1.8836 -0.9685 -2.0256
 4696SOL    HW225548   1.468   2.138  16.497  2.2984  0.9251  0.0838
 4697SOL     OW25549   1.984   2.801  14.577  0.2133  0.4181  0.2092
 4697SOL    HW125550   1.962   2.883  14.621  0.0097  0.5169 -0.0718
 4697SOL    HW225551   1.896   2.770  14.553  0.0364 -0.4083  1.9775
 4698SOL     OW25552   3.953   3.725   9.501 -0.1195  0.4564 -0.1678
 4698SOL    HW125553   3.990   3.745   9.587  2.8471 -1.8497 -0.9285
 4698SOL    HW225554   3.882   3.667   9.529 -1.9796  1.5414 -2.6167
 4699SOL     OW25555   3.139   2.535   2.436  0.0399 -0.3136  0.2390
 4699SOL    HW125556   3.112   2.443   2.429  2.2379 -1.0044  0.7832
 4699SOL    HW225557   3.220   2.538   2.385  0.4725  1.0258  1.0103
 4700SOL     OW25558   2.013   4.063   1.266 -0.5754 -0.1306 -0.1273
 4700SOL    HW125559   2.101   4.100   1.265 -0.7646  0.2906 -0.5639
 4700SOL    HW225560   1.966   4.142   1.293 -0.3368 -1.0119  2.9455
 4701SOL     OW25561   0.806   2.316   6.188  0.1216  0.1759  0.2105
 4701SOL    HW125562   0.867   2.338   6.117 -2.1631 -1.1839 -2.1595
 4701SOL    HW225563   0.801   2.225   6.156 -2.2597 -0.4027  2.2764
 4702SOL     OW25564   0.892   0.035   8.662 -0.3112  0.4536  0.2623
 4702SOL    HW125565   0.853   4.711   8.737  1.0581  2.5135  2.2225
 4702SOL    HW225566   0.820   0.036   8.599  0.2875  0.7258 -0.4151
 4703SOL     OW25567   1.133   2.688  14.958  0.3210  0.1453 -0.0207
 4703SOL    HW125568   1.109   2.679  15.050 -0.4578  0.1005 -0.2242
 4703SOL    HW225569   1.223   2.659  14.974  0.7739  1.6772  0.2908
 4704SOL     OW25570   2.113   2.417   4.598 -0.2189  0.4458 -0.3331
 4704SOL    HW125571   2.174   2.478   4.639 -0.6945  1.3495 -0.9549
 4704SOL    HW225572   2.055   2.380   4.665  0.0684  2.9990  1.3150
 4705SOL     OW25573   1.342   3.721  10.043  0.9059 -0.0182  0.0488
 4705SOL    HW125574   1.418   3.765  10.079  0.2643  0.6879  0.5458
 4705SOL    HW225575   1.380   3.637  10.020 -1.0489 -0.7962 -0.3998
 4706SOL     OW25576   3.953   3.870   4.011 -0.0236  0.1495 -0.1500
 4706SOL    HW125577   4.006   3.935   3.964  0.6981 -0.9600 -0.8774
 4706SOL    HW225578   3.869   3.863   3.966 -1.3667 -1.5874  2.7230
 4707SOL     OW25579   2.064   0.596   2.678  0.0479  1.0077  0.0263
 4707SOL    HW125580   2.078   0.681   2.637 -0.7016  0.1433 -2.0205
 4707SOL    HW225581   2.121   0.612   2.753 -2.4181  2.7592  1.5380
 4708SOL     OW25582   4.035   1.577   6.307  0.5003 -0.3451  0.0990
 4708SOL    HW125583   3.958   1.619   6.345  0.9194  0.1900  0.3389
 4708SOL    HW225584   4.088   1.553   6.383 -2.1322  1.5579  2.5200
 4709SOL     OW25585   1.063   2.444  11.870 -0.3762 -0.2270 -0.4354
 4709SOL    HW125586   1.152   2.414  11.850 -0.2791 -0.6256  0.6297
 4709SOL    HW225587   1.036   2.368  11.922  0.2110 -1.0523 -1.3333
 4710SOL     OW25588   0.828   1.703   1.094  0.2852 -0.0026 -0.3896
 4710SOL    HW125589   0.889   1.770   1.127 -2.6273  2.3727  0.1536
 4710SOL    HW225590   0.747   1.735   1.135  0.6784 -2.0986  1.9962
 4711SOL     OW25591   1.876   0.787   7.415  0.6564 -0.6203 -0.2295
 4711SOL    HW125592   1.952   0.812   7.468  0.4888  1.3945 -0.9440
 4711SOL    HW225593   1.834   0.873   7.404  1.9415  0.1299  0.7484
 4712SOL     OW25594   1.575   0.679  15.774  0.4314  0.3805 -0.0758
 4712SOL    HW125595   1.518   0.662  15.699  0.4468 -0.2044  0.0465
 4712SOL    HW225596   1.663   0.673  15.737 -0.4160 -0.2630 -1.9908
 4713SOL     OW25597   3.848   0.386   8.808  0.2264  0.2207  0.3267
 4713SOL    HW125598   3.898   0.412   8.731 -0.1376 -2.6761 -0.8750
 4713SOL    HW225599   3.910   0.371   8.879  0.3949  0.2666  0.1888
 4714SOL     OW25600   0.106   4.371   2.593  0.1614  0.5289  0.3584
 4714SOL    HW125601   0.098   4.289   2.642 -0.5534 -0.5190 -1.5409
 4714SOL    HW225602   0.145   4.431   2.657  3.4642  0.8857 -1.9730
 4715SOL     OW25603   4.027   3.157   3.047  1.0198 -0.3982  0.4272
 4715SOL    HW125604   4.022   3.160   2.951  1.9713 -0.4882  0.3768
 4715SOL    HW225605   4.093   3.225   3.049 -0.4794  1.0625  0.1592
 4716SOL     OW25606   2.394   2.715   1.380  0.3681 -0.0423 -0.5873
 4716SOL    HW125607   2.362   2.625   1.369 -0.0232  0.0127  0.0990
 4716SOL    HW225608   2.425   2.748   1.296 -1.7752  1.1715 -0.9090
 4717SOL     OW25609   0.824   0.292  17.209  0.1700  0.3050  0.6397
 4717SOL    HW125610   0.912   0.278  17.243  0.0872  2.0522  1.5353
 4717SOL    HW225611   0.784   0.346  17.277  1.2554  0.2603  1.3041
 4718SOL     OW25612   3.170   0.292  15.512  0.1670 -0.2910 -0.1414
 4718SOL    HW125613   3.252   0.247  15.492  0.4254 -1.3251  3.2890
 4718SOL    HW225614   3.188   0.385  15.528  0.5775 -0.6916  1.7195
 4719SOL     OW25615   3.387   0.093  11.109 -0.0938 -0.2516  0.2455
 4719SOL    HW125616   3.441   0.035  11.057  1.3230  0.7745  0.5878
 4719SOL    HW225617   3.351   0.035  11.176  2.3620 -1.4137  0.5254
 4720SOL     OW25618   2.092   2.165   0.921  0.7127  0.1901  0.3161
 4720SOL    HW125619   2.165   2.109   0.946 -0.1620 -0.2421  1.8988
 4720SOL    HW225620   2.107   2.177   0.828  0.4755 -0.4479  0.1967
 4721SOL     OW25621   1.888   0.289  12.903 -0.2920  0.5489  0.3011
 4721SOL    HW125622   1.944   0.260  12.975 -1.5581  0.3418  1.1799
 4721SOL    HW225623   1.842   0.208  12.885  1.3112  0.1478 -2.0562
 4722SOL     OW25624   1.696   2.234   8.205  0.1761 -0.0192 -0.0980
 4722SOL    HW125625   1.786   2.212   8.231  1.3301  0.6807 -3.4548
 4722SOL    HW225626   1.647   2.160   8.240 -0.9960  0.5327 -0.6032
 4723SOL     OW25627   0.089   2.335   4.424 -0.0179  0.2840  0.0231
 4723SOL    HW125628   0.086   2.261   4.484 -1.5639  0.0033 -0.3974
 4723SOL    HW225629   0.011   2.386   4.445  0.7690  2.2827 -1.7692
 4724SOL     OW25630   0.488   4.292   7.451 -0.1414  0.0760 -0.0208
 4724SOL    HW125631   0.549   4.347   7.403 -0.4557  0.4072 -0.0417
 4724SOL    HW225632   0.477   4.358   7.520 -0.1284 -0.6808  0.7096
 4725SOL     OW25633   4.461   3.238   7.191 -0.3979  0.0905  0.2551
 4725SOL    HW125634   4.533   3.259   7.132  0.3025  0.0911  1.1024
 4725SOL    HW225635   4.411   3.190   7.125  0.7138 -1.2384  0.3685
 4726SOL     OW25636   3.728   3.990  11.937 -0.2519  0.2469 -0.3886
 4726SOL    HW125637   3.718   3.984  12.032  0.9448 -1.2721 -0.3541
 4726SOL    HW225638   3.820   4.014  11.926 -0.2803  0.3180 -0.4734
 4727SOL     OW25639   2.102   3.139   0.804 -0.3352  0.3987 -0.2723
 4727SOL    HW125640   2.009   3.160   0.801 -0.2357  0.7472 -0.8606
 4727SOL    HW225641   2.160   3.183   0.742 -0.9712  1.8654  0.1863
 4728SOL     OW25642   0.517   1.379  11.174  0.1079  0.3326  0.4133
 4728SOL    HW125643   0.519   1.385  11.270  0.1080  1.1541  0.3591
 4728SOL    HW225644   0.454   1.446  11.149  0.9242  1.3371  1.0527
 4729SOL     OW25645   1.086   1.472  11.038  0.0428  0.1772 -0.1038
 4729SOL    HW125646   1.063   1.424  10.958 -2.2902 -1.4115  1.5487
 4729SOL    HW225647   1.179   1.488  11.022 -0.3482  2.2435 -0.3309
 4730SOL     OW25648   1.571   0.366   3.554 -0.0215  0.0858 -0.7390
 4730SOL    HW125649   1.588   0.459   3.569 -0.5352 -0.4647  3.3436
 4730SOL    HW225650   1.558   0.366   3.460  2.1362  2.1541 -1.0338
 4731SOL     OW25651   3.677   1.491   9.627 -0.8306 -0.3124 -0.4113
 4731SOL    HW125652   3.586   1.465   9.642 -1.4284  0.5589 -2.3869
 4731SOL    HW225653   3.681   1.565   9.688 -3.7505 -0.9080  0.5017
 4732SOL     OW25654   2.241   2.143   3.352  0.0147 -0.0557 -0.1462
 4732SOL    HW125655   2.151   2.117   3.335 -0.0803  0.1550  0.0333
 4732SOL    HW225656   2.227   2.237   3.357 -0.5271 -0.2375  1.9142
 4733SOL     OW25657   2.394   0.958   6.915 -0.3826 -0.2475 -0.1552
 4733SOL    HW125658   2.330   1.028   6.903 -0.2934 -0.0632  0.4776
 4733SOL    HW225659   2.366   0.890   6.854 -1.4542  1.4140 -1.5324
 4734SOL     OW25660   3.124   0.394   6.338  0.1552 -0.5713  0.0495
 4734SOL    HW125661   3.179   0.457   6.292  0.7723 -0.3756  1.0409
 4734SOL    HW225662   3.071   0.361   6.266 -2.0116 -0.4167  1.5788
 4735SOL     OW25663   3.817   1.271   8.579 -0.0363 -0.3890  0.3469
 4735SOL    HW125664   3.729   1.261   8.615  0.3683 -1.2646  1.1059
 4735SOL    HW225665   3.847   1.359   8.600 -2.4425  0.5145 -0.0068
 4736SOL     OW25666   0.357   0.281  12.482 -0.6302 -0.4326  0.1329
 4736SOL    HW125667   0.336   0.279  12.576  0.4291  0.4438  0.3835
 4736SOL    HW225668   0.438   0.330  12.473 -0.1029 -1.3594 -0.1907
 4737SOL     OW25669   1.797   3.814   2.704 -0.2116  0.2152  0.9475
 4737SOL    HW125670   1.853   3.744   2.672 -0.5958  0.0495  0.6295
 4737SOL    HW225671   1.819   3.875   2.634  0.4796 -0.6707  0.3934
 4738SOL     OW25672   4.584   1.780  10.114  0.0754 -0.4071  0.6116
 4738SOL    HW125673   4.552   1.770  10.204  1.0495  2.2747  1.2669
 4738SOL    HW225674   4.615   1.691  10.095  2.3488  0.3423  0.7636
 4739SOL     OW25675   4.052   1.791   1.120 -0.0346  0.6004  0.2921
 4739SOL    HW125676   3.971   1.822   1.161 -0.5109  2.2343 -1.9060
 4739SOL    HW225677   4.116   1.831   1.180  0.4738  1.7008 -0.9862
 4740SOL     OW25678   4.710   3.192  11.624  0.3783  0.2340  0.6270
 4740SOL    HW125679   0.051   3.263  11.609  0.5367 -0.4195 -1.7984
 4740SOL    HW225680   0.031   3.123  11.572 -1.4144 -0.5552  0.2311
 4741SOL     OW25681   0.829   2.923   7.108  0.6569  0.0436 -0.3408
 4741SOL    HW125682   0.849   2.942   7.017 -4.5504 -1.6946 -1.8151
 4741SOL    HW225683   0.908   2.954   7.153  0.9812  0.3468 -1.1152
 4742SOL     OW25684   1.873   1.390   6.286  0.1718  0.1540 -0.0057
 4742SOL    HW125685   1.934   1.324   6.255  1.2677  0.2468  1.9644
 4742SOL    HW225686   1.923   1.419   6.362  0.3978  0.6874 -0.3626
 4743SOL     OW25687   3.445   3.884  10.621 -0.6542  0.1265 -0.5768
 4743SOL    HW125688   3.352   3.881  10.642 -0.4831  1.8178  0.4635
 4743SOL    HW225689   3.479   3.921  10.703 -1.5708 -0.2510 -0.0240
 4744SOL     OW25690   0.814   0.095   1.035 -0.3518  0.1111  0.3778
 4744SOL    HW125691   0.756   0.159   0.992 -1.2616 -0.8260  0.2018
 4744SOL    HW225692   0.825   0.143   1.117 -1.1376  1.9467 -0.5779
 4745SOL     OW25693   1.696   4.702   9.394  0.1732 -0.0435  0.0486
 4745SOL    HW125694   1.726   4.657   9.473 -0.4016  1.4263  1.0896
 4745SOL    HW225695   1.666   4.625   9.345  1.7118 -0.1551 -0.7467
 4746SOL     OW25696   0.015   2.411   8.500 -0.7584 -0.6552  0.0436
 4746SOL    HW125697   4.657   2.463   8.511 -0.2253  0.0811  0.4541
 4746SOL    HW225698   0.080   2.481   8.497 -1.9008  0.5055  2.1784
 4747SOL     OW25699   1.841   1.996   7.901  0.2823 -0.5294 -0.4982
 4747SOL    HW125700   1.845   1.946   7.820  1.9637  1.2957 -1.5431
 4747SOL    HW225701   1.883   2.080   7.882  0.1617 -0.1017  1.0540
 4748SOL     OW25702   4.240   2.246  11.798 -0.3866  0.5715  0.8218
 4748SOL    HW125703   4.321   2.201  11.819 -0.7002 -1.1633 -1.6741
 4748SOL    HW225704   4.200   2.182  11.738  0.6753 -0.7446  1.5312
 4749SOL     OW25705   1.975   1.866  17.660 -0.3109 -0.3320 -0.3545
 4749SOL    HW125706   1.918   1.892  17.588 -2.6422 -1.8541  0.9518
 4749SOL    HW225707   1.955   1.773  17.648 -0.1746 -0.6114  1.7134
 4750SOL     OW25708   1.313   4.575  16.768 -0.2818  0.3733  0.0240
 4750SOL    HW125709   1.219   4.594  16.766 -0.7962 -1.7867  3.1715
 4750SOL    HW225710   1.318   4.479  16.763  1.0259  0.5006 -0.9298
 4751SOL     OW25711   3.753   1.951   3.635  0.1506 -0.1128  0.4651
 4751SOL    HW125712   3.817   2.021   3.616 -1.9126  1.8716  0.8193
 4751SOL    HW225713   3.808   1.902   3.696 -0.7905 -0.0175  1.3769
 4752SOL     OW25714   3.825   1.229   3.801  0.3922  0.2120  0.7635
 4752SOL    HW125715   3.900   1.275   3.840 -0.3009  1.5551  0.5110
 4752SOL    HW225716   3.766   1.257   3.871 -1.1522 -1.0306 -0.0376
 4753SOL     OW25717   0.763   1.475  11.501  0.2292  0.4617 -0.2719
 4753SOL    HW125718   0.686   1.490  11.446 -1.5543  0.5273  2.2369
 4753SOL    HW225719   0.795   1.399  11.453  1.4404 -0.6024  2.1988
 4754SOL     OW25720   1.909   0.195   6.969 -0.1419 -0.1534  0.1317
 4754SOL    HW125721   1.986   0.237   7.009 -0.2768 -0.2473  0.4822
 4754SOL    HW225722   1.836   0.226   7.022 -1.2315 -1.3927 -0.6381
 4755SOL     OW25723   0.213   2.298   9.678 -0.3371 -0.3896 -0.6161
 4755SOL    HW125724   0.226   2.233   9.747  0.4868  2.2459  1.6684
 4755SOL    HW225725   0.118   2.302   9.667 -0.4311 -0.0515  0.3472
 4756SOL     OW25726   0.454   1.211   1.732 -0.2248 -0.0348  0.4152
 4756SOL    HW125727   0.430   1.303   1.726  0.9265  0.1539 -1.4784
 4756SOL    HW225728   0.545   1.217   1.762 -0.0351 -2.0383  0.2893
 4757SOL     OW25729   2.548   0.521   5.230 -0.0865  0.4452 -0.1618
 4757SOL    HW125730   2.619   0.462   5.255 -1.7866 -1.0147  1.2705
 4757SOL    HW225731   2.538   0.579   5.306 -0.0394  1.7388 -1.1453
 4758SOL     OW25732   1.696   2.705   0.588  0.5425 -0.2900 -0.3362
 4758SOL    HW125733   1.685   2.732   0.497 -0.2138  1.6438  0.3110
 4758SOL    HW225734   1.737   2.619   0.581 -0.4407 -0.8465  0.7660
 4759SOL     OW25735   1.632   0.381   9.890 -0.0856  0.4123  0.2007
 4759SOL    HW125736   1.712   0.407   9.844  0.0011  0.8425  0.5959
 4759SOL    HW225737   1.597   0.320   9.825  0.5229 -0.0326  0.2924
 4760SOL     OW25738   2.012   4.222  11.738 -0.2725  0.1122  0.0628
 4760SOL    HW125739   1.987   4.258  11.653  1.0683  1.9249  0.4301
 4760SOL    HW225740   1.986   4.285  11.805  3.3245  0.8656  0.7522
 4761SOL     OW25741   0.934   1.054   2.567 -0.1630 -0.4601 -0.0941
 4761SOL    HW125742   0.901   1.095   2.648 -1.4400 -4.8890  1.5941
 4761SOL    HW225743   1.023   1.087   2.558 -0.3411 -0.3031 -1.3297
 4762SOL     OW25744   3.047   3.461   6.874  0.5737 -0.2355 -0.4227
 4762SOL    HW125745   2.997   3.542   6.873  1.5036  0.3617  1.1989
 4762SOL    HW225746   3.045   3.444   6.968 -2.6326 -1.3820 -0.6971
 4763SOL     OW25747   2.524   0.005   7.291 -0.3082 -0.9290 -0.1044
 4763SOL    HW125748   2.495   4.648   7.243  0.9072 -2.2576  1.3285
 4763SOL    HW225749   2.448   0.038   7.338  0.4264  0.4397  0.1335
 4764SOL     OW25750   3.012   2.758   9.678  0.2793 -0.1001  0.2826
 4764SOL    HW125751   3.009   2.842   9.632  1.6439  0.4951  1.2864
 4764SOL    HW225752   3.037   2.701   9.605  3.8078 -0.4858  1.7684
 4765SOL     OW25753   1.563   3.298   0.172 -0.6772 -0.7010  0.6654
 4765SOL    HW125754   1.619   3.367   0.136  1.2451 -2.7030 -0.1772
 4765SOL    HW225755   1.518   3.258   0.098 -1.1349  2.3520 -0.6676
 4766SOL     OW25756   2.701   2.610  14.920  0.0287 -0.3528  0.0561
 4766SOL    HW125757   2.745   2.528  14.896  0.4593  0.3803 -1.6840
 4766SOL    HW225758   2.737   2.614  15.008  0.8223  0.6070 -0.3063
 4767SOL     OW25759   1.780   3.441  17.100 -0.2312 -0.1633 -0.0554
 4767SOL    HW125760   1.874   3.443  17.117 -0.0283  2.1496 -1.4718
 4767SOL    HW225761   1.752   3.490  17.178  0.3106  2.3627 -1.4639
 4768SOL     OW25762   2.314   4.134   0.735  0.2371  0.3531 -0.4293
 4768SOL    HW125763   2.234   4.084   0.751  0.8439 -0.1756  1.0128
 4768SOL    HW225764   2.380   4.067   0.716  0.6109  1.0611 -1.5886
 4769SOL     OW25765   1.161   1.018   5.258  0.1498 -0.2042  0.7193
 4769SOL    HW125766   1.146   1.101   5.304  0.4447 -1.6727  3.4903
 4769SOL    HW225767   1.254   1.017   5.235 -0.2951  0.1838 -1.0610
 4770SOL     OW25768   1.083   3.075   2.201  0.2877  0.0413 -0.2045
 4770SOL    HW125769   1.096   3.031   2.117  2.7291 -0.4052  0.4161
 4770SOL    HW225770   1.167   3.120   2.203 -2.0199  4.4984 -2.0416
 4771SOL     OW25771   1.740   4.248   0.939 -0.1463 -0.2266  0.1789
 4771SOL    HW125772   1.671   4.189   0.908 -1.0816  0.8824  0.1705
 4771SOL    HW225773   1.811   4.235   0.877  0.4703  0.5655  0.7196
 4772SOL     OW25774   2.975   1.569   5.573  0.6225 -0.5325 -0.0100
 4772SOL    HW125775   3.051   1.577   5.631  0.8633 -3.7602  0.0944
 4772SOL    HW225776   2.909   1.614   5.626  2.3674 -0.9202  2.5220
 4773SOL     OW25777   2.673   2.616   5.087  0.5340  0.0809 -0.1100
 4773SOL    HW125778   2.656   2.707   5.067 -2.3647 -0.5037 -0.3495
 4773SOL    HW225779   2.763   2.632   5.115  1.1031 -1.5082 -0.9758
 4774SOL     OW25780   0.615   0.599   4.578  0.2659 -0.4520  0.0504
 4774SOL    HW125781   0.566   0.648   4.644  1.1982 -0.2100  0.5645
 4774SOL    HW225782   0.693   0.654   4.569  0.0160 -0.1686 -0.4267
 4775SOL     OW25783   3.938   4.451   6.796  0.8184 -1.0525  0.1067
 4775SOL    HW125784   3.874   4.423   6.730 -0.6183  0.1394  0.9890
 4775SOL    HW225785   3.895   4.532   6.824  0.7714 -1.6412  1.7727
 4776SOL     OW25786   4.042   1.899   9.176 -0.2796 -0.5963  0.4300
 4776SOL    HW125787   4.054   1.855   9.092 -1.4102  0.6176 -0.3748
 4776SOL    HW225788   4.119   1.864   9.221  0.4947  0.2791 -0.2154
 4777SOL     OW25789   0.167   3.048   7.988  0.4235  0.5431  0.2692
 4777SOL    HW125790   0.210   3.062   8.072  0.0447 -1.0359  0.7304
 4777SOL    HW225791   0.196   3.123   7.937  1.7073  1.2933  2.0803
 4778SOL     OW25792   0.939   1.525   7.365  0.2382  0.3918  0.4045
 4778SOL    HW125793   0.890   1.574   7.298  1.7981 -0.1727 -1.1524
 4778SOL    HW225794   0.984   1.455   7.317 -2.2985 -0.0772 -1.3668
 4779SOL     OW25795   1.969   4.006   3.878 -0.1405  0.0031  0.1076
 4779SOL    HW125796   1.977   4.043   3.790 -0.3392 -1.5754 -0.5772
 4779SOL    HW225797   1.922   4.070   3.932 -0.7672 -0.0336 -0.3957
 4780SOL     OW25798   2.386   3.380   8.938 -0.0696  0.2556 -0.6640
 4780SOL    HW125799   2.439   3.428   9.002 -0.9392 -0.7949  0.8692
 4780SOL    HW225800   2.350   3.320   9.004  1.5426  0.8079  0.7321
 4781SOL     OW25801   4.424   2.171   3.793  0.0974  0.5807  0.4589
 4781SOL    HW125802   4.414   2.225   3.871 -0.5125 -2.9389  2.8170
 4781SOL    HW225803   4.517   2.149   3.790  0.3005  1.2473  2.0270
 4782SOL     OW25804   2.077   0.879  10.320 -0.2781  0.2265  0.0031
 4782SOL    HW125805   2.107   0.891  10.230  1.3907  1.1905  0.6868
 4782SOL    HW225806   2.069   0.783  10.326  0.0413  0.3333  2.3371
 4783SOL     OW25807   4.047   0.578  15.416 -0.0062 -0.3802 -0.2432
 4783SOL    HW125808   4.020   0.656  15.367  0.9621 -0.3560 -0.7532
 4783SOL    HW225809   3.981   0.514  15.391 -1.2804  0.8107  0.0964
 4784SOL     OW25810   4.608   0.520   7.871 -0.4018 -0.2725 -0.0741
 4784SOL    HW125811   4.620   0.434   7.910  0.5715 -0.7845 -1.5111
 4784SOL    HW225812   4.631   0.576   7.946  2.3978 -1.7007  0.0921
 4785SOL     OW25813   4.700   2.891  12.321 -0.2081  0.0351 -0.1103
 4785SOL    HW125814   4.643   2.847  12.258 -0.7011 -1.6864  1.5163
 4785SOL    HW225815   0.026   2.819  12.363 -1.2430 -0.1753  0.6916
 4786SOL     OW25816   0.867   3.892   8.428 -0.0878  0.4511  1.2923
 4786SOL    HW125817   0.789   3.849   8.462  0.2335  0.1397  1.6338
 4786SOL    HW225818   0.884   3.957   8.496  1.3346  1.3009  0.1050
 4787SOL     OW25819   2.588   2.028   2.262  0.6614 -0.2230  0.1084
 4787SOL    HW125820   2.670   2.020   2.311  0.8436  0.2812 -0.1141
 4787SOL    HW225821   2.624   2.038   2.174  1.4806 -0.6292  0.3951
 4788SOL     OW25822   4.307   0.123   8.205 -0.3248  0.6944 -0.5024
 4788SOL    HW125823   4.367   0.123   8.280  1.0799 -0.3450 -1.6229
 4788SOL    HW225824   4.337   0.202   8.162 -2.0096  0.2340 -2.5282
 4789SOL     OW25825   0.757   4.257   5.796  0.2470 -0.0279 -0.1981
 4789SOL    HW125826   0.806   4.205   5.732  2.4452  0.8095  0.8099
 4789SOL    HW225827   0.675   4.260   5.748  0.3797 -0.9636 -0.4957
 4790SOL     OW25828   1.093   0.713   6.114 -0.2395 -0.1667  0.2917
 4790SOL    HW125829   1.137   0.643   6.065  0.8925  1.4512 -1.0083
 4790SOL    HW225830   1.130   0.726   6.201 -0.1489  2.5272 -0.1463
 4791SOL     OW25831   2.947   3.844   4.357 -0.1999  0.2517 -0.5867
 4791SOL    HW125832   3.028   3.803   4.326 -0.6522 -1.7163  0.8257
 4791SOL    HW225833   2.980   3.912   4.416 -2.9257 -0.2968  1.5794
 4792SOL     OW25834   1.188   4.374  15.879 -0.4651  0.2522  1.1235
 4792SOL    HW125835   1.093   4.379  15.887 -0.1599  4.8315  1.7062
 4792SOL    HW225836   1.213   4.466  15.872  1.9052 -0.5780 -1.3794
 4793SOL     OW25837   4.319   3.392   0.528  0.0930  0.3563 -0.9455
 4793SOL    HW125838   4.384   3.424   0.591 -0.1490 -2.2414  0.6280
 4793SOL    HW225839   4.266   3.471   0.513 -1.7853 -0.7742 -0.2688
 4794SOL     OW25840   2.786   2.332  16.069 -0.5155  0.0805 -0.4005
 4794SOL    HW125841   2.735   2.412  16.055  0.8535  1.3442  1.7378
 4794SOL    HW225842   2.786   2.290  15.983 -1.7032 -0.5507 -0.0831
 4795SOL     OW25843   4.185   2.661   5.079 -0.0895  0.2169  0.2639
 4795SOL    HW125844   4.093   2.668   5.106 -0.0982  2.0409 -0.2907
 4795SOL    HW225845   4.176   2.579   5.029 -1.4832  0.3054  0.3553
 4796SOL     OW25846   0.145   2.115   2.963  0.1037  0.5606 -0.1618
 4796SOL    HW125847   0.053   2.142   2.971  0.4672  1.3938  1.2365
 4796SOL    HW225848   0.135   2.040   2.904  0.6393  1.5541 -1.4940
 4797SOL     OW25849   1.318   0.749   4.835 -0.1794  0.3512  0.7332
 4797SOL    HW125850   1.297   0.796   4.754 -0.3457  0.3955  0.8012
 4797SOL    HW225851   1.246   0.778   4.891  0.6916  3.0855  0.4326
 4798SOL     OW25852   4.274   0.479   2.086 -0.5039  0.0679  0.3356
 4798SOL    HW125853   4.278   0.527   2.004  1.7254 -0.2193  0.2853
 4798SOL    HW225854   4.239   0.398   2.049  0.1719 -0.0635 -0.0045
 4799SOL     OW25855   1.083   1.180   0.951 -0.2419 -0.3383 -0.1272
 4799SOL    HW125856   1.018   1.110   0.943 -0.6895  0.5082 -3.5962
 4799SOL    HW225857   1.164   1.130   0.942  0.9276  1.8384 -1.5408
 4800SOL     OW25858   3.269   3.279   7.150  0.1831  0.2271 -0.1561
 4800SOL    HW125859   3.183   3.320   7.155 -0.4529 -0.9896 -0.9535
 4800SOL    HW225860   3.310   3.282   7.236 -0.6455 -1.2274  0.2933
 4801SOL     OW25861   2.139   2.436  15.229  0.2150  0.1857 -0.1770
 4801SOL    HW125862   2.159   2.346  15.255 -0.7848  0.1021  0.3285
 4801SOL    HW225863   2.154   2.437  15.135  2.1664 -0.3489  0.1349
 4802SOL     OW25864   0.816   4.422   1.626  0.6805  0.7287 -0.2176
 4802SOL    HW125865   0.820   4.471   1.543 -0.0941 -0.0637 -0.7267
 4802SOL    HW225866   0.759   4.352   1.595 -1.5124  1.5284  2.0315
 4803SOL     OW25867   0.099   0.452   8.402  0.8015  0.1936  0.2650
 4803SOL    HW125868   0.016   0.499   8.414  0.1596 -0.0458 -3.2070
 4803SOL    HW225869   0.141   0.518   8.347  0.0373  2.2003  2.0742
 4804SOL     OW25870   3.330   0.887   8.565 -0.0495  0.2653  0.0150
 4804SOL    HW125871   3.394   0.817   8.579  0.4261  0.4250 -1.4117
 4804SOL    HW225872   3.296   0.909   8.652  0.7330  0.9266  0.1585
 4805SOL     OW25873   3.929   3.817   4.831 -0.0861 -0.8356  0.5105
 4805SOL    HW125874   4.002   3.758   4.813  0.0100 -0.9263  1.1999
 4805SOL    HW225875   3.848   3.766   4.825 -0.9797  0.5876  0.4880
 4806SOL     OW25876   0.501   1.938   0.395 -0.7440  0.0259  0.6289
 4806SOL    HW125877   0.557   1.866   0.366 -0.9827 -0.2643  0.8800
 4806SOL    HW225878   0.565   1.998   0.433 -2.5553  2.5265 -0.2567
 4807SOL     OW25879   2.117   2.348   7.420  0.2717 -0.7730  0.0220
 4807SOL    HW125880   2.197   2.332   7.370 -0.1561  0.3904 -1.0574
 4807SOL    HW225881   2.054   2.326   7.351  1.2789 -0.6181 -0.9472
 4808SOL     OW25882   0.203   3.215   7.066  0.8225  0.6687  0.0339
 4808SOL    HW125883   0.114   3.246   7.050 -0.0162 -1.4011  0.6740
 4808SOL    HW225884   0.253   3.294   7.045  2.6787 -0.1119  1.5589
 4809SOL     OW25885   3.967   2.899   6.828 -0.0682 -0.1351  0.3092
 4809SOL    HW125886   4.058   2.913   6.855 -0.7071  3.5989  0.4835
 4809SOL    HW225887   3.963   2.973   6.768 -1.0524  0.4920  1.1517
 4810SOL     OW25888   1.828   3.539   4.275 -0.0127  0.0532 -0.2531
 4810SOL    HW125889   1.842   3.631   4.294  0.0258 -0.3057  1.4605
 4810SOL    HW225890   1.811   3.500   4.361 -0.2332 -0.6005 -0.5918
 4811SOL     OW25891   2.625   2.185  10.877 -0.6800  0.1520 -0.1318
 4811SOL    HW125892   2.552   2.142  10.833 -1.0964 -0.9258  1.6174
 4811SOL    HW225893   2.588   2.265  10.914 -1.1150 -1.9740  4.0153
 4812SOL     OW25894   0.341   0.640  16.463 -0.4725  0.2705 -0.2431
 4812SOL    HW125895   0.271   0.704  16.456 -2.1287 -1.6033 -0.7540
 4812SOL    HW225896   0.400   0.676  16.530 -1.8137  0.7091  0.6895
 4813SOL     OW25897   1.661   2.567  16.297 -0.6122  0.2018  0.0200
 4813SOL    HW125898   1.698   2.578  16.385 -0.1367  0.3349 -0.1950
 4813SOL    HW225899   1.624   2.654  16.282 -1.6880 -0.6552 -2.2507
 4814SOL     OW25900   3.741   0.971  12.925 -0.4784  0.5838 -0.1103
 4814SOL    HW125901   3.662   1.025  12.927 -1.8515 -1.4611  0.2044
 4814SOL    HW225902   3.763   0.961  13.018  2.3152 -3.0531 -1.1728
 4815SOL     OW25903   1.859   4.605  13.669  0.2371  0.1637 -0.1429
 4815SOL    HW125904   1.884   4.544  13.738 -2.8496  0.2577  1.0581
 4815SOL    HW225905   1.935   4.664  13.670 -0.7065  1.3579  0.9200
 4816SOL     OW25906   1.336   1.090   6.332  0.0861 -0.2591 -0.3799
 4816SOL    HW125907   1.286   1.067   6.254 -0.0598  0.7221 -0.5748
 4816SOL    HW225908   1.267   1.073   6.396  1.2827  0.2720  1.0505
 4817SOL     OW25909   3.715   1.174   1.054 -0.3778 -0.7752 -0.4341
 4817SOL    HW125910   3.779   1.143   1.117  1.0900  4.1314  0.4785
 4817SOL    HW225911   3.774   1.192   0.981 -0.0500 -0.4794 -0.0959
 4818SOL     OW25912   4.497   1.384   6.632  0.4236  0.6083  0.7451
 4818SOL    HW125913   4.450   1.447   6.687 -2.3968 -1.0295  0.2167
 4818SOL    HW225914   4.500   1.430   6.548  3.3815  0.4195  0.7421
 4819SOL     OW25915   0.857   2.410   9.811 -0.3657  0.5601 -0.0986
 4819SOL    HW125916   0.873   2.348   9.883 -2.3706  0.2315  0.0583
 4819SOL    HW225917   0.798   2.359   9.756 -0.9773 -0.8283  1.8426
 4820SOL     OW25918   2.168   0.311   8.767 -0.3042  0.1402  0.0966
 4820SOL    HW125919   2.215   0.349   8.841  1.2880 -0.4024 -0.6291
 4820SOL    HW225920   2.185   0.373   8.696  0.1125  0.9586  0.9054
 4821SOL     OW25921   0.869   3.750   7.538 -0.6064 -0.3809  0.5018
 4821SOL    HW125922   0.833   3.689   7.474  0.5533 -0.0002 -0.5021
 4821SOL    HW225923   0.816   3.827   7.523  0.8168  0.2908 -1.0919
 4822SOL     OW25924   0.339   1.327  13.334  0.4166 -0.2421  0.9072
 4822SOL    HW125925   0.402   1.295  13.270 -1.5971 -0.7331 -0.8258
 4822SOL    HW225926   0.401   1.366  13.396 -0.5910  1.8590  0.6013
 4823SOL     OW25927   2.972   3.842   9.167 -0.0738 -0.5569  0.2393
 4823SOL    HW125928   2.916   3.920   9.161 -1.4015 -1.7361 -2.7549
 4823SOL    HW225929   2.924   3.787   9.106  0.1923  0.0040 -0.4834
 4824SOL     OW25930   1.919   4.300   4.636  0.6055 -0.0676  0.3530
 4824SOL    HW125931   1.842   4.245   4.643 -0.7921  1.9243  0.7741
 4824SOL    HW225932   1.963   4.277   4.718 -4.0028 -3.9985  1.7291
 4825SOL     OW25933   4.515   4.545   4.434 -0.2865  0.0327 -0.0149
 4825SOL    HW125934   4.475   4.632   4.428  3.1823  1.5913 -0.6563
 4825SOL    HW225935   4.548   4.543   4.524  2.0059 -2.4750 -0.9108
 4826SOL     OW25936   4.678   2.972   7.642 -0.0995 -0.1301 -0.1094
 4826SOL    HW125937   0.051   2.987   7.650 -0.5225  2.9522 -0.7991
 4826SOL    HW225938   4.668   2.877   7.646 -0.9687 -0.0291  0.3028
 4827SOL     OW25939   3.785   1.953   9.027  0.5325  0.3133 -0.3486
 4827SOL    HW125940   3.791   1.898   8.949 -1.2320 -1.1805  0.5592
 4827SOL    HW225941   3.858   1.922   9.080  0.6569  1.3867  0.1117
 4828SOL     OW25942   3.270   2.642   4.948  0.0596  0.0913  0.3849
 4828SOL    HW125943   3.356   2.671   4.978  1.0756 -1.2146 -1.3145
 4828SOL    HW225944   3.253   2.703   4.876 -1.6712  0.7040  1.3093
 4829SOL     OW25945   0.054   1.254   7.685 -0.6470 -0.4125 -0.4868
 4829SOL    HW125946   0.114   1.179   7.684  0.1788  0.2068  3.0737
 4829SOL    HW225947   4.702   1.214   7.639  0.5730 -1.4528 -1.4957
 4830SOL     OW25948   2.452   1.835  13.368  0.2253 -0.0370 -0.1139
 4830SOL    HW125949   2.529   1.892  13.363 -0.1638  0.4188 -0.9494
 4830SOL    HW225950   2.481   1.744  13.376  0.2902 -0.0417 -0.4246
 4831SOL     OW25951   2.544   2.040   1.677 -0.3943  0.4809  0.1924
 4831SOL    HW125952   2.609   1.971   1.666  0.9868  1.4828  2.0033
 4831SOL    HW225953   2.570   2.098   1.605 -0.0203 -0.9430 -0.8044
 4832SOL     OW25954   4.296   0.429   9.068 -0.1374 -0.0279 -0.4968
 4832SOL    HW125955   4.366   0.368   9.044  0.8056  1.0443 -0.4839
 4832SOL    HW225956   4.287   0.422   9.163 -0.8149 -1.6596 -0.6773
 4833SOL     OW25957   0.842   4.074   4.832 -0.4433 -0.3442 -0.0666
 4833SOL    HW125958   0.749   4.082   4.809 -0.7616  0.5380  1.4995
 4833SOL    HW225959   0.876   4.152   4.789 -3.4061  0.3988 -1.0691
 4834SOL     OW25960   2.095   2.137   0.371 -0.1468  0.8274 -0.0662
 4834SOL    HW125961   2.169   2.078   0.378  0.0026  1.4193  3.0217
 4834SOL    HW225962   2.050   2.114   0.289 -0.1138 -0.4185  0.2705
 4835SOL     OW25963   3.797   0.856   8.809  0.7268  0.2523  0.0996
 4835SOL    HW125964   3.887   0.889   8.802  0.5224  0.6999 -0.3862
 4835SOL    HW225965   3.821   0.770   8.845  2.7556  0.3336 -1.0481
 4836SOL     OW25966   3.921   2.631   8.499  0.1445  0.0861  0.2193
 4836SOL    HW125967   3.836   2.645   8.457  1.3480  2.2229 -1.5055
 4836SOL    HW225968   3.976   2.608   8.425  1.1663  0.4465  0.8736
 4837SOL     OW25969   3.741   1.985  14.916 -0.4124  0.5453  0.1978
 4837SOL    HW125970   3.749   1.940  14.999  0.6212  0.4714  0.0518
 4837SOL    HW225971   3.806   2.054  14.932  1.1846 -0.7283 -0.8334
 4838SOL     OW25972   2.815   4.100  14.762  0.4527  0.2324 -0.0298
 4838SOL    HW125973   2.866   4.030  14.803 -0.3181 -0.0156  0.5154
 4838SOL    HW225974   2.740   4.106  14.822  0.6888 -2.1882  0.5389
 4839SOL     OW25975   3.251   2.882   6.028  0.2641 -0.0488 -0.4894
 4839SOL    HW125976   3.227   2.830   6.104 -0.5339 -0.1906 -0.8337
 4839SOL    HW225977   3.189   2.955   6.024  0.0512 -0.1518  0.9134
 4840SOL     OW25978   2.312   3.978   9.876  0.0424  0.3637  0.0843
 4840SOL    HW125979   2.405   4.001   9.874 -0.0254  1.0489  4.4663
 4840SOL    HW225980   2.278   4.056   9.920 -2.0863 -0.2207 -0.5201
 4841SOL     OW25981   3.492   1.515   3.573 -0.2550  1.1322 -0.3144
 4841SOL    HW125982   3.495   1.546   3.482 -2.4545 -0.5285 -0.9293
 4841SOL    HW225983   3.559   1.447   3.568  0.3931  1.7428 -0.0674
 4842SOL     OW25984   3.615   4.674   9.706 -0.6508 -0.6388 -0.1925
 4842SOL    HW125985   3.605   0.046   9.726 -1.4650 -1.0230  1.2142
 4842SOL    HW225986   3.648   4.641   9.790  1.1602  2.6916  0.3862
 4843SOL     OW25987   4.680   1.186   1.510  0.4285  0.2559  0.4209
 4843SOL    HW125988   4.647   1.182   1.420 -3.5760  1.6564  1.8056
 4843SOL    HW225989   0.051   1.161   1.506  0.6134  0.5222  3.2346
 4844SOL     OW25990   3.354   3.684   7.581  0.4494 -0.4336  0.2313
 4844SOL    HW125991   3.331   3.661   7.491  2.5673 -1.2420 -0.1032
 4844SOL    HW225992   3.384   3.598   7.610 -0.8508 -0.7884  0.5169
 4845SOL     OW25993   2.017   4.337   9.895  0.1695 -0.4014  0.5467
 4845SOL    HW125994   1.986   4.424   9.923 -2.2389 -1.4511  1.1932
 4845SOL    HW225995   2.025   4.349   9.801  1.1117 -0.7367  0.5828
 4846SOL     OW25996   1.804   3.113   0.757 -0.0614  0.4806  0.7943
 4846SOL    HW125997   1.745   3.106   0.832  0.1520  2.7220  1.1519
 4846SOL    HW225998   1.812   3.019   0.741  0.3696  0.9992 -2.0487
 4847SOL     OW25999   4.170   3.332   5.807  0.1212  0.1377 -0.3247
 4847SOL    HW126000   4.141   3.284   5.729 -0.1548 -0.9676  0.4716
 4847SOL    HW226001   4.157   3.262   5.871 -1.7217  2.9742  2.4065
 4848SOL     OW26002   4.606   2.591   4.590  0.1609 -0.2641  0.5535
 4848SOL    HW126003   4.568   2.512   4.553  0.7268 -0.2250 -0.0994
 4848SOL    HW226004   4.557   2.600   4.672  1.0610  0.6575  0.9983
 4849SOL     OW26005   1.177   1.072   6.108 -0.2105  0.0532  0.2548
 4849SOL    HW126006   1.160   1.129   6.033  0.2061 -1.2483 -0.8241
 4849SOL    HW226007   1.238   1.005   6.077 -1.5326 -0.3495 -1.4588
 4850SOL     OW26008   4.479   1.063  15.473 -0.3816 -0.2485 -0.1259
 4850SOL    HW126009   4.573   1.051  15.456 -1.0411 -1.4709 -2.9248
 4850SOL    HW226010   4.451   0.975  15.498 -1.6009 -0.0484 -0.7871
 4851SOL     OW26011   2.176   4.460   3.898 -0.1845  0.3686 -0.6164
 4851SOL    HW126012   2.149   4.413   3.977  1.5040  1.6340  0.7171
 4851SOL    HW226013   2.243   4.401   3.863 -2.9350 -1.7189 -2.2845
 4852SOL     OW26014   1.051   3.755   2.229  0.1665 -0.9009 -0.0599
 4852SOL    HW126015   0.984   3.757   2.161  0.0274 -1.5748  0.0645
 4852SOL    HW226016   1.018   3.681   2.279 -0.7599 -0.2806  0.2583
 4853SOL     OW26017   3.685   1.150   5.299 -0.1039 -0.0839  0.2637
 4853SOL    HW126018   3.710   1.163   5.207 -0.4231  0.8425  0.3072
 4853SOL    HW226019   3.635   1.229   5.319 -0.0917 -0.7841  2.9250
 4854SOL     OW26020   1.550   0.788  15.312 -0.8703 -0.1497 -0.2784
 4854SOL    HW126021   1.600   0.765  15.234  1.1368  1.9298  0.3888
 4854SOL    HW226022   1.486   0.836  15.260 -1.8125 -0.7610  0.3189
 4855SOL     OW26023   4.301   2.793   8.853 -0.1549  0.7052 -0.0398
 4855SOL    HW126024   4.305   2.867   8.914 -0.9256 -0.0189  0.9115
 4855SOL    HW226025   4.393   2.782   8.829  0.0210 -2.1484  1.8526
 4856SOL     OW26026   3.863   0.376   0.484 -0.0610  0.3405 -0.2556
 4856SOL    HW126027   3.783   0.420   0.514 -1.0497 -0.5164 -1.6642
 4856SOL    HW226028   3.905   0.443   0.432  0.9244 -0.9251 -1.0770
 4857SOL     OW26029   3.872   3.191   6.075 -0.3888 -0.1111  0.7766
 4857SOL    HW126030   3.845   3.201   5.984 -0.3261  0.4722  0.8226
 4857SOL    HW226031   3.967   3.183   6.062 -0.7674  0.7435 -2.3709
 4858SOL     OW26032   0.840   3.625  17.666  0.2082  0.1985 -0.2130
 4858SOL    HW126033   0.873   3.541   0.012  0.8513  0.2759 -0.6408
 4858SOL    HW226034   0.828   3.606  17.573 -0.1054  0.4123 -0.2168
 4859SOL     OW26035   4.426   1.047  14.680 -0.4613  0.0155  0.2762
 4859SOL    HW126036   4.342   1.062  14.638  0.1692 -0.4532 -1.1522
 4859SOL    HW226037   4.449   1.131  14.719 -2.2856  1.0587 -0.8900
 4860SOL     OW26038   2.892   0.148  12.332  0.2516 -0.2518  0.1356
 4860SOL    HW126039   2.901   0.100  12.414 -2.5494  2.8082  2.2324
 4860SOL    HW226040   2.859   0.236  12.349  3.4999  1.2671 -1.3726
 4861SOL     OW26041   1.574   4.128   6.875  0.4239 -0.1063 -0.8403
 4861SOL    HW126042   1.484   4.160   6.885  0.1555 -0.2956 -2.6255
 4861SOL    HW226043   1.618   4.196   6.925  0.5767 -2.0915  1.6731
 4862SOL     OW26044   4.275   1.247   9.823  0.5563 -0.4930 -0.5872
 4862SOL    HW126045   4.207   1.179   9.819 -1.8050  1.7817  0.6896
 4862SOL    HW226046   4.235   1.307   9.761 -1.1200 -1.3782 -0.3694
 4863SOL     OW26047   1.355   1.518   2.944 -0.3468  0.2898  0.2467
 4863SOL    HW126048   1.314   1.600   2.916  1.1453  1.5256  1.7126
 4863SOL    HW226049   1.320   1.495   3.030 -2.4576  0.3534 -0.5817
 4864SOL     OW26050   1.193   1.791   3.190  0.1326  0.5034 -0.2738
 4864SOL    HW126051   1.212   1.878   3.224 -0.6438  0.1817  0.9976
 4864SOL    HW226052   1.104   1.792   3.155  0.2544  1.2122 -0.5572
 4865SOL     OW26053   2.892   3.261   7.956 -0.1518 -0.4541  0.0602
 4865SOL    HW126054   2.936   3.211   8.025  0.1225 -0.1112  0.1362
 4865SOL    HW226055   2.931   3.348   7.966 -0.2441 -0.3232 -0.7069
 4866SOL     OW26056   1.539   0.113   4.519  0.3991  0.3816 -0.3403
 4866SOL    HW126057   1.616   0.060   4.537 -0.3875 -0.4044  0.7333
 4866SOL    HW226058   1.506   0.149   4.602 -0.6237 -0.9614 -0.1647
 4867SOL     OW26059   3.190   4.692   5.754  0.3494 -0.6306  0.0151
 4867SOL    HW126060   3.160   0.061   5.766  1.0981 -0.4416  0.4346
 4867SOL    HW226061   3.108   4.643   5.763  0.1122 -0.2419 -0.0611
 4868SOL     OW26062   2.184   1.485  11.730  0.0207 -0.4717 -0.1827
 4868SOL    HW126063   2.089   1.496  11.741  0.2256  1.5364 -0.4514
 4868SOL    HW226064   2.207   1.452  11.817  0.5639  2.3122  0.7588
 4869SOL     OW26065   1.695   2.521  12.274  0.1941 -0.2335  0.2370
 4869SOL    HW126066   1.784   2.497  12.300  0.3912 -2.5859 -2.5957
 4869SOL    HW226067   1.685   2.604  12.322  1.3635 -0.6047  1.1081
 4870SOL     OW26068   1.118   0.960   4.849 -0.1250 -0.1520  0.1023
 4870SOL    HW126069   1.207   0.980   4.820 -0.5326  0.0163 -1.0254
 4870SOL    HW226070   1.075   0.988   4.768  0.0400  1.4656  0.5736
 4871SOL     OW26071   3.523   1.431  16.836  0.2136 -0.5628 -0.1844
 4871SOL    HW126072   3.581   1.439  16.761  0.1293  0.7510 -0.1078
 4871SOL    HW226073   3.580   1.458  16.908  2.7068  0.8990 -2.7394
 4872SOL     OW26074   2.700   2.296   8.804 -0.5511 -0.2590  0.1366
 4872SOL    HW126075   2.790   2.266   8.793 -0.6715  0.1771 -1.9482
 4872SOL    HW226076   2.655   2.222   8.845  0.5106 -0.1994  1.4142
 4873SOL     OW26077   3.567   1.738  11.967 -0.1834  0.2421 -0.3480
 4873SOL    HW126078   3.524   1.710  11.886  0.0832 -1.9340  0.2600
 4873SOL    HW226079   3.505   1.807  11.988 -1.0656 -0.4083 -0.7914
 4874SOL     OW26080   0.048   0.780   9.369  0.2359 -0.0608  0.2514
 4874SOL    HW126081   0.062   0.849   9.434  1.0939 -1.4556  1.5726
 4874SOL    HW226082   0.029   0.840   9.297 -0.8419 -0.7891 -0.0745
 4875SOL     OW26083   1.262   4.008  17.222  0.8507 -0.5844 -0.2831
 4875SOL    HW126084   1.235   3.954  17.148  0.7713  1.5530 -1.8089
 4875SOL    HW226085   1.205   3.962  17.285 -0.4329  0.5949 -0.5894
 4876SOL     OW26086   3.580   1.378  13.302 -0.0007  0.0430  0.1795
 4876SOL    HW126087   3.577   1.292  13.343  1.8298  0.2857  0.8202
 4876SOL    HW226088   3.584   1.446  13.370 -0.9168 -0.1265  0.4035
 4877SOL     OW26089   0.553   2.548   9.809  0.0281 -0.5490 -0.1596
 4877SOL    HW126090   0.604   2.629   9.811 -0.9233  0.0830 -1.4938
 4877SOL    HW226091   0.476   2.583   9.764  1.0629  1.1439 -0.6264
 4878SOL     OW26092   4.350   1.802   0.406  0.3947  0.2316 -0.3789
 4878SOL    HW126093   4.364   1.708   0.416  1.4130  0.3451 -0.7326
 4878SOL    HW226094   4.389   1.835   0.487 -0.0709 -0.1327 -0.0097
 4879SOL     OW26095   0.411   4.060  12.099  0.5676 -0.1411 -0.0179
 4879SOL    HW126096   0.408   4.156  12.097 -2.0027 -0.2380 -2.2921
 4879SOL    HW226097   0.375   4.049  12.187  0.0477  1.1882 -0.0637
 4880SOL     OW26098   1.876   2.518   1.255 -0.8426  0.1800 -0.2868
 4880SOL    HW126099   1.810   2.549   1.316 -1.1896 -0.6888 -0.2248
 4880SOL    HW226100   1.917   2.466   1.324  0.0314  2.7713  1.1605
 4881SOL     OW26101   2.222   2.428   5.570  0.1736 -0.5236 -0.3081
 4881SOL    HW126102   2.199   2.342   5.606  2.8193  0.3482  3.4381
 4881SOL    HW226103   2.137   2.470   5.585  1.4960  1.7693  0.7382
 4882SOL     OW26104   2.762   1.471   3.833  0.7086 -0.3460  0.1002
 4882SOL    HW126105   2.854   1.450   3.852  0.4083 -0.4094  1.4628
 4882SOL    HW226106   2.761   1.553   3.784 -0.5541 -0.1669  0.4439
 4883SOL     OW26107   1.766   0.417  17.173  0.2386 -0.1635  0.2895
 4883SOL    HW126108   1.782   0.478  17.245  1.4753 -0.9731  0.7057
 4883SOL    HW226109   1.674   0.443  17.163  0.6225  1.8064  1.7980
 4884SOL     OW26110   3.286   0.398   2.332  0.0937 -0.1194 -0.5193
 4884SOL    HW126111   3.295   0.304   2.345  0.4741 -0.1517 -1.0324
 4884SOL    HW226112   3.192   0.407   2.321  0.0611  0.1641 -0.0208
 4885SOL     OW26113   3.166   3.275   4.988 -0.0582 -0.1265 -0.4824
 4885SOL    HW126114   3.092   3.277   4.929 -1.1472  1.6261  0.9576
 4885SOL    HW226115   3.192   3.182   4.991  1.5498  0.3199 -0.5704
 4886SOL     OW26116   4.264   3.239   0.176 -0.4076  0.0709 -0.0814
 4886SOL    HW126117   4.254   3.249   0.271  1.7058 -1.7146  0.3302
 4886SOL    HW226118   4.282   3.332   0.161  2.4913 -1.1309 -3.8577
 4887SOL     OW26119   2.919   1.706   7.720 -0.3504  0.7775  0.1612
 4887SOL    HW126120   2.894   1.721   7.812 -2.1629 -2.8643  0.2618
 4887SOL    HW226121   3.014   1.706   7.734 -0.3102 -0.9814 -0.0929
 4888SOL     OW26122   1.203   1.810   4.869  0.3616 -0.1458 -0.0264
 4888SOL    HW126123   1.217   1.814   4.964  4.2215  2.5570 -0.7078
 4888SOL    HW226124   1.284   1.770   4.837 -1.2316 -2.4892 -1.0874
 4889SOL     OW26125   2.139   1.265   3.104  0.0436 -0.2022 -0.2197
 4889SOL    HW126126   2.059   1.230   3.066 -0.0183 -0.1488 -0.1378
 4889SOL    HW226127   2.110   1.254   3.195 -0.7757  1.0648 -0.3413
 4890SOL     OW26128   2.172   1.537   3.239  0.0885 -0.4563  0.1539
 4890SOL    HW126129   2.173   1.527   3.143 -0.1874 -2.6129  0.3658
 4890SOL    HW226130   2.172   1.632   3.241 -2.7816 -0.5428  3.4686
 4891SOL     OW26131   4.517   1.561   7.137  0.4305 -0.2983  0.2897
 4891SOL    HW126132   4.527   1.501   7.211 -2.2313 -1.1838 -0.0481
 4891SOL    HW226133   4.607   1.573   7.109  0.3687  1.3048  0.7829
 4892SOL     OW26134   3.176   2.966   2.218 -0.2209  0.1771  0.4347
 4892SOL    HW126135   3.210   2.889   2.264  2.6431  0.2192 -1.6201
 4892SOL    HW226136   3.213   2.945   2.132  0.2300  0.9529  0.4402
 4893SOL     OW26137   3.870   2.631  10.856  1.0399 -0.3544 -0.5219
 4893SOL    HW126138   3.874   2.535  10.846  0.9528 -0.2012 -2.0307
 4893SOL    HW226139   3.959   2.662  10.841  1.1007 -0.5921 -0.6620
 4894SOL     OW26140   2.154   1.297  13.584 -0.3887 -0.6156 -0.1498
 4894SOL    HW126141   2.240   1.295  13.624 -0.4283  0.0909 -0.0414
 4894SOL    HW226142   2.178   1.344  13.504  0.1473 -1.3767 -0.4314
 4895SOL     OW26143   3.910   4.162   3.811 -0.1641 -0.4505 -0.2109
 4895SOL    HW126144   3.862   4.150   3.729 -0.3301 -3.6860  0.3709
 4895SOL    HW226145   3.930   4.255   3.820 -1.4839 -0.2339  0.5503
 4896SOL     OW26146   4.719   2.857   9.141 -0.0520  0.1781  0.9166
 4896SOL    HW126147   0.057   2.845   9.067 -2.4385 -1.6882 -0.6613
 4896SOL    HW226148   0.044   2.934   9.176  0.5510 -0.0782  0.6792
 4897SOL     OW26149   4.399   0.414   3.797 -0.1962 -0.3513 -0.2422
 4897SOL    HW126150   4.377   0.447   3.710  3.2266  0.9782 -0.6117
 4897SOL    HW226151   4.469   0.470   3.833  0.2987 -0.8001 -0.5154
 4898SOL     OW26152   1.947   4.436   3.525  0.1763 -0.0990  0.0746
 4898SOL    HW126153   1.963   4.530   3.511  0.5471  0.0627  1.6122
 4898SOL    HW226154   1.855   4.444   3.546  0.0343 -1.7772  0.0515
 4899SOL     OW26155   1.825   2.727   6.426 -0.1013 -0.2811  0.0055
 4899SOL    HW126156   1.899   2.725   6.486  1.8615  0.4654 -2.3974
 4899SOL    HW226157   1.859   2.767   6.346 -0.7911 -2.1247 -1.2078
 4900SOL     OW26158   1.223   1.757   5.780  0.2944  0.1089  0.9443
 4900SOL    HW126159   1.154   1.819   5.803 -0.3312  0.2067 -1.1668
 4900SOL    HW226160   1.298   1.812   5.801 -0.0295  0.1533  1.9916
 4901SOL     OW26161   4.432   2.077   7.856 -0.0001 -0.1760  0.2693
 4901SOL    HW126162   4.405   2.164   7.826 -1.5779 -0.9985 -0.6432
 4901SOL    HW226163   4.506   2.056   7.800 -1.7107 -0.2430 -1.9412
 4902SOL     OW26164   2.285   4.179   8.638 -0.1989 -0.1764  0.1742
 4902SOL    HW126165   2.343   4.109   8.669  1.5696  0.2609 -2.1399
 4902SOL    HW226166   2.339   4.254   8.662 -1.5745  0.6610  0.6410
 4903SOL     OW26167   4.221   4.306   2.227  0.0220  0.2079  1.1125
 4903SOL    HW126168   4.232   4.225   2.276 -0.2248 -1.5554 -1.7560
 4903SOL    HW226169   4.293   4.357   2.264  0.0522  1.4412 -0.6441
 4904SOL     OW26170   2.610   2.872  14.871 -0.0940 -0.4468 -0.8321
 4904SOL    HW126171   2.678   2.805  14.877  1.0227  0.7220 -0.3270
 4904SOL    HW226172   2.604   2.898  14.779 -1.9971  2.7747  0.1979
 4905SOL     OW26173   1.386   1.522   0.351 -0.4095  0.1057  0.1122
 4905SOL    HW126174   1.418   1.612   0.346 -2.1033  0.7012  0.1552
 4905SOL    HW226175   1.446   1.477   0.291 -1.3479 -0.1610 -0.6250
 4906SOL     OW26176   4.312   4.403   7.031 -0.4281  0.0089  0.1577
 4906SOL    HW126177   4.378   4.450   6.981  0.8488 -1.8217  0.1562
 4906SOL    HW226178   4.266   4.380   6.951 -3.9773  0.4299  2.0631
 4907SOL     OW26179   0.326   3.305   5.786  0.2359 -0.1561  0.2030
 4907SOL    HW126180   0.365   3.218   5.780  0.5043 -0.0115 -0.1636
 4907SOL    HW226181   0.244   3.269   5.753 -0.4224  0.5152  1.1066
 4908SOL     OW26182   1.024   4.629   4.112  0.0468 -0.3388 -0.0378
 4908SOL    HW126183   1.099   4.683   4.087 -1.3444  2.1623  1.1775
 4908SOL    HW226184   1.048   4.577   4.188 -0.7779 -0.9075 -0.1732
 4909SOL     OW26185   1.186   4.293   4.195 -0.3462 -0.4306  0.3793
 4909SOL    HW126186   1.184   4.215   4.140  0.5447 -0.2451  0.0817
 4909SOL    HW226187   1.248   4.352   4.152 -0.9696 -0.0729 -0.0330
 4910SOL     OW26188   0.056   0.789   0.343 -0.1595  0.7362  0.1127
 4910SOL    HW126189   0.050   0.870   0.293 -2.3839  0.6255  0.1983
 4910SOL    HW226190   0.098   0.823   0.422  0.2232  2.2163 -0.7336
 4911SOL     OW26191   1.892   4.198  15.864 -0.3686 -0.0309 -0.0468
 4911SOL    HW126192   1.951   4.273  15.863  0.3181 -0.5186  2.4559
 4911SOL    HW226193   1.947   4.143  15.809  0.0184  0.9833 -0.6713
 4912SOL     OW26194   0.440   2.902  17.163 -0.3079  0.2245 -0.3857
 4912SOL    HW126195   0.481   2.961  17.227  2.9119 -0.9654 -1.3360
 4912SOL    HW226196   0.479   2.944  17.086  1.4072 -1.9014 -0.6900
 4913SOL     OW26197   2.326   1.451  13.718  0.0803  0.1109  0.4680
 4913SOL    HW126198   2.303   1.507  13.792  0.3239  1.1808 -0.2518
 4913SOL    HW226199   2.420   1.451  13.738  0.0633  1.7089  0.5720
 4914SOL     OW26200   0.642   0.400  17.420  0.2042 -0.2339  0.5647
 4914SOL    HW126201   0.554   0.434  17.406  0.1743  0.0717  1.5106
 4914SOL    HW226202   0.626   0.307  17.437 -2.1622  0.0659 -0.0537
 4915SOL     OW26203   1.584   0.083   6.045  0.3893 -0.1058 -0.0421
 4915SOL    HW126204   1.570   0.055   5.954 -0.1308 -0.2433  0.0847
 4915SOL    HW226205   1.673   0.118   6.036  0.5172 -0.1059  1.3665
 4916SOL     OW26206   1.081   3.014   2.960 -0.1634  0.7959  0.3700
 4916SOL    HW126207   1.029   2.946   2.916  0.4922 -0.0069  0.8214
 4916SOL    HW226208   1.034   3.094   2.938  0.4364  1.4140  1.3564
 4917SOL     OW26209   4.437   2.170  11.967  0.4257  0.1422 -0.3785
 4917SOL    HW126210   4.450   2.110  12.041 -0.6605  0.8694  0.3992
 4917SOL    HW226211   4.517   2.222  11.962  0.9379 -0.5200  0.9841
 4918SOL     OW26212   0.271   3.566   6.075 -0.5837 -0.1181  0.0548
 4918SOL    HW126213   0.213   3.525   6.139 -0.3695 -0.3011  0.1328
 4918SOL    HW226214   0.243   3.657   6.083  1.7371  0.5756  0.3354
 4919SOL     OW26215   1.462   0.099   8.673  0.6025  0.7335  0.1358
 4919SOL    HW126216   1.385   0.150   8.650 -0.1162 -0.8391 -0.9565
 4919SOL    HW226217   1.485   0.055   8.591  2.6062 -1.2446  1.7233
 4920SOL     OW26218   4.324   0.654   8.081  0.0542 -0.0095  0.1426
 4920SOL    HW126219   4.251   0.672   8.021 -0.8338 -3.4852  0.1845
 4920SOL    HW226220   4.279   0.689   8.158  2.1331  3.5692 -0.2484
 4921SOL     OW26221   4.560   0.110   3.199  0.1808 -0.1761 -0.5492
 4921SOL    HW126222   4.566   0.123   3.293 -2.9511  0.2715 -0.3859
 4921SOL    HW226223   4.645   0.128   3.160  0.2872 -1.3759 -0.8733
 4922SOL     OW26224   4.704   3.367   9.786  0.0259  0.5492  0.0090
 4922SOL    HW126225   4.615   3.344   9.814  0.7179 -0.9963  0.9481
 4922SOL    HW226226   4.676   3.423   9.714  1.6916 -0.8747 -1.7404
 4923SOL     OW26227   2.501   1.582  13.259  0.3358 -0.0981  0.5969
 4923SOL    HW126228   2.509   1.499  13.212  1.4297 -0.5511  1.5605
 4923SOL    HW226229   2.590   1.616  13.253  0.0539  0.3640 -0.8167
 4924SOL     OW26230   1.873   1.424   8.527  0.1143  0.6720 -0.3729
 4924SOL    HW126231   1.839   1.341   8.496  1.2842 -1.1223  3.0898
 4924SOL    HW226232   1.854   1.474   8.448  0.0005 -0.6664 -1.1893
 4925SOL     OW26233   4.661   3.476   3.461  0.0708 -0.1491 -0.1019
 4925SOL    HW126234   4.700   3.544   3.514 -1.4088  0.5952  0.0400
 4925SOL    HW226235   4.604   3.426   3.520  1.0318 -1.6554 -0.4418
 4926SOL     OW26236   1.591   0.631   5.657 -0.6659 -0.1424  0.3637
 4926SOL    HW126237   1.629   0.588   5.734 -4.0023 -0.4710  1.8360
 4926SOL    HW226238   1.552   0.557   5.610  2.1355 -1.4086  0.0481
 4927SOL     OW26239   0.158   2.705   8.131 -0.0023  0.1648  0.8608
 4927SOL    HW126240   0.071   2.731   8.100  0.6636  1.4707  0.0633
 4927SOL    HW226241   0.150   2.740   8.219  0.6408  0.3885  0.8317
 4928SOL     OW26242   3.133   2.315  15.275 -0.5416  0.0525  0.2179
 4928SOL    HW126243   3.126   2.397  15.226  2.6550  2.2118  3.3267
 4928SOL    HW226244   3.043   2.282  15.272 -0.7687  0.4499  3.0755
 4929SOL     OW26245   0.064   1.065   2.467 -0.4117 -0.3061 -0.0551
 4929SOL    HW126246   0.058   1.092   2.375  0.7916  2.0059  0.5238
 4929SOL    HW226247   4.693   1.070   2.492 -0.1045  1.1956  0.8062
 4930SOL     OW26248   3.784   0.133   8.230 -0.4875 -0.1303  0.4923
 4930SOL    HW126249   3.697   0.102   8.206  0.9613 -4.4558  0.9755
 4930SOL    HW226250   3.775   0.228   8.243 -3.0903 -0.6108  2.1514
 4931SOL     OW26251   3.590   1.111   8.714 -0.3238 -0.1200  0.6345
 4931SOL    HW126252   3.506   1.156   8.702 -0.4273  0.2174  2.6015
 4931SOL    HW226253   3.573   1.037   8.772 -0.0290 -0.4266  0.3277
 4932SOL     OW26254   3.200   4.093   1.105  0.4375 -0.0490 -0.1001
 4932SOL    HW126255   3.206   4.133   1.191  1.8709 -1.9273  0.6961
 4932SOL    HW226256   3.105   4.104   1.104  0.5876  1.2193  0.3385
 4933SOL     OW26257   2.226   0.672  16.169  0.1367 -0.3923 -0.2288
 4933SOL    HW126258   2.180   0.745  16.128 -0.6902 -0.7686  0.0154
 4933SOL    HW226259   2.217   0.700  16.260  1.5331 -0.3999 -0.0950
 4934SOL     OW26260   1.396   2.355  12.591 -0.5462 -0.0452 -0.8287
 4934SOL    HW126261   1.371   2.446  12.574  1.1093  0.4923 -0.3409
 4934SOL    HW226262   1.336   2.314  12.528 -0.7547 -1.2214  0.1379
 4935SOL     OW26263   1.730   0.907   9.094  0.4724 -0.1544  0.3968
 4935SOL    HW126264   1.789   0.956   9.036  0.5855  0.7602  1.2774
 4935SOL    HW226265   1.779   0.905   9.177 -2.3064 -2.7432  1.9522
 4936SOL     OW26266   0.532   3.795   1.033  0.1741  0.4765  0.4978
 4936SOL    HW126267   0.595   3.867   1.039 -0.8359  1.4089 -0.0577
 4936SOL    HW226268   0.470   3.836   0.973  2.0034 -0.9987 -2.4068
 4937SOL     OW26269   2.223   0.696   4.891  0.5901 -0.2255  0.0753
 4937SOL    HW126270   2.156   0.762   4.877  0.7041  0.1210  1.2647
 4937SOL    HW226271   2.269   0.722   4.970 -1.6443 -0.3541  1.4228
 4938SOL     OW26272   0.981   2.296  13.976  0.1387  0.3911  0.3703
 4938SOL    HW126273   0.929   2.215  13.972  0.6685  0.1096 -0.8101
 4938SOL    HW226274   0.912   2.353  14.007 -1.9773 -1.6116 -0.6361
 4939SOL     OW26275   1.284   0.805   5.508  0.3969 -0.0475 -0.1963
 4939SOL    HW126276   1.277   0.900   5.519 -1.7487 -0.5731  2.8816
 4939SOL    HW226277   1.227   0.786   5.434  2.4936 -2.8308 -1.0841
 4940SOL     OW26278   1.504   1.254  12.465  0.3869 -0.1169 -0.1858
 4940SOL    HW126279   1.409   1.263  12.476  0.6503  1.4601  0.7384
 4940SOL    HW226280   1.521   1.161  12.451  1.6714 -0.1536  1.5460
 4941SOL     OW26281   4.049   2.416   6.304  0.2379  0.1867  0.5453
 4941SOL    HW126282   4.120   2.480   6.294 -0.9787  1.7161  1.6202
 4941SOL    HW226283   4.051   2.414   6.400 -0.2650  1.0138  0.5798
 4942SOL     OW26284   2.299   4.395   0.711  0.1555 -0.1089  0.2715
 4942SOL    HW126285   2.311   4.301   0.724  1.4736  0.3335  2.2549
 4942SOL    HW226286   2.377   4.424   0.665  1.0986 -1.4143  1.0624
 4943SOL     OW26287   1.612   1.188  17.247  0.6056  0.6693  0.3774
 4943SOL    HW126288   1.688   1.140  17.279  0.3582  0.0992  0.1093
 4943SOL    HW226289   1.550   1.115  17.254  2.8195 -1.1892  0.5557
 4944SOL     OW26290   0.392   0.860  17.677  0.2402  0.1873 -0.1359
 4944SOL    HW126291   0.406   0.937   0.045  2.3137 -1.2154  1.3557
 4944SOL    HW226292   0.320   0.884  17.620 -0.9343 -2.6261  0.1236
 4945SOL     OW26293   2.725   1.677  11.992  0.0527  0.0977 -0.1687
 4945SOL    HW126294   2.706   1.771  11.989  1.0823  0.3176  0.2265
 4945SOL    HW226295   2.725   1.663  12.086  1.8497 -1.2300 -0.3812
 4946SOL     OW26296   2.041   3.071   7.987 -0.4397 -0.4459 -0.0063
 4946SOL    HW126297   1.961   3.046   8.033  0.4336 -1.0829  1.1735
 4946SOL    HW226298   2.014   3.155   7.949 -1.7615 -0.1347  1.6431
 4947SOL     OW26299   0.515   1.759   9.104 -0.5865  0.0442 -0.1531
 4947SOL    HW126300   0.605   1.775   9.076 -0.5735  0.8730  0.3840
 4947SOL    HW226301   0.523   1.781   9.197 -0.4854 -1.6505  0.2419
 4948SOL     OW26302   2.162   3.993   4.640  0.0558 -0.2160  0.1092
 4948SOL    HW126303   2.090   3.941   4.603 -1.2773 -0.0552  2.5117
 4948SOL    HW226304   2.114   4.033   4.712 -0.0856  0.7410 -0.5152
 4949SOL     OW26305   3.204   3.507   0.044  0.3409 -0.0649 -0.2861
 4949SOL    HW126306   3.131   3.471  17.681  1.7218 -1.7229 -1.1188
 4949SOL    HW226307   3.260   3.538  17.659  1.6599 -1.2482  0.2225
 4950SOL     OW26308   1.947   4.429   6.427  0.3765 -0.1627  0.0683
 4950SOL    HW126309   1.935   4.450   6.520  0.0012 -0.4334  0.0834
 4950SOL    HW226310   2.027   4.477   6.406  0.1380  0.6322  0.9799
 4951SOL     OW26311   0.926   2.742   3.162  0.3721  0.2664  0.5267
 4951SOL    HW126312   0.871   2.810   3.122 -1.1900 -0.0291  2.1520
 4951SOL    HW226313   1.013   2.775   3.142  1.2281 -2.4883 -0.2959
 4952SOL     OW26314   1.659   4.721  13.128 -0.4288  0.6608 -0.0555
 4952SOL    HW126315   1.708   0.023  13.049  0.2499  2.4012  0.8772
 4952SOL    HW226316   1.693   4.631  13.132  1.1859  1.3526  1.8489
 4953SOL     OW26317   0.947   3.168   4.509  0.0708 -0.1968 -0.4608
 4953SOL    HW126318   0.885   3.161   4.582 -3.1322 -1.6886 -3.3457
 4953SOL    HW226319   0.945   3.259   4.478 -1.0883  0.3957  1.3373
 4954SOL     OW26320   2.352   0.042   3.370 -0.1295  0.6470  0.2475
 4954SOL    HW126321   2.348   4.677   3.412  0.7029 -0.3510 -1.7134
 4954SOL    HW226322   2.444   0.055   3.348  0.0520  0.5770  0.9464
 4955SOL     OW26323   0.448   3.524   3.539  0.2387 -0.2785  0.0205
 4955SOL    HW126324   0.485   3.483   3.461 -0.7691  1.2303 -1.2614
 4955SOL    HW226325   0.364   3.546   3.497  0.5270 -0.7559 -0.8041
 4956SOL     OW26326   1.787   1.448   5.951 -0.3528 -0.3277  0.0695
 4956SOL    HW126327   1.795   1.521   6.012 -1.7010  0.6096 -0.8738
 4956SOL    HW226328   1.696   1.425   5.971 -0.4999 -0.5543 -0.8360
 4957SOL     OW26329   1.375   3.595   8.846 -0.1734  0.1724  0.4169
 4957SOL    HW126330   1.428   3.575   8.923  0.3992  0.9017  0.2065
 4957SOL    HW226331   1.322   3.515   8.850 -1.4211  1.0901  2.0085
 4958SOL     OW26332   1.985   0.981   3.824 -0.5067  0.3655  0.2977
 4958SOL    HW126333   1.897   0.947   3.807  0.4310 -2.7109  1.4714
 4958SOL    HW226334   2.035   0.900   3.812 -2.2167 -0.8598  1.4792
 4959SOL     OW26335   2.438   4.516   7.126  0.6652 -0.0687 -0.3531
 4959SOL    HW126336   2.410   4.442   7.073  1.2326 -1.2217  0.9627
 4959SOL    HW226337   2.431   4.583   7.058  2.9988  1.1307  0.5734
 4960SOL     OW26338   1.333   0.242   3.789 -0.5499 -0.8617 -0.8925
 4960SOL    HW126339   1.297   0.307   3.729  2.6299  1.3010 -0.4207
 4960SOL    HW226340   1.400   0.285   3.841 -2.2540  2.6611 -1.6134
 4961SOL     OW26341   2.100   0.973   6.884 -0.3334 -0.2317 -0.5489
 4961SOL    HW126342   2.139   0.911   6.822 -0.1546  0.6659 -1.3404
 4961SOL    HW226343   2.007   0.949   6.879 -0.5182  0.6266 -1.4185
 4962SOL     OW26344   2.517   4.282  13.157 -0.0701  1.1817 -0.7381
 4962SOL    HW126345   2.498   4.361  13.209  0.8343  0.4380  0.7356
 4962SOL    HW226346   2.427   4.248  13.164  0.3262  0.8365  2.8158
 4963SOL     OW26347   2.416   3.787   6.428 -0.1427 -0.2108 -0.1172
 4963SOL    HW126348   2.332   3.742   6.441  0.8157 -1.9469  0.1597
 4963SOL    HW226349   2.470   3.716   6.394 -1.3121 -0.4077 -1.5555
 4964SOL     OW26350   2.003   3.357   3.258  0.2158  0.9727 -0.2923
 4964SOL    HW126351   1.960   3.272   3.250 -0.6742  1.2968  1.0732
 4964SOL    HW226352   2.025   3.355   3.351  0.5784 -1.6561 -0.4310
 4965SOL     OW26353   2.360   3.156   2.696 -0.4221  0.1953  0.4204
 4965SOL    HW126354   2.406   3.095   2.638 -3.7876 -0.2496 -1.8147
 4965SOL    HW226355   2.423   3.227   2.684 -0.0882 -0.4674 -1.6878
 4966SOL     OW26356   0.737   0.341   7.382 -0.0753 -0.0207 -0.2186
 4966SOL    HW126357   0.751   0.356   7.475 -1.4659 -0.1628  0.0059
 4966SOL    HW226358   0.796   0.270   7.356 -1.2954 -0.9076 -0.5304
 4967SOL     OW26359   2.706   1.061  14.266 -0.3893  0.2987 -0.3906
 4967SOL    HW126360   2.617   1.036  14.290 -0.2520 -0.0248 -0.2215
 4967SOL    HW226361   2.735   1.096  14.350 -0.4598 -1.0985  0.2215
 4968SOL     OW26362   2.711   2.709   7.081 -0.0816 -0.0985  0.2425
 4968SOL    HW126363   2.649   2.762   7.030 -0.4453 -1.0264 -0.2796
 4968SOL    HW226364   2.778   2.777   7.085 -1.4116  1.1047  2.5530
 4969SOL     OW26365   4.503   4.188  12.469  0.5631 -0.4303 -0.5258
 4969SOL    HW126366   4.456   4.121  12.517  0.9303 -1.5452 -1.7219
 4969SOL    HW226367   4.535   4.248  12.536  0.4122 -0.3139 -0.5581
 4970SOL     OW26368   1.822   0.118   8.958 -0.2339 -0.0626 -0.3828
 4970SOL    HW126369   1.731   0.119   8.988 -1.0266  1.6399 -2.7799
 4970SOL    HW226370   1.875   0.088   9.031  0.3698  2.9431  0.4377
 4971SOL     OW26371   0.912   0.558   2.494  0.4131 -0.1256 -0.2351
 4971SOL    HW126372   0.891   0.637   2.445 -3.2994 -0.0840  1.3629
 4971SOL    HW226373   0.837   0.555   2.554  1.5924  1.3688  1.3202
 4972SOL     OW26374   0.695   3.433   4.867 -0.1092  0.3562  0.0083
 4972SOL    HW126375   0.750   3.357   4.846 -1.0260  0.1003 -1.4408
 4972SOL    HW226376   0.619   3.375   4.865  0.5880 -0.5837  0.5345
 4973SOL     OW26377   4.054   1.999   3.580  0.1546  0.0908  0.3096
 4973SOL    HW126378   4.115   1.926   3.587 -0.9578 -0.8283  0.4537
 4973SOL    HW226379   4.107   2.073   3.552 -0.8718 -0.2335 -2.4891
 4974SOL     OW26380   4.125   2.122   7.577 -0.0146  0.1232 -0.2098
 4974SOL    HW126381   4.150   2.062   7.647 -0.7583  1.7153  1.4045
 4974SOL    HW226382   4.214   2.131   7.543 -0.7519  4.4990 -1.0893
 4975SOL     OW26383   4.261   1.594   7.866 -0.1767  0.7256  0.6412
 4975SOL    HW126384   4.278   1.684   7.892 -2.3518  1.3957 -0.2094
 4975SOL    HW226385   4.251   1.605   7.771  0.5336 -0.8214  0.3955
 4976SOL     OW26386   2.571   3.965   9.729 -0.0450 -0.0221 -0.5796
 4976SOL    HW126387   2.589   4.055   9.757 -1.6294 -0.0178  0.4082
 4976SOL    HW226388   2.544   3.979   9.638  0.3607  0.0227 -0.6944
 4977SOL     OW26389   0.977   2.204   5.503 -0.4136 -0.4924  0.3431
 4977SOL    HW126390   0.968   2.133   5.439 -1.0174 -0.8250  0.8031
 4977SOL    HW226391   1.064   2.240   5.486 -0.4576 -1.0450 -1.0373
 4978SOL     OW26392   0.792   0.742   0.744  0.2703 -0.0742  0.4548
 4978SOL    HW126393   0.831   0.765   0.660 -0.0563 -0.2894  0.2423
 4978SOL    HW226394   0.714   0.797   0.737 -0.6277 -1.4286 -0.1799
 4979SOL     OW26395   0.858   3.442   7.719  0.3867 -1.4218  0.3649
 4979SOL    HW126396   0.770   3.458   7.687  0.5648 -0.2777  0.4397
 4979SOL    HW226397   0.838   3.413   7.808 -2.0560  0.2180  0.3346
 4980SOL     OW26398   3.502   2.046   2.582 -0.3926 -0.2335 -0.1710
 4980SOL    HW126399   3.500   2.044   2.678 -1.0128  1.3286 -0.1436
 4980SOL    HW226400   3.413   2.072   2.559  0.2466 -0.2681 -2.7420
 4981SOL     OW26401   2.554   3.093   7.427  0.1945 -0.1436 -0.4525
 4981SOL    HW126402   2.628   3.134   7.382  1.4462 -1.2147  0.6419
 4981SOL    HW226403   2.493   3.095   7.353  0.8571 -0.0134 -0.9984
 4982SOL     OW26404   1.060   1.899   9.585 -0.0429 -0.6312 -0.3782
 4982SOL    HW126405   1.059   1.936   9.496  1.5649 -0.2144 -0.2322
 4982SOL    HW226406   1.139   1.844   9.581  0.5098  0.0953  0.7416
 4983SOL     OW26407   0.396   4.265   6.923 -0.3026  0.9182  0.0876
 4983SOL    HW126408   0.453   4.189   6.931  1.3038  2.0036 -1.1920
 4983SOL    HW226409   0.409   4.306   7.009  0.8845 -0.4729  0.5725
 4984SOL     OW26410   1.034   0.111  14.244 -0.3849  0.4401 -0.6320
 4984SOL    HW126411   1.051   0.048  14.174 -1.4452 -0.9361  0.3606
 4984SOL    HW226412   1.126   0.121  14.268 -0.6798  0.7839  0.3565
 4985SOL     OW26413   1.064   3.505  10.805  0.4507 -0.1538 -0.0229
 4985SOL    HW126414   1.064   3.432  10.743  0.2984 -0.4161  0.2853
 4985SOL    HW226415   1.157   3.500  10.826  1.2233 -2.2774 -3.9085
 4986SOL     OW26416   3.166   0.447   5.545 -0.5894 -0.4282  0.1283
 4986SOL    HW126417   3.203   0.535   5.540 -0.5321 -0.5699 -1.7803
 4986SOL    HW226418   3.243   0.389   5.547 -0.6398 -0.4431  1.6172
 4987SOL     OW26419   3.216   2.454   5.375  0.2586 -0.2006 -0.1213
 4987SOL    HW126420   3.309   2.465   5.393  0.1953  0.3408 -0.1202
 4987SOL    HW226421   3.195   2.521   5.310 -0.8401 -0.0825  0.3633
 4988SOL     OW26422   0.904   2.746   4.540  0.1868 -0.4227 -0.8161
 4988SOL    HW126423   0.891   2.820   4.480  1.7225 -1.9051 -2.9875
 4988SOL    HW226424   0.977   2.785   4.590  0.4512 -0.6781 -1.0035
 4989SOL     OW26425   1.391   0.950   8.505  0.1737  0.3088  0.2876
 4989SOL    HW126426   1.350   0.960   8.419 -1.4279 -0.5787  0.9457
 4989SOL    HW226427   1.337   0.888   8.553 -0.8094  1.7445  1.0164
 4990SOL     OW26428   0.975   2.821   9.625 -0.5558  0.4247  0.6312
 4990SOL    HW126429   1.070   2.815   9.629 -0.4919  0.7531 -0.2852
 4990SOL    HW226430   0.961   2.839   9.532 -2.1873  2.3330  1.2444
 4991SOL     OW26431   3.734   0.354  13.360  0.6513 -0.2765 -0.7535
 4991SOL    HW126432   3.802   0.381  13.421  0.3460 -1.3599  0.0662
 4991SOL    HW226433   3.756   0.267  13.325  0.6573  0.4133 -2.4543
 4992SOL     OW26434   2.978   1.967   3.558 -0.1410  0.4564 -0.1349
 4992SOL    HW126435   2.900   2.021   3.547  0.5833  1.5426  0.0599
 4992SOL    HW226436   3.012   2.006   3.639  0.2733 -1.6086  0.6707
 4993SOL     OW26437   2.664   1.487   5.718  0.8030 -0.0487  0.6749
 4993SOL    HW126438   2.705   1.572   5.699  0.1353  0.7415  2.7075
 4993SOL    HW226439   2.606   1.477   5.643  1.1323 -2.3018  0.7432
 4994SOL     OW26440   0.686   4.278   8.031  0.1974 -0.5176  0.0550
 4994SOL    HW126441   0.701   4.202   8.087  0.3475 -1.6443 -1.4968
 4994SOL    HW226442   0.591   4.268   8.018  0.4527  0.7798 -2.6878
 4995SOL     OW26443   1.558   0.076   5.783  0.0132  0.5143  0.2600
 4995SOL    HW126444   1.493   0.136   5.748  1.0991  1.2364 -0.5299
 4995SOL    HW226445   1.522   4.712   5.760  2.3371 -0.9120  1.9509
 4996SOL     OW26446   0.194   2.797   5.348 -0.4837 -0.1378 -0.1254
 4996SOL    HW126447   0.136   2.733   5.307 -0.8390 -0.7171  1.2686
 4996SOL    HW226448   0.138   2.874   5.356  0.8404  1.1185 -2.8639
 4997SOL     OW26449   4.516   1.527   1.726  0.2432 -0.0293  0.3356
 4997SOL    HW126450   4.517   1.604   1.670 -2.5956  0.1773  0.5896
 4997SOL    HW226451   4.422   1.521   1.744 -0.2115  1.8129 -1.5062
 4998SOL     OW26452   3.454   0.341   8.561 -0.3406  0.2407  0.4008
 4998SOL    HW126453   3.517   0.383   8.620 -0.4550 -0.3476  0.9477
 4998SOL    HW226454   3.387   0.408   8.572 -0.0211  0.8739 -1.5837
 4999SOL     OW26455   4.638   2.159   2.272  0.2971  0.8828 -0.1438
 4999SOL    HW126456   4.650   2.229   2.335 -1.5800 -0.0700  1.2690
 4999SOL    HW226457   0.000   2.136   2.231 -1.3427  0.8988 -3.5246
 5000SOL     OW26458   1.242   1.644   3.605  0.6525  0.3816  0.2088
 5000SOL    HW126459   1.322   1.592   3.619  0.0016 -0.8736 -0.7522
 5000SOL    HW226460   1.178   1.574   3.600  0.0665  0.9603 -0.3485
 5001SOL     OW26461   2.484   2.390   8.209  0.2794 -0.4973 -0.2995
 5001SOL    HW126462   2.553   2.399   8.275 -1.1047  2.0727  0.7600
 5001SOL    HW226463   2.408   2.432   8.248  0.7004  1.1479 -1.2315
 5002SOL     OW26464   0.823   2.064  16.505 -0.2128 -0.0706 -0.3188
 5002SOL    HW126465   0.902   2.102  16.466 -1.0856  1.4403 -0.6217
 5002SOL    HW226466   0.786   2.144  16.543  3.5391  2.3276 -1.6980
 5003SOL     OW26467   4.680   1.026  16.393  0.6839 -0.3658 -0.0553
 5003SOL    HW126468   4.654   1.032  16.301  1.1989 -0.7646 -0.2242
 5003SOL    HW226469   4.599   0.985  16.425  0.0601  1.9385  1.3611
 5004SOL     OW26470   1.559   1.834  16.697  0.7352 -0.2030  0.5670
 5004SOL    HW126471   1.558   1.750  16.743  2.3753 -1.2168 -1.2758
 5004SOL    HW226472   1.617   1.823  16.622 -0.8156  2.0527 -1.0015
 5005SOL     OW26473   1.020   3.380   1.605 -0.1306 -0.0547 -0.0125
 5005SOL    HW126474   1.017   3.290   1.572  2.9935 -0.3806  0.5786
 5005SOL    HW226475   1.071   3.373   1.686 -1.5285 -0.1381  0.8491
 5006SOL     OW26476   0.733   0.599   0.988  0.3392 -0.3435 -0.1494
 5006SOL    HW126477   0.753   0.667   0.924 -2.1671 -0.5630 -1.1724
 5006SOL    HW226478   0.817   0.590   1.032  0.0603  1.6419  0.7978
 5007SOL     OW26479   2.197   0.157   3.576 -0.0472 -0.0236  1.3165
 5007SOL    HW126480   2.263   0.129   3.513 -1.3379  0.0262 -0.0813
 5007SOL    HW226481   2.157   0.071   3.586 -0.4771  0.2204  1.6832
 5008SOL     OW26482   3.140   1.310   5.627 -0.0348  0.4924 -0.4385
 5008SOL    HW126483   3.048   1.283   5.634  0.1765 -0.8711 -2.8689
 5008SOL    HW226484   3.145   1.389   5.680 -0.4985 -0.6893  1.3607
 5009SOL     OW26485   1.004   3.663   6.453  0.3748 -0.0772 -0.4720
 5009SOL    HW126486   1.093   3.660   6.488  0.7387 -0.5309 -1.4412
 5009SOL    HW226487   1.012   3.595   6.386 -0.2667 -1.1567  0.5385
 5010SOL     OW26488   0.837   2.567   7.895 -0.3334 -0.1666  0.1254
 5010SOL    HW126489   0.788   2.620   7.957  1.7742  0.1094  1.5463
 5010SOL    HW226490   0.769   2.545   7.832  0.9897  0.9925 -1.7236
 5011SOL     OW26491   3.953   2.467  13.915  0.4475 -0.0376 -0.1987
 5011SOL    HW126492   3.969   2.376  13.891  2.5390  0.2225  0.1725
 5011SOL    HW226493   3.905   2.466  13.998  0.2161 -2.3658 -0.3583
 5012SOL     OW26494   3.015   0.780   3.866 -0.3383 -0.0475  0.2480
 5012SOL    HW126495   2.936   0.798   3.916 -0.3727 -0.7686  0.4413
 5012SOL    HW226496   2.997   0.696   3.824  0.7149 -0.7950  1.2832
 5013SOL     OW26497   0.538   2.121   7.476 -0.0395  0.0138 -0.3990
 5013SOL    HW126498   0.579   2.140   7.561  0.2044 -3.0556  0.1760
 5013SOL    HW226499   0.580   2.037   7.463  0.0631  0.2552 -1.5712
 5014SOL     OW26500   4.612   2.210   3.022 -0.2784 -0.3453 -0.4662
 5014SOL    HW126501   4.543   2.265   2.984  0.2301  0.3550 -0.3788
 5014SOL    HW226502   4.592   2.219   3.115  1.6876  2.4843 -0.3268
 5015SOL     OW26503   2.194   2.467  12.241  0.1306  0.0010 -0.3674
 5015SOL    HW126504   2.278   2.509  12.262 -0.1191  1.1925 -1.7218
 5015SOL    HW226505   2.209   2.468  12.147 -0.8129 -0.3502 -0.5143
 5016SOL     OW26506   1.846   0.313   9.580  0.6864  0.6118 -0.4061
 5016SOL    HW126507   1.882   0.365   9.653  0.8612 -0.4118  0.2303
 5016SOL    HW226508   1.753   0.322   9.597  0.2500 -2.2977 -1.3370
 5017SOL     OW26509   3.426   3.948   6.554  0.2949 -0.1365 -0.0502
 5017SOL    HW126510   3.348   3.925   6.603  0.9422  1.4127  1.6943
 5017SOL    HW226511   3.492   3.951   6.623  1.8590  1.5163 -1.6085
 5018SOL     OW26512   3.136   1.982  15.944 -0.1554 -0.4512  0.6340
 5018SOL    HW126513   3.139   1.911  15.880 -0.2076 -0.9621  1.1909
 5018SOL    HW226514   3.182   1.946  16.021  1.3930 -2.2211 -1.1122
 5019SOL     OW26515   2.086   4.647   4.573  0.3571 -0.0580  0.2843
 5019SOL    HW126516   2.062   4.612   4.658 -1.7146 -0.6955 -0.5637
 5019SOL    HW226517   2.179   4.663   4.589  0.3864  0.2454 -0.1886
 5020SOL     OW26518   1.387   0.009   7.573  0.2507 -0.1740  0.4519
 5020SOL    HW126519   1.322   4.709   7.640  0.6341  1.3175  1.2858
 5020SOL    HW226520   1.438   0.071   7.625  1.7079  0.4294 -1.6927
 5021SOL     OW26521   1.440   0.173   6.366  0.2525  0.1773 -0.2304
 5021SOL    HW126522   1.350   0.197   6.344  0.5320  0.8842 -0.6244
 5021SOL    HW226523   1.480   0.156   6.281 -0.9316  1.2397 -1.0051
 5022SOL     OW26524   1.517   2.620  15.345 -0.6468 -0.1907  0.5711
 5022SOL    HW126525   1.580   2.635  15.416 -1.9789 -0.7297  1.8833
 5022SOL    HW226526   1.515   2.699  15.292  0.9189  0.7943  2.0263
 5023SOL     OW26527   2.913   4.505   6.481 -0.6688  0.0874  0.4617
 5023SOL    HW126528   2.876   4.552   6.406  2.1519  2.0199  0.2826
 5023SOL    HW226529   2.973   4.465   6.418 -0.2799 -0.3137  1.0868
 5024SOL     OW26530   1.788   3.429  12.287  0.1915 -0.0795 -0.1180
 5024SOL    HW126531   1.701   3.453  12.254 -0.4091 -1.2124  0.6268
 5024SOL    HW226532   1.765   3.349  12.335 -0.0310 -0.7219 -1.2750
 5025SOL     OW26533   0.821   1.128  15.837 -0.2800  0.2469 -0.3372
 5025SOL    HW126534   0.767   1.146  15.914  0.6192  0.4127  0.2529
 5025SOL    HW226535   0.865   1.211  15.820 -0.6023 -0.0991 -2.9528
 5026SOL     OW26536   0.264   3.235   5.292 -0.1569 -0.2264  0.9305
 5026SOL    HW126537   0.275   3.299   5.222 -1.0601 -0.8392  0.2211
 5026SOL    HW226538   0.350   3.238   5.334  0.3968 -0.5921 -0.1685
 5027SOL     OW26539   3.845   1.970   3.176 -0.3758  0.1941  0.6409
 5027SOL    HW126540   3.850   1.892   3.232 -2.9378 -1.0686 -0.8911
 5027SOL    HW226541   3.912   1.956   3.108 -3.4036 -2.1335 -1.8444
 5028SOL     OW26542   2.288   3.192   3.536  0.1728  0.1870  0.4140
 5028SOL    HW126543   2.229   3.136   3.486 -1.7446  1.1453  1.5920
 5028SOL    HW226544   2.367   3.138   3.545  0.8539  1.1145 -0.0931
 5029SOL     OW26545   4.367   0.988   9.091 -0.3270  0.1274 -0.3807
 5029SOL    HW126546   4.391   1.041   9.015 -0.9745  0.3396 -0.4388
 5029SOL    HW226547   4.369   0.900   9.052  0.6171  0.1552 -0.3955
 5030SOL     OW26548   0.111   0.900   3.855  0.7635  0.1535  0.0611
 5030SOL    HW126549   0.116   0.847   3.935 -0.1303 -0.0982 -0.0503
 5030SOL    HW226550   0.205   0.898   3.838  0.4653  1.2100 -1.6332
 5031SOL     OW26551   3.010   3.343   7.131  0.7344  0.3295 -0.2382
 5031SOL    HW126552   2.966   3.261   7.155  0.6777  0.8404  1.4264
 5031SOL    HW226553   2.953   3.410   7.169 -0.2082 -1.0617  0.7792
 5032SOL     OW26554   4.085   4.261   5.227  0.1191  0.2273 -0.2438
 5032SOL    HW126555   4.123   4.263   5.140 -0.9152 -0.2223 -0.7059
 5032SOL    HW226556   4.121   4.179   5.261  0.4869  0.1974 -0.7268
 5033SOL     OW26557   4.561   3.914   4.718  0.1313 -0.1320  0.1546
 5033SOL    HW126558   4.467   3.900   4.711 -0.2032  1.7054  0.9916
 5033SOL    HW226559   4.569   3.948   4.807 -0.7516  1.7773 -0.4951
 5034SOL     OW26560   0.540   3.344   3.905 -0.2193 -0.5290 -0.5007
 5034SOL    HW126561   0.614   3.321   3.849  0.7123  0.4524  0.2912
 5034SOL    HW226562   0.509   3.259   3.935  0.1844 -0.6805 -0.5166
 5035SOL     OW26563   2.641   2.583   4.413 -0.4807 -0.6649 -0.0149
 5035SOL    HW126564   2.690   2.502   4.429 -2.5624 -1.9455 -0.1391
 5035SOL    HW226565   2.600   2.567   4.329  0.8380 -0.0572 -0.7677
 5036SOL     OW26566   3.634   4.454   9.288  0.9293 -0.0396  0.4966
 5036SOL    HW126567   3.666   4.436   9.376  0.6871  0.4420  0.6799
 5036SOL    HW226568   3.661   4.371   9.249 -0.0297  1.1011 -2.5629
 5037SOL     OW26569   4.037   2.927   6.472 -0.5006 -0.1195 -1.2068
 5037SOL    HW126570   4.034   2.849   6.528 -1.0084  0.1470 -0.8577
 5037SOL    HW226571   4.013   2.992   6.537 -3.4447 -0.3694 -2.0239
 5038SOL     OW26572   3.396   2.139   8.296  0.2910  0.1741  0.1383
 5038SOL    HW126573   3.300   2.149   8.295  0.3798  1.2567  3.1338
 5038SOL    HW226574   3.416   2.137   8.389  0.2718  0.7887  0.1566
 5039SOL     OW26575   3.499   2.249   2.296 -0.2092 -0.3567 -0.2621
 5039SOL    HW126576   3.405   2.239   2.282 -0.5183 -0.3430  1.7909
 5039SOL    HW226577   3.540   2.165   2.314 -0.7281 -0.8374 -1.3400
 5040SOL     OW26578   4.042   0.587  15.727  0.0023  0.3694 -0.0022
 5040SOL    HW126579   4.038   0.543  15.642  1.4496  0.2506 -0.0133
 5040SOL    HW226580   3.950   0.588  15.752  0.5710  0.2407  2.1357
 5041SOL     OW26581   0.613   0.834   9.902  0.4109  0.0790 -0.3914
 5041SOL    HW126582   0.623   0.805   9.992  2.8341 -1.4634 -1.1761
 5041SOL    HW226583   0.580   0.747   9.880  1.1699 -0.5870  1.1218
 5042SOL     OW26584   1.308   2.627   8.832 -0.3668  0.1082  0.1895
 5042SOL    HW126585   1.394   2.587   8.843 -0.6278 -0.8754 -1.2613
 5042SOL    HW226586   1.310   2.613   8.737  0.0245 -1.1072  0.3739
 5043SOL     OW26587   1.882   0.997   9.331  0.3867  0.2693 -0.2368
 5043SOL    HW126588   1.928   1.080   9.324 -2.5284  1.8742 -0.4398
 5043SOL    HW226589   1.815   1.007   9.399 -1.3241 -0.8092 -1.7760
 5044SOL     OW26590   3.065   0.622   8.394  0.2133  0.0940  0.1043
 5044SOL    HW126591   3.028   0.700   8.352 -1.4840 -1.5450 -1.3821
 5044SOL    HW226592   3.018   0.619   8.477 -0.1724  1.8299 -0.0409
 5045SOL     OW26593   4.058   1.424   5.860 -0.2597  0.3267  0.2271
 5045SOL    HW126594   4.069   1.331   5.879 -3.7076 -0.2322 -0.6491
 5045SOL    HW226595   4.108   1.451   5.937  1.3019 -2.4209  0.1798
 5046SOL     OW26596   1.800   1.549  12.532 -0.4101 -0.7099 -0.4147
 5046SOL    HW126597   1.833   1.637  12.516 -1.4545 -0.3705 -0.6871
 5046SOL    HW226598   1.882   1.503  12.512 -0.0544  0.3346 -1.3603
 5047SOL     OW26599   2.624   0.067   3.268 -0.3573  0.6335 -0.2887
 5047SOL    HW126600   2.705   0.015   3.272  0.3135  1.5210 -2.9141
 5047SOL    HW226601   2.601   0.062   3.176 -3.1303  2.9071  0.2915
 5048SOL     OW26602   2.047   3.759   6.624  0.7754  0.6422 -0.2164
 5048SOL    HW126603   2.068   3.683   6.678 -3.7055 -0.4799 -0.0809
 5048SOL    HW226604   1.995   3.797   6.695 -0.7192  0.2862 -1.1321
 5049SOL     OW26605   4.073   3.479   8.989 -0.3669  0.4671  0.0154
 5049SOL    HW126606   4.055   3.565   9.027  1.6610 -0.3408  2.7269
 5049SOL    HW226607   4.055   3.421   9.062 -2.3695  1.3185  0.2176
 5050SOL     OW26608   4.310   2.163  10.471  0.1771  0.1754 -0.3351
 5050SOL    HW126609   4.280   2.096  10.409 -1.5187  0.9586 -0.3809
 5050SOL    HW226610   4.402   2.139  10.459  0.6773  0.5566  2.9584
 5051SOL     OW26611   2.793   1.152   7.006 -0.1207 -0.3402 -0.3549
 5051SOL    HW126612   2.882   1.129   7.032 -0.1748 -0.5483 -0.3492
 5051SOL    HW226613   2.770   1.178   7.095  1.5416  2.2087 -0.6718
 5052SOL     OW26614   3.013   2.365   7.536 -0.2769 -0.3147  0.5779
 5052SOL    HW126615   2.937   2.346   7.482  1.6128 -1.7388 -1.6159
 5052SOL    HW226616   2.995   2.307   7.610 -3.5398  0.9823  0.7572
 5053SOL     OW26617   4.456   4.227   4.863  0.2791 -0.7732 -0.4722
 5053SOL    HW126618   4.460   4.256   4.954  0.6926 -0.0708 -0.7153
 5053SOL    HW226619   4.363   4.246   4.851  0.6200  0.1426 -1.6647
 5054SOL     OW26620   1.514   0.140  15.768 -0.2535 -0.0502 -0.1967
 5054SOL    HW126621   1.482   0.205  15.706  1.1164  0.6778 -0.1145
 5054SOL    HW226622   1.568   0.200  15.818  0.7386  0.3073 -1.7051
 5055SOL     OW26623   0.203   1.495   3.498  0.3254 -0.0376  0.2219
 5055SOL    HW126624   0.230   1.430   3.563  2.0114  1.6720  1.2248
 5055SOL    HW226625   0.288   1.528   3.469  0.6451 -1.8217 -0.9087
 5056SOL     OW26626   2.348   0.607   7.543 -0.2359  0.1840  1.1302
 5056SOL    HW126627   2.397   0.673   7.493 -2.8406 -0.1622 -1.8640
 5056SOL    HW226628   2.408   0.532   7.543  0.0214  0.3971 -0.1312
 5057SOL     OW26629   2.489   2.112   7.583  0.0610 -0.7377 -0.2092
 5057SOL    HW126630   2.468   2.021   7.608 -1.3479 -0.8080 -1.6316
 5057SOL    HW226631   2.578   2.112   7.617 -0.4054 -2.4747  1.0202
 5058SOL     OW26632   1.583   4.658  10.746  0.4489 -0.1231 -0.6403
 5058SOL    HW126633   1.675   4.636  10.732 -0.1479 -1.7976 -1.8360
 5058SOL    HW226634   1.583   0.020  10.699 -0.7377 -0.4805 -1.2628
 5059SOL     OW26635   0.907   2.687  12.172 -0.0047 -0.3152  0.1132
 5059SOL    HW126636   0.823   2.678  12.218 -0.6742  1.1706 -0.8036
 5059SOL    HW226637   0.917   2.780  12.151  0.9645 -1.4238 -4.3345
 5060SOL     OW26638   2.490   3.714  17.185 -0.1532 -0.1229 -0.3306
 5060SOL    HW126639   2.448   3.786  17.137 -1.7069 -1.6654 -1.3198
 5060SOL    HW226640   2.575   3.751  17.207  1.1220 -3.5770  0.6668
 5061SOL     OW26641   1.660   4.307   3.237 -0.0887 -0.0861 -0.3021
 5061SOL    HW126642   1.625   4.361   3.166  0.1413  0.9318  0.3481
 5061SOL    HW226643   1.579   4.270   3.274 -1.5826  1.6514 -1.8166
 5062SOL     OW26644   4.202   0.364   8.548  0.2927 -0.5809  0.2927
 5062SOL    HW126645   4.213   0.376   8.454  0.8175  0.7791  0.5230
 5062SOL    HW226646   4.106   0.368   8.540 -0.0707 -3.6032  3.2599
 5063SOL     OW26647   1.993   2.603   4.429 -0.4217  0.2142 -0.3185
 5063SOL    HW126648   2.025   2.518   4.457  1.8317  1.6507  1.5150
 5063SOL    HW226649   2.044   2.664   4.483  0.6884 -2.0186  1.1376
 5064SOL     OW26650   2.478   2.694   8.184 -0.0153  0.2294 -0.2637
 5064SOL    HW126651   2.510   2.604   8.172 -0.3828  0.1944 -0.9917
 5064SOL    HW226652   2.522   2.752   8.122 -0.8769  4.1708  2.8691
 5065SOL     OW26653   0.975   0.664   3.227  0.3784  0.1346  0.3405
 5065SOL    HW126654   0.996   0.636   3.138 -0.0499 -0.4761  0.4265
 5065SOL    HW226655   0.938   0.581   3.257  0.1506 -0.4103 -1.4620
 5066SOL     OW26656   1.452   3.243   5.424 -0.1458  0.1027 -0.4071
 5066SOL    HW126657   1.407   3.160   5.440 -0.5251  0.3990  0.0400
 5066SOL    HW226658   1.521   3.243   5.491  0.6492 -3.2738 -1.1808
 5067SOL     OW26659   3.576   2.834   0.998 -0.0059 -0.2662  0.2836
 5067SOL    HW126660   3.518   2.769   0.960 -1.1623  1.5751 -1.0833
 5067SOL    HW226661   3.610   2.775   1.066  2.9469  1.7985  0.5839
 5068SOL     OW26662   2.291   4.287   3.757 -0.8024 -0.4662 -0.0969
 5068SOL    HW126663   2.312   4.294   3.664  0.7683 -0.9971  0.2200
 5068SOL    HW226664   2.215   4.228   3.758  0.7909 -2.5119  2.5854
 5069SOL     OW26665   0.504   2.812   9.032  0.1597 -0.4960 -0.0359
 5069SOL    HW126666   0.579   2.799   9.090  0.1036 -1.0153 -0.0859
 5069SOL    HW226667   0.441   2.843   9.097  0.3676  0.7050 -0.4054
 5070SOL     OW26668   0.653   3.517   2.446 -0.3748 -0.5764 -0.1042
 5070SOL    HW126669   0.560   3.536   2.456  0.0434 -0.0132  2.7859
 5070SOL    HW226670   0.681   3.594   2.495 -1.0665  0.6507 -1.6286
 5071SOL     OW26671   1.897   0.069   7.910 -0.8158 -0.4088  0.6020
 5071SOL    HW126672   1.932   0.001   7.969 -0.6393  1.2755  2.4521
 5071SOL    HW226673   1.947   0.059   7.829 -0.8019  0.6347  0.4847
 5072SOL     OW26674   3.038   0.323   3.540 -0.4449  0.0004 -0.0588
 5072SOL    HW126675   3.124   0.361   3.559 -0.4940 -0.0742  0.3014
 5072SOL    HW226676   3.004   0.365   3.461 -1.9495  0.3883  0.7995
 5073SOL     OW26677   0.327   1.188   2.298 -0.0179  0.6410  0.0094
 5073SOL    HW126678   0.298   1.097   2.293 -0.7514  0.8923 -0.4414
 5073SOL    HW226679   0.239   1.226   2.302 -0.4414 -0.3839  0.4695
 5074SOL     OW26680   1.840   3.350   7.947 -0.5457  0.5864  0.5891
 5074SOL    HW126681   1.793   3.433   7.951 -0.0774  0.9257 -1.2401
 5074SOL    HW226682   1.861   3.353   7.854 -2.2068 -0.1614  0.1962
 5075SOL     OW26683   2.962   1.869  13.050  0.0150  0.1443 -0.1912
 5075SOL    HW126684   3.044   1.853  13.004  0.4204  0.9848  0.2452
 5075SOL    HW226685   2.936   1.948  13.004  0.3227  0.8369  0.8278
 5076SOL     OW26686   4.532   0.597  16.918 -0.2790  0.2635 -0.6209
 5076SOL    HW126687   4.562   0.647  16.993 -1.4455  2.2096 -1.4237
 5076SOL    HW226688   4.439   0.581  16.936  0.1294  0.8368  1.9851
 5077SOL     OW26689   2.245   2.955  14.478 -0.2006  0.5455  0.3393
 5077SOL    HW126690   2.310   2.984  14.414 -1.4360  1.6587 -0.4181
 5077SOL    HW226691   2.255   2.861  14.491 -3.0528 -0.0102 -1.5204
 5078SOL     OW26692   2.212   3.082   6.802 -0.6630 -0.0835 -0.0577
 5078SOL    HW126693   2.261   3.088   6.884  0.8738  1.3796 -1.0930
 5078SOL    HW226694   2.275   3.104   6.735 -0.6258  0.3950  0.1357
 5079SOL     OW26695   3.496   2.702   3.528  0.3619 -0.3329  0.1677
 5079SOL    HW126696   3.439   2.699   3.604  0.7005  0.2366  0.4395
 5079SOL    HW226697   3.583   2.709   3.567 -0.9666  0.2379  2.9652
 5080SOL     OW26698   1.381   2.968   4.658 -0.1438 -0.7676 -0.0521
 5080SOL    HW126699   1.325   2.915   4.715 -1.0421 -1.1033 -1.2481
 5080SOL    HW226700   1.322   3.001   4.591  0.9819 -0.0840 -0.6995
 5081SOL     OW26701   0.540   0.642  13.676 -0.4915  0.5503 -0.0056
 5081SOL    HW126702   0.564   0.640  13.584  1.6410  0.0842  0.5595
 5081SOL    HW226703   0.610   0.696  13.711 -0.5278  1.2407 -1.0079
 5082SOL     OW26704   1.720   2.386  10.294  0.0802 -0.8167  0.1174
 5082SOL    HW126705   1.640   2.396  10.346 -0.3163 -0.6001 -0.5307
 5082SOL    HW226706   1.764   2.309  10.331 -1.7949 -2.1521 -0.4048
 5083SOL     OW26707   0.040   1.923  13.175 -0.3075  0.4544 -0.2164
 5083SOL    HW126708   0.116   1.940  13.229 -0.3253 -0.4727  0.0900
 5083SOL    HW226709   0.051   1.984  13.102  0.1754 -0.5982 -1.0190
 5084SOL     OW26710   0.557   0.817  16.274  0.1362  0.4031  0.5160
 5084SOL    HW126711   0.604   0.784  16.198  1.3373  0.2306  1.3394
 5084SOL    HW226712   0.496   0.751  16.306 -0.5725  0.3946 -0.8375
 5085SOL     OW26713   0.985   3.214  17.154  0.1528  0.1951 -0.2406
 5085SOL    HW126714   0.905   3.191  17.107  0.5916  2.0969 -1.9198
 5085SOL    HW226715   0.953   3.218  17.245 -0.9840  1.6131 -0.7035
 5086SOL     OW26716   3.858   2.061   8.367 -0.3898  0.0106 -0.1255
 5086SOL    HW126717   3.934   2.116   8.384 -1.8022  0.8967  3.4110
 5086SOL    HW226718   3.911   1.982   8.358  0.1787  0.3776 -0.0254
 5087SOL     OW26719   3.750   2.407  14.362  0.0063 -0.1030 -0.3736
 5087SOL    HW126720   3.789   2.462  14.430  1.0544 -1.3601  0.0404
 5087SOL    HW226721   3.689   2.345  14.402  1.6344 -0.3944  1.6822
 5088SOL     OW26722   1.176   3.559  11.735 -0.1443  0.0719  0.2644
 5088SOL    HW126723   1.138   3.630  11.682  2.2880 -0.6110 -2.4120
 5088SOL    HW226724   1.101   3.507  11.765 -0.9065  0.5468 -0.8097
 5089SOL     OW26725   0.696   2.957   5.284 -0.3261  0.1065  0.1566
 5089SOL    HW126726   0.604   2.932   5.276  0.0292 -1.5620  1.3357
 5089SOL    HW226727   0.732   2.894   5.347  0.0928 -1.2356 -1.4313
 5090SOL     OW26728   4.485   3.889   8.877 -0.3149 -0.1330  0.3351
 5090SOL    HW126729   4.563   3.841   8.852 -0.8752 -1.9981  2.1948
 5090SOL    HW226730   4.430   3.832   8.930 -0.6200 -0.5100 -0.3772
 5091SOL     OW26731   3.283   3.782   3.270 -0.1130 -0.6841 -0.1363
 5091SOL    HW126732   3.188   3.789   3.259 -0.2304 -0.8941  0.7286
 5091SOL    HW226733   3.309   3.835   3.195 -0.2950 -0.5743 -0.1221
 5092SOL     OW26734   4.201   0.135   9.324 -0.7272 -0.2907  0.3367
 5092SOL    HW126735   4.146   0.103   9.252 -2.4477 -1.8361  2.3530
 5092SOL    HW226736   4.149   0.211   9.347  1.1357  1.0885  0.0222
 5093SOL     OW26737   2.241   2.137   8.869  0.2052 -0.2953 -0.1466
 5093SOL    HW126738   2.304   2.117   8.800 -0.5824  1.5764 -1.4183
 5093SOL    HW226739   2.152   2.134   8.834  0.7376 -1.5918 -1.3946
 5094SOL     OW26740   1.515   4.659   2.576 -0.2943  0.5266 -0.2675
 5094SOL    HW126741   1.578   4.603   2.531  0.5570  0.8980  0.4501
 5094SOL    HW226742   1.452   4.670   2.505 -1.4839  0.7775  0.8332
 5095SOL     OW26743   2.418   0.449   2.597  0.2227 -0.2401  0.4302
 5095SOL    HW126744   2.441   0.508   2.525  0.9727 -0.6345  0.3424
 5095SOL    HW226745   2.326   0.432   2.580 -0.2920  1.7588  1.3151
 5096SOL     OW26746   1.530   4.291   4.168  0.1813 -0.1590  0.5389
 5096SOL    HW126747   1.514   4.257   4.080 -1.6010 -0.7898  1.1114
 5096SOL    HW226748   1.462   4.358   4.162 -0.0057 -0.5064 -1.1891
 5097SOL     OW26749   1.441   0.646  15.538 -0.1922 -0.6156 -0.4760
 5097SOL    HW126750   1.492   0.699  15.477  0.3638  0.9831  1.3414
 5097SOL    HW226751   1.354   0.656  15.500 -0.1835 -0.7043 -0.5173
 5098SOL     OW26752   2.397   3.470   5.183 -0.1479 -0.1281  0.7310
 5098SOL    HW126753   2.408   3.559   5.151  3.7826  0.0025  2.4158
 5098SOL    HW226754   2.454   3.432   5.116  2.0505  0.5433  2.2016
 5099SOL     OW26755   4.418   1.551   9.699 -0.0757  0.9695  0.6107
 5099SOL    HW126756   4.343   1.500   9.731  0.3873  0.4174  0.8007
 5099SOL    HW226757   4.384   1.641   9.708 -2.2525 -0.0378  2.5323
 5100SOL     OW26758   2.745   1.884   8.734 -0.0706  0.4755 -0.2269
 5100SOL    HW126759   2.834   1.859   8.711  0.0579 -0.6954  1.5678
 5100SOL    HW226760   2.709   1.876   8.645  0.6448  1.5897 -0.6217
 5101SOL     OW26761   1.231   4.020  15.798  0.2494  0.2465 -0.5043
 5101SOL    HW126762   1.167   3.960  15.836 -1.1926  1.3158 -1.2671
 5101SOL    HW226763   1.171   4.078  15.751  0.0314  0.1215 -0.3822
 5102SOL     OW26764   0.898   0.996   0.851 -0.3498 -0.0132 -0.0844
 5102SOL    HW126765   0.819   0.977   0.801 -0.3048  0.1593 -0.2203
 5102SOL    HW226766   0.950   0.917   0.832  1.3344  0.7280  1.5565
 5103SOL     OW26767   2.545   1.379  11.434  0.1127  0.5445 -0.1167
 5103SOL    HW126768   2.464   1.409  11.474  0.3396  2.6388 -1.2607
 5103SOL    HW226769   2.610   1.448  11.450  0.7190  0.2980 -1.5167
 5104SOL     OW26770   0.814   0.139  16.008 -0.1789  0.2878 -0.2388
 5104SOL    HW126771   0.876   0.077  15.969 -0.4395 -1.6454  2.3620
 5104SOL    HW226772   0.752   0.080  16.051  2.2634 -0.4812  2.2367
 5105SOL     OW26773   2.506   1.310   7.156 -0.1047 -0.0916  0.0649
 5105SOL    HW126774   2.576   1.260   7.199  1.5026  2.0446 -0.0450
 5105SOL    HW226775   2.435   1.273   7.209 -0.1437  1.5664  1.1924
 5106SOL     OW26776   4.298   1.201   6.748 -0.1904 -0.4682  0.0130
 5106SOL    HW126777   4.369   1.238   6.696  0.0128  0.6803  1.1136
 5106SOL    HW226778   4.283   1.118   6.703  2.1506  0.6042 -2.7612
 5107SOL     OW26779   2.390   2.405   1.778  0.1643  0.3628 -0.8381
 5107SOL    HW126780   2.362   2.449   1.858  1.5058 -0.0231 -0.1626
 5107SOL    HW226781   2.444   2.476   1.741 -0.8947  1.0605 -1.0509
 5108SOL     OW26782   3.907   3.624   4.092  0.1876  0.0156 -0.1077
 5108SOL    HW126783   3.941   3.709   4.063  0.0708 -0.7565 -2.5292
 5108SOL    HW226784   3.980   3.580   4.135  0.1106  0.6954  0.7100
 5109SOL     OW26785   2.106   1.760   8.783 -0.3779  0.5553 -0.0114
 5109SOL    HW126786   2.088   1.677   8.739  0.6005  1.5168 -2.2579
 5109SOL    HW226787   2.183   1.795   8.737 -0.3246 -1.0352 -1.1269
 5110SOL     OW26788   2.341   4.584  10.812 -0.1700  0.0196 -0.6158
 5110SOL    HW126789   2.435   4.572  10.794 -0.2234 -0.3823 -0.6272
 5110SOL    HW226790   2.321   4.677  10.808 -0.6249  0.0171  2.0773
 5111SOL     OW26791   2.946   3.561   4.637 -0.4290 -0.0926 -0.1023
 5111SOL    HW126792   2.966   3.468   4.648 -1.4494 -0.2242  0.6295
 5111SOL    HW226793   3.027   3.608   4.657 -0.7408  0.6743 -0.6187
 5112SOL     OW26794   0.727   3.390  10.726 -0.0194  0.4749 -0.2629
 5112SOL    HW126795   0.736   3.341  10.644 -0.6844 -0.5755  0.2942
 5112SOL    HW226796   0.750   3.319  10.785 -0.2322 -0.3506 -1.1807
 5113SOL     OW26797   0.403   0.336   2.851 -0.2047  0.0544 -0.2402
 5113SOL    HW126798   0.445   0.356   2.935 -0.8880 -3.2371  0.8805
 5113SOL    HW226799   0.353   0.260   2.880 -0.8046  0.2729 -0.7106
 5114SOL     OW26800   3.040   1.110   4.594  0.0010  0.6873 -0.2149
 5114SOL    HW126801   2.958   1.103   4.642 -0.0968 -1.2279 -0.6518
 5114SOL    HW226802   3.046   1.205   4.593  1.0457  0.6344  0.6022
 5115SOL     OW26803   1.205   0.617   1.996 -0.1825 -0.3064  0.3101
 5115SOL    HW126804   1.127   0.577   1.958 -0.2138  2.1943 -2.3352
 5115SOL    HW226805   1.177   0.631   2.086  0.5550  0.9444  0.3419
 5116SOL     OW26806   0.906   4.226   5.100  0.3845  0.0405 -0.1364
 5116SOL    HW126807   0.835   4.172   5.065 -0.5703  0.7691  0.6453
 5116SOL    HW226808   0.976   4.164   5.120 -0.1108  0.2996  2.3495
 5117SOL     OW26809   3.382   0.050   0.801 -0.5268 -0.0197  0.2670
 5117SOL    HW126810   3.345   0.094   0.725 -3.1489 -2.0756  0.3387
 5117SOL    HW226811   3.476   0.064   0.791 -0.2700 -1.5036  0.4777
 5118SOL     OW26812   0.008   2.973   4.684  0.0517  0.2219 -0.3512
 5118SOL    HW126813   4.706   3.028   4.610 -0.8807  2.5102  1.6701
 5118SOL    HW226814   0.073   2.913   4.647 -0.9147 -1.0975  0.1012
 5119SOL     OW26815   4.086   2.049   1.503  0.6484  0.1798 -0.5211
 5119SOL    HW126816   4.137   2.130   1.498 -0.1609  0.5866 -2.2052
 5119SOL    HW226817   4.159   1.987   1.512  0.6589  0.1928 -0.5159
 5120SOL     OW26818   1.956   3.797   3.358 -0.6224 -0.4740  0.0699
 5120SOL    HW126819   2.038   3.845   3.350 -0.7609 -0.2350  0.1044
 5120SOL    HW226820   1.988   3.707   3.372  0.1623 -0.0741  0.7943
 5121SOL     OW26821   2.628   0.104  14.967 -0.4204 -0.5983 -0.4570
 5121SOL    HW126822   2.640   0.009  14.960  1.0335 -0.4807  0.4288
 5121SOL    HW226823   2.707   0.123  14.916  0.8615 -0.2075  1.7137
 5122SOL     OW26824   4.572   4.598   7.720 -0.1328 -0.3711 -0.1008
 5122SOL    HW126825   4.485   4.628   7.692 -1.2077 -1.0595  2.4630
 5122SOL    HW226826   4.550   4.553   7.802  0.4046 -0.7978 -0.1931
 5123SOL     OW26827   4.471   1.587   1.355 -0.1833  0.5708  0.1719
 5123SOL    HW126828   4.512   1.642   1.422 -1.2345  2.2266 -0.5512
 5123SOL    HW226829   4.379   1.601   1.374 -0.2887  0.3387 -0.1618
 5124SOL     OW26830   4.554   1.831   6.840  0.1266  0.5463  0.3583
 5124SOL    HW126831   4.643   1.824   6.875 -0.2785 -0.6152  1.1848
 5124SOL    HW226832   4.548   1.922   6.812  0.4348  0.2794 -0.5848
 5125SOL     OW26833   2.715   4.687  14.077 -0.0974 -0.2901  0.2079
 5125SOL    HW126834   2.802   4.719  14.100  0.4772 -0.6554 -1.4779
 5125SOL    HW226835   2.735   4.608  14.027 -0.0952 -0.2800  0.1928
 5126SOL     OW26836   0.641   2.435   1.542 -0.2568 -0.0325  0.3547
 5126SOL    HW126837   0.697   2.358   1.534 -0.1470 -0.0800  1.5147
 5126SOL    HW226838   0.703   2.498   1.507  0.4320 -0.4280  0.8594
 5127SOL     OW26839   0.893   4.226  10.235 -0.3993  0.2981  0.4595
 5127SOL    HW126840   0.812   4.274  10.214 -0.1437 -0.2717 -1.7863
 5127SOL    HW226841   0.863   4.166  10.303  0.6972 -1.0918 -0.2788
 5128SOL     OW26842   3.402   4.111   8.035 -0.2791  0.1984  0.4480
 5128SOL    HW126843   3.348   4.095   7.958 -1.1817  3.3814  0.4202
 5128SOL    HW226844   3.408   4.024   8.074  0.2538  0.2501  0.4836
 5129SOL     OW26845   3.558   3.253   4.223  0.1143 -0.0706  0.7787
 5129SOL    HW126846   3.611   3.229   4.147 -1.5244  1.9761 -0.9963
 5129SOL    HW226847   3.485   3.293   4.176 -1.0844 -0.0509  2.6412
 5130SOL     OW26848   3.954   3.620   7.142 -0.4139 -0.1084 -0.0783
 5130SOL    HW126849   4.005   3.655   7.215  0.6460 -1.2810 -0.2551
 5130SOL    HW226850   4.029   3.583   7.094  1.5764  0.3227  2.7358
 5131SOL     OW26851   3.507   4.211   4.270  0.0848  0.7404 -0.1737
 5131SOL    HW126852   3.466   4.297   4.256  1.0474  1.0649 -0.9452
 5131SOL    HW226853   3.593   4.236   4.236  0.1432 -0.5883 -0.9926
 5132SOL     OW26854   2.599   3.755  13.962  0.4685 -0.2936 -0.5928
 5132SOL    HW126855   2.536   3.686  13.941 -1.0914  0.6807  0.8108
 5132SOL    HW226856   2.609   3.740  14.056  1.6634  1.1111 -0.4889
 5133SOL     OW26857   3.876   2.541   6.872 -0.4353 -0.2617 -0.0787
 5133SOL    HW126858   3.933   2.465   6.883  1.7567  1.2992 -0.8166
 5133SOL    HW226859   3.898   2.595   6.948  0.4628  1.7275 -1.7646
 5134SOL     OW26860   3.280   4.642   1.497 -0.6236 -0.2323 -0.0879
 5134SOL    HW126861   3.216   4.714   1.498  0.1018  0.4274 -0.9772
 5134SOL    HW226862   3.284   4.608   1.408 -2.2149 -2.4407  0.6882
 5135SOL     OW26863   3.069   2.883   5.744 -0.3237  0.0747  0.0901
 5135SOL    HW126864   3.079   2.977   5.734  2.1371 -0.0789  1.1694
 5135SOL    HW226865   2.976   2.878   5.767  0.0077 -1.4420  1.1730
 5136SOL     OW26866   4.527   2.391   4.385  0.7096  0.1285 -0.2367
 5136SOL    HW126867   4.460   2.325   4.401 -0.2814  1.3931  0.7969
 5136SOL    HW226868   4.525   2.407   4.291  0.5031  0.0083 -0.2525
 5137SOL     OW26869   4.635   0.319  16.067 -0.6233 -0.0306  0.0260
 5137SOL    HW126870   4.702   0.383  16.044 -1.5486  0.9140 -0.0346
 5137SOL    HW226871   4.658   0.245  16.011  0.9622  0.8553 -0.4758
 5138SOL     OW26872   0.340   4.596   3.299 -0.8724  0.8444 -0.1116
 5138SOL    HW126873   0.349   4.688   3.323  3.5519  0.3383  0.0830
 5138SOL    HW226874   0.292   4.568   3.377  1.5242 -1.5625  0.4818
 5139SOL     OW26875   0.723   3.730  16.184  0.0364  0.1785  0.4669
 5139SOL    HW126876   0.744   3.824  16.182  1.1014 -0.0498  1.4889
 5139SOL    HW226877   0.770   3.691  16.257 -0.0423  0.4117  0.6418
 5140SOL     OW26878   3.376   0.158   6.860 -0.1417  0.2842 -0.0067
 5140SOL    HW126879   3.338   0.069   6.859 -0.3590  0.3720  0.3018
 5140SOL    HW226880   3.300   0.208   6.890  0.2524  1.8787 -1.7432
 5141SOL     OW26881   1.408   4.627   3.650  0.4206  0.4049  0.5518
 5141SOL    HW126882   1.400   4.562   3.580  0.4513  1.8580 -0.7998
 5141SOL    HW226883   1.332   4.684   3.642 -1.9949 -2.8174  0.7557
 5142SOL     OW26884   2.970   1.983   1.271  0.1923  0.3956 -0.3888
 5142SOL    HW126885   3.032   1.910   1.265 -1.5002 -1.0155 -1.0381
 5142SOL    HW226886   2.979   2.019   1.183 -0.4217 -0.2552 -0.7254
 5143SOL     OW26887   2.647   0.695   9.157 -0.4909 -0.4787 -0.1631
 5143SOL    HW126888   2.655   0.786   9.130  0.1043 -0.0369  1.4868
 5143SOL    HW226889   2.553   0.683   9.149 -0.4449 -1.6014  0.9793
 5144SOL     OW26890   1.702   2.137   9.428 -0.8189 -0.5505 -0.2977
 5144SOL    HW126891   1.740   2.063   9.381 -1.3260  0.2179 -1.9004
 5144SOL    HW226892   1.726   2.113   9.517 -2.2209  0.9243  0.4938
 5145SOL     OW26893   1.100   2.475   8.931 -0.0975  0.2432 -0.4266
 5145SOL    HW126894   1.181   2.524   8.917  1.5753 -2.4098 -0.0946
 5145SOL    HW226895   1.081   2.459   8.839  1.0648  0.1061 -0.6445
 5146SOL     OW26896   4.027   0.424   1.934 -0.4151  0.2600  0.4025
 5146SOL    HW126897   4.008   0.406   2.026  1.3156 -0.0212  0.7010
 5146SOL    HW226898   4.086   0.349   1.926 -1.8878 -0.8373 -0.2419
 5147SOL     OW26899   0.921   0.875   5.126 -0.5148 -0.5522 -0.1384
 5147SOL    HW126900   1.010   0.892   5.096  0.3406 -1.4283  1.9266
 5147SOL    HW226901   0.921   0.889   5.221  0.8185 -1.3396 -0.0130
 5148SOL     OW26902   0.138   3.171   9.690  0.1575 -0.5360  0.2335
 5148SOL    HW126903   0.138   3.194   9.597  0.0093 -1.2763  0.0496
 5148SOL    HW226904   0.109   3.248   9.739  1.5932 -1.6210  2.7985
 5149SOL     OW26905   0.136   1.968   1.166  0.5733 -0.4425  0.3074
 5149SOL    HW126906   0.138   2.062   1.151  0.4103 -0.3917  0.6139
 5149SOL    HW226907   0.043   1.945   1.162  0.4080  0.3580 -0.3207
 5150SOL     OW26908   1.860   0.693   7.145 -0.1595  0.0537 -0.2740
 5150SOL    HW126909   1.877   0.752   7.218 -0.1830  0.6673 -0.7722
 5150SOL    HW226910   1.947   0.652   7.141 -0.7697 -0.9852 -2.8893
 5151SOL     OW26911   3.092   2.557   6.444  0.0158  0.2181 -0.1217
 5151SOL    HW126912   3.068   2.478   6.493 -0.7248 -0.4631 -1.5915
 5151SOL    HW226913   3.167   2.586   6.496 -1.3520  0.3998  1.7270
 5152SOL     OW26914   1.789   4.395   2.048  0.6429  0.3369  0.6715
 5152SOL    HW126915   1.697   4.376   2.029  0.9730 -0.4837 -0.0572
 5152SOL    HW226916   1.810   4.460   1.980 -0.7645 -2.4609 -2.4791
 5153SOL     OW26917   3.357   2.953  16.304 -0.8276 -0.4137  0.1929
 5153SOL    HW126918   3.310   2.975  16.223 -1.6230  0.2205  0.8350
 5153SOL    HW226919   3.365   2.858  16.297 -0.7840 -0.4632  0.9402
 5154SOL     OW26920   2.035   1.193   4.027 -0.0592  0.1646  0.6569
 5154SOL    HW126921   2.021   1.115   3.972  0.3471 -1.0023  2.2024
 5154SOL    HW226922   2.130   1.191   4.014 -0.2863  2.2178 -1.3040
 5155SOL     OW26923   2.259   3.617   2.698 -0.1360 -0.2283  0.3143
 5155SOL    HW126924   2.279   3.643   2.608  0.8802 -0.0845  0.5821
 5155SOL    HW226925   2.333   3.658   2.742  1.9899 -2.6382 -1.0665
 5156SOL     OW26926   2.528   3.330   3.444 -0.2052 -0.1481 -0.5301
 5156SOL    HW126927   2.507   3.238   3.463  5.9109 -1.9751 -2.5096
 5156SOL    HW226928   2.449   3.383   3.440 -0.4585 -0.5217 -0.4458
 5157SOL     OW26929   0.779   3.636   5.010  0.2967 -0.6140  0.1177
 5157SOL    HW126930   0.764   3.580   5.086  0.7951  0.6784  1.1747
 5157SOL    HW226931   0.767   3.569   4.943  0.1513  0.2441 -0.7070
 5158SOL     OW26932   3.305   2.660   6.595 -0.2823 -1.0047  0.0547
 5158SOL    HW126933   3.390   2.648   6.553  0.1515 -3.1919  1.5481
 5158SOL    HW226934   3.324   2.697   6.681  0.6813 -0.6811 -0.3039
 5159SOL     OW26935   1.745   3.121   3.752  0.0588  0.4590  0.1789
 5159SOL    HW126936   1.737   3.077   3.667  1.1561 -1.2618  0.9489
 5159SOL    HW226937   1.655   3.148   3.768 -0.6767 -2.5959  1.2491
 5160SOL     OW26938   0.565   1.454   4.241  0.0692  0.4954 -0.2162
 5160SOL    HW126939   0.580   1.541   4.276 -0.8352  0.3496  0.5351
 5160SOL    HW226940   0.520   1.459   4.156  1.7619 -2.5396 -1.2807
 5161SOL     OW26941   2.707   3.398  10.502  0.0056  1.0037  0.2056
 5161SOL    HW126942   2.662   3.443  10.575 -2.1920 -0.5971 -0.1590
 5161SOL    HW226943   2.795   3.401  10.540  1.0797 -1.5969 -2.1419
 5162SOL     OW26944   2.821   0.606   3.614  0.1850 -0.2163  0.3110
 5162SOL    HW126945   2.803   0.700   3.609 -2.5267 -0.7234  0.7254
 5162SOL    HW226946   2.865   0.580   3.533 -0.7804 -0.3992 -0.1484
 5163SOL     OW26947   0.787   2.233   2.178 -0.1416  0.3227 -0.0305
 5163SOL    HW126948   0.877   2.232   2.211 -0.7211 -3.8962  1.5757
 5163SOL    HW226949   0.795   2.156   2.122 -0.8965  0.3740 -0.2083
 5164SOL     OW26950   0.778   1.859   9.054  0.1319  0.0446 -0.1338
 5164SOL    HW126951   0.792   1.899   8.969  0.4683  1.4643  0.5921
 5164SOL    HW226952   0.867   1.830   9.076 -0.1901 -1.0119 -0.2046
 5165SOL     OW26953   1.859   3.639   5.186  0.5546  0.4871 -0.1243
 5165SOL    HW126954   1.866   3.618   5.280  0.3210  1.3053  0.0705
 5165SOL    HW226955   1.951   3.650   5.161  1.1548 -2.3942  0.7701
 5166SOL     OW26956   4.475   2.220   2.616  0.0729  0.0814 -0.4894
 5166SOL    HW126957   4.397   2.248   2.664 -0.1028  0.1951 -0.8416
 5166SOL    HW226958   4.452   2.242   2.525  3.1941  3.0124 -0.5629
 5167SOL     OW26959   1.268   3.942   1.093  0.3852  0.0018  0.1575
 5167SOL    HW126960   1.327   4.007   1.054  1.1737 -0.7002  0.1894
 5167SOL    HW226961   1.327   3.896   1.152 -1.1086 -2.2096 -0.0678
 5168SOL     OW26962   3.483   3.225   5.964  0.4406 -0.2605  0.1756
 5168SOL    HW126963   3.542   3.297   5.985 -1.5494  1.6181 -0.6769
 5168SOL    HW226964   3.516   3.158   6.023  0.7126  0.3640  0.7372
 5169SOL     OW26965   2.353   1.827  11.920  0.3849 -0.2589 -0.1789
 5169SOL    HW126966   2.382   1.743  11.956 -0.5006  0.6030  2.5563
 5169SOL    HW226967   2.259   1.808  11.915  0.3080 -0.4317  1.8752
 5170SOL     OW26968   3.678   0.588   3.328  0.0804 -0.2873  0.0979
 5170SOL    HW126969   3.645   0.671   3.362 -1.7779 -1.1023  0.2417
 5170SOL    HW226970   3.594   0.542   3.328 -0.9757  1.6374  1.0637
 5171SOL     OW26971   3.156   0.677   5.083 -0.5066  0.2702  0.6567
 5171SOL    HW126972   3.098   0.735   5.034 -1.1256  0.1174  1.2104
 5171SOL    HW226973   3.118   0.591   5.068  0.5318  0.0890 -0.9868
 5172SOL     OW26974   3.963   1.226   2.797 -0.7885  0.0105 -0.2794
 5172SOL    HW126975   3.926   1.192   2.878  0.8988 -1.0128  0.0725
 5172SOL    HW226976   3.896   1.284   2.761 -0.8647 -0.0522 -0.2383
 5173SOL     OW26977   0.819   3.596   5.599 -0.5663  0.7292  0.2897
 5173SOL    HW126978   0.838   3.586   5.693 -0.6805  0.5991  0.2978
 5173SOL    HW226979   0.732   3.557   5.590 -0.1317 -0.1741  0.0253
 5174SOL     OW26980   3.057   1.780   1.002  0.1753  0.2132 -0.0512
 5174SOL    HW126981   3.060   1.873   1.026  0.3158  0.0336  0.6110
 5174SOL    HW226982   2.984   1.772   0.940  1.1466 -2.3950 -0.8704
 5175SOL     OW26983   1.324   4.260   6.906 -1.0430 -0.1782  0.0254
 5175SOL    HW126984   1.371   4.290   6.983 -0.9680 -0.4724  0.0929
 5175SOL    HW226985   1.238   4.300   6.917 -0.8869 -0.2959  1.6715
 5176SOL     OW26986   3.276   1.788   2.607 -0.0090 -0.1587 -0.4349
 5176SOL    HW126987   3.366   1.769   2.581 -0.3118 -0.2378 -1.4152
 5176SOL    HW226988   3.274   1.726   2.680 -1.3167 -0.0190 -0.3506
 5177SOL     OW26989   0.263   2.267   6.068  0.3797  0.0687  0.4779
 5177SOL    HW126990   0.343   2.216   6.062  0.0403 -0.4432  0.3297
 5177SOL    HW226991   0.296   2.333   6.128 -3.6139  1.5606  1.0781
 5178SOL     OW26992   2.264   4.368   4.457 -0.0310  0.2454  0.1772
 5178SOL    HW126993   2.171   4.356   4.438  0.0528 -1.9558  1.1526
 5178SOL    HW226994   2.284   4.421   4.380 -1.9872 -2.2305 -2.0388
 5179SOL     OW26995   2.455   3.714   7.621 -0.0346 -0.1997 -0.2492
 5179SOL    HW126996   2.463   3.780   7.689  0.6673 -0.8561  0.3061
 5179SOL    HW226997   2.536   3.743   7.580  0.2463  1.5866  1.5921
 5180SOL     OW26998   3.243   1.973   7.671  0.1008  0.2271 -0.4913
 5180SOL    HW126999   3.281   2.012   7.592 -2.7802 -0.5265 -2.2683
 5180SOL    HW227000   3.317   1.978   7.731  0.9569  1.5249 -1.6563
 5181SOL     OW27001   2.248   1.963   4.260  0.3188 -0.5926 -0.3083
 5181SOL    HW127002   2.192   1.978   4.184  0.5471 -1.5236 -0.6586
 5181SOL    HW227003   2.218   1.876   4.286 -0.8266 -1.0152 -3.0476
 5182SOL     OW27004   4.300   3.817  12.944 -0.1641 -0.0493  0.4821
 5182SOL    HW127005   4.331   3.869  12.870 -0.7186  0.9058  0.9170
 5182SOL    HW227006   4.379   3.798  12.995  0.7205  1.2294 -0.3932
 5183SOL     OW27007   1.849   4.144   0.696 -0.3678  0.1517 -0.4724
 5183SOL    HW127008   1.796   4.064   0.705 -1.0050  0.6596  0.3209
 5183SOL    HW227009   1.792   4.203   0.647 -0.4346  0.5799  0.1174
 5184SOL     OW27010   0.594   3.261   0.381 -0.1329 -0.3899  0.2342
 5184SOL    HW127011   0.635   3.339   0.344  0.1519 -0.2634  0.8246
 5184SOL    HW227012   0.623   3.270   0.471 -1.5588  3.6985  0.2677
 5185SOL     OW27013   0.727   4.373   6.894 -0.4186 -0.8141 -0.0468
 5185SOL    HW127014   0.632   4.362   6.898 -0.2458 -2.6894 -1.3579
 5185SOL    HW227015   0.759   4.314   6.826  0.5402  1.1460 -1.3047
 5186SOL     OW27016   0.933   2.300   5.145  0.3332 -0.3550 -0.0363
 5186SOL    HW127017   0.905   2.210   5.163  0.3633 -0.2320  0.6226
 5186SOL    HW227018   0.851   2.344   5.120  0.4256  0.1486  0.5556
 5187SOL     OW27019   1.020   3.526   2.581  0.5866  0.3564 -0.2553
 5187SOL    HW127020   1.027   3.457   2.647 -2.0855  0.9890  0.6996
 5187SOL    HW227021   1.072   3.593   2.626 -0.2985 -0.1961  1.5971
 5188SOL     OW27022   3.673   3.840   5.586  0.1209  0.3588  0.2071
 5188SOL    HW127023   3.730   3.799   5.520  0.8053 -1.3656  1.8568
 5188SOL    HW227024   3.728   3.878   5.654  0.1370 -2.3420  1.7150
 5189SOL     OW27025   1.810   3.449   6.126 -0.2231  0.1125 -0.2625
 5189SOL    HW127026   1.849   3.530   6.160 -2.1875  0.9425 -0.0203
 5189SOL    HW227027   1.720   3.470   6.151  0.6254  2.3762  0.8768
 5190SOL     OW27028   1.662   2.749  14.658 -0.2680  0.2665 -0.1128
 5190SOL    HW127029   1.724   2.757  14.732  0.1205  3.0067 -0.7562
 5190SOL    HW227030   1.599   2.818  14.676 -0.4599 -0.4690  2.1684
 5191SOL     OW27031   4.317   0.493  10.257 -0.3628 -0.4501 -0.2932
 5191SOL    HW127032   4.256   0.421  10.270 -1.6877  1.3138  3.2459
 5191SOL    HW227033   4.372   0.484  10.335  2.6985 -0.4032 -2.4611
 5192SOL     OW27034   0.992   3.451   7.102 -0.0705  0.3766 -0.3402
 5192SOL    HW127035   1.058   3.382   7.105 -0.5202 -0.0660 -0.8451
 5192SOL    HW227036   0.918   3.405   7.143  0.0617 -0.2329 -0.7948
 5193SOL     OW27037   1.245   0.953  16.904  0.3414  0.2595  0.3176
 5193SOL    HW127038   1.249   1.033  16.852  0.9793  0.4763  0.6932
 5193SOL    HW227039   1.328   0.907  16.887 -0.4464  0.4340 -4.1025
 5194SOL     OW27040   4.553   0.100   3.784  0.5750  0.2583 -0.5657
 5194SOL    HW127041   4.476   0.140   3.743  1.0088  1.4526 -0.2062
 5194SOL    HW227042   4.522   0.010   3.789  1.5300 -0.2871 -4.4541
 5195SOL     OW27043   1.880   2.074   1.220  0.3252  0.3124 -0.2872
 5195SOL    HW127044   1.869   2.158   1.174 -0.2908  1.2651  1.5825
 5195SOL    HW227045   1.895   2.100   1.311 -2.7973  1.2773 -0.0382
 5196SOL     OW27046   3.115   0.735   9.638  0.1747 -0.1000 -0.2750
 5196SOL    HW127047   3.139   0.820   9.602  2.4438 -2.1296 -3.5300
 5196SOL    HW227048   3.162   0.746   9.721 -0.3144  0.8659 -0.1284
 5197SOL     OW27049   1.062   0.665   4.973 -0.0893  0.0190 -0.8633
 5197SOL    HW127050   1.073   0.609   4.897  3.7574 -0.6568  0.1455
 5197SOL    HW227051   1.059   0.749   4.928  0.1284 -0.3069 -1.4837
 5198SOL     OW27052   2.338   2.986   4.497 -0.1301 -0.4553 -0.4209
 5198SOL    HW127053   2.416   2.932   4.502 -0.4226 -0.9063 -0.7727
 5198SOL    HW227054   2.357   3.041   4.420 -0.2615 -0.2972 -0.3427
 5199SOL     OW27055   1.670   2.686   2.084  0.1340  0.5981  0.4808
 5199SOL    HW127056   1.576   2.697   2.096  0.1173  1.5649 -0.5227
 5199SOL    HW227057   1.706   2.723   2.165 -1.5299 -1.2716  2.0561
 5200SOL     OW27058   1.971   0.096   9.657  0.1608  0.5338  0.0109
 5200SOL    HW127059   1.979   0.130   9.746 -1.0216  0.5847  0.1057
 5200SOL    HW227060   1.925   0.166   9.610  0.7901  0.4139 -0.7972
 5201SOL     OW27061   3.376   2.926   7.357  0.5102 -0.4385  0.5469
 5201SOL    HW127062   3.452   2.984   7.365 -0.5919  0.9474  0.8217
 5201SOL    HW227063   3.355   2.908   7.449 -0.3810 -2.1522 -0.0040
 5202SOL     OW27064   4.178   3.943   0.158  0.0287 -0.0271  0.2433
 5202SOL    HW127065   4.093   3.970   0.192 -0.0746  1.1200 -0.9093
 5202SOL    HW227066   4.206   3.863   0.201 -1.9438 -1.2961 -0.8174
 5203SOL     OW27067   0.470   1.530   5.394 -0.2912 -0.4039  0.2879
 5203SOL    HW127068   0.453   1.546   5.487  1.0195 -0.0894  0.4725
 5203SOL    HW227069   0.381   1.516   5.362 -0.4206 -0.8894  0.8446
 5204SOL     OW27070   3.525   1.494   6.739  0.4336 -0.0193  0.5180
 5204SOL    HW127071   3.450   1.467   6.791  0.5855 -1.4205 -0.0024
 5204SOL    HW227072   3.532   1.420   6.679 -0.0379  1.8846 -1.9274
 5205SOL     OW27073   1.666   4.696   6.303 -0.3462  0.4516 -0.3415
 5205SOL    HW127074   1.579   4.713   6.265 -0.1152 -0.3577 -1.2282
 5205SOL    HW227075   1.654   4.601   6.307  4.9202 -0.0852  1.7550
 5206SOL     OW27076   1.079   0.344   2.707  0.1382  0.1500  0.0737
 5206SOL    HW127077   1.004   0.403   2.697  1.2203  1.8859  1.9961
 5206SOL    HW227078   1.124   0.344   2.623 -0.5213 -2.3421 -0.2485
 5207SOL     OW27079   0.764   0.301   6.013 -0.2569  0.9264  0.7100
 5207SOL    HW127080   0.705   0.350   5.957 -0.3971 -2.2063 -1.8722
 5207SOL    HW227081   0.792   0.240   5.945  0.0734  2.1644 -0.2702
 5208SOL     OW27082   3.919   2.146   8.675  0.1878 -0.1367  0.5798
 5208SOL    HW127083   3.945   2.199   8.600  0.7039  0.0536  0.8960
 5208SOL    HW227084   3.920   2.206   8.750  1.4566  0.1302  0.3367
 5209SOL     OW27085   1.573   2.480   2.348  0.5366  0.0862  0.6527
 5209SOL    HW127086   1.591   2.402   2.400  0.2662 -1.9316 -2.3045
 5209SOL    HW227087   1.637   2.544   2.377  0.0876  1.1682 -0.7464
 5210SOL     OW27088   1.694   2.803   4.547  0.0803  0.3112 -0.9659
 5210SOL    HW127089   1.749   2.739   4.501 -0.5194 -0.3964 -0.6925
 5210SOL    HW227090   1.618   2.750   4.567  0.6744  0.5841  2.0316
 5211SOL     OW27091   4.585   2.381  10.267  0.5981 -0.6540 -0.2833
 5211SOL    HW127092   4.642   2.306  10.285  1.2724 -0.1724 -0.4069
 5211SOL    HW227093   4.620   2.409  10.182  0.5551 -2.1740 -0.8076
 5212SOL     OW27094   1.522   1.786   6.307 -0.1814  0.2684  0.1274
 5212SOL    HW127095   1.589   1.719   6.294 -2.4302 -1.6150 -1.5347
 5212SOL    HW227096   1.450   1.754   6.253 -1.7427  0.5622  2.0308
 5213SOL     OW27097   0.914   3.392   6.655 -0.2194 -0.3046  0.3168
 5213SOL    HW127098   0.845   3.446   6.617 -1.1284 -1.1617  0.7520
 5213SOL    HW227099   0.930   3.448   6.731 -2.6187  0.0712  0.5341
 5214SOL     OW27100   3.229   0.767   9.015  0.3606 -0.4596 -0.1681
 5214SOL    HW127101   3.318   0.746   9.044 -0.0677 -3.1042 -0.7196
 5214SOL    HW227102   3.203   0.675   9.022 -1.1196 -0.2228 -2.4507
 5215SOL     OW27103   1.758   4.079   0.124  0.2166 -0.4371 -0.2284
 5215SOL    HW127104   1.815   4.008   0.097 -2.3338 -2.8226  0.6731
 5215SOL    HW227105   1.749   4.084   0.220  2.3464  2.1643 -0.1563
 5216SOL     OW27106   1.716   4.478   9.867  0.2295 -0.3615 -0.4861
 5216SOL    HW127107   1.707   4.442   9.955  0.7006  0.8747  0.0806
 5216SOL    HW227108   1.786   4.540   9.887  1.0887 -1.1976 -0.9279
 5217SOL     OW27109   1.291   2.142   4.860 -0.4576  0.1678  0.7061
 5217SOL    HW127110   1.258   2.200   4.792  0.8357  0.9699  0.7661
 5217SOL    HW227111   1.210   2.101   4.892  0.9092 -2.0889  1.3054
 5218SOL     OW27112   0.394   3.897   3.468  0.3665 -0.1916 -0.3166
 5218SOL    HW127113   0.381   3.963   3.401  1.2380 -1.0128 -1.2901
 5218SOL    HW227114   0.392   3.812   3.424  0.0611  0.4826 -1.5975
 5219SOL     OW27115   0.174   2.948   2.836  0.6889 -0.1989 -0.4088
 5219SOL    HW127116   0.151   2.894   2.760  0.4103 -0.8435  0.1330
 5219SOL    HW227117   0.253   2.990   2.802  1.7879 -1.4028  0.7160
 5220SOL     OW27118   4.295   0.365   9.627 -0.2008 -0.3824 -0.1872
 5220SOL    HW127119   4.318   0.275   9.605  2.8632 -0.2481  2.3735
 5220SOL    HW227120   4.207   0.353   9.663  0.3109 -0.6439  1.0078
 5221SOL     OW27121   3.285   3.498   3.173  0.2738  0.2707 -0.4071
 5221SOL    HW127122   3.243   3.486   3.088 -0.6842  0.7492 -0.0131
 5221SOL    HW227123   3.274   3.593   3.186 -0.4970  0.1782 -0.3541
 5222SOL     OW27124   1.330   3.756  13.860 -0.2065 -0.1801  0.7726
 5222SOL    HW127125   1.247   3.709  13.857 -0.2581 -0.0216 -0.1470
 5222SOL    HW227126   1.312   3.830  13.803  3.6227 -0.7195 -1.1780
 5223SOL     OW27127   0.871   2.135   7.481 -0.0013 -0.0549  0.1803
 5223SOL    HW127128   0.870   2.044   7.452  2.9796  0.0009 -0.1040
 5223SOL    HW227129   0.939   2.154   7.416  2.0922  0.1725  2.4397
 5224SOL     OW27130   0.618   1.365   6.176  0.7559  0.4601 -0.0198
 5224SOL    HW127131   0.587   1.286   6.131 -1.4522 -0.0577  2.5004
 5224SOL    HW227132   0.641   1.328   6.261 -0.7729 -1.3647 -0.4035
 5225SOL     OW27133   3.132   2.996   3.497 -0.0849 -0.4153  0.3019
 5225SOL    HW127134   3.175   2.928   3.550 -1.6377 -0.2894  1.7190
 5225SOL    HW227135   3.087   2.943   3.432  0.3765 -0.5926  0.1222
 5226SOL     OW27136   3.617   3.029   5.079  0.1454 -0.7182 -0.1309
 5226SOL    HW127137   3.708   2.999   5.078  1.1035  2.2548 -0.2253
 5226SOL    HW227138   3.628   3.124   5.074  1.4607 -0.8963 -0.5955
 5227SOL     OW27139   3.644   3.374   8.080  0.4162  0.0949  0.0793
 5227SOL    HW127140   3.585   3.448   8.065  0.1661 -0.2086 -0.4579
 5227SOL    HW227141   3.622   3.315   8.008  0.6771 -1.9244  1.6427
 5228SOL     OW27142   4.611   1.938  15.571 -0.2922 -0.1182 -0.3303
 5228SOL    HW127143   4.706   1.939  15.584 -0.1132  0.3510 -1.7222
 5228SOL    HW227144   4.589   1.991  15.648 -0.4276 -1.3417  0.4764
 5229SOL     OW27145   1.161   0.426  10.789 -0.1745  0.2611 -0.0405
 5229SOL    HW127146   1.251   0.446  10.814 -0.8948  1.0810  1.9247
 5229SOL    HW227147   1.155   0.344  10.838 -2.8601  0.4259 -0.0755
 5230SOL     OW27148   4.439   3.144   5.339  0.3228  0.2215  0.0525
 5230SOL    HW127149   4.480   3.067   5.300 -2.5834 -0.7496 -1.0818
 5230SOL    HW227150   4.362   3.142   5.281 -0.2367  1.2568  0.7573
 5231SOL     OW27151   0.080   2.784   6.826 -0.0430  0.4369 -0.0291
 5231SOL    HW127152   0.160   2.740   6.798 -0.6207 -0.8795  0.3949
 5231SOL    HW227153   0.086   2.784   6.921 -2.8840  0.1729  0.1419
 5232SOL     OW27154   4.579   4.575  10.104 -0.7106  0.1768 -0.2161
 5232SOL    HW127155   4.587   4.491  10.059 -1.6602 -0.8341  1.5027
 5232SOL    HW227156   4.553   4.556  10.194  0.4185  0.2439  0.1249
 5233SOL     OW27157   2.950   4.093   7.080  0.3771 -0.6088  0.3622
 5233SOL    HW127158   3.021   4.156   7.087 -0.1911  0.3111 -2.1508
 5233SOL    HW227159   2.998   4.016   7.050  1.3105  0.0718  0.1403
 5234SOL     OW27160   1.403   2.989   2.427 -0.4694  0.0478 -0.0855
 5234SOL    HW127161   1.340   2.934   2.473  2.1433 -1.8769  1.2363
 5234SOL    HW227162   1.393   3.068   2.479 -0.7901  0.7886 -1.2660
 5235SOL     OW27163   4.490   0.714   7.086 -0.0867 -0.1352 -0.1382
 5235SOL    HW127164   4.572   0.762   7.080 -0.8333  0.9864 -1.5997
 5235SOL    HW227165   4.435   0.773   7.138 -0.3634  0.5457 -1.1989
 5236SOL     OW27166   4.154   1.425  11.720  0.1126 -0.4591 -0.1462
 5236SOL    HW127167   4.182   1.439  11.630 -2.0449  1.2327 -0.5574
 5236SOL    HW227168   4.155   1.514  11.755  1.0766 -1.0723  1.3941
 5237SOL     OW27169   1.852   1.481   7.833  0.1958  0.1452 -0.3649
 5237SOL    HW127170   1.887   1.564   7.801  1.0154  0.4158  1.2733
 5237SOL    HW227171   1.773   1.475   7.778 -0.7137  0.9312  0.8713
 5238SOL     OW27172   3.712   0.390  10.855  0.4288 -0.2769  0.0472
 5238SOL    HW127173   3.679   0.301  10.867  0.5780 -0.2400  0.7872
 5238SOL    HW227174   3.767   0.394  10.933  1.0664  1.3509 -0.4759
 5239SOL     OW27175   0.159   0.420  10.287  0.0321 -0.1297 -0.2154
 5239SOL    HW127176   0.115   0.335  10.276 -2.9376  1.2615  0.7873
 5239SOL    HW227177   0.246   0.388  10.264 -0.3359 -1.6374  0.4795
 5240SOL     OW27178   1.900   3.270   5.157  0.2203  0.6297  0.2915
 5240SOL    HW127179   1.858   3.187   5.132 -0.6925  1.3530 -0.5593
 5240SOL    HW227180   1.904   3.270   5.253  0.4922 -0.4406  0.2831
 5241SOL     OW27181   2.918   0.002   9.699 -0.0739  0.0012 -0.7012
 5241SOL    HW127182   2.954   0.062   9.634  0.4736 -0.1673 -0.5505
 5241SOL    HW227183   2.954   0.042   9.779  0.9731 -0.4348 -0.9577
 5242SOL     OW27184   4.040   4.023   8.081  0.1713 -0.0238 -0.2040
 5242SOL    HW127185   4.056   4.059   7.994  1.0603 -1.0421 -0.4683
 5242SOL    HW227186   3.979   3.949   8.070 -0.0527  0.2094 -0.5247
 5243SOL     OW27187   4.013   4.666  10.346 -0.3254  0.0606  0.1214
 5243SOL    HW127188   3.983   4.671  10.255  0.7062 -0.9469 -0.2707
 5243SOL    HW227189   4.104   4.636  10.337 -0.3339  0.0740 -0.0077
 5244SOL     OW27190   4.284   1.489  10.501  0.3223  0.8361 -0.1656
 5244SOL    HW127191   4.263   1.568  10.551 -1.5876  1.7515 -2.4070
 5244SOL    HW227192   4.199   1.445  10.508  2.0447 -1.9749  3.1041
 5245SOL     OW27193   3.322   2.046   3.473  0.3939 -0.1736  0.1939
 5245SOL    HW127194   3.293   1.976   3.415 -0.1487  0.2293 -0.0245
 5245SOL    HW227195   3.410   2.059   3.437  0.2927  2.7226  0.9636
 5246SOL     OW27196   0.922   2.555  14.626  0.3537 -0.6856 -0.7144
 5246SOL    HW127197   0.905   2.505  14.706 -2.1642  0.4222 -0.5746
 5246SOL    HW227198   0.953   2.638  14.664  1.2176 -0.8378 -1.0723
 5247SOL     OW27199   0.469   2.116   5.840 -0.2872 -1.0183  0.3948
 5247SOL    HW127200   0.404   2.123   5.771 -0.2112  0.1991  0.4514
 5247SOL    HW227201   0.422   2.068   5.907  0.6602 -3.1305 -0.4380
 5248SOL     OW27202   2.597   0.453   9.764 -0.2709 -0.4098  0.4816
 5248SOL    HW127203   2.647   0.385   9.721 -0.6768  1.5918 -3.1445
 5248SOL    HW227204   2.514   0.462   9.717 -0.1473  0.6153  0.4441
 5249SOL     OW27205   2.830   4.177   2.842  0.0553 -0.1746 -0.0525
 5249SOL    HW127206   2.902   4.195   2.781 -0.3566 -1.5174 -0.9339
 5249SOL    HW227207   2.754   4.197   2.787  0.1854 -4.0487 -1.6054
 5250SOL     OW27208   2.879   3.275   3.919  0.2721  0.2262  0.1600
 5250SOL    HW127209   2.974   3.279   3.909  0.2466  0.9373  0.1978
 5250SOL    HW227210   2.853   3.203   3.862  1.0601 -0.6345  0.8878
 5251SOL     OW27211   1.693   4.639   1.265  0.0581 -0.4350 -0.1693
 5251SOL    HW127212   1.711   4.574   1.197 -1.6010 -1.2433  0.1671
 5251SOL    HW227213   1.652   4.584   1.332  0.7561 -1.3163 -0.4741
 5252SOL     OW27214   2.547   2.502   4.138  0.0051 -0.2212 -0.8869
 5252SOL    HW127215   2.519   2.413   4.120 -0.6515 -0.2477  0.2815
 5252SOL    HW227216   2.626   2.518   4.086  0.8740 -0.8232  0.2575
 5253SOL     OW27217   2.274   2.979   4.024 -1.0027 -0.2433 -0.0457
 5253SOL    HW127218   2.294   2.899   4.071  3.6624  2.6287  2.8594
 5253SOL    HW227219   2.183   2.956   4.002 -1.6611  0.6159  1.7906
 5254SOL     OW27220   2.123   2.114   5.590  0.5870  0.6058 -0.0757
 5254SOL    HW127221   2.140   2.111   5.496 -0.4662 -1.0445 -0.2229
 5254SOL    HW227222   2.158   2.028   5.614  0.1212  0.1545 -1.0254
 5255SOL     OW27223   0.486   2.681   3.965 -0.1392 -0.5434  0.6828
 5255SOL    HW127224   0.487   2.707   4.057 -0.3934 -0.3903  0.6436
 5255SOL    HW227225   0.392   2.682   3.947  0.3062 -2.9502 -1.7429
 5256SOL     OW27226   4.270   3.159   5.554  0.1429 -0.3933 -0.0369
 5256SOL    HW127227   4.350   3.128   5.511 -1.0517 -0.0884 -2.4335
 5256SOL    HW227228   4.195   3.137   5.499 -0.4258  0.8376  0.2557
 5257SOL     OW27229   3.001   2.596   5.940  0.1954 -0.1951 -0.1625
 5257SOL    HW127230   2.964   2.681   5.914  1.0173  1.0347  2.7212
 5257SOL    HW227231   2.917   2.550   5.950 -0.6533  1.1308 -1.1358
 5258SOL     OW27232   1.825   2.763   7.834  0.4073 -0.1984  0.1879
 5258SOL    HW127233   1.776   2.845   7.830 -0.8188 -0.9378 -0.1351
 5258SOL    HW227234   1.762   2.691   7.827 -0.5377  0.8841 -2.3793
 5259SOL     OW27235   0.601   1.401   9.222  0.2470  0.1990 -0.4172
 5259SOL    HW127236   0.520   1.353   9.205  0.5396  0.5508 -2.6861
 5259SOL    HW227237   0.668   1.342   9.189 -0.4166  0.6990 -2.6038
 5260SOL     OW27238   2.969   1.083   3.457  0.1875  0.3644 -0.2360
 5260SOL    HW127239   2.939   1.005   3.505  3.7508  0.6049  2.3852
 5260SOL    HW227240   2.975   1.140   3.534  0.0298  1.4152 -1.0065
 5261SOL     OW27241   2.540   1.558   7.839 -0.2184 -0.0706 -0.5406
 5261SOL    HW127242   2.509   1.527   7.924 -0.0803  0.3961 -0.3220
 5261SOL    HW227243   2.489   1.639   7.833 -3.4143 -1.8793  1.9540
 5262SOL     OW27244   4.023   1.411   5.384  0.0208 -0.1587  0.3778
 5262SOL    HW127245   3.965   1.465   5.331 -1.1642 -0.9883  0.8403
 5262SOL    HW227246   4.097   1.397   5.325  0.1721  1.1754  0.2461
 5263SOL     OW27247   0.277   4.470   7.241 -0.3596 -0.0816  0.3476
 5263SOL    HW127248   0.208   4.404   7.232 -2.1491  1.8517 -0.2310
 5263SOL    HW227249   0.263   4.495   7.332 -0.3899  1.7864 -0.1622
 5264SOL     OW27250   2.575   0.430   7.644  0.0393  0.0559  0.2655
 5264SOL    HW127251   2.589   0.402   7.734  1.5643  0.4658  0.1538
 5264SOL    HW227252   2.517   0.355   7.627 -0.7809  1.3330 -2.5100
 5265SOL     OW27253   1.990   1.651  13.717  0.5557 -0.5783  0.3767
 5265SOL    HW127254   2.044   1.724  13.687  0.1385 -0.4331 -0.0090
 5265SOL    HW227255   1.986   1.670  13.811 -0.1861 -1.4916  0.5258
 5266SOL     OW27256   3.852   3.180  12.136  0.4702  0.6466  0.3045
 5266SOL    HW127257   3.939   3.178  12.096  0.3978 -1.7912  0.2993
 5266SOL    HW227258   3.829   3.258  12.085  0.9597 -0.0108 -0.9365
 5267SOL     OW27259   4.508   1.840   0.638  0.1090  0.2854  0.4098
 5267SOL    HW127260   4.579   1.899   0.664  0.9249  0.0024 -1.1813
 5267SOL    HW227261   4.457   1.831   0.719  2.9160 -0.4826  2.0812
 5268SOL     OW27262   0.558   3.702  14.586 -0.7792  0.4849  0.0500
 5268SOL    HW127263   0.531   3.649  14.662 -0.1567 -0.6803 -0.5352
 5268SOL    HW227264   0.511   3.780  14.613 -1.2661  0.0657  0.4023
 5269SOL     OW27265   2.847   4.594   7.748 -0.0877 -0.7612 -0.3551
 5269SOL    HW127266   2.854   4.649   7.669  1.6939 -2.4713 -1.3793
 5269SOL    HW227267   2.937   4.596   7.781  0.4628  2.7315 -1.9991
 5270SOL     OW27268   1.461   2.023   1.546  0.7987  0.5349  0.0983
 5270SOL    HW127269   1.508   2.006   1.464  0.7458  0.6358  0.0476
 5270SOL    HW227270   1.370   2.005   1.521  0.6546  1.3957  0.0062
 5271SOL     OW27271   0.581   4.336   8.347  0.6409  0.4008  0.4600
 5271SOL    HW127272   0.495   4.344   8.388  1.3247 -2.8274  2.5427
 5271SOL    HW227273   0.596   4.244   8.366 -0.6932  0.0035 -0.4371
 5272SOL     OW27274   0.390   0.963   0.949  0.2308  0.1003  0.6136
 5272SOL    HW127275   0.432   1.039   0.910 -0.8552  1.1897  1.5724
 5272SOL    HW227276   0.468   0.910   0.968  1.6810  2.0308 -0.0319
 5273SOL     OW27277   2.808   1.299  14.044  0.6351  0.0127  0.2922
 5273SOL    HW127278   2.901   1.322  14.050  0.0016  2.7104 -0.1071
 5273SOL    HW227279   2.779   1.351  14.119 -0.1181 -1.6929  1.1578
 5274SOL     OW27280   2.999   3.095   2.998 -0.2647 -0.2157  0.4607
 5274SOL    HW127281   3.010   3.163   3.064  0.8812  0.2634 -0.2205
 5274SOL    HW227282   3.055   3.120   2.924  1.2094 -0.1020  1.6252
 5275SOL     OW27283   2.576   2.605   5.471 -0.3702 -0.2270  0.7510
 5275SOL    HW127284   2.537   2.688   5.498 -0.1995  0.4106 -0.9920
 5275SOL    HW227285   2.656   2.633   5.427  0.8367 -1.2361  2.2860
 5276SOL     OW27286   4.305   2.926   1.465  0.4921  0.6936 -0.0405
 5276SOL    HW127287   4.349   2.991   1.410  0.2531  0.5302 -0.4171
 5276SOL    HW227288   4.236   2.977   1.506  0.7913  1.7398 -0.8505
 5277SOL     OW27289   2.920   0.732   2.918 -0.0662 -0.1855  0.1449
 5277SOL    HW127290   2.993   0.790   2.893  1.2150 -1.5164  0.8103
 5277SOL    HW227291   2.855   0.761   2.855  0.4199  1.3296  0.3217
 5278SOL     OW27292   0.275   3.931   6.366 -0.1161  0.5501 -0.6886
 5278SOL    HW127293   0.339   3.997   6.390 -0.4951  0.6171  0.1243
 5278SOL    HW227294   0.320   3.848   6.381  2.2231  1.7565 -1.0693
 5279SOL     OW27295   2.353   4.560   4.853  0.2528 -0.0038 -0.0138
 5279SOL    HW127296   2.368   4.530   4.764  2.7277  2.3842 -0.4129
 5279SOL    HW227297   2.269   4.521   4.877  1.0860 -1.6628  0.2014
 5280SOL     OW27298   1.710   1.681  15.848 -0.7445 -0.0583 -0.6516
 5280SOL    HW127299   1.770   1.726  15.790  2.8655 -1.2016  2.1571
 5280SOL    HW227300   1.768   1.615  15.888  0.1809  0.6425 -0.8487
 5281SOL     OW27301   1.498   2.923   5.991 -0.0365  0.6794  0.1141
 5281SOL    HW127302   1.438   2.965   6.053 -0.3608  2.0847 -1.1533
 5281SOL    HW227303   1.468   2.967   5.912 -0.2400  1.4584  0.6170
 5282SOL     OW27304   0.320   1.433   1.602  0.1862 -0.4861  0.2198
 5282SOL    HW127305   0.343   1.519   1.638 -3.1021 -0.2287  1.7189
 5282SOL    HW227306   0.226   1.432   1.584 -0.4479  0.9370  3.4554
 5283SOL     OW27307   3.720   4.044   7.943  0.0042 -0.3440  0.3289
 5283SOL    HW127308   3.719   3.981   8.014  0.9580  0.8406  1.3791
 5283SOL    HW227309   3.700   3.984   7.870 -1.1154 -0.7847  0.9968
 5284SOL     OW27310   1.691   3.182   6.407 -0.0105  0.3458 -0.1219
 5284SOL    HW127311   1.718   3.108   6.352  2.4665 -0.4668  2.1767
 5284SOL    HW227312   1.645   3.130   6.473  2.4714 -1.5344  0.1183
 5285SOL     OW27313   2.874   3.043   6.566  0.2058  0.5171 -0.5330
 5285SOL    HW127314   2.967   3.018   6.562 -0.0354 -0.6645  0.8889
 5285SOL    HW227315   2.869   3.121   6.512  1.0379  0.1148 -1.2044
 5286SOL     OW27316   3.005   3.728   9.443  0.0040 -0.0742  0.6087
 5286SOL    HW127317   2.991   3.813   9.484 -0.9851 -0.1778  0.4918
 5286SOL    HW227318   3.011   3.765   9.355 -2.5536 -0.4571  0.2728
 5287SOL     OW27319   4.061   0.613   8.666 -0.3812 -0.5744 -0.2281
 5287SOL    HW127320   4.041   0.663   8.587 -0.0450  0.0902  0.1039
 5287SOL    HW227321   4.153   0.588   8.653  0.5097  1.6512  1.6665
 5288SOL     OW27322   2.717   4.618   4.322 -0.3219 -0.2775  0.4420
 5288SOL    HW127323   2.675   4.579   4.245  2.4757  0.3655 -1.4018
 5288SOL    HW227324   2.801   4.641   4.283 -0.0477 -0.7606  0.7438
 5289SOL     OW27325   3.832   2.775  13.975 -0.8524 -0.0853 -0.1500
 5289SOL    HW127326   3.811   2.731  14.058  2.6779 -0.2880  0.6325
 5289SOL    HW227327   3.927   2.789  13.983 -0.7453 -1.2285  0.7434
 5290SOL     OW27328   0.803   2.630   1.940 -0.2940 -0.1456 -0.7337
 5290SOL    HW127329   0.723   2.615   1.990 -0.0671  1.0635 -0.0238
 5290SOL    HW227330   0.824   2.709   1.989 -0.8954  0.1353 -0.9351
 5291SOL     OW27331   2.848   0.723  17.326  0.4402 -0.0339 -0.5846
 5291SOL    HW127332   2.927   0.743  17.375 -0.0809 -2.3133  1.2077
 5291SOL    HW227333   2.807   0.807  17.307 -1.0693 -0.0558  2.5387
 5292SOL     OW27334   2.182   3.364   7.794 -0.2363 -0.2195 -0.2277
 5292SOL    HW127335   2.098   3.375   7.749 -0.6021 -0.4689  0.4034
 5292SOL    HW227336   2.228   3.319   7.723  2.0857  2.6713 -0.5680
 5293SOL     OW27337   3.496   0.361   4.346 -0.2562  0.2602  0.1798
 5293SOL    HW127338   3.539   0.368   4.432 -0.3692  1.5334  0.1424
 5293SOL    HW227339   3.497   0.453   4.320  0.5307  0.6073  1.3943
 5294SOL     OW27340   2.676   3.234   7.218 -0.2322  0.0504  0.1233
 5294SOL    HW127341   2.624   3.307   7.251  0.4860  0.7596 -0.3059
 5294SOL    HW227342   2.636   3.232   7.131  0.4272  0.2833 -0.1907
 5295SOL     OW27343   0.337   2.531   3.222  0.2591  0.0950  0.3626
 5295SOL    HW127344   0.369   2.616   3.252 -0.6173  1.0181 -1.2420
 5295SOL    HW227345   0.243   2.548   3.209 -0.0039 -0.5249  1.4348
 5296SOL     OW27346   1.684   3.313  16.828 -0.7004 -0.3880 -0.6938
 5296SOL    HW127347   1.744   3.387  16.823  0.4689 -1.2151  1.4308
 5296SOL    HW227348   1.639   3.335  16.746 -2.3394  0.0503  0.3177
 5297SOL     OW27349   1.821   0.167   6.416  0.3142 -0.3412 -0.0010
 5297SOL    HW127350   1.787   0.083   6.384  2.3749 -1.6051  1.1475
 5297SOL    HW227351   1.800   0.148   6.508  0.9077 -0.2015  0.1629
 5298SOL     OW27352   4.151   3.031   1.182  0.1297 -0.2538  0.5586
 5298SOL    HW127353   4.107   3.028   1.098  2.6607  1.6893 -0.8483
 5298SOL    HW227354   4.110   2.954   1.220 -1.1403 -0.0229 -0.3557
 5299SOL     OW27355   3.852   0.174   3.433 -0.4114 -0.6776 -0.1056
 5299SOL    HW127356   3.769   0.156   3.478  0.7443  2.4045  3.3078
 5299SOL    HW227357   3.897   0.227   3.499  0.3418 -1.8911  0.3530
 5300SOL     OW27358   2.547   0.710  16.851  0.1181  0.4142  0.1730
 5300SOL    HW127359   2.483   0.779  16.869 -0.1615  0.2882 -0.3481
 5300SOL    HW227360   2.609   0.722  16.924 -1.0521 -0.6984  1.3509
 5301SOL     OW27361   1.655   3.199   2.576  0.3687 -0.0795 -0.6941
 5301SOL    HW127362   1.658   3.253   2.497  1.6236 -0.4147 -0.8829
 5301SOL    HW227363   1.750   3.200   2.590  0.2857 -1.6332 -0.0610
 5302SOL     OW27364   1.929   3.236   2.636 -0.1176 -0.5925  0.1201
 5302SOL    HW127365   1.976   3.201   2.560 -0.4315  0.5975 -0.6273
 5302SOL    HW227366   1.985   3.197   2.703  1.1806  0.5465 -0.2888
 5303SOL     OW27367   1.716   2.427   9.317 -0.7687 -0.0535 -0.2273
 5303SOL    HW127368   1.634   2.400   9.277 -0.0909  0.5531 -2.0453
 5303SOL    HW227369   1.697   2.463   9.404  0.0449 -0.0408 -0.0480
 5304SOL     OW27370   3.362   3.155   0.824 -0.2617 -0.0619 -0.1123
 5304SOL    HW127371   3.317   3.178   0.742  0.0179  0.0893 -0.2246
 5304SOL    HW227372   3.433   3.101   0.790 -0.3373 -0.4852  0.4002
 5305SOL     OW27373   3.420   2.011   8.549  0.0557 -0.5165  0.0670
 5305SOL    HW127374   3.362   1.961   8.606 -1.5631  1.8816  0.5204
 5305SOL    HW227375   3.486   2.047   8.608 -0.1420  0.3248 -0.2329
 5306SOL     OW27376   4.608   2.234   8.136  0.4730  0.2920 -0.1083
 5306SOL    HW127377   4.683   2.234   8.077 -0.5984 -1.4243 -1.4438
 5306SOL    HW227378   4.651   2.213   8.219 -1.1732 -0.9858  0.4150
 5307SOL     OW27379   2.716   2.894  12.749 -0.4170 -0.2488 -0.1470
 5307SOL    HW127380   2.674   2.818  12.790 -0.2960 -2.5978 -4.3510
 5307SOL    HW227381   2.807   2.864  12.742 -0.9764 -1.8007 -0.8102
 5308SOL     OW27382   3.479   2.471  12.381  0.5406 -0.0977 -0.0952
 5308SOL    HW127383   3.453   2.497  12.293  0.2954 -1.8201 -0.5208
 5308SOL    HW227384   3.513   2.557  12.407 -1.5049  0.7490 -0.2806
 5309SOL     OW27385   0.087   0.536   9.475  0.1697  0.2154  0.0052
 5309SOL    HW127386   0.076   0.627   9.448  1.6801  1.3569  3.2472
 5309SOL    HW227387   0.055   0.493   9.396  0.1927 -1.2576  0.7919
 5310SOL     OW27388   0.308   0.426   1.714  0.0417 -0.7724  0.4574
 5310SOL    HW127389   0.322   0.419   1.808  0.9014 -1.0574  0.3091
 5310SOL    HW227390   0.363   0.504   1.701 -0.8492 -0.4719 -1.5577
 5311SOL     OW27391   3.541   0.034   8.211  0.2635  0.4436  0.2653
 5311SOL    HW127392   3.482   0.064   8.280 -0.9960 -1.3817 -0.0072
 5311SOL    HW227393   3.486   4.691   8.165  2.0983  0.8543 -2.4746
 5312SOL     OW27394   3.401   3.951   4.728  0.4460 -0.1403  0.2908
 5312SOL    HW127395   3.323   3.966   4.781 -0.1291 -0.2059 -0.5381
 5312SOL    HW227396   3.375   3.870   4.684  0.4001  0.7748 -1.3916
 5313SOL     OW27397   4.288   0.458  11.292 -0.3535 -0.4659 -0.5665
 5313SOL    HW127398   4.217   0.457  11.228 -0.7965  4.9617 -0.1473
 5313SOL    HW227399   4.233   0.404  11.349 -1.6861 -1.8194 -3.1165
 5314SOL     OW27400   3.218   3.303   9.831 -0.1324  0.2265 -0.0227
 5314SOL    HW127401   3.252   3.391   9.818 -1.3894  0.3919 -2.0447
 5314SOL    HW227402   3.296   3.249   9.818  0.2593  1.3754 -2.3640
 5315SOL     OW27403   2.658   3.299   1.894  0.4443  0.1366  0.5067
 5315SOL    HW127404   2.718   3.277   1.966  0.7581  1.2951  0.6038
 5315SOL    HW227405   2.573   3.320   1.932  2.1793  0.9936  3.9570
 5316SOL     OW27406   4.708   3.362   3.937 -0.1748  0.2316 -0.0615
 5316SOL    HW127407   0.070   3.401   3.908 -0.7628  1.4600 -0.0803
 5316SOL    HW227408   0.007   3.361   4.030 -1.0620  0.8428  0.1349
 5317SOL     OW27409   1.734   2.769   3.300  0.6158 -0.1166  0.2540
 5317SOL    HW127410   1.746   2.754   3.207 -0.0366  0.6569  0.0461
 5317SOL    HW227411   1.724   2.683   3.343 -1.2462  0.1486  0.3795
 5318SOL     OW27412   4.683   2.255   4.968 -0.4194  0.4182  0.1322
 5318SOL    HW127413   0.026   2.326   4.969  2.4356 -2.1883 -0.8330
 5318SOL    HW227414   4.600   2.303   4.958  0.2228  1.4157 -0.4044
 5319SOL     OW27415   0.645   4.249   1.419  0.3018 -0.2272 -0.6785
 5319SOL    HW127416   0.670   4.158   1.429  1.3360  0.4536  3.0431
 5319SOL    HW227417   0.611   4.250   1.330 -2.3188 -0.0126  0.3225
 5320SOL     OW27418   1.098   3.672   7.663  0.0940 -0.1772 -0.0454
 5320SOL    HW127419   1.021   3.633   7.703  0.6425  0.2629  1.4448
 5320SOL    HW227420   1.055   3.724   7.596  1.5101 -0.3303 -1.0842
 5321SOL     OW27421   2.864   1.242   5.695  0.2753  0.0569  0.1960
 5321SOL    HW127422   2.875   1.252   5.789 -0.6647 -0.1749  0.3399
 5321SOL    HW227423   2.790   1.300   5.676 -0.1355 -0.1540  1.1623
 5322SOL     OW27424   1.327   2.966   5.098 -0.7967 -0.1550  0.1968
 5322SOL    HW127425   1.259   2.979   5.031  0.3973  0.0298 -0.9928
 5322SOL    HW227426   1.409   2.963   5.047 -0.5298 -0.8125  0.6784
 5323SOL     OW27427   1.282   4.020   6.741 -0.8775 -0.5971 -0.6899
 5323SOL    HW127428   1.320   4.103   6.766  0.9791 -1.8509  0.6103
 5323SOL    HW227429   1.218   4.004   6.810 -2.0848  0.4747 -1.5654
 5324SOL     OW27430   4.029   2.172   4.065 -0.0587 -0.5023  0.3703
 5324SOL    HW127431   3.965   2.179   4.136 -0.5453 -0.7966 -0.0396
 5324SOL    HW227432   4.048   2.078   4.068 -2.6202 -0.9346  2.7220
 5325SOL     OW27433   1.386   1.937   6.735  0.0542  0.2234 -0.2402
 5325SOL    HW127434   1.318   1.933   6.669  0.0178 -1.9391 -0.0823
 5325SOL    HW227435   1.434   2.008   6.693 -0.1434 -0.0847 -0.9818
 5326SOL     OW27436   0.146   4.646   1.914 -0.0627  0.5444 -0.2183
 5326SOL    HW127437   0.153   0.019   1.931  0.1701  0.4142  0.4265
 5326SOL    HW227438   0.232   4.620   1.947 -1.5490 -0.0905  3.1064
 5327SOL     OW27439   1.808   4.630  16.557  0.1329  0.6158  0.3673
 5327SOL    HW127440   1.749   4.568  16.515  1.0364 -0.3763  0.5519
 5327SOL    HW227441   1.800   4.600  16.648 -1.0827 -1.1438 -0.3298
 5328SOL     OW27442   0.938   2.994   6.844 -0.3427  0.3665 -0.2895
 5328SOL    HW127443   1.023   3.033   6.824 -0.0699  1.1610  2.3622
 5328SOL    HW227444   0.904   3.004   6.755 -3.0519 -1.5621  0.5456
 5329SOL     OW27445   2.364   3.755   0.478 -0.2334 -0.0135  0.4437
 5329SOL    HW127446   2.412   3.759   0.394 -2.7776 -0.1667 -1.0030
 5329SOL    HW227447   2.427   3.800   0.534 -1.0362 -0.4709  1.6924
 5330SOL     OW27448   4.487   0.651  13.457  0.3648 -0.2697 -0.1069
 5330SOL    HW127449   4.462   0.702  13.380 -0.0844 -2.6158 -1.4965
 5330SOL    HW227450   4.435   0.695  13.524 -1.6260 -0.3059 -1.6126
 5331SOL     OW27451   0.881   4.527   6.320  0.1943 -1.1139 -0.0750
 5331SOL    HW127452   0.840   4.449   6.282  0.3846 -1.6509  0.8342
 5331SOL    HW227453   0.849   4.584   6.250 -1.2573 -1.3645  0.3765
 5332SOL     OW27454   4.611   1.704   8.976  0.1648  0.1000 -0.3604
 5332SOL    HW127455   4.563   1.778   8.938  0.2361  0.6186  0.5722
 5332SOL    HW227456   4.686   1.712   8.918  0.3413 -0.6191 -0.2394
 5333SOL     OW27457   4.005   0.386   0.970  0.3947 -0.5680 -0.3960
 5333SOL    HW127458   3.971   0.335   0.896 -0.4255 -0.7805  0.1248
 5333SOL    HW227459   3.981   0.325   1.039 -0.6031 -0.0380 -0.2710
 5334SOL     OW27460   4.199   0.627   6.848  0.6992 -0.6827 -0.2241
 5334SOL    HW127461   4.114   0.638   6.891  0.5360  0.0491 -0.7163
 5334SOL    HW227462   4.219   0.537   6.871  2.0826 -0.4035 -0.3268
 5335SOL     OW27463   2.301   4.556   6.655 -0.1142 -0.3944 -0.3764
 5335SOL    HW127464   2.245   4.580   6.580  1.7326  2.9765 -0.6566
 5335SOL    HW227465   2.257   4.473   6.674 -0.6740  0.5484  2.3333
 5336SOL     OW27466   3.605   2.758   7.778 -0.3595 -0.6697  0.1360
 5336SOL    HW127467   3.656   2.785   7.854 -1.2632  2.7873 -0.4736
 5336SOL    HW227468   3.673   2.759   7.711 -1.1548  2.2138 -0.6185
 5337SOL     OW27469   4.208   0.347  12.492  0.0619  1.1757 -0.0374
 5337SOL    HW127470   4.208   0.274  12.431 -3.2890  0.7343  0.4762
 5337SOL    HW227471   4.280   0.398  12.455  2.3009 -1.4159  0.7736
 5338SOL     OW27472   0.591   0.303  15.032 -0.0858  0.5397 -0.3074
 5338SOL    HW127473   0.533   0.231  15.057  0.5536  0.2237  0.2844
 5338SOL    HW227474   0.657   0.253  14.983  0.2577 -0.0184  0.7119
 5339SOL     OW27475   2.150   2.652  11.695 -0.0095 -0.6711 -0.0699
 5339SOL    HW127476   2.181   2.740  11.718  0.3267 -0.7225 -0.3286
 5339SOL    HW227477   2.219   2.585  11.695  0.7430  0.0960 -0.8254
 5340SOL     OW27478   3.884   3.406   2.892 -0.1238  0.3169 -0.0994
 5340SOL    HW127479   3.970   3.418   2.933  0.0071 -0.4195 -0.1644
 5340SOL    HW227480   3.835   3.481   2.925 -0.2664  0.2667 -0.1975
 5341SOL     OW27481   1.994   2.992  14.354  0.2478  0.1849 -0.3121
 5341SOL    HW127482   2.077   2.987  14.402 -0.5884 -0.4538  1.0898
 5341SOL    HW227483   1.931   2.995  14.427 -0.3904 -1.9947 -0.7630
 5342SOL     OW27484   2.295   0.187   7.323 -0.2770  0.5750  0.6913
 5342SOL    HW127485   2.268   0.142   7.242 -0.4605  4.0154 -1.1458
 5342SOL    HW227486   2.219   0.168   7.377 -0.3897 -1.0075 -0.0313
 5343SOL     OW27487   3.115   3.402  14.389  0.6135  0.0953 -0.1747
 5343SOL    HW127488   3.074   3.348  14.321  2.5484 -1.7685  0.1598
 5343SOL    HW227489   3.150   3.477  14.341 -2.0983  0.2517 -1.9576
 5344SOL     OW27490   2.418   3.984   5.642 -0.3412  0.3304  0.2928
 5344SOL    HW127491   2.485   4.045   5.611 -0.1764 -0.8143 -1.6269
 5344SOL    HW227492   2.342   4.039   5.665 -1.4192 -1.0274 -0.0581
 5345SOL     OW27493   4.313   3.388   8.370  0.4196  0.7133 -0.2741
 5345SOL    HW127494   4.357   3.324   8.315  1.7796  0.6932  0.8331
 5345SOL    HW227495   4.291   3.452   8.302 -0.3214  1.0997  0.3286
 5346SOL     OW27496   2.362   2.593   1.105 -0.0235  0.1653 -0.2440
 5346SOL    HW127497   2.354   2.506   1.145 -0.5047  0.3540  0.0797
 5346SOL    HW227498   2.272   2.614   1.081 -0.1456  0.4469  0.4419
 5347SOL     OW27499   2.680   4.127   9.344 -0.3457  0.5713  0.8571
 5347SOL    HW127500   2.703   4.097   9.256 -0.7311 -0.7537  1.2095
 5347SOL    HW227501   2.769   4.124   9.381 -0.2200  1.7796  0.6468
 5348SOL     OW27502   3.018   3.205   2.304 -0.1615  0.2719 -0.3127
 5348SOL    HW127503   3.092   3.245   2.259  0.3256 -2.6702 -2.1858
 5348SOL    HW227504   3.045   3.113   2.306  0.3275  0.4397  0.4638
 5349SOL     OW27505   1.985   0.359  12.053 -0.0640  0.0667  0.0583
 5349SOL    HW127506   2.055   0.383  12.114 -0.0357  0.4581 -0.1243
 5349SOL    HW227507   2.037   0.341  11.974  0.4241 -0.0366  0.4058
 5350SOL     OW27508   0.122   0.851   6.805  0.0374  0.0865  0.3660
 5350SOL    HW127509   0.181   0.915   6.764 -1.5569  1.0113 -0.4715
 5350SOL    HW227510   0.063   0.903   6.858 -0.5499  1.0559 -1.2412
 5351SOL     OW27511   4.457   3.145   7.639 -0.1614 -0.8468 -0.0850
 5351SOL    HW127512   4.546   3.118   7.660  1.6594  3.3643 -2.3955
 5351SOL    HW227513   4.406   3.104   7.709 -1.7034  0.9850 -0.1230
 5352SOL     OW27514   0.856   4.452   3.396  0.5264 -0.4170  0.2655
 5352SOL    HW127515   0.839   4.401   3.475  0.0192  0.4577  0.7133
 5352SOL    HW227516   0.918   4.395   3.351 -1.1597 -1.0275 -1.2990
 5353SOL     OW27517   4.666   3.786   2.849 -0.5449  0.5527 -0.1962
 5353SOL    HW127518   4.678   3.812   2.941  2.3297 -0.1914 -0.3950
 5353SOL    HW227519   0.016   3.723   2.844 -1.3132 -0.3091 -0.2301
 5354SOL     OW27520   4.580   1.433   7.414 -0.1310 -0.1208  0.7764
 5354SOL    HW127521   4.498   1.464   7.454  1.1286 -0.1288  3.3329
 5354SOL    HW227522   4.581   1.337   7.418  0.1827 -0.1067  0.9578
 5355SOL     OW27523   0.673   0.799   5.449  0.0970 -0.0741 -0.0575
 5355SOL    HW127524   0.726   0.739   5.398  0.4890  0.4887 -0.3081
 5355SOL    HW227525   0.718   0.883   5.446 -0.6220  0.3017 -0.3232
 5356SOL     OW27526   3.647   0.997   7.085  0.4896  0.1701 -0.3122
 5356SOL    HW127527   3.585   1.064   7.115  0.4923 -0.2150  0.5821
 5356SOL    HW227528   3.728   1.041   7.061  1.1458  0.2042  1.9730
 5357SOL     OW27529   4.062   3.630   6.722 -0.1856  0.2862 -0.5221
 5357SOL    HW127530   4.024   3.716   6.739  0.8531  0.5971  0.2861
 5357SOL    HW227531   4.112   3.623   6.804  0.1164 -0.2392 -0.7560
 5358SOL     OW27532   2.641   3.661   7.392  0.3678 -0.0021 -0.1347
 5358SOL    HW127533   2.704   3.666   7.463  1.5815  0.8699 -1.2616
 5358SOL    HW227534   2.658   3.741   7.340  0.3429  0.6686  0.8922
 5359SOL     OW27535   2.067   4.682  16.337  0.2541  0.6727  0.2948
 5359SOL    HW127536   2.159   4.690  16.312  0.5104 -1.1873  0.6300
 5359SOL    HW227537   2.028   4.678  16.249  1.1909 -1.1543 -0.0531
 5360SOL     OW27538   0.735   2.994   2.128 -0.3351 -0.1332 -0.4902
 5360SOL    HW127539   0.648   2.955   2.131 -0.1489 -0.5228 -0.2259
 5360SOL    HW227540   0.782   2.946   2.196 -3.5897 -0.0970  1.7820
 5361SOL     OW27541   0.932   2.270   1.615 -0.3197  0.0897 -0.3354
 5361SOL    HW127542   0.944   2.347   1.671  0.3933  0.5947 -1.1707
 5361SOL    HW227543   1.021   2.235   1.612  0.2825  1.7588 -2.4855
 5362SOL     OW27544   3.271   1.073   5.775 -0.1913  0.1018  0.3539
 5362SOL    HW127545   3.241   1.158   5.744  4.1150  1.0596 -1.1742
 5362SOL    HW227546   3.307   1.040   5.693 -2.7113 -2.0782  0.1364
 5363SOL     OW27547   3.916   2.114   1.204 -0.0787  0.2222 -0.1337
 5363SOL    HW127548   3.908   2.082   1.114  0.6650 -0.5427  0.0784
 5363SOL    HW227549   3.998   2.164   1.198 -0.9641  1.8269  1.0406
 5364SOL     OW27550   4.270   2.681   1.008  0.1033 -0.6298 -0.2100
 5364SOL    HW127551   4.297   2.719   1.092  0.6913  0.9818 -1.1410
 5364SOL    HW227552   4.265   2.760   0.955 -1.7817  0.5357  1.6843
 5365SOL     OW27553   3.798   1.420   8.866 -0.0803 -0.0675 -0.5558
 5365SOL    HW127554   3.781   1.330   8.894 -3.5260  0.6133 -0.3628
 5365SOL    HW227555   3.844   1.446   8.946  0.3716  3.7812 -2.0793
 5366SOL     OW27556   3.789   2.308  16.552 -0.5416  0.0881  0.3042
 5366SOL    HW127557   3.766   2.379  16.494  0.4380 -0.2219 -0.4636
 5366SOL    HW227558   3.721   2.334  16.615 -0.0316  1.7564  0.1689
 5367SOL     OW27559   2.980   3.987   2.957  0.2964  1.4866 -0.2412
 5367SOL    HW127560   2.902   4.041   2.948  0.0059  0.8736 -1.2815
 5367SOL    HW227561   2.970   3.935   2.878  0.6736 -1.3191  1.5369
 5368SOL     OW27562   3.976   1.910   0.523 -0.3692 -0.3985 -1.1280
 5368SOL    HW127563   4.033   1.847   0.567  0.6684  0.9244 -0.5624
 5368SOL    HW227564   3.902   1.906   0.582  1.7587 -0.3646  1.5292
 5369SOL     OW27565   4.439   1.359  10.019  0.0864 -0.4470 -0.1011
 5369SOL    HW127566   4.394   1.420  10.077  1.7271  0.6478 -0.0102
 5369SOL    HW227567   4.361   1.325   9.975  0.8455 -1.2625 -0.8148
 5370SOL     OW27568   1.582   3.524   7.039 -0.1460 -0.7362 -0.0445
 5370SOL    HW127569   1.582   3.567   7.124  3.0724 -0.7599 -0.0324
 5370SOL    HW227570   1.489   3.498   7.036 -0.6535  1.2028 -1.1661
 5371SOL     OW27571   2.834   0.750  14.649  0.2774 -0.3707 -0.3249
 5371SOL    HW127572   2.750   0.784  14.619 -0.1760  1.4287  3.0464
 5371SOL    HW227573   2.862   0.826  14.700 -1.8990 -0.9335  1.7136
 5372SOL     OW27574   3.905   0.231   9.670  0.2516  0.0773 -0.4991
 5372SOL    HW127575   3.894   0.145   9.630  1.7761 -0.1934 -0.3614
 5372SOL    HW227576   3.980   0.219   9.729  1.8085  1.9926 -2.0994
 5373SOL     OW27577   3.591   1.083   1.815 -0.1279  0.6855 -0.4283
 5373SOL    HW127578   3.561   1.028   1.887  1.0075  0.6955  0.0608
 5373SOL    HW227579   3.522   1.058   1.753  0.4422  1.2908 -1.3066
 5374SOL     OW27580   1.274   0.474   8.217  0.0495  0.2907 -0.1351
 5374SOL    HW127581   1.265   0.379   8.219  0.4038  0.2633  0.1145
 5374SOL    HW227582   1.190   0.506   8.249 -1.0418 -2.7781  0.1014
 5375SOL     OW27583   3.211   2.417   4.643  0.5207  0.0994 -0.3691
 5375SOL    HW127584   3.170   2.405   4.729 -0.8995 -1.8696 -1.3253
 5375SOL    HW227585   3.235   2.508   4.657 -1.4386  0.3488  1.4509
 5376SOL     OW27586   1.280   2.198   1.827  0.0456  0.2650 -0.0971
 5376SOL    HW127587   1.363   2.150   1.824  0.7425  1.4166  0.7376
 5376SOL    HW227588   1.273   2.203   1.732  0.2699  0.2121 -0.1176
 5377SOL     OW27589   2.045   2.549   8.880 -0.1284 -0.1857  0.6341
 5377SOL    HW127590   1.962   2.522   8.919 -0.9549  0.7140 -0.4848
 5377SOL    HW227591   2.099   2.495   8.937  0.2078 -1.5258 -0.9320
 5378SOL     OW27592   3.979   1.338   6.187 -0.1512 -0.0508 -0.1408
 5378SOL    HW127593   3.995   1.432   6.180 -1.4107  0.3352  2.1090
 5378SOL    HW227594   3.901   1.339   6.244  0.2263  0.5186  0.3658
 5379SOL     OW27595   0.037   1.498   6.397  0.1310 -0.4117  0.6993
 5379SOL    HW127596   0.014   1.543   6.479  0.6040 -1.0034  1.1597
 5379SOL    HW227597   0.048   1.576   6.343  0.4307 -0.3840  0.8007
 5380SOL     OW27598   4.525   1.058  13.853  0.0359  0.2600  0.1180
 5380SOL    HW127599   4.458   1.069  13.786  1.1143  0.7547 -0.8587
 5380SOL    HW227600   4.591   1.117  13.817 -0.9960  1.4384  0.1306
 5381SOL     OW27601   2.669   4.389   5.540 -0.0375  0.4739  0.3021
 5381SOL    HW127602   2.733   4.406   5.609 -0.2224  1.9071  0.1095
 5381SOL    HW227603   2.693   4.420   5.453  2.2309 -2.9900 -0.3328
 5382SOL     OW27604   4.559   3.028   2.671  0.1434  0.4562 -0.1723
 5382SOL    HW127605   4.654   3.034   2.674  0.1938  0.8244 -2.5533
 5382SOL    HW227606   4.543   3.060   2.583 -0.7787 -1.0212 -0.5326
 5383SOL     OW27607   3.481   0.324   5.515 -0.2614  0.2536 -0.0733
 5383SOL    HW127608   3.468   0.382   5.590  0.1315  0.7471 -0.3860
 5383SOL    HW227609   3.463   0.236   5.550 -0.2411  0.1035 -0.4361
 5384SOL     OW27610   3.119   3.535   6.037  0.5086 -0.7094  0.0077
 5384SOL    HW127611   3.203   3.556   5.997  1.2995  0.2813  2.1707
 5384SOL    HW227612   3.132   3.576   6.123  1.9851 -0.9246 -0.1048
 5385SOL     OW27613   0.393   0.993   2.050 -0.0939 -0.2004 -0.2067
 5385SOL    HW127614   0.393   0.939   2.129  0.3998 -1.3442 -0.9899
 5385SOL    HW227615   0.456   1.063   2.069  0.3232 -0.0673 -2.0743
 5386SOL     OW27616   2.269   3.856  10.966  0.4286  0.2337  0.7366
 5386SOL    HW127617   2.198   3.857  10.901 -0.3431  2.5528  1.6127
 5386SOL    HW227618   2.335   3.802  10.923 -0.4962 -0.8373  0.6601
 5387SOL     OW27619   0.047   1.385   2.351  0.1958  0.0672  0.6653
 5387SOL    HW127620   4.714   1.319   2.309 -0.0468  1.6387 -1.5181
 5387SOL    HW227621   4.699   1.450   2.361  0.9863  1.0192 -0.0228
 5388SOL     OW27622   4.337   1.509  10.201 -0.3999 -0.4242 -0.6816
 5388SOL    HW127623   4.323   1.496  10.295 -1.3966  0.4559 -0.7137
 5388SOL    HW227624   4.423   1.552  10.207 -0.5953 -0.1288  0.0306
 5389SOL     OW27625   2.085   0.843  13.255 -0.9830  0.2578  0.0785
 5389SOL    HW127626   2.130   0.822  13.173 -1.1938 -0.5635  0.1744
 5389SOL    HW227627   2.160   0.845  13.315 -1.7354  0.1174  1.0200
 5390SOL     OW27628   2.298   3.371   5.410  0.4051  0.0829  0.6089
 5390SOL    HW127629   2.345   3.413   5.338 -0.6214 -0.0543 -0.1450
 5390SOL    HW227630   2.212   3.355   5.372 -0.6372  0.3293  2.8674
 5391SOL     OW27631   3.778   4.702   6.823  0.3477 -0.9540  0.3827
 5391SOL    HW127632   3.738   0.066   6.839  0.4340 -0.4410 -2.1476
 5391SOL    HW227633   3.754   4.667   6.909  2.1663 -2.8951  0.1184
 5392SOL     OW27634   4.312   4.189   6.587  0.4202 -0.8520  0.2146
 5392SOL    HW127635   4.349   4.124   6.527  0.7291  1.4586 -2.0789
 5392SOL    HW227636   4.388   4.238   6.618  0.4749 -0.4629 -0.5332
 5393SOL     OW27637   4.670   2.708   7.626 -0.2201 -0.9637  0.4992
 5393SOL    HW127638   0.010   2.644   7.662 -1.1338 -1.4255  1.2350
 5393SOL    HW227639   4.627   2.653   7.561  0.5180  0.7443 -1.4066
 5394SOL     OW27640   1.994   1.998  15.273  0.3606 -0.1484  0.2455
 5394SOL    HW127641   2.023   2.031  15.358  1.5004  2.1085 -1.0280
 5394SOL    HW227642   2.052   1.927  15.246 -0.1886 -0.7715  0.7108
 5395SOL     OW27643   1.278   4.210  15.543 -0.1101  0.2512  0.2269
 5395SOL    HW127644   1.199   4.188  15.592 -1.1845  2.8996 -0.2949
 5395SOL    HW227645   1.267   4.143  15.475 -0.0565  0.8291 -0.3566
 5396SOL     OW27646   1.329   4.604   9.359  0.5581 -0.1197  0.1150
 5396SOL    HW127647   1.265   4.534   9.369  0.0302  0.3083 -0.3005
 5396SOL    HW227648   1.405   4.547   9.371  0.3229 -1.2721 -3.8765
 5397SOL     OW27649   3.710   0.197   9.163  0.1033 -0.3574  0.0382
 5397SOL    HW127650   3.713   0.114   9.115  0.7599 -1.5355  2.1081
 5397SOL    HW227651   3.626   0.186   9.208  1.1313  3.2599  2.7895
 5398SOL     OW27652   2.759   1.972   9.141  0.3177 -0.3138  0.3350
 5398SOL    HW127653   2.817   1.897   9.128 -1.9386 -1.5189 -2.5801
 5398SOL    HW227654   2.771   1.995   9.233  1.2316  0.7373 -0.0382
 5399SOL     OW27655   1.063   3.026   7.216 -0.3747  0.8170 -0.3823
 5399SOL    HW127656   1.116   2.978   7.280  1.1192  1.2460 -1.2937
 5399SOL    HW227657   1.006   3.066   7.281 -0.8093  0.6507 -0.6668
 5400SOL     OW27658   1.155   3.367   1.950 -0.0920 -0.5772 -0.0248
 5400SOL    HW127659   1.196   3.421   1.882 -2.1104 -1.3711 -1.8702
 5400SOL    HW227660   1.202   3.402   2.026  0.2344 -1.2693  0.0935
 5401SOL     OW27661   4.581   3.120  17.153 -0.4207 -0.4505  0.3858
 5401SOL    HW127662   4.560   3.187  17.219 -2.7353 -0.7623 -0.0272
 5401SOL    HW227663   4.509   3.128  17.091  0.0017  0.3790  0.0065
 5402SOL     OW27664   0.067   3.319   4.506 -0.0398 -0.1413 -0.1459
 5402SOL    HW127665   0.143   3.357   4.551 -0.0607  0.8060 -0.9213
 5402SOL    HW227666   0.105   3.234   4.486 -1.4333 -1.4183  2.6406
 5403SOL     OW27667   2.319   1.780   9.952  0.3449  0.2534  0.0653
 5403SOL    HW127668   2.232   1.765   9.989  0.8107 -2.5867 -0.0457
 5403SOL    HW227669   2.336   1.853  10.011 -0.3952 -0.5742  1.2894
 5404SOL     OW27670   3.428   3.154   4.826  0.9193 -0.5504 -0.4103
 5404SOL    HW127671   3.410   3.248   4.820  1.6466 -0.4258 -0.5747
 5404SOL    HW227672   3.511   3.157   4.873  1.1196 -0.2289 -0.7806
 5405SOL     OW27673   3.240   0.587   3.018 -0.1395 -0.3132  0.5109
 5405SOL    HW127674   3.314   0.543   3.060  0.1595 -0.1365  0.1808
 5405SOL    HW227675   3.203   0.512   2.972 -0.1691  1.2758 -2.0975
 5406SOL     OW27676   0.320   2.488   4.351 -0.2730 -1.2634  0.3069
 5406SOL    HW127677   0.342   2.396   4.365 -2.4718 -2.2193 -2.3814
 5406SOL    HW227678   0.228   2.471   4.329 -0.1801  0.7460 -1.6599
 5407SOL     OW27679   2.110   1.998   6.979  0.1010 -0.6457  0.1001
 5407SOL    HW127680   2.021   2.029   7.000  0.4901  0.3150  0.3341
 5407SOL    HW227681   2.092   1.936   6.908  1.7656  1.5497 -2.2445
 5408SOL     OW27682   0.705   1.455   2.931  0.0501 -0.6085  0.1229
 5408SOL    HW127683   0.629   1.506   2.902 -0.0010 -0.8362 -0.1453
 5408SOL    HW227684   0.780   1.493   2.886 -0.4157  1.8187  1.3982
 5409SOL     OW27685   3.017   0.221   7.308 -0.1081  0.4425 -0.2433
 5409SOL    HW127686   2.937   0.201   7.260 -1.0371  3.6597 -0.0714
 5409SOL    HW227687   3.080   0.175   7.252  0.2028 -1.3356  1.5475
 5410SOL     OW27688   4.599   2.806  12.064  0.0864 -0.0451  0.0017
 5410SOL    HW127689   4.532   2.871  12.045 -0.0216 -0.4246 -0.8764
 5410SOL    HW227690   4.612   2.778  11.974  1.1168  0.4368  0.0003
 5411SOL     OW27691   2.939   4.199   4.410 -0.1839  0.6085  0.3434
 5411SOL    HW127692   2.949   4.157   4.495  3.3742  0.9915  0.1402
 5411SOL    HW227693   2.848   4.229   4.410 -0.0335  1.0836 -0.8090
 5412SOL     OW27694   2.440   0.368  15.971 -0.1691 -0.6376 -0.0202
 5412SOL    HW127695   2.454   0.426  15.895 -0.4944 -0.1983  0.2564
 5412SOL    HW227696   2.530   0.356  16.000 -0.7395 -0.4931  1.7849
 5413SOL     OW27697   2.310   4.197   4.175  0.4915  0.4360 -0.1338
 5413SOL    HW127698   2.292   4.171   4.085 -0.8325  0.8375  0.0152
 5413SOL    HW227699   2.237   4.148   4.212  0.5120  0.1597 -0.4566
 5414SOL     OW27700   2.246   0.081   7.952 -0.0732  0.4418  0.3841
 5414SOL    HW127701   2.194   0.160   7.938  1.4843  1.2109 -0.9634
 5414SOL    HW227702   2.216   0.034   7.874  2.5482  0.8094 -0.8325
 5415SOL     OW27703   2.256   1.323   3.660 -0.8897 -0.3394 -0.5845
 5415SOL    HW127704   2.342   1.286   3.678 -1.2199 -0.5640  0.4917
 5415SOL    HW227705   2.249   1.373   3.741  2.6663 -0.8880  0.0307
 5416SOL     OW27706   3.528   0.046   1.092  0.0338 -0.6359  0.2201
 5416SOL    HW127707   3.532   0.023   1.185 -1.0577 -2.9564 -0.3072
 5416SOL    HW227708   3.558   4.681   1.064  0.7435 -0.0189 -0.8999
 5417SOL     OW27709   1.718   2.801  17.307  0.0457 -0.1852 -0.5195
 5417SOL    HW127710   1.731   2.713  17.344 -2.3325 -0.3529 -0.0919
 5417SOL    HW227711   1.799   2.842  17.338 -0.0619  0.9481 -1.7353
 5418SOL     OW27712   2.983   2.855  12.499 -0.3549  0.6319  0.5726
 5418SOL    HW127713   2.971   2.837  12.592  0.2975  0.2392  0.5831
 5418SOL    HW227714   3.029   2.939  12.502 -0.6985  0.9265 -2.4160
 5419SOL     OW27715   3.218   0.980   9.554 -0.4287 -0.4828  0.6085
 5419SOL    HW127716   3.194   1.068   9.525  3.3587  0.0375 -1.0274
 5419SOL    HW227717   3.242   0.993   9.646 -0.2159  3.1596  0.0398
 5420SOL     OW27718   0.160   3.634   1.573  0.6736 -1.3987 -0.0977
 5420SOL    HW127719   0.248   3.630   1.611  0.3473 -2.1079  0.5692
 5420SOL    HW227720   0.120   3.578   1.639  0.6674 -0.3154  0.8155
 5421SOL     OW27721   1.854   0.936   2.816  0.0416  0.1833 -0.7996
 5421SOL    HW127722   1.903   0.985   2.750 -0.7910 -0.4380 -1.8881
 5421SOL    HW227723   1.780   0.992   2.840  0.1879 -0.2599  0.7083
 5422SOL     OW27724   1.528   2.565   3.285 -0.0441 -0.1402 -0.3648
 5422SOL    HW127725   1.500   2.591   3.197  0.2790  0.3791 -0.3137
 5422SOL    HW227726   1.444   2.542   3.324 -1.2459  1.6108 -1.8948
 5423SOL     OW27727   2.842   1.907  12.455  0.4024 -0.1459 -0.3513
 5423SOL    HW127728   2.875   1.995  12.473  0.6249  0.0205 -1.5766
 5423SOL    HW227729   2.838   1.869  12.543 -2.1761 -1.2031 -0.9193
 5424SOL     OW27730   2.060   2.189   7.881 -0.0016 -0.3336  0.0774
 5424SOL    HW127731   2.014   2.269   7.904  0.5101  0.2403 -0.8859
 5424SOL    HW227732   2.106   2.162   7.961  1.1526 -0.8697 -0.7551
 5425SOL     OW27733   0.809   2.403   3.566  0.3283  0.2183 -0.4369
 5425SOL    HW127734   0.763   2.380   3.647  0.3784 -0.8399 -0.7104
 5425SOL    HW227735   0.879   2.339   3.560  0.0087 -0.3060  1.4272
 5426SOL     OW27736   2.596   1.350   4.748 -0.2517 -0.2267 -0.0864
 5426SOL    HW127737   2.604   1.377   4.839  0.5519 -0.3687 -0.1159
 5426SOL    HW227738   2.586   1.255   4.760 -0.2057 -0.2278 -0.0571
 5427SOL     OW27739   0.156   0.035   1.054 -0.5435 -0.3026 -0.3496
 5427SOL    HW127740   0.110   0.100   1.107  0.3666  2.1324 -2.5257
 5427SOL    HW227741   0.099   4.680   1.059  1.1667 -1.5906 -0.6288
 5428SOL     OW27742   1.966   0.434  16.719 -0.7107  0.0723 -0.0385
 5428SOL    HW127743   2.024   0.378  16.771  1.2994  0.9419 -1.3581
 5428SOL    HW227744   1.950   0.381  16.641 -0.1640  0.7965 -0.6466
 5429SOL     OW27745   1.882   2.124  15.064 -0.0598  0.1698  0.0780
 5429SOL    HW127746   1.898   2.068  15.140  2.0213  2.2759  1.2175
 5429SOL    HW227747   1.789   2.108  15.054 -0.3498  1.7122  0.3028
 5430SOL     OW27748   1.672   2.821   1.707  0.1060 -0.1991 -0.5753
 5430SOL    HW127749   1.681   2.882   1.780 -0.0783 -0.9662  0.0888
 5430SOL    HW227750   1.736   2.754   1.734 -1.6989 -1.7156 -0.0077
 5431SOL     OW27751   2.733   2.044   3.135  0.0225  0.1323  0.2898
 5431SOL    HW127752   2.803   2.012   3.078 -0.5630  1.0770 -0.9596
 5431SOL    HW227753   2.772   2.127   3.164 -1.0543 -0.4479  3.3284
 5432SOL     OW27754   1.076   3.643   8.649 -0.1111  0.2718 -0.5465
 5432SOL    HW127755   1.004   3.671   8.705  0.5362 -0.2087  0.5430
 5432SOL    HW227756   1.147   3.698   8.681 -1.4337  1.5425  0.1624
 5433SOL     OW27757   3.151   2.382   6.092  0.2523 -0.0960 -0.0688
 5433SOL    HW127758   3.088   2.448   6.063  0.2336 -0.2695 -0.4307
 5433SOL    HW227759   3.095   2.312   6.127  1.4601 -2.2112 -2.3081
 5434SOL     OW27760   1.618   3.315  15.634 -0.0787 -0.5241  0.6794
 5434SOL    HW127761   1.595   3.380  15.568 -0.6096 -1.1631  0.2359
 5434SOL    HW227762   1.532   3.283  15.664  0.4303 -0.9964  1.6438
 5435SOL     OW27763   1.770   2.068   2.723  0.5039 -0.4584  0.3064
 5435SOL    HW127764   1.863   2.046   2.717  0.8683  1.4783 -1.0943
 5435SOL    HW227765   1.752   2.033   2.811 -0.0408  1.9262  1.1427
 5436SOL     OW27766   1.562   1.800   5.618  0.2308  0.9358  0.9269
 5436SOL    HW127767   1.650   1.835   5.608  0.1556  0.6462 -0.6729
 5436SOL    HW227768   1.511   1.868   5.662 -0.6651  1.3796 -0.7791
 5437SOL     OW27769   1.876   0.696   5.991  0.1819 -0.0774 -0.1368
 5437SOL    HW127770   1.830   0.616   5.963 -2.0342  1.0771  0.1915
 5437SOL    HW227771   1.950   0.670   6.045  1.4631  0.5647 -1.5660
 5438SOL     OW27772   3.241   2.656   0.599 -0.6861 -0.2708  0.8021
 5438SOL    HW127773   3.167   2.599   0.574 -1.3570  0.3832  1.2961
 5438SOL    HW227774   3.193   2.731   0.634 -0.1333  0.8321 -0.8301
 5439SOL     OW27775   1.752   3.732  17.546 -0.1017 -0.5361 -0.1594
 5439SOL    HW127776   1.830   3.769  17.587 -0.6483  0.0983  0.2980
 5439SOL    HW227777   1.688   3.801  17.560  0.4502  0.3403 -1.9550
 5440SOL     OW27778   0.676   0.867   4.267 -0.0590 -0.0429 -0.3521
 5440SOL    HW127779   0.694   0.794   4.208  0.0756 -0.9454  0.8148
 5440SOL    HW227780   0.765   0.896   4.285 -0.2905  0.4628 -0.0188
 5441SOL     OW27781   3.040   2.884   4.840 -0.1965  0.2453  0.5465
 5441SOL    HW127782   2.988   2.892   4.920  0.2453 -1.2214  0.9965
 5441SOL    HW227783   2.977   2.900   4.770  1.0258 -1.7837 -1.0075
 5442SOL     OW27784   1.472   2.376   6.782  0.1111 -0.1366 -0.2156
 5442SOL    HW127785   1.496   2.404   6.870 -1.3393 -0.4060  0.2569
 5442SOL    HW227786   1.386   2.416   6.768 -0.4687 -0.2481  3.1730
 5443SOL     OW27787   1.585   4.546   7.717 -0.3100 -0.1910 -0.0199
 5443SOL    HW127788   1.500   4.581   7.691 -0.3784  0.4036  1.0381
 5443SOL    HW227789   1.644   4.616   7.690 -0.2060 -0.1740  0.2501
 5444SOL     OW27790   0.822   0.994   9.814 -0.1258 -0.0707  0.4094
 5444SOL    HW127791   0.766   0.918   9.832 -1.6697  1.3918  1.7998
 5444SOL    HW227792   0.813   1.047   9.893  1.7851 -1.1529  1.3464
 5445SOL     OW27793   3.583   3.357  16.977  0.1273 -0.6936 -0.2574
 5445SOL    HW127794   3.512   3.301  16.946  0.0890 -0.4626 -0.5777
 5445SOL    HW227795   3.663   3.304  16.983 -0.6727 -1.8393  0.2617
 5446SOL     OW27796   2.033   1.478   4.135 -0.4456  0.1577  0.5188
 5446SOL    HW127797   2.104   1.493   4.072 -0.9272 -1.8492 -0.5029
 5446SOL    HW227798   2.071   1.402   4.179  1.5981  0.1039 -1.3455
 5447SOL     OW27799   4.112   2.045  12.389  0.8894  0.0354  0.8350
 5447SOL    HW127800   4.200   2.036  12.427  1.1329 -0.5963  0.1331
 5447SOL    HW227801   4.118   1.975  12.324  1.2689  1.0016 -0.1675
 5448SOL     OW27802   1.481   0.569   4.936 -0.1494 -0.4083 -0.6645
 5448SOL    HW127803   1.433   0.646   4.908 -0.9729 -1.4379 -2.0351
 5448SOL    HW227804   1.430   0.501   4.892  1.2251 -1.2803 -0.9424
 5449SOL     OW27805   1.256   0.512   3.104  0.3303  0.2151  0.1061
 5449SOL    HW127806   1.258   0.419   3.129  2.5682  0.5457  1.1112
 5449SOL    HW227807   1.334   0.511   3.049 -0.7417  2.2877 -1.4246
 5450SOL     OW27808   0.254   4.369   5.695 -0.4790 -0.6559 -0.1151
 5450SOL    HW127809   0.174   4.366   5.746 -0.3458 -1.3904  0.0439
 5450SOL    HW227810   0.213   4.374   5.609 -1.0013 -1.6003  0.0783
 5451SOL     OW27811   0.740   2.818   9.167 -0.6387 -0.1650 -0.3329
 5451SOL    HW127812   0.720   2.764   9.243 -2.6234 -0.1634 -0.8269
 5451SOL    HW227813   0.790   2.760   9.110  1.5577 -1.5296  2.9962
 5452SOL     OW27814   2.194   3.773   6.985 -0.7728  0.6117  0.1314
 5452SOL    HW127815   2.132   3.711   7.022 -0.7607  1.3012  1.3242
 5452SOL    HW227816   2.177   3.833   7.058  0.3966  0.4959  0.5032
 5453SOL     OW27817   4.442   0.434   2.281  0.0026  0.9192 -0.5681
 5453SOL    HW127818   4.443   0.522   2.318  0.3189 -0.1690  1.9581
 5453SOL    HW227819   4.384   0.448   2.206 -0.3206 -0.0175 -0.4877
 5454SOL     OW27820   0.855   3.022   6.581 -0.1335  0.0092 -0.0593
 5454SOL    HW127821   0.818   2.936   6.561  0.0090  0.6894 -3.3174
 5454SOL    HW227822   0.906   3.046   6.503  0.3757 -3.0081 -0.6417
 5455SOL     OW27823   0.771   2.049   9.680  0.3953 -0.7416 -0.5278
 5455SOL    HW127824   0.733   2.103   9.749 -0.5113 -1.1955 -0.6797
 5455SOL    HW227825   0.700   1.992   9.650 -0.8630 -0.7306  2.5016
 5456SOL     OW27826   2.608   4.220   8.835 -0.1609 -0.5395 -0.6821
 5456SOL    HW127827   2.572   4.247   8.751  1.3485  0.0328 -1.1309
 5456SOL    HW227828   2.662   4.291   8.870  0.6270 -1.5189  0.0831
 5457SOL     OW27829   2.623   4.013   7.945  0.4398  0.3915  0.1779
 5457SOL    HW127830   2.603   3.988   8.035 -0.3485 -2.5361 -0.8064
 5457SOL    HW227831   2.564   4.086   7.927 -0.3775 -0.5353 -0.8809
 5458SOL     OW27832   0.501   1.439  15.789  0.0796 -0.0867  0.1966
 5458SOL    HW127833   0.541   1.429  15.875  1.1875 -0.0927 -0.3090
 5458SOL    HW227834   0.573   1.472  15.734  0.3345 -2.3392 -0.8141
 5459SOL     OW27835   0.929   2.528   2.191 -0.0391  0.9463  0.0220
 5459SOL    HW127836   0.942   2.617   2.159 -0.8810  1.8285  2.1201
 5459SOL    HW227837   0.877   2.480   2.126  0.2422 -0.3782  0.7593
 5460SOL     OW27838   1.611   2.594   3.975 -0.1235 -0.5288  0.2188
 5460SOL    HW127839   1.613   2.507   3.935 -0.8181 -0.1607 -0.6063
 5460SOL    HW227840   1.663   2.580   4.054  0.8442 -0.9210 -0.4815
 5461SOL     OW27841   0.809   0.402   5.552 -0.2793 -0.5325 -0.2598
 5461SOL    HW127842   0.832   0.314   5.525  0.1443 -0.8270  1.0374
 5461SOL    HW227843   0.795   0.440   5.466 -0.5970 -2.1033 -0.8911
 5462SOL     OW27844   1.999   1.370   7.164  0.6531  0.1158  0.0434
 5462SOL    HW127845   2.007   1.296   7.224  0.1258  1.3716  1.6766
 5462SOL    HW227846   2.063   1.340   7.099  0.7852  1.2724 -0.3597
 5463SOL     OW27847   2.077   2.046   7.513  0.0310 -0.2193  0.2415
 5463SOL    HW127848   2.154   2.008   7.470 -1.0453 -1.8365 -0.2550
 5463SOL    HW227849   2.105   2.111   7.577  1.6321 -0.6061 -0.0411
 5464SOL     OW27850   4.112   1.677   7.243 -0.2092 -0.1294  0.0168
 5464SOL    HW127851   4.087   1.716   7.159  2.0709  0.5159 -0.3449
 5464SOL    HW227852   4.052   1.603   7.253  1.0016 -1.1022 -0.0161
 5465SOL     OW27853   3.407   2.337   0.768  0.0285  0.0972 -0.4224
 5465SOL    HW127854   3.468   2.391   0.715  1.7828 -1.4701  0.0044
 5465SOL    HW227855   3.349   2.404   0.803  0.8750  1.3645 -1.4222
 5466SOL     OW27856   0.996   2.656   5.787  0.5103  0.2612 -0.1415
 5466SOL    HW127857   1.062   2.659   5.718  0.8514  0.6071  0.1998
 5466SOL    HW227858   0.944   2.733   5.764 -2.1371 -0.9791  1.7726
 5467SOL     OW27859   0.518   4.023   6.979  0.3027  0.2622 -0.1931
 5467SOL    HW127860   0.462   3.961   7.025 -0.9541  1.8412  0.3964
 5467SOL    HW227861   0.572   3.960   6.931  0.4872  0.0479  0.2961
 5468SOL     OW27862   2.843   3.121   5.855  0.0312 -0.1792 -0.1809
 5468SOL    HW127863   2.852   3.190   5.789  2.0054  0.7691  1.1033
 5468SOL    HW227864   2.819   3.168   5.935 -0.2592 -1.5183  0.5225
 5469SOL     OW27865   3.625   4.420   6.605  0.5629 -0.2408 -0.4327
 5469SOL    HW127866   3.558   4.369   6.560  0.7210 -0.2990 -0.6011
 5469SOL    HW227867   3.662   4.362   6.671  1.0683 -0.2689 -0.7417
 5470SOL     OW27868   1.193   1.138  13.968 -0.3944 -0.2512  0.5551
 5470SOL    HW127869   1.153   1.170  13.887  1.1416 -0.7556 -0.4187
 5470SOL    HW227870   1.252   1.067  13.942  0.7191  0.7574  0.3532
 5471SOL     OW27871   4.396   2.585  11.043  0.3291  0.4847 -0.0133
 5471SOL    HW127872   4.472   2.642  11.053  1.2460 -0.9117  0.8871
 5471SOL    HW227873   4.370   2.609  10.953  0.2516  1.3027  0.2221
 5472SOL     OW27874   1.794   3.060   3.351 -0.0886 -0.3850  0.1749
 5472SOL    HW127875   1.727   3.120   3.318  0.8757 -0.5782 -2.1287
 5472SOL    HW227876   1.741   2.980   3.357 -0.2374 -0.2802  0.2666
 5473SOL     OW27877   3.887   2.957   5.105  0.6645  0.0084 -0.5577
 5473SOL    HW127878   3.876   2.869   5.143 -0.0306 -0.0208 -0.8359
 5473SOL    HW227879   3.979   2.944   5.082  1.6437  0.3018  3.2454
 5474SOL     OW27880   0.592   1.044   4.106 -0.1012  0.3175  0.2153
 5474SOL    HW127881   0.627   1.099   4.176 -1.0201 -1.1982  1.8812
 5474SOL    HW227882   0.607   0.962   4.153 -1.3903  0.4822  0.9099
 5475SOL     OW27883   1.067   1.209   5.862  0.0029 -0.2438 -0.3165
 5475SOL    HW127884   1.111   1.284   5.903 -0.3901 -1.3895  2.1726
 5475SOL    HW227885   0.975   1.235   5.871  0.7957  3.0999 -1.7119
 5476SOL     OW27886   3.472   1.589   6.238 -0.7246  0.4619  0.1601
 5476SOL    HW127887   3.551   1.637   6.213  0.0977 -0.1906  1.5684
 5476SOL    HW227888   3.407   1.644   6.193 -1.2652  0.4846  0.9691
 5477SOL     OW27889   1.327   1.614   1.335 -0.2005  0.0656 -0.1733
 5477SOL    HW127890   1.310   1.522   1.356  1.3391  0.0085  0.8235
 5477SOL    HW227891   1.377   1.635   1.414  0.0135 -0.2209 -0.2335
 5478SOL     OW27892   0.636   1.264   7.657 -0.1066 -0.2904 -0.0009
 5478SOL    HW127893   0.572   1.326   7.691 -0.5359  0.3086 -1.8752
 5478SOL    HW227894   0.708   1.319   7.627  0.9238 -2.1198 -0.9345
 5479SOL     OW27895   1.261   0.164  15.999  0.2151 -0.2627 -0.0492
 5479SOL    HW127896   1.286   0.092  15.940 -0.0378  0.7821 -1.4263
 5479SOL    HW227897   1.253   0.110  16.077  0.1526  1.3816  1.0611
 5480SOL     OW27898   0.567   0.196  10.089 -0.0861  0.0130 -0.2658
 5480SOL    HW127899   0.581   0.199   9.994 -1.0213  1.3945 -0.3662
 5480SOL    HW227900   0.626   0.267  10.112  2.9176 -3.1107  1.6794
 5481SOL     OW27901   0.561   1.576   2.558  0.5379 -0.3251 -0.7612
 5481SOL    HW127902   0.609   1.659   2.556 -1.6350  0.9289 -0.6022
 5481SOL    HW227903   0.507   1.581   2.480  1.6965 -1.5724 -1.6312
 5482SOL     OW27904   3.780   0.522   1.979 -0.5389  0.4300  0.3212
 5482SOL    HW127905   3.725   0.457   1.936 -0.0545  1.4452 -1.8307
 5482SOL    HW227906   3.863   0.474   1.976  0.4714  2.0401  2.3469
 5483SOL     OW27907   0.675   3.604   3.977 -0.2529 -0.3596  0.0439
 5483SOL    HW127908   0.631   3.521   3.957  0.0574 -0.4453 -0.2887
 5483SOL    HW227909   0.757   3.598   3.927  0.4059  0.3425  1.0394
 5484SOL     OW27910   3.129   4.301   6.836 -0.5832  0.1335  0.3949
 5484SOL    HW127911   3.208   4.341   6.801 -1.9445  0.7700 -1.9065
 5484SOL    HW227912   3.161   4.277   6.924 -0.6717 -1.0809  0.1018
 5485SOL     OW27913   0.119   2.815   3.485 -0.6828 -0.2951 -0.1737
 5485SOL    HW127914   0.099   2.860   3.566  4.0744  1.7028 -0.1296
 5485SOL    HW227915   0.179   2.881   3.452  1.3098 -1.1340  1.8040
 5486SOL     OW27916   0.143   3.098   2.141  0.5751  0.4329 -0.2717
 5486SOL    HW127917   0.177   3.168   2.086 -1.3756 -0.5363 -2.6719
 5486SOL    HW227918   0.096   3.040   2.081  1.0326 -0.8180  0.5852
 5487SOL     OW27919   3.545   1.905   8.841  0.5491 -0.1443  0.2318
 5487SOL    HW127920   3.621   1.859   8.876  0.9923 -1.4068 -2.4036
 5487SOL    HW227921   3.586   1.972   8.784 -0.9293  0.0741 -0.5696
 5488SOL     OW27922   0.403   2.887  10.197  0.3610 -0.1728  0.1061
 5488SOL    HW127923   0.380   2.913  10.108  1.6888 -1.8969 -0.7584
 5488SOL    HW227924   0.358   2.956  10.246  0.1954 -0.8117  0.8430
 5489SOL     OW27925   0.156   0.671  13.304 -0.2212  0.5658 -0.1409
 5489SOL    HW127926   0.145   0.615  13.227 -0.6111 -1.9577  1.7387
 5489SOL    HW227927   0.096   0.745  13.294 -0.7091  0.3081  0.8161
 5490SOL     OW27928   4.221   0.544   6.358 -0.0112  0.2128  0.2467
 5490SOL    HW127929   4.256   0.466   6.400  1.0576  0.6557  0.1813
 5490SOL    HW227930   4.292   0.608   6.366 -1.1657  1.3691  1.1932
 5491SOL     OW27931   1.791   2.752   8.576  0.1064  0.0781  0.3014
 5491SOL    HW127932   1.866   2.694   8.586  1.3158  1.0792 -3.0175
 5491SOL    HW227933   1.788   2.783   8.667 -0.4866  0.0692  0.2878
 5492SOL     OW27934   4.231   1.866  12.194 -0.3889  0.1529  0.1560
 5492SOL    HW127935   4.146   1.830  12.168 -0.7424  0.2879  1.1324
 5492SOL    HW227936   4.287   1.859  12.117  1.0417 -1.8050  1.3787
 5493SOL     OW27937   2.921   2.853   6.222 -0.7442 -0.6486  0.0020
 5493SOL    HW127938   2.980   2.925   6.244  0.0042 -1.7833  1.6995
 5493SOL    HW227939   2.980   2.832   6.150  0.4323 -0.8156  0.9958
 5494SOL     OW27940   3.303   3.479   0.307  0.2765 -0.3488 -0.0650
 5494SOL    HW127941   3.251   3.497   0.229  1.5231 -0.6350 -0.9652
 5494SOL    HW227942   3.335   3.392   0.283 -1.0955 -0.9224  0.1934
 5495SOL     OW27943   0.486   1.646   9.859 -0.6165 -0.0355  0.1917
 5495SOL    HW127944   0.426   1.573   9.842 -1.0177 -0.1305  1.9737
 5495SOL    HW227945   0.520   1.619   9.944 -2.3422 -1.0257  0.5682
 5496SOL     OW27946   1.256   2.647   7.325 -0.8205  0.3680  0.5330
 5496SOL    HW127947   1.183   2.708   7.314 -1.0820  0.1336  0.9827
 5496SOL    HW227948   1.226   2.582   7.262  1.2253  1.1952 -1.3208
 5497SOL     OW27949   3.311   3.799   1.308  0.1188 -0.3684 -0.2867
 5497SOL    HW127950   3.282   3.744   1.380  0.0380 -3.6492 -2.7921
 5497SOL    HW227951   3.389   3.842   1.343  0.8087 -1.6481 -0.2356
 5498SOL     OW27952   4.258   3.537   8.149  0.2608  0.4009  1.0873
 5498SOL    HW127953   4.286   3.490   8.071  0.1610  2.3108 -0.0983
 5498SOL    HW227954   4.260   3.630   8.127 -1.2482  0.5131  1.3796
 5499SOL     OW27955   2.902   2.324   2.224 -0.0525  0.2894  0.1087
 5499SOL    HW127956   2.940   2.248   2.180 -1.6433 -0.3289 -0.2014
 5499SOL    HW227957   2.808   2.313   2.208  0.4416 -0.9917 -1.9128
 5500SOL     OW27958   3.875   3.128   5.529  0.5115  0.5609  0.2731
 5500SOL    HW127959   3.814   3.086   5.468  1.6667  0.2777 -0.6891
 5500SOL    HW227960   3.948   3.139   5.468  0.6130 -1.7270  0.0072
 5501SOL     OW27961   0.495   0.971  16.767 -0.0650  0.3652 -0.2339
 5501SOL    HW127962   0.589   0.986  16.777  0.2098  0.1989 -2.7382
 5501SOL    HW227963   0.469   1.034  16.700 -0.8788 -1.4263 -1.6008
 5502SOL     OW27964   1.394   3.841   5.917  0.2085  0.1057 -0.1489
 5502SOL    HW127965   1.470   3.783   5.914 -0.5923 -1.0710  1.7638
 5502SOL    HW227966   1.383   3.857   5.823  2.5909 -0.8726 -0.5832
 5503SOL     OW27967   0.579   2.386  10.030 -0.1178 -0.1911 -0.2338
 5503SOL    HW127968   0.545   2.302  10.000 -1.4415 -0.1659  1.1994
 5503SOL    HW227969   0.594   2.438   9.950  0.0855  0.0916 -0.0110
 5504SOL     OW27970   3.288   3.034   8.948 -0.2597 -0.5916  0.3836
 5504SOL    HW127971   3.343   3.093   8.897 -0.7678  0.3705  0.9438
 5504SOL    HW227972   3.326   2.952   8.918 -0.9062  0.1577 -2.5025
 5505SOL     OW27973   2.612   3.244   2.550 -0.4455 -0.5795 -0.2631
 5505SOL    HW127974   2.618   3.154   2.583  0.6407  0.5362  2.6143
 5505SOL    HW227975   2.617   3.290   2.634 -1.5813  0.5666 -0.8199
 5506SOL     OW27976   1.654   2.545  17.402  0.3345 -0.4209  0.0747
 5506SOL    HW127977   1.682   2.537  17.493 -1.6185  1.1463  0.8060
 5506SOL    HW227978   1.561   2.522  17.407  0.4053 -0.6858  0.1667
 5507SOL     OW27979   0.552   1.307  16.270 -0.3149  0.3474  0.2255
 5507SOL    HW127980   0.504   1.362  16.332  0.8894  0.6766  0.8653
 5507SOL    HW227981   0.595   1.254  16.337  0.7388 -0.2401 -0.9093
 5508SOL     OW27982   2.128   0.821  16.954 -0.3294  0.0150  0.2592
 5508SOL    HW127983   2.090   0.795  16.870 -0.4674  0.8264  0.0694
 5508SOL    HW227984   2.048   0.826  17.006  0.5872  1.3185  1.5560
 5509SOL     OW27985   4.136   1.003   3.945 -0.4713 -0.2998  0.0793
 5509SOL    HW127986   4.213   1.013   3.888  0.1095  0.2228  0.9545
 5509SOL    HW227987   4.127   0.908   3.938 -1.3784 -0.2608  0.7360
 5510SOL     OW27988   1.200   2.621   0.302 -0.1834 -0.1617 -0.1345
 5510SOL    HW127989   1.277   2.674   0.323 -0.9019  0.8392 -0.0322
 5510SOL    HW227990   1.123   2.677   0.288  0.0907 -0.4977 -2.8243
 5511SOL     OW27991   1.963   1.108  14.204  0.0597 -0.3333 -0.0741
 5511SOL    HW127992   1.906   1.070  14.137 -1.1134  0.9334  0.2030
 5511SOL    HW227993   1.893   1.131  14.264  0.8709 -2.6910  1.7969
 5512SOL     OW27994   3.035   2.706   0.972  0.0159 -0.2126  0.1106
 5512SOL    HW127995   2.999   2.680   1.056 -0.5253  1.6271  0.4418
 5512SOL    HW227996   3.054   2.800   0.981  0.7025 -0.1755 -1.5551
 5513SOL     OW27997   2.925   1.012   2.763  0.2702  0.0611 -0.7511
 5513SOL    HW127998   2.840   1.027   2.804  0.0247  0.4540 -1.4049
 5513SOL    HW227999   2.904   0.935   2.710 -1.1460  0.6724 -1.0714
 5514SOL     OW28000   0.699   4.357   7.219  0.0976  0.6419 -0.1671
 5514SOL    HW128001   0.726   4.298   7.149  0.3497 -0.8713  1.1919
 5514SOL    HW228002   0.626   4.402   7.177  0.4708  1.0162 -0.4049
 5515SOL     OW28003   1.874   3.080   2.360  0.4293 -0.2158 -0.3522
 5515SOL    HW128004   1.889   3.048   2.271  1.2632  0.6628 -0.5254
 5515SOL    HW228005   1.801   3.140   2.347 -1.2960 -1.9658  1.2334
 5516SOL     OW28006   1.206   0.221   6.944  0.0115  0.0955 -0.2036
 5516SOL    HW128007   1.161   0.300   6.913  0.6980  0.3919 -0.4622
 5516SOL    HW228008   1.272   0.222   6.874 -0.3999 -1.6524 -0.6151
 5517SOL     OW28009   3.086   1.653   9.292  0.5878 -0.4451 -0.0553
 5517SOL    HW128010   3.025   1.683   9.225  1.3384  1.7070  0.2206
 5517SOL    HW228011   3.083   1.559   9.276 -0.8967 -0.8304  2.2792
 5518SOL     OW28012   3.549   1.466  13.055 -0.6001  0.6239 -0.6084
 5518SOL    HW128013   3.561   1.426  13.141 -1.4614  0.2416 -0.6625
 5518SOL    HW228014   3.489   1.408  13.008 -0.0664  1.2363 -2.0348
 5519SOL     OW28015   1.714   3.942   5.317  0.1280  0.2349  0.1542
 5519SOL    HW128016   1.625   3.916   5.294  0.6054 -0.3474 -1.0025
 5519SOL    HW228017   1.749   3.855   5.298  2.9375  2.3421 -4.1534
 5520SOL     OW28018   4.294   2.538  11.296 -0.3339 -0.1156  0.1471
 5520SOL    HW128019   4.330   2.451  11.311  1.7502  0.5359 -0.9592
 5520SOL    HW228020   4.307   2.547  11.201 -1.3246  0.2311  0.0479
 5521SOL     OW28021   1.760   4.074   0.412  1.0154  0.1895  0.2965
 5521SOL    HW128022   1.840   4.126   0.402 -0.7738  2.4990 -1.8484
 5521SOL    HW228023   1.746   4.080   0.507 -1.2312  1.9988 -0.1612
 5522SOL     OW28024   1.579   2.788   9.520 -0.4611 -0.2417  0.3862
 5522SOL    HW128025   1.529   2.731   9.462 -1.8801  1.4831 -0.0874
 5522SOL    HW228026   1.520   2.793   9.595  0.6453  0.4495  1.2018
 5523SOL     OW28027   1.876   3.413   3.834 -0.2680 -0.6645 -0.4814
 5523SOL    HW128028   1.924   3.437   3.914  1.9201  0.6511 -2.1963
 5523SOL    HW228029   1.822   3.337   3.856  1.6804 -1.2418  2.4164
 5524SOL     OW28030   3.270   2.464   7.613  0.5203  0.1531  0.1988
 5524SOL    HW128031   3.287   2.469   7.707 -2.3894  0.2907  0.7187
 5524SOL    HW228032   3.177   2.444   7.611  0.2203  0.8887  5.9477
 5525SOL     OW28033   3.887   1.386  16.981 -0.4062 -0.1696 -0.6485
 5525SOL    HW128034   3.936   1.410  17.059  0.5176 -0.2604 -1.1937
 5525SOL    HW228035   3.815   1.448  16.984  1.9936  2.5278  1.1270
 5526SOL     OW28036   0.117   0.935   0.842 -0.2844 -0.2109 -0.7545
 5526SOL    HW128037   0.198   0.972   0.878 -0.0639 -1.5608  0.1643
 5526SOL    HW228038   0.092   0.871   0.909 -1.3591  0.6608 -0.3266
 5527SOL     OW28039   2.116   0.640   3.827  0.1394 -0.8524  0.3518
 5527SOL    HW128040   2.198   0.597   3.804  0.5570  0.1572 -0.0312
 5527SOL    HW228041   2.091   0.678   3.743  0.5004 -0.5088  0.4053
 5528SOL     OW28042   0.829   1.817   0.836 -0.6764  0.1118 -0.2971
 5528SOL    HW128043   0.738   1.828   0.864 -0.8026 -0.4025 -0.5054
 5528SOL    HW228044   0.852   1.742   0.892  0.1724  2.2383  2.1821
 5529SOL     OW28045   1.645   2.496   0.374 -0.0768 -0.2593 -0.0508
 5529SOL    HW128046   1.593   2.484   0.295  0.7839  0.5913 -0.7311
 5529SOL    HW228047   1.726   2.513   0.327 -1.8145  0.2756 -2.8579
 5530SOL     OW28048   2.829   2.167   2.761  0.3352 -0.1121 -0.2988
 5530SOL    HW128049   2.829   2.080   2.720 -0.2238 -1.6168  2.8582
 5530SOL    HW228050   2.860   2.219   2.687  3.8476  0.0508  1.2765
 5531SOL     OW28051   4.538   4.006  12.990 -0.0427 -0.6035 -0.3027
 5531SOL    HW128052   4.564   3.914  12.980 -0.5344 -0.7911  0.1488
 5531SOL    HW228053   4.550   4.031  13.081  2.0923  2.0544 -1.3116
 5532SOL     OW28054   1.056   0.687   6.579 -0.1598  0.5057 -0.8795
 5532SOL    HW128055   0.978   0.649   6.621 -0.8613  2.2715 -0.5638
 5532SOL    HW228056   1.101   0.707   6.661 -0.8959  0.1337 -0.3836
 5533SOL     OW28057   2.205   3.933  15.238  0.6013  0.3328  0.1817
 5533SOL    HW128058   2.137   3.974  15.184 -0.3101 -1.8767 -0.3648
 5533SOL    HW228059   2.211   3.853  15.184 -0.6275  0.8517 -0.7387
 5534SOL     OW28060   4.715   3.680   6.445  0.4077 -0.5130  0.5072
 5534SOL    HW128061   0.047   3.749   6.486  1.3259  0.0204 -1.5969
 5534SOL    HW228062   4.648   3.731   6.400  0.5180 -0.1997  0.6909
 5535SOL     OW28063   2.772   2.600   6.200  0.2112  0.4234 -0.8267
 5535SOL    HW128064   2.709   2.650   6.251  0.6936  0.5687 -0.3731
 5535SOL    HW228065   2.856   2.645   6.212 -0.0791  0.8408 -0.3890
 5536SOL     OW28066   0.003   4.080   7.239  0.3916  0.2857  0.2404
 5536SOL    HW128067   0.094   4.110   7.235 -0.0869  1.7097  0.2641
 5536SOL    HW228068   4.691   4.081   7.149 -1.9276 -0.6302  1.0837
 5537SOL     OW28069   0.389   4.402  13.515 -0.1302  0.2786 -0.0425
 5537SOL    HW128070   0.430   4.397  13.601 -1.1170  3.0880  0.5840
 5537SOL    HW228071   0.311   4.448  13.544  0.2928 -0.1325  1.7417
 5538SOL     OW28072   2.406   4.574   9.631 -0.0045  0.0057 -0.1780
 5538SOL    HW128073   2.490   4.613   9.655 -0.1863  0.2890 -0.0081
 5538SOL    HW228074   2.433   4.483   9.619 -3.5814 -0.9801 -0.7656
 5539SOL     OW28075   3.345   1.194   4.127  0.3910  0.8983 -0.1959
 5539SOL    HW128076   3.351   1.252   4.203  1.0519 -0.2824  0.6489
 5539SOL    HW228077   3.427   1.215   4.081 -0.5269  0.6807 -1.9428
 5540SOL     OW28078   1.999   1.712  13.983 -0.4193  0.4772 -0.0780
 5540SOL    HW128079   1.968   1.688  14.071 -0.6450  0.1100 -0.2593
 5540SOL    HW228080   2.070   1.647  13.974 -0.8591 -0.1442  0.9312
 5541SOL     OW28081   0.651   2.788   6.154 -0.2844  0.1800 -0.1343
 5541SOL    HW128082   0.745   2.781   6.173 -0.8310 -1.9702  1.7619
 5541SOL    HW228083   0.654   2.735   6.074  0.8384 -0.4968  0.3434
 5542SOL     OW28084   2.640   2.335   2.272  0.0813  0.0899  0.3371
 5542SOL    HW128085   2.608   2.279   2.342 -0.1689  0.2834  0.3765
 5542SOL    HW228086   2.632   2.419   2.319 -1.0630 -0.1118  0.5023
 5543SOL     OW28087   2.067   0.868  10.606  0.8600  0.0076 -0.1355
 5543SOL    HW128088   2.012   0.795  10.579  2.5921 -0.8739 -1.2902
 5543SOL    HW228089   2.075   0.907  10.519  1.4341  0.1930 -0.0020
 5544SOL     OW28090   0.095   2.011   6.795 -0.5436 -0.9904  0.2707
 5544SOL    HW128091   0.058   2.099   6.798 -0.5013 -0.9692  0.1745
 5544SOL    HW228092   0.156   2.022   6.722 -2.8807 -2.2713 -1.8724
 5545SOL     OW28093   2.973   4.295   0.865 -0.3570  0.3345 -0.6502
 5545SOL    HW128094   2.947   4.332   0.780 -0.4461  0.8642 -0.3954
 5545SOL    HW228095   3.038   4.363   0.879  0.6085 -0.7398  0.0572
 5546SOL     OW28096   0.111   4.376   6.844  0.1242  0.6118 -0.1112
 5546SOL    HW128097   0.199   4.370   6.879  0.7951 -2.2620 -2.2846
 5546SOL    HW228098   0.135   4.414   6.759  1.7968  0.3859  0.2637
 5547SOL     OW28099   1.456   1.595  10.552  0.0351 -0.1456 -0.6809
 5547SOL    HW128100   1.493   1.508  10.537 -0.2336 -0.4470  0.3610
 5547SOL    HW228101   1.540   1.636  10.576 -0.0077 -0.7845  0.5571
 5548SOL     OW28102   2.664   2.315   1.314 -0.0322 -0.0904  0.1094
 5548SOL    HW128103   2.599   2.293   1.248 -0.5886 -1.6920  1.1863
 5548SOL    HW228104   2.635   2.274   1.396  1.1998 -1.7323 -0.2792
 5549SOL     OW28105   3.759   2.738  13.575  0.2522 -0.0719 -0.1198
 5549SOL    HW128106   3.746   2.770  13.485 -0.2329  0.0767 -0.0009
 5549SOL    HW228107   3.734   2.816  13.624  1.3093 -0.0966  0.4572
 5550SOL     OW28108   3.310   2.410  13.956  0.1525  0.4733 -0.1992
 5550SOL    HW128109   3.239   2.381  14.014  1.1832  0.1511  0.9053
 5550SOL    HW228110   3.378   2.435  14.018  1.2962  1.4278 -1.8500
 5551SOL     OW28111   0.094   4.250   0.942 -0.6624  0.6008 -0.6992
 5551SOL    HW128112   0.117   4.319   0.879 -0.0461  0.7390 -0.3206
 5551SOL    HW228113   0.013   4.224   0.898 -0.2755 -1.4128 -0.2377
 5552SOL     OW28114   0.929   0.358  15.055  0.8888  0.4856  0.3223
 5552SOL    HW128115   1.024   0.359  15.041  0.8263  1.3474 -0.0227
 5552SOL    HW228116   0.897   0.413  14.984 -1.4553  0.3412  1.2960
 5553SOL     OW28117   1.944   0.860  15.314 -0.8747 -0.1740 -0.6924
 5553SOL    HW128118   1.982   0.805  15.245  1.8682  2.4975 -1.2942
 5553SOL    HW228119   1.897   0.927  15.264 -1.0150  0.2900  0.0692
 5554SOL     OW28120   3.756   0.100  10.877 -0.3767 -0.5310 -0.1888
 5554SOL    HW128121   3.778   0.069  10.789 -0.1532  0.1814 -0.3804
 5554SOL    HW228122   3.696   0.030  10.905 -1.5166 -0.5996 -2.7417
 5555SOL     OW28123   0.724   0.514   3.853  0.1554 -0.6426 -0.2329
 5555SOL    HW128124   0.673   0.442   3.817 -1.3680  0.5015 -0.4049
 5555SOL    HW228125   0.665   0.589   3.862 -1.1183 -1.6657 -0.1197
 5556SOL     OW28126   1.870   2.019  14.797  0.0357 -0.4186 -0.0661
 5556SOL    HW128127   1.797   1.964  14.825  1.3276 -0.3886  3.3807
 5556SOL    HW228128   1.894   2.062  14.879 -0.1190  0.1480 -0.3128
 5557SOL     OW28129   1.928   2.875   8.335  0.3052  0.2380 -0.4092
 5557SOL    HW128130   2.015   2.842   8.311  0.5302 -0.1092  0.8518
 5557SOL    HW228131   1.889   2.815   8.399 -1.5304  3.0967  1.1631
 5558SOL     OW28132   3.996   2.210   3.275  0.2270  0.3721 -0.1186
 5558SOL    HW128133   4.066   2.198   3.210 -1.3083  2.9716 -2.2702
 5558SOL    HW228134   3.958   2.123   3.261  1.5406 -0.5461  2.0957
 5559SOL     OW28135   0.349   2.462   3.689  0.7053 -0.3557  0.0780
 5559SOL    HW128136   0.407   2.524   3.645 -1.0519 -0.0279 -1.7707
 5559SOL    HW228137   0.322   2.408   3.614  1.5212  2.7192 -2.4031
 5560SOL     OW28138   3.857   4.608   8.313 -0.1772  0.3707  0.3297
 5560SOL    HW128139   3.948   4.600   8.286 -1.0158 -0.7397 -2.1098
 5560SOL    HW228140   3.856   4.704   8.310  0.1589  0.4282  1.6522
 5561SOL     OW28141   2.676   3.650   3.743  0.2127 -0.3211  0.2259
 5561SOL    HW128142   2.746   3.712   3.761 -0.1079 -0.3527  1.6066
 5561SOL    HW228143   2.728   3.584   3.697  1.5986  0.3380  0.8464
 5562SOL     OW28144   4.721   3.353   5.286  0.3117 -0.9172  0.3076
 5562SOL    HW128145   0.021   3.309   5.204 -2.4734  0.2511 -1.0511
 5562SOL    HW228146   0.050   3.291   5.339  0.1743 -1.1236  0.1934
 5563SOL     OW28147   2.844   1.024   2.002 -0.2558 -0.6314  0.1234
 5563SOL    HW128148   2.839   0.967   1.926  4.1891  0.4444 -0.9567
 5563SOL    HW228149   2.784   1.093   1.974  0.3011  0.3199  1.2617
 5564SOL     OW28150   4.071   2.488   3.203  0.8122  0.4595 -0.5715
 5564SOL    HW128151   4.142   2.426   3.216  2.3113  2.4806  1.0156
 5564SOL    HW228152   4.007   2.438   3.153 -0.3493  1.0096  0.3683
 5565SOL     OW28153   2.900   3.298   6.082  0.0083 -0.0438  0.0923
 5565SOL    HW128154   2.983   3.332   6.049 -0.5259  1.0037 -0.1617
 5565SOL    HW228155   2.846   3.374   6.062  0.0936  0.1500  0.6134
 5566SOL     OW28156   3.485   0.586   5.099 -0.2470  0.4919  0.4923
 5566SOL    HW128157   3.544   0.646   5.144  2.8310 -2.5860  0.5079
 5566SOL    HW228158   3.395   0.607   5.126 -1.3693 -2.4517 -0.9021
 5567SOL     OW28159   3.664   1.268  14.595 -0.3373 -0.0319 -0.1169
 5567SOL    HW128160   3.672   1.333  14.525 -0.5750  0.6215  0.4680
 5567SOL    HW228161   3.678   1.189  14.542  0.4141 -0.5942  0.9377
 5568SOL     OW28162   0.851   3.186  10.545  0.0310 -0.8546  0.2467
 5568SOL    HW128163   0.860   3.171  10.451  1.6251  0.6796  0.1673
 5568SOL    HW228164   0.790   3.114  10.562  0.9551 -1.5652  0.5449
 5569SOL     OW28165   2.642   0.359   2.145  0.3591  0.2873  0.1141
 5569SOL    HW128166   2.548   0.377   2.149 -0.0244 -0.6316 -4.9463
 5569SOL    HW228167   2.665   0.417   2.218  0.6274  1.1152 -0.6217
 5570SOL     OW28168   3.581   3.880   3.195 -0.0745  0.1642 -0.1627
 5570SOL    HW128169   3.664   3.900   3.150  1.5022 -0.8144  2.3158
 5570SOL    HW228170   3.523   3.845   3.127 -0.0575  1.3974 -0.8187
 5571SOL     OW28171   3.240   0.422   1.786  1.1285  0.1222  0.3276
 5571SOL    HW128172   3.198   0.374   1.714  0.0205  0.8494  0.5037
 5571SOL    HW228173   3.292   0.351   1.824 -2.5632 -3.6062 -1.5910
 5572SOL     OW28174   4.224   4.465   3.660 -0.2675  0.4000 -0.2383
 5572SOL    HW128175   4.249   4.375   3.638 -1.3892 -0.2996  1.4249
 5572SOL    HW228176   4.148   4.455   3.716 -0.8075 -0.4992 -1.1346
 5573SOL     OW28177   2.936   2.893   7.100 -0.4170 -0.0565  0.5298
 5573SOL    HW128178   2.909   2.976   7.139 -0.5289 -0.1023  0.5518
 5573SOL    HW228179   3.003   2.866   7.162  0.2353 -1.9805 -0.9927
 5574SOL     OW28180   1.165   0.627   3.728  0.0555  0.5568 -0.1386
 5574SOL    HW128181   1.217   0.704   3.752 -1.4067  1.5577 -0.1922
 5574SOL    HW228182   1.185   0.614   3.636  1.5527  1.6131  0.0287
 5575SOL     OW28183   0.390   1.066   5.001 -0.1720  0.8685 -0.6292
 5575SOL    HW128184   0.428   1.062   4.913 -2.0540  0.8281 -1.4369
 5575SOL    HW228185   0.457   1.116   5.048 -0.2504  0.6798 -0.3192
 5576SOL     OW28186   3.236   1.605   4.305  0.1362 -0.1263 -0.5874
 5576SOL    HW128187   3.305   1.670   4.320 -1.6041  1.6247 -0.2127
 5576SOL    HW228188   3.222   1.579   4.397 -1.4125 -0.2681 -0.8631
 5577SOL     OW28189   0.655   2.451   0.919 -0.1756 -0.2638 -0.5775
 5577SOL    HW128190   0.594   2.471   0.847 -2.0238 -3.5333  0.1144
 5577SOL    HW228191   0.608   2.387   0.971  2.2216 -2.1373 -0.7372
 5578SOL     OW28192   2.334   0.891   8.193 -0.0507 -0.1005  0.5606
 5578SOL    HW128193   2.272   0.928   8.130  1.7040  0.8053 -0.6474
 5578SOL    HW228194   2.415   0.912   8.147 -0.0497  0.8992  1.0201
 5579SOL     OW28195   3.931   2.758  16.078  0.4441  0.2933  0.0634
 5579SOL    HW128196   3.939   2.677  16.027 -0.8836  1.2486 -1.6747
 5579SOL    HW228197   3.880   2.823  16.030 -0.9557 -0.5729  0.3611
 5580SOL     OW28198   0.517   2.473  14.447  0.2670 -0.5637 -0.0728
 5580SOL    HW128199   0.465   2.400  14.413  1.1610 -0.8629 -0.7832
 5580SOL    HW228200   0.450   2.540  14.455  1.0420  0.1228  0.6828
 5581SOL     OW28201   1.164   0.093   7.210 -0.1462 -0.4170  0.1549
 5581SOL    HW128202   1.135   0.002   7.204  1.0544 -0.7489 -0.6103
 5581SOL    HW228203   1.146   0.124   7.121 -0.2959 -0.7861  0.0567
 5582SOL     OW28204   2.799   1.194   6.304 -0.1401  0.2044  0.0387
 5582SOL    HW128205   2.889   1.211   6.274  0.1278  0.5869  1.0835
 5582SOL    HW228206   2.749   1.274   6.294  1.1888  1.1089  0.5556
 5583SOL     OW28207   4.678   4.199  16.019 -0.4815 -0.5015  0.0677
 5583SOL    HW128208   0.017   4.174  15.948  0.5343 -0.0063  0.7438
 5583SOL    HW228209   4.691   4.114  16.062 -3.3182 -0.4408  1.0201
 5584SOL     OW28210   3.484   4.312   6.874  0.1863 -0.1189  0.4519
 5584SOL    HW128211   3.440   4.349   6.797 -0.3772 -1.8210 -0.0419
 5584SOL    HW228212   3.572   4.346   6.861 -0.4080  0.9234 -0.8565
 5585SOL     OW28213   2.124   2.756   4.781 -0.1015  0.6846 -0.3818
 5585SOL    HW128214   2.181   2.687   4.813 -0.3172  0.9522  0.5852
 5585SOL    HW228215   2.142   2.773   4.688 -0.7828 -0.1772 -0.6724
 5586SOL     OW28216   4.521   2.831   0.346  0.2315 -0.4848 -0.3135
 5586SOL    HW128217   4.460   2.820   0.419 -0.0787 -1.7816 -0.7687
 5586SOL    HW228218   4.460   2.852   0.275  0.0736  2.2924  0.6314
 5587SOL     OW28219   2.627   0.306  16.801 -0.2157  0.4112 -0.2096
 5587SOL    HW128220   2.548   0.343  16.840 -0.2599 -0.2462  0.3197
 5587SOL    HW228221   2.661   0.376  16.744  3.3940 -0.6898  0.5798
 5588SOL     OW28222   1.506   2.483  10.482  0.0877 -0.4912 -0.5323
 5588SOL    HW128223   1.514   2.578  10.491  1.3560 -0.5928 -0.6351
 5588SOL    HW228224   1.431   2.479  10.422 -1.0162 -0.7966  0.8619
 5589SOL     OW28225   3.901   3.151   7.906 -0.4769  0.1679  0.8651
 5589SOL    HW128226   3.996   3.151   7.899 -0.5875  0.1449 -0.6556
 5589SOL    HW228227   3.886   3.072   7.957  2.5422 -0.6958  0.3584
 5590SOL     OW28228   1.955   4.240   0.405 -0.1400 -0.1443 -0.2125
 5590SOL    HW128229   1.931   4.301   0.335  1.5237 -0.8796 -1.4414
 5590SOL    HW228230   2.047   4.262   0.420 -0.9947  2.2931  1.5775
 5591SOL     OW28231   2.015   1.999   9.249  0.2007 -0.7376 -0.4064
 5591SOL    HW128232   2.066   1.966   9.175  0.3903 -0.7685 -0.2630
 5591SOL    HW228233   2.047   1.933   9.311  0.3299 -0.7109 -0.4449
 5592SOL     OW28234   0.081   3.348   4.186  0.2013 -0.3265  0.5228
 5592SOL    HW128235   4.720   3.331   4.233  0.3923  0.2918  1.0799
 5592SOL    HW228236   0.134   3.402   4.244  0.5323 -0.2239  0.1315
 5593SOL     OW28237   0.295   1.932  12.405 -0.0213 -0.2201 -0.2131
 5593SOL    HW128238   0.375   1.982  12.390 -1.3152  1.3608 -1.7919
 5593SOL    HW228239   0.335   1.846  12.391  1.7740  0.6748 -0.6157
 5594SOL     OW28240   3.868   0.212   5.421 -0.7864  0.1343  0.6044
 5594SOL    HW128241   3.840   0.121   5.429  1.7493 -0.7301 -0.0946
 5594SOL    HW228242   3.806   0.234   5.351 -0.9702  0.8278  0.9854
 5595SOL     OW28243   3.166   0.038   7.172 -0.3022 -0.2670  0.7096
 5595SOL    HW128244   3.182   0.035   7.078  0.3242  1.4466  0.7682
 5595SOL    HW228245   3.255   0.039   7.207 -0.1330 -1.0299  0.3020
 5596SOL     OW28246   1.001   3.938   4.302  0.0055 -0.3197 -0.1158
 5596SOL    HW128247   0.915   3.952   4.261  0.5258  1.9354 -0.4616
 5596SOL    HW228248   1.018   3.851   4.266  0.2243 -0.3607  0.0893
 5597SOL     OW28249   3.409   1.931  11.831  0.0153 -0.5872 -0.0052
 5597SOL    HW128250   3.348   1.901  11.764 -3.2893  2.1147  1.7520
 5597SOL    HW228251   3.483   1.973  11.789 -0.1736 -0.6478 -0.3952
 5598SOL     OW28252   2.448   2.411   6.254  0.0512 -0.3504  0.0691
 5598SOL    HW128253   2.429   2.318   6.265 -0.9098 -0.0051  1.2725
 5598SOL    HW228254   2.418   2.434   6.166 -4.2168 -0.4431  1.5180
 5599SOL     OW28255   3.545   4.361   3.915 -0.3547  0.2554  0.5207
 5599SOL    HW128256   3.470   4.314   3.879  0.1390 -0.1172 -0.0138
 5599SOL    HW228257   3.599   4.382   3.839  0.5886 -0.2247  1.0585
 5600SOL     OW28258   4.454   2.558   9.309  0.8226 -0.2710 -0.0678
 5600SOL    HW128259   4.405   2.594   9.383 -2.0574 -3.4878 -0.3967
 5600SOL    HW228260   4.376   2.519   9.269  0.1433  0.4970  0.5102
 5601SOL     OW28261   0.978   4.281   8.861  0.3143 -0.2446  0.2501
 5601SOL    HW128262   1.012   4.209   8.914  0.2142  1.2808  2.4044
 5601SOL    HW228263   1.036   4.346   8.900 -0.0571 -0.6072  1.4106
 5602SOL     OW28264   0.658   4.393  13.923 -0.7090  0.2916  0.0471
 5602SOL    HW128265   0.578   4.340  13.935  1.4873 -2.5488  2.2906
 5602SOL    HW228266   0.682   4.411  14.014  0.6325 -0.1185 -0.2242
 5603SOL     OW28267   0.262   1.730   9.043 -0.0303 -0.3820 -0.3528
 5603SOL    HW128268   0.217   1.799   9.092 -2.1846 -1.5914 -0.6382
 5603SOL    HW228269   0.353   1.749   9.065  0.5064 -1.8229 -1.2949
 5604SOL     OW28270   4.647   0.249   6.301 -0.1855 -0.0873 -0.0663
 5604SOL    HW128271   0.020   0.263   6.302 -0.5627  2.5489 -0.2411
 5604SOL    HW228272   4.630   0.243   6.207  0.0418  2.7843 -0.2999
 5605SOL     OW28273   1.154   4.528  12.736 -0.4791  0.0484 -0.3329
 5605SOL    HW128274   1.075   4.581  12.745 -0.5420 -0.4935  2.3369
 5605SOL    HW228275   1.189   4.552  12.650 -2.4853 -0.7283 -1.3674
 5606SOL     OW28276   0.595   3.459   5.599  0.6957  0.5107 -0.0360
 5606SOL    HW128277   0.569   3.392   5.536  0.3249  1.2867 -0.7041
 5606SOL    HW228278   0.615   3.404   5.675  0.1990 -0.6503 -0.7377
 5607SOL     OW28279   0.530   2.658  14.810  0.2272 -0.2763  0.0361
 5607SOL    HW128280   0.609   2.616  14.844  1.5566  2.3920  0.2810
 5607SOL    HW228281   0.501   2.711  14.884  0.7269 -0.5940  0.4583
 5608SOL     OW28282   0.398   2.215   7.278 -0.1060 -0.4392 -0.5385
 5608SOL    HW128283   0.456   2.180   7.346  0.9509  0.3693 -1.0482
 5608SOL    HW228284   0.410   2.150   7.209  2.3654  1.1656 -1.5862
 5609SOL     OW28285   0.298   0.136  17.390 -0.2997  0.2135 -0.0364
 5609SOL    HW128286   0.225   0.100  17.340  0.8312 -0.0771 -1.4829
 5609SOL    HW228287   0.345   0.202  17.340  1.8492 -1.7711 -0.6592
 5610SOL     OW28288   3.753   2.923   9.048  1.1020  0.3186 -0.4338
 5610SOL    HW128289   3.804   2.867   8.990  0.7892  1.3122 -1.6626
 5610SOL    HW228290   3.814   2.967   9.108  0.0812  0.6664  0.3303
 5611SOL     OW28291   3.177   0.708   5.556  0.1040  0.4325  0.5341
 5611SOL    HW128292   3.243   0.772   5.529  0.2759 -0.3141 -0.8034
 5611SOL    HW228293   3.097   0.745   5.521 -0.9157 -0.9846  1.3695
 5612SOL     OW28294   3.988   0.844   6.571 -0.4920 -0.5276  0.2075
 5612SOL    HW128295   3.980   0.799   6.487 -1.4426  2.1188 -1.1142
 5612SOL    HW228296   3.934   0.787   6.624 -0.2375 -1.1584 -0.2094
 5613SOL     OW28297   3.117   4.599   5.430 -0.0513  0.0695  0.1147
 5613SOL    HW128298   3.132   4.504   5.430 -1.5565 -0.1764  0.9988
 5613SOL    HW228299   3.206   4.629   5.413  0.1717 -1.0090 -0.6669
 5614SOL     OW28300   3.141   2.301   6.954  0.3119 -0.2998 -0.0931
 5614SOL    HW128301   3.162   2.394   6.948  0.0766 -0.2602 -0.3263
 5614SOL    HW228302   3.156   2.300   7.048  0.4258 -1.1312 -0.1222
 5615SOL     OW28303   3.614   0.143  12.874 -0.7130 -1.0081  0.3235
 5615SOL    HW128304   3.594   0.170  12.963 -2.7190  1.9107 -1.0019
 5615SOL    HW228305   3.658   0.217  12.833 -0.1852 -0.8460  1.1981
 5616SOL     OW28306   1.953   3.015   6.667  0.1610 -0.7820  0.2303
 5616SOL    HW128307   1.916   3.097   6.633 -0.0013 -1.6306 -1.6049
 5616SOL    HW228308   2.032   3.042   6.713 -0.6142  3.8024 -1.0416
 5617SOL     OW28309   0.703   1.360   1.736 -0.2034 -0.0328 -0.5707
 5617SOL    HW128310   0.664   1.448   1.741 -0.6435 -0.1062 -2.5012
 5617SOL    HW228311   0.754   1.361   1.816  0.4554 -1.7898 -0.9804
 5618SOL     OW28312   2.604   1.437   6.267  0.0959  0.7050 -0.3197
 5618SOL    HW128313   2.623   1.424   6.175  1.7380  1.4756 -0.0808
 5618SOL    HW228314   2.588   1.531   6.277 -2.3891  0.6497 -3.6394
 5619SOL     OW28315   1.631   0.428   7.425  0.2394 -0.0175  0.0023
 5619SOL    HW128316   1.569   0.355   7.417  0.5594 -0.1053 -1.8205
 5619SOL    HW228317   1.609   0.454   7.514  0.5514  1.8560 -0.4561
 5620SOL     OW28318   3.621   1.414   5.050  0.0059 -0.3783  0.8184
 5620SOL    HW128319   3.714   1.435   5.035 -0.6557  0.3942 -2.0493
 5620SOL    HW228320   3.618   1.477   5.123  3.0572  0.8678 -0.1084
 5621SOL     OW28321   1.660   1.869   5.220  0.3154  0.0582 -0.1148
 5621SOL    HW128322   1.717   1.914   5.283 -0.0688 -0.8051  0.8455
 5621SOL    HW228323   1.625   1.948   5.179  1.4866 -0.0444 -1.3340
 5622SOL     OW28324   2.302   0.288  17.115 -0.7448  0.0355  0.3072
 5622SOL    HW128325   2.227   0.338  17.083  0.6947 -0.4664 -3.8620
 5622SOL    HW228326   2.372   0.353  17.123  3.1633 -4.1691  0.3837
 5623SOL     OW28327   3.456   0.411   1.527 -0.0115  0.1421 -0.1483
 5623SOL    HW128328   3.430   0.501   1.542 -3.0274 -0.7288 -0.1486
 5623SOL    HW228329   3.377   0.361   1.546  0.3132  0.3359  1.7616
 5624SOL     OW28330   1.761   1.855   6.571  0.5784 -0.6194  0.7022
 5624SOL    HW128331   1.733   1.815   6.489  0.3095  1.7641 -0.3467
 5624SOL    HW228332   1.711   1.818   6.643  1.6506 -2.1317  0.6932
 5625SOL     OW28333   2.772   2.257   5.147 -0.0730 -0.0661  0.9487
 5625SOL    HW128334   2.866   2.260   5.166 -0.3388 -0.5006  2.3318
 5625SOL    HW228335   2.759   2.350   5.169 -0.0077  0.5049 -1.4064
 5626SOL     OW28336   4.245   0.056   8.497  0.4663 -0.2010  0.2073
 5626SOL    HW128337   4.188   0.088   8.567 -0.3739 -1.1677 -0.0302
 5626SOL    HW228338   4.272   0.141   8.462 -2.0017 -0.1796 -1.5918
 5627SOL     OW28339   2.547   1.448   6.921 -0.3159 -0.0935  0.6563
 5627SOL    HW128340   2.551   1.401   7.005 -0.9311 -2.5744 -0.6826
 5627SOL    HW228341   2.627   1.414   6.882 -1.2658  1.1685 -2.3539
 5628SOL     OW28342   2.952   2.208   4.173 -0.1671  0.6961  0.4913
 5628SOL    HW128343   3.025   2.150   4.152 -1.2227  0.1778 -1.6879
 5628SOL    HW228344   2.878   2.149   4.189  1.3313 -1.2637  0.2860
 5629SOL     OW28345   3.556   3.871  15.501 -0.6113 -1.0959  0.3769
 5629SOL    HW128346   3.501   3.828  15.567  0.1306  1.3613  2.6172
 5629SOL    HW228347   3.494   3.921  15.449 -1.7015  0.7043  3.4346
 5630SOL     OW28348   3.523   1.273   6.582 -0.0287 -0.1803  0.2434
 5630SOL    HW128349   3.508   1.180   6.596  0.2330 -0.6305 -2.5323
 5630SOL    HW228350   3.559   1.273   6.494 -0.1611  0.9584  0.1890
 5631SOL     OW28351   2.204   3.491   3.712  0.2940  0.4587 -0.8640
 5631SOL    HW128352   2.290   3.533   3.716  0.7269 -0.3483 -1.4894
 5631SOL    HW228353   2.227   3.411   3.760  0.2695  0.9750 -0.0124
 5632SOL     OW28354   0.559   2.253   4.211 -0.8316 -0.1320  0.1805
 5632SOL    HW128355   0.496   2.240   4.282 -1.4205 -2.0873 -0.7073
 5632SOL    HW228356   0.584   2.345   4.223 -3.7486  0.5528  1.2371
 5633SOL     OW28357   4.040   4.405  15.491  0.1285 -0.0156 -0.4867
 5633SOL    HW128358   4.054   4.495  15.461 -0.2214  0.3618  0.5165
 5633SOL    HW228359   3.996   4.376  15.411  0.0884  4.5385 -2.1565
 5634SOL     OW28360   1.120   4.647  14.009  0.1953 -0.2531 -0.3868
 5634SOL    HW128361   1.044   4.597  13.978 -0.3853 -0.6031  1.6161
 5634SOL    HW228362   1.186   4.580  13.989  0.8434  0.4482 -0.5796
 5635SOL     OW28363   2.795   2.220  16.786 -0.1587 -0.2349  0.0337
 5635SOL    HW128364   2.833   2.165  16.717 -2.3538 -0.8212 -0.6932
 5635SOL    HW228365   2.772   2.155  16.853  0.3699 -0.5575 -0.0950
 5636SOL     OW28366   4.700   3.082   3.215  0.5415  0.4636  0.0372
 5636SOL    HW128367   4.639   3.154   3.203 -1.4810 -1.2907 -0.3016
 5636SOL    HW228368   0.066   3.115   3.234  0.7568 -0.2042  0.2231
 5637SOL     OW28369   4.699   0.093   4.345  0.8084  0.1308 -0.1639
 5637SOL    HW128370   4.671   0.141   4.267  0.2393 -0.0921 -0.0976
 5637SOL    HW228371   4.624   0.106   4.403  0.5159  0.6108 -0.6460
 5638SOL     OW28372   4.565   2.479   1.445 -0.2064  0.8439 -0.2992
 5638SOL    HW128373   4.588   2.394   1.483 -1.3208  0.2010 -1.0869
 5638SOL    HW228374   4.533   2.533   1.518  0.4389 -0.9499  1.3108
 5639SOL     OW28375   2.268   2.848   8.913 -0.5181 -0.2434 -0.1522
 5639SOL    HW128376   2.333   2.916   8.896 -0.4157 -0.5979 -1.1325
 5639SOL    HW228377   2.325   2.780   8.948  0.6087  0.2118 -1.1255
 5640SOL     OW28378   2.162   1.797   3.184  0.0799 -0.0345  0.2589
 5640SOL    HW128379   2.117   1.880   3.196  0.5483  0.4006 -0.9565
 5640SOL    HW228380   2.206   1.815   3.100  0.5585  1.8829  0.9353
 5641SOL     OW28381   3.513   0.190   3.231 -0.4081 -0.2600  0.2239
 5641SOL    HW128382   3.520   0.281   3.204  0.0917 -0.3551  0.0304
 5641SOL    HW228383   3.582   0.151   3.177  0.5537  1.9656 -0.1277
 5642SOL     OW28384   2.320   0.742  11.667 -0.4932 -0.0261 -0.0517
 5642SOL    HW128385   2.407   0.782  11.659 -0.7514  0.6965  0.7777
 5642SOL    HW228386   2.312   0.740  11.763 -0.4726 -1.1988 -0.0792
 5643SOL     OW28387   3.040   1.646   1.249 -0.3303  0.2882  0.0185
 5643SOL    HW128388   3.051   1.688   1.164  2.1141  0.7726  0.5687
 5643SOL    HW228389   3.128   1.613   1.268 -0.8962 -0.3144  1.6421
 5644SOL     OW28390   2.574   3.565   8.284 -0.0973  0.2471 -0.1239
 5644SOL    HW128391   2.600   3.656   8.294  3.6155 -0.8699  0.2888
 5644SOL    HW228392   2.576   3.533   8.374 -0.3009  2.7834  0.7670
 5645SOL     OW28393   3.830   1.272  12.806 -0.0722 -0.1156 -0.6885
 5645SOL    HW128394   3.750   1.220  12.796 -1.5608  2.3551 -1.8263
 5645SOL    HW228395   3.842   1.316  12.722  1.9772  2.0174  0.7469
 5646SOL     OW28396   1.029   4.708  15.915 -0.1863 -0.2575  0.1338
 5646SOL    HW128397   1.123   4.711  15.899 -0.8403  0.7028 -3.4917
 5646SOL    HW228398   1.004   4.706  15.823  1.0253  0.4474 -0.2123
 5647SOL     OW28399   0.312   2.879   7.498  0.0044 -0.3807  0.2380
 5647SOL    HW128400   0.277   2.931   7.571  2.4210 -0.3898  1.3887
 5647SOL    HW228401   0.404   2.904   7.495  0.4315 -1.9223  0.9112
 5648SOL     OW28402   2.011   1.160   2.305 -0.0992 -0.6797 -0.7651
 5648SOL    HW128403   1.939   1.220   2.285 -0.0907 -0.7325 -0.9537
 5648SOL    HW228404   2.080   1.204   2.255 -0.6595  0.5916 -0.4271
 5649SOL     OW28405   0.062   3.598   5.322 -0.2177 -0.0169 -0.0691
 5649SOL    HW128406   0.093   3.597   5.412 -0.8270 -0.2863  0.1394
 5649SOL    HW228407   0.016   3.514   5.318  0.5916 -0.3804 -1.5105
 5650SOL     OW28408   1.813   4.385   1.563 -0.2938  0.2005  0.7279
 5650SOL    HW128409   1.907   4.389   1.582  0.4620 -1.7476 -2.6179
 5650SOL    HW228410   1.791   4.311   1.620 -1.5619  0.2052  0.2376
 5651SOL     OW28411   4.299   2.299   3.997 -0.5232 -0.1138 -0.1791
 5651SOL    HW128412   4.257   2.363   3.939 -0.6466 -0.0032  0.0345
 5651SOL    HW228413   4.221   2.253   4.026  1.1164 -1.2844  2.3673
 5652SOL     OW28414   4.563   4.364   8.511  0.4009  0.5787 -0.2180
 5652SOL    HW128415   4.635   4.365   8.574  2.5156 -0.5954 -2.5884
 5652SOL    HW228416   4.497   4.412   8.560 -1.3609 -2.3299  0.2797
 5653SOL     OW28417   1.682   0.827   6.129 -0.1841  0.1168 -0.2497
 5653SOL    HW128418   1.608   0.822   6.068  0.6324 -2.8525 -1.0335
 5653SOL    HW228419   1.750   0.783   6.078 -0.8437  1.9252 -2.6855
 5654SOL     OW28420   0.457   0.575   8.022  0.6347 -0.0627 -0.1487
 5654SOL    HW128421   0.445   0.617   7.937 -2.1987  1.6516  1.0733
 5654SOL    HW228422   0.538   0.605   8.062  0.9318 -0.2180 -0.6400
 5655SOL     OW28423   2.824   0.838   6.695 -0.2326  0.6333  0.1620
 5655SOL    HW128424   2.776   0.895   6.754 -1.1591  0.3533 -0.3201
 5655SOL    HW228425   2.756   0.776   6.669 -3.9880  4.1887  1.4202
 5656SOL     OW28426   0.955   0.764  15.326 -0.3417 -0.2243  0.1806
 5656SOL    HW128427   0.900   0.720  15.260 -1.7117 -0.7771  1.6967
 5656SOL    HW228428   0.889   0.786  15.391  0.0386 -1.0416  0.8450
 5657SOL     OW28429   0.676   0.057   5.410 -0.1630 -0.5160 -0.3491
 5657SOL    HW128430   0.648   0.140   5.372  1.2719 -0.1736 -0.6511
 5657SOL    HW228431   0.628   0.053   5.492 -1.9524  1.6065 -1.2981
 5658SOL     OW28432   2.782   2.680   2.866  0.4801  0.6042 -0.6697
 5658SOL    HW128433   2.829   2.660   2.948 -1.2075  0.5307  0.2753
 5658SOL    HW228434   2.819   2.621   2.801 -0.3618 -0.8511  0.1814
 5659SOL     OW28435   2.957   1.741   2.998  0.3452 -0.2580 -0.3910
 5659SOL    HW128436   3.025   1.744   2.930 -0.0565  0.3623 -0.7680
 5659SOL    HW228437   2.879   1.774   2.953  0.2440 -1.7984 -1.3325
 5660SOL     OW28438   4.331   2.875   0.813  0.1559  0.0040 -0.6132
 5660SOL    HW128439   4.288   2.951   0.775  0.9700  0.4212 -0.7102
 5660SOL    HW228440   4.403   2.908   0.867  1.9725  1.1959 -3.7586
 5661SOL     OW28441   2.873   2.794   3.410  0.4331 -0.0760 -0.0518
 5661SOL    HW128442   2.960   2.768   3.440 -0.1705 -0.4951  1.3577
 5661SOL    HW228443   2.894   2.846   3.333  1.3043  0.1588  0.3524
 5662SOL     OW28444   2.591   3.973   7.670 -0.5326  0.2203  0.4440
 5662SOL    HW128445   2.598   3.998   7.762  1.4179 -0.1306  0.3907
 5662SOL    HW228446   2.676   4.002   7.635 -0.9252  0.8426  0.0031
 5663SOL     OW28447   4.254   2.159   6.563 -0.6056  0.2178  0.1217
 5663SOL    HW128448   4.225   2.100   6.493  1.9815 -2.5558  1.3710
 5663SOL    HW228449   4.178   2.217   6.566 -0.5831  0.0845  3.2484
 5664SOL     OW28450   0.491   3.229   1.999 -0.2849 -0.3534  0.3647
 5664SOL    HW128451   0.578   3.193   1.986 -0.8634 -0.1782 -3.8507
 5664SOL    HW228452   0.495   3.271   2.085 -0.6762  1.4505 -0.4830
 5665SOL     OW28453   3.779   2.936   7.156  0.2192 -0.4095 -0.0431
 5665SOL    HW128454   3.692   2.939   7.117 -0.2181  0.9028  1.0444
 5665SOL    HW228455   3.824   2.858   7.124  0.6953  0.0989 -0.6049
 5666SOL     OW28456   3.505   0.919   2.235  0.5145  0.1926  0.3609
 5666SOL    HW128457   3.577   0.868   2.196  0.3213  0.1575  0.0453
 5666SOL    HW228458   3.432   0.882   2.184 -0.2313  3.3223 -0.8428
 5667SOL     OW28459   1.040   4.441   1.775  0.8586  0.2207 -0.4241
 5667SOL    HW128460   1.026   4.518   1.830 -0.9654  0.7765 -1.6598
 5667SOL    HW228461   0.960   4.440   1.723  0.2631 -2.7789  0.5409
 5668SOL     OW28462   0.996   1.442  17.341  0.3927  0.9513  0.7189
 5668SOL    HW128463   0.948   1.521  17.319 -1.0533 -0.4667 -1.1732
 5668SOL    HW228464   0.924   1.380  17.343  1.0751  0.0938 -1.3389
 5669SOL     OW28465   3.965   2.776  15.703 -0.0699  0.1023 -0.0525
 5669SOL    HW128466   4.038   2.826  15.740  0.8757 -0.6970 -0.8417
 5669SOL    HW228467   3.939   2.718  15.775  0.8239  2.8214  2.5081
 5670SOL     OW28468   2.750   3.276  10.253 -0.5617  0.3552  0.0877
 5670SOL    HW128469   2.725   3.359  10.212 -1.0839 -0.0638 -0.4310
 5670SOL    HW228470   2.738   3.301  10.345 -1.5750  0.8546 -0.1816
 5671SOL     OW28471   1.872   2.200   4.019  0.1989 -0.2220  0.1871
 5671SOL    HW128472   1.876   2.286   3.978  2.2675  0.7983  2.5686
 5671SOL    HW228473   1.882   2.233   4.108  0.9639  0.8538 -0.3106
 5672SOL     OW28474   2.755   1.169  14.535 -0.8776  0.4775  0.2123
 5672SOL    HW128475   2.711   1.087  14.558 -0.2531  0.3226  0.8604
 5672SOL    HW228476   2.840   1.163  14.578  0.3088 -0.6658 -2.3113
 5673SOL     OW28477   1.308   3.888   5.650  0.2525 -0.0873 -0.0323
 5673SOL    HW128478   1.346   3.963   5.605 -0.1822 -0.1840 -0.5594
 5673SOL    HW228479   1.274   3.836   5.578 -2.5076 -1.3637  2.1843
 5674SOL     OW28480   4.155   1.272   1.788  0.1461  0.0081 -0.0003
 5674SOL    HW128481   4.077   1.277   1.732  1.9563  1.7497 -2.3400
 5674SOL    HW228482   4.198   1.354   1.767 -0.9093  0.8784  1.2316
 5675SOL     OW28483   4.408   2.640   3.763  0.0684 -0.4905  0.2126
 5675SOL    HW128484   4.447   2.563   3.805  2.7909  1.6852  1.7199
 5675SOL    HW228485   4.483   2.663   3.709  0.7870 -3.0429  0.0931
 5676SOL     OW28486   4.238   1.694  12.454  0.0924 -0.4261 -0.0620
 5676SOL    HW128487   4.263   1.755  12.524  0.9881  0.7434 -1.3741
 5676SOL    HW228488   4.254   1.743  12.373  0.1787  1.4295  1.0635
 5677SOL     OW28489   2.272   1.926   3.542  0.0070  0.1303  0.4773
 5677SOL    HW128490   2.363   1.912   3.513  0.3153  0.7606  1.1233
 5677SOL    HW228491   2.253   2.006   3.492  1.6198  0.1306 -0.1752
 5678SOL     OW28492   1.164   2.643  12.313 -0.1721 -0.1022 -0.3937
 5678SOL    HW128493   1.076   2.681  12.319  0.6611  1.7256  0.3356
 5678SOL    HW228494   1.141   2.556  12.345 -0.9717  0.1881 -0.1906
 5679SOL     OW28495   1.063   1.374  14.105 -0.5350 -0.1395  0.5213
 5679SOL    HW128496   1.137   1.314  14.095 -0.6320  0.0549 -1.3261
 5679SOL    HW228497   1.106   1.458  14.123  1.3141 -0.3402 -2.9991
 5680SOL     OW28498   3.340   0.169   3.786 -0.5204 -0.6682 -0.3998
 5680SOL    HW128499   3.376   0.238   3.730  1.1390 -0.1838  1.2725
 5680SOL    HW228500   3.251   0.205   3.791 -1.2222 -2.4981  0.0957
 5681SOL     OW28501   0.665   1.624   7.735 -0.3012  0.0716 -0.3855
 5681SOL    HW128502   0.721   1.567   7.682  0.1203 -0.0853  0.2246
 5681SOL    HW228503   0.588   1.569   7.744 -0.6241  0.7144  0.7142
 5682SOL     OW28504   1.263   3.590   2.122 -0.3838  0.3955 -0.4233
 5682SOL    HW128505   1.196   3.635   2.174 -1.0121 -1.8430  0.6999
 5682SOL    HW228506   1.332   3.651   2.096  1.7111 -1.3141  1.1467
 5683SOL     OW28507   1.292   2.705   5.197  0.5346 -0.4142  0.0643
 5683SOL    HW128508   1.383   2.727   5.176 -0.2966  2.7741 -0.1929
 5683SOL    HW228509   1.298   2.738   5.287 -0.6610 -1.4470  0.5137
 5684SOL     OW28510   1.535   4.060  17.089 -0.0904  0.4897  0.6281
 5684SOL    HW128511   1.555   4.131  17.151  1.2471  0.6593  0.0112
 5684SOL    HW228512   1.454   4.028  17.128 -0.0698 -0.7201 -0.3257
 5685SOL     OW28513   1.647   0.999   8.516 -0.2098 -0.1695  0.4228
 5685SOL    HW128514   1.552   0.987   8.509 -0.2245  1.8406 -2.5067
 5685SOL    HW228515   1.661   1.001   8.611 -1.8970  0.2484  0.6581
 5686SOL     OW28516   3.384   0.318   4.078 -0.1806 -0.6662  0.2855
 5686SOL    HW128517   3.297   0.314   4.118 -0.8455 -1.1292 -1.2164
 5686SOL    HW228518   3.443   0.315   4.154  0.9553  1.0553 -0.5100
 5687SOL     OW28519   3.675   2.828  10.831 -0.5353  0.1117 -0.0591
 5687SOL    HW128520   3.731   2.879  10.772  0.1458 -0.4147  0.1403
 5687SOL    HW228521   3.720   2.744  10.830 -0.0622  0.3180  3.7348
 5688SOL     OW28522   4.215   1.769  10.155  0.3003 -0.3652 -0.0509
 5688SOL    HW128523   4.273   1.693  10.151  2.4495  1.3410 -1.3322
 5688SOL    HW228524   4.172   1.765  10.240 -2.4984 -0.7847 -1.5065
 5689SOL     OW28525   2.513   1.003  11.000 -0.2485  0.5822 -0.0782
 5689SOL    HW128526   2.497   1.037  10.911  0.0677 -0.6928 -0.6161
 5689SOL    HW228527   2.479   0.918  10.973 -0.1508 -0.0477  1.8337
 5690SOL     OW28528   4.715   0.780  14.732  0.3318 -0.0358  0.4635
 5690SOL    HW128529   4.704   0.687  14.713  2.1140 -0.5490  1.8875
 5690SOL    HW228530   4.633   0.804  14.774 -0.6217  0.0115 -1.4123
 5691SOL     OW28531   2.327   1.505   7.214 -0.1707 -0.1114  0.2333
 5691SOL    HW128532   2.405   1.451   7.198 -1.4559 -1.6660 -0.7954
 5691SOL    HW228533   2.345   1.584   7.162  0.0422 -0.9606 -0.9813
 5692SOL     OW28534   4.083   0.793   9.492  0.1596 -0.4915 -0.0152
 5692SOL    HW128535   4.066   0.754   9.577 -0.7646 -0.7550 -0.3247
 5692SOL    HW228536   4.125   0.720   9.446  1.1890  0.0745  0.0192
 5693SOL     OW28537   1.287   3.719   6.858 -0.0675 -0.0586 -0.2861
 5693SOL    HW128538   1.253   3.684   6.940 -1.4335  2.2628  0.1540
 5693SOL    HW228539   1.380   3.698   6.869 -0.5703 -0.9747  2.2169
 5694SOL     OW28540   4.057   3.558   2.436 -0.0678  0.2164  0.0511
 5694SOL    HW128541   3.976   3.563   2.384  0.1868 -0.9508 -0.4629
 5694SOL    HW228542   4.027   3.514   2.516 -1.3176  1.3032  0.1933
 5695SOL     OW28543   0.348   1.078  16.027 -0.2475  0.2558 -0.5610
 5695SOL    HW128544   0.275   1.048  15.974 -0.5418 -0.0871  0.0311
 5695SOL    HW228545   0.320   1.042  16.112  0.5217 -2.1359 -1.2992
 5696SOL     OW28546   0.178   2.428   5.024  0.7809  0.0548 -0.0121
 5696SOL    HW128547   0.243   2.494   5.000  1.1043  0.0693  0.9004
 5696SOL    HW228548   0.235   2.353   5.044 -0.1366 -0.5974  0.1192
 5697SOL     OW28549   1.172   3.438   3.157 -0.4291 -0.4701  0.3582
 5697SOL    HW128550   1.106   3.456   3.090  0.9872  3.3391  0.0226
 5697SOL    HW228551   1.247   3.480   3.113  0.9655 -0.3921  2.8157
 5698SOL     OW28552   2.003   2.625   5.253 -0.3225 -0.5038 -0.4259
 5698SOL    HW128553   1.977   2.630   5.161  1.6696  3.2276 -0.7628
 5698SOL    HW228554   2.046   2.540   5.258 -0.8787 -0.8033 -0.7597
 5699SOL     OW28555   3.149   2.863   2.702  0.5214  0.5036 -0.1849
 5699SOL    HW128556   3.209   2.918   2.652 -1.8084  0.6477 -2.8266
 5699SOL    HW228557   3.115   2.926   2.766 -0.6478  0.5794 -0.8862
 5700SOL     OW28558   1.274   0.571   5.972 -0.2735 -0.1722  0.2198
 5700SOL    HW128559   1.256   0.633   5.902 -3.0980  0.4767  1.5172
 5700SOL    HW228560   1.367   0.549   5.966 -0.6624 -1.5536 -0.7415
 5701SOL     OW28561   2.806   0.683   6.247 -0.1595 -0.3584 -0.1098
 5701SOL    HW128562   2.753   0.759   6.269  0.0781 -0.8306  2.0974
 5701SOL    HW228563   2.897   0.711   6.240 -0.0184 -0.5977  0.7914
 5702SOL     OW28564   0.886   3.819   1.809  0.1936 -0.8033 -0.5204
 5702SOL    HW128565   0.905   3.861   1.725  2.9792  0.8205  0.9079
 5702SOL    HW228566   0.911   3.885   1.874  0.4904 -2.9826  1.5507
 5703SOL     OW28567   2.691   1.151   7.965  0.2926  0.2970 -0.0832
 5703SOL    HW128568   2.627   1.093   8.006  0.0230  0.3158 -0.4811
 5703SOL    HW228569   2.778   1.111   7.973 -0.4516 -1.0621  1.3582
 5704SOL     OW28570   3.473   1.644  11.729 -0.0819  0.1250  0.1045
 5704SOL    HW128571   3.449   1.718  11.673 -0.1461  0.1546  0.1712
 5704SOL    HW228572   3.392   1.592  11.733  0.5647 -0.9007 -0.4502
 5705SOL     OW28573   4.604   4.519  16.483  0.2342  0.2684 -0.4997
 5705SOL    HW128574   4.596   4.451  16.416  0.8283  0.3228 -0.6237
 5705SOL    HW228575   4.598   4.466  16.562 -0.7494 -0.6651 -1.1887
 5706SOL     OW28576   0.444   2.328   8.778 -0.0622  0.0987  0.0381
 5706SOL    HW128577   0.409   2.244   8.747 -0.5240  0.4753 -0.4680
 5706SOL    HW228578   0.369   2.386   8.782 -0.8101 -0.8746  0.2149
 5707SOL     OW28579   3.280   0.637   2.577  0.5207 -0.1800  0.1317
 5707SOL    HW128580   3.365   0.592   2.572  1.6646  1.9200  0.5057
 5707SOL    HW228581   3.220   0.563   2.573  1.1661 -0.7363  0.7479
 5708SOL     OW28582   2.439   4.390   8.701 -0.1688  0.5191  0.1048
 5708SOL    HW128583   2.427   4.451   8.773 -0.8138 -0.1775  0.5961
 5708SOL    HW228584   2.439   4.459   8.635  2.7736  0.0368 -0.3998
 5709SOL     OW28585   3.088   3.310  11.885 -0.3780 -0.2408 -0.5245
 5709SOL    HW128586   3.176   3.320  11.848 -0.6541 -0.7499 -1.3113
 5709SOL    HW228587   3.095   3.344  11.974 -0.5033  0.2623 -0.7058
 5710SOL     OW28588   0.436   4.154   6.426  0.5075 -0.1916  0.5738
 5710SOL    HW128589   0.447   4.202   6.508 -0.6402  0.6099  0.2691
 5710SOL    HW228590   0.527   4.135   6.407  0.9643 -0.9472  3.5409
 5711SOL     OW28591   1.113   2.719   6.609  0.0342 -0.7122  0.2724
 5711SOL    HW128592   1.027   2.717   6.652 -0.3942  1.5897 -0.4599
 5711SOL    HW228593   1.094   2.672   6.527  0.9716 -0.4243 -0.1131
 5712SOL     OW28594   2.172   3.197   8.186  0.6599  0.1712 -0.1389
 5712SOL    HW128595   2.153   3.132   8.118  2.6109  0.0645 -0.5606
 5712SOL    HW228596   2.188   3.276   8.135  1.4365 -0.4091 -0.7963
 5713SOL     OW28597   3.784   0.116   3.182  0.3474 -0.4133 -0.6701
 5713SOL    HW128598   3.805   0.154   3.267  1.1800 -3.1906  0.3763
 5713SOL    HW228599   3.808   0.189   3.125 -0.7368  0.5461  0.1068
 5714SOL     OW28600   0.327   2.417   6.288 -0.1542 -0.1982  0.6121
 5714SOL    HW128601   0.262   2.462   6.342 -0.5115 -0.9582  0.8089
 5714SOL    HW228602   0.409   2.459   6.311 -0.3249  1.9750 -2.6700
 5715SOL     OW28603   2.463   2.004   3.223 -0.5396  0.2554  0.3422
 5715SOL    HW128604   2.412   2.058   3.283  0.1587 -0.5217  1.6265
 5715SOL    HW228605   2.554   2.032   3.234 -0.6527  0.2322  1.3832
 5716SOL     OW28606   2.285   3.550   5.629  0.4124 -0.1930 -0.0488
 5716SOL    HW128607   2.355   3.607   5.599  2.3676 -3.1173 -1.0525
 5716SOL    HW228608   2.276   3.478   5.565  3.2956 -0.8099  0.2649
 5717SOL     OW28609   0.770   4.593   4.015 -0.0086 -0.7030 -0.2668
 5717SOL    HW128610   0.845   4.637   4.054  0.7975 -0.5995 -1.9121
 5717SOL    HW228611   0.812   4.573   3.931  2.5570 -0.0451  0.8505
 5718SOL     OW28612   2.901   1.434   4.677  0.1728 -0.0144 -0.3465
 5718SOL    HW128613   2.810   1.405   4.687  0.2840 -0.5141 -0.7823
 5718SOL    HW228614   2.920   1.454   4.769  0.4319 -0.5912 -0.2753
 5719SOL     OW28615   4.409   2.379   6.468  0.3397 -0.3323  0.4615
 5719SOL    HW128616   4.501   2.374   6.440 -0.6119 -1.0396 -2.5721
 5719SOL    HW228617   4.390   2.297   6.514  2.1916 -1.2792 -0.4408
 5720SOL     OW28618   2.286   1.074  15.736  0.5108  0.1925 -0.2829
 5720SOL    HW128619   2.196   1.106  15.734  0.4162 -0.2212 -2.5345
 5720SOL    HW228620   2.317   1.132  15.667  0.6819  0.5737  0.1112
 5721SOL     OW28621   2.561   3.361   4.990  0.5095 -0.2358 -0.1908
 5721SOL    HW128622   2.604   3.377   4.906  1.6129 -2.1381 -0.0069
 5721SOL    HW228623   2.545   3.267   4.978 -3.7002  0.4383  0.3954
 5722SOL     OW28624   4.464   2.970   7.428  0.0898 -0.4938 -0.6750
 5722SOL    HW128625   4.388   2.927   7.468  1.5644  0.6297  3.3476
 5722SOL    HW228626   4.515   2.990   7.507 -0.4641 -2.2596  0.1444
 5723SOL     OW28627   1.052   4.329   6.897  0.5886  0.4745 -0.1108
 5723SOL    HW128628   1.025   4.401   6.839 -0.1626 -0.9970 -1.5805
 5723SOL    HW228629   0.979   4.324   6.958  1.0850 -2.9532  0.1727
 5724SOL     OW28630   3.828   4.240   2.974  0.2180 -0.2388 -0.2468
 5724SOL    HW128631   3.878   4.164   2.944  0.6503 -0.3622  0.8030
 5724SOL    HW228632   3.862   4.302   2.910  0.8938 -0.3109  0.0377
 5725SOL     OW28633   1.702   0.488  16.682  0.1236  0.1711 -0.0842
 5725SOL    HW128634   1.738   0.544  16.613 -0.2219 -0.6799 -0.9453
 5725SOL    HW228635   1.784   0.463  16.724  0.5953 -1.2802 -1.9112
 5726SOL     OW28636   1.871   1.715   4.356 -0.5899 -0.3829 -0.7034
 5726SOL    HW128637   1.823   1.777   4.302  1.4633 -0.2818 -2.4309
 5726SOL    HW228638   1.812   1.702   4.431 -1.3173  0.6367 -1.1020
 5727SOL     OW28639   2.247   0.662   3.304  0.4089  0.4890  0.1791
 5727SOL    HW128640   2.329   0.709   3.287  0.2589  1.0813  1.0853
 5727SOL    HW228641   2.273   0.571   3.321  0.3962  0.4763  0.1316
 5728SOL     OW28642   1.222   2.922  12.201 -0.4129 -0.0100  0.5571
 5728SOL    HW128643   1.203   2.835  12.237  2.6760 -1.0732 -0.3310
 5728SOL    HW228644   1.142   2.931  12.151  1.3783 -0.9997 -2.4713
 5729SOL     OW28645   3.698   0.054   5.714 -0.4009  0.3700  0.2021
 5729SOL    HW128646   3.744   0.012   5.641  1.7999  2.1835  0.5269
 5729SOL    HW228647   3.697   4.703   5.776 -1.7833 -2.2285 -2.8289
 5730SOL     OW28648   3.936   1.870   3.811  0.3810 -0.6187 -0.0505
 5730SOL    HW128649   3.999   1.927   3.768 -0.9560  2.0555  1.5586
 5730SOL    HW228650   3.978   1.856   3.896  1.0642  3.1456  0.2204
 5731SOL     OW28651   1.793   4.309   9.305 -0.5475 -0.0857  0.6975
 5731SOL    HW128652   1.857   4.377   9.282 -0.5389  0.0297  1.0718
 5731SOL    HW228653   1.850   4.251   9.355 -1.7408 -0.1158  2.0101
 5732SOL     OW28654   1.992   2.280   7.152 -0.4626  1.0446 -0.4695
 5732SOL    HW128655   1.956   2.202   7.195 -1.3237  1.2145 -0.8775
 5732SOL    HW228656   1.966   2.275   7.060  1.1972 -0.7719 -0.8272
 5733SOL     OW28657   3.100   2.454   8.708 -0.1557 -0.1241  0.0047
 5733SOL    HW128658   3.085   2.441   8.802 -1.8814 -1.8035 -0.4918
 5733SOL    HW228659   3.038   2.524   8.689 -3.7016 -2.6864  2.2416
 5734SOL     OW28660   2.701   3.504   3.367  0.7870  0.5103  0.1802
 5734SOL    HW128661   2.755   3.435   3.328  0.8306  0.6771 -0.0556
 5734SOL    HW228662   2.646   3.456   3.429  2.5445 -1.8705 -0.1165
 5735SOL     OW28663   3.492   0.979   4.376  0.1414 -0.1021  0.1284
 5735SOL    HW128664   3.539   1.005   4.297 -0.1307  0.5729  0.1904
 5735SOL    HW228665   3.413   0.944   4.335 -0.1856 -1.1043  1.6070
 5736SOL     OW28666   3.074   1.010   8.479  0.0577  0.1820  0.8237
 5736SOL    HW128667   3.046   0.965   8.400 -0.2372  2.9543 -0.6688
 5736SOL    HW228668   3.154   0.959   8.491 -0.6593 -1.2020 -0.2731
 5737SOL     OW28669   2.086   4.494   5.880  0.1174  0.4613  0.4807
 5737SOL    HW128670   2.060   4.451   5.962  1.3187 -0.4875  0.3662
 5737SOL    HW228671   2.007   4.517   5.832  0.7013  2.7060  0.5700
 5738SOL     OW28672   2.639   2.209   9.432 -0.2824 -0.1210 -0.1221
 5738SOL    HW128673   2.575   2.153   9.388  1.0141 -0.8874 -1.0104
 5738SOL    HW228674   2.666   2.267   9.361 -0.3595 -0.5624 -0.5163
 5739SOL     OW28675   3.188   0.037   6.334  0.2177 -0.1254  0.3698
 5739SOL    HW128676   3.204   0.129   6.313  3.0005 -0.4016  1.3327
 5739SOL    HW228677   3.172   4.715   6.250 -1.7663  0.0587  0.6423
 5740SOL     OW28678   2.378   2.270   4.800  0.2517 -0.4160 -0.0389
 5740SOL    HW128679   2.376   2.363   4.824  0.3173 -0.8392  1.6431
 5740SOL    HW228680   2.385   2.271   4.705 -1.9952  1.7912 -0.2016
 5741SOL     OW28681   3.937   4.175  13.003 -0.2507  0.3019  0.3616
 5741SOL    HW128682   4.002   4.114  13.037  0.0456  0.6086  0.3390
 5741SOL    HW228683   3.964   4.264  13.026  0.3443 -0.3658  2.2320
 5742SOL     OW28684   2.249   4.321   4.760  0.3027 -0.2013  0.4105
 5742SOL    HW128685   2.326   4.273   4.790  1.4232  0.6099 -1.1626
 5742SOL    HW228686   2.271   4.343   4.670  1.8210 -1.0541  0.5774
 5743SOL     OW28687   3.049   3.393   8.919  0.5095 -0.0307  0.3323
 5743SOL    HW128688   2.963   3.409   8.957 -0.0295 -0.0644 -0.8601
 5743SOL    HW228689   3.098   3.391   9.001 -0.7069  1.1108  1.0854
 5744SOL     OW28690   1.436   0.662   1.593  0.4132  0.1772 -0.3631
 5744SOL    HW128691   1.422   0.725   1.664  0.7004  0.1692 -0.2989
 5744SOL    HW228692   1.516   0.696   1.552  1.2771 -0.7512  0.5348
 5745SOL     OW28693   0.318   3.797   2.618  0.4046  0.3254  0.0968
 5745SOL    HW128694   0.240   3.743   2.607 -0.5207  1.8932 -1.0228
 5745SOL    HW228695   0.327   3.818   2.526 -2.0108 -0.1404 -0.2571
 5746SOL     OW28696   3.728   0.764   3.896 -0.8545  0.7850 -0.0257
 5746SOL    HW128697   3.776   0.844   3.915 -1.7252  0.9243  1.5926
 5746SOL    HW228698   3.682   0.784   3.814 -0.6189  1.3312 -0.0218
 5747SOL     OW28699   1.220   2.938   0.935  0.3181 -0.1288 -0.1467
 5747SOL    HW128700   1.292   2.966   0.878  0.1095 -2.2674 -1.4804
 5747SOL    HW228701   1.244   2.975   1.020  1.0546 -1.2140  0.1145
 5748SOL     OW28702   3.257   3.229   3.624 -0.4291 -1.1055 -0.4968
 5748SOL    HW128703   3.230   3.146   3.583 -0.7719 -1.0148 -0.4554
 5748SOL    HW228704   3.231   3.293   3.557 -1.1360 -1.0415 -0.1595
 5749SOL     OW28705   3.528   2.582   6.474 -0.0266  0.3075  0.0532
 5749SOL    HW128706   3.484   2.524   6.413 -1.3404 -0.2312  1.5290
 5749SOL    HW228707   3.617   2.550   6.462 -0.6926 -0.3851 -3.1427
 5750SOL     OW28708   0.113   1.497  10.448 -0.2166 -0.2048 -0.0404
 5750SOL    HW128709   0.129   1.582  10.407 -1.2963  0.5464  1.0919
 5750SOL    HW228710   0.132   1.439  10.374 -1.7515 -1.3456  0.4723
 5751SOL     OW28711   2.300   0.267   6.631  0.3381  0.2210 -0.0029
 5751SOL    HW128712   2.293   0.227   6.544 -1.1239 -0.7828  0.5586
 5751SOL    HW228713   2.206   0.284   6.646 -0.0229 -1.3259 -0.5269
 5752SOL     OW28714   3.242   0.436  11.935 -0.1655  0.5669 -0.6328
 5752SOL    HW128715   3.318   0.416  11.989  0.0769 -0.5046 -1.3583
 5752SOL    HW228716   3.264   0.515  11.886  3.9661 -1.0261 -1.4032
 5753SOL     OW28717   1.056   3.014   8.012  0.4100  0.2078  0.3118
 5753SOL    HW128718   1.051   3.055   8.098 -1.2904  1.4926 -0.4097
 5753SOL    HW228719   1.132   3.057   7.973 -0.6683  0.7910 -1.1268
 5754SOL     OW28720   2.957   0.413   4.997 -0.2340  0.2592  0.2591
 5754SOL    HW128721   2.871   0.380   4.969  0.4074 -0.9764 -0.2463
 5754SOL    HW228722   3.016   0.360   4.944  0.0858  2.4513 -1.5680
 5755SOL     OW28723   4.433   2.727   1.600 -0.4059 -0.0153 -0.1474
 5755SOL    HW128724   4.513   2.781   1.603 -0.7318  0.4544  0.1216
 5755SOL    HW228725   4.378   2.787   1.550 -1.0671  0.6265  1.3797
 5756SOL     OW28726   1.496   0.745  11.223  0.6964  0.2152 -0.1093
 5756SOL    HW128727   1.442   0.781  11.294 -1.5051 -1.6343 -0.8489
 5756SOL    HW228728   1.586   0.745  11.255  0.5353 -0.6480  0.3470
 5757SOL     OW28729   3.952   1.694   2.489  0.2243  0.2891 -0.3705
 5757SOL    HW128730   3.965   1.771   2.434  2.9202 -0.1154 -0.3003
 5757SOL    HW228731   3.871   1.655   2.455 -0.6041  0.8949  0.8735
 5758SOL     OW28732   2.020   0.811  14.929 -0.1501  0.1454  0.2321
 5758SOL    HW128733   2.016   0.793  14.835  1.2904 -3.1846  0.8103
 5758SOL    HW228734   1.976   0.732  14.962 -1.4335  1.1960  1.0226
 5759SOL     OW28735   1.062   1.639   4.172  0.4285 -0.3225 -0.4300
 5759SOL    HW128736   0.968   1.657   4.177  0.7703  1.4931 -0.3361
 5759SOL    HW228737   1.091   1.729   4.158 -0.1558 -0.4102 -2.2287
 5760SOL     OW28738   3.920   3.932   8.744  0.1699  0.2393  0.0500
 5760SOL    HW128739   4.009   3.960   8.723 -0.1065  0.3282 -1.0412
 5760SOL    HW228740   3.932   3.916   8.837 -0.5348  0.5938  0.1965
 5761SOL     OW28741   2.320   1.214   5.200  0.3016  0.3839 -0.3054
 5761SOL    HW128742   2.255   1.284   5.204  0.4588  0.5323 -0.3715
 5761SOL    HW228743   2.322   1.206   5.295  0.7196 -0.6174 -0.3958
 5762SOL     OW28744   2.167   0.341   7.937 -0.0248 -0.4288  0.4253
 5762SOL    HW128745   2.171   0.385   7.852 -0.3483  0.2401  0.7586
 5762SOL    HW228746   2.071   0.334   7.945  0.1210 -1.8930  0.9846
 5763SOL     OW28747   2.213   0.265   9.831  0.2139 -0.5999  0.0482
 5763SOL    HW128748   2.280   0.220   9.779  1.4904  1.0801  0.2220
 5763SOL    HW228749   2.202   0.340   9.773  0.0120 -0.5249  0.1839
 5764SOL     OW28750   2.218   1.002   3.225 -0.2212 -0.5242  0.3070
 5764SOL    HW128751   2.300   1.015   3.178  1.0362  0.4766  2.7880
 5764SOL    HW228752   2.202   1.090   3.258  0.6193 -0.0534 -0.5711
 5765SOL     OW28753   3.994   2.463   4.200  0.1224  0.4466 -0.0595
 5765SOL    HW128754   3.950   2.532   4.151 -0.4856  1.3679  1.7729
 5765SOL    HW228755   3.916   2.408   4.209  1.6009 -1.7597 -0.7785
 5766SOL     OW28756   2.841   2.873   9.309  0.3978  0.4668 -0.3586
 5766SOL    HW128757   2.931   2.844   9.322  0.6891  0.7898 -1.6666
 5766SOL    HW228758   2.843   2.957   9.353  2.0980 -0.5190  1.4475
 5767SOL     OW28759   4.539   1.532   2.275  0.2029 -0.2196 -0.2636
 5767SOL    HW128760   4.502   1.471   2.211 -1.2434 -0.8379  1.1584
 5767SOL    HW228761   4.462   1.584   2.295  1.0517  0.7906  0.4285
 5768SOL     OW28762   3.524   2.796   4.037 -0.8299  0.1658 -0.4305
 5768SOL    HW128763   3.457   2.864   4.048  0.9467  1.5900  1.6340
 5768SOL    HW228764   3.557   2.822   3.951  2.0126 -2.5256 -0.1569
 5769SOL     OW28765   0.329   2.648  14.506 -0.1880 -0.3329 -0.0017
 5769SOL    HW128766   0.258   2.697  14.464 -0.6808 -1.8661 -0.9336
 5769SOL    HW228767   0.302   2.637  14.597  0.8094  0.0843  0.3455
 5770SOL     OW28768   0.750   2.036   1.132  0.5862 -0.4927  0.1767
 5770SOL    HW128769   0.818   1.989   1.181  0.4846 -0.9175 -0.0908
 5770SOL    HW228770   0.797   2.071   1.056 -0.2855 -0.5639 -0.3886
 5771SOL     OW28771   3.490   3.486   1.077 -0.3361  0.1113  0.4052
 5771SOL    HW128772   3.399   3.475   1.104  0.2541  1.5255  2.9780
 5771SOL    HW228773   3.535   3.417   1.126  0.0028 -0.5313 -0.8147
 5772SOL     OW28774   1.347   0.526   6.308  0.4810  0.4231 -1.0985
 5772SOL    HW128775   1.327   0.615   6.279  2.6442  1.0494 -0.6310
 5772SOL    HW228776   1.429   0.506   6.264  0.8499 -0.0072 -0.2149
 5773SOL     OW28777   2.081   3.977   2.659  0.0955  0.7835  0.0749
 5773SOL    HW128778   2.119   3.923   2.728 -2.8738 -0.6305  0.6198
 5773SOL    HW228779   2.014   4.021   2.711 -1.4157 -0.1072 -1.1335
 5774SOL     OW28780   2.489   0.255   8.253 -0.0413  0.5858  0.2377
 5774SOL    HW128781   2.452   0.330   8.207 -1.5102 -0.4516 -0.3006
 5774SOL    HW228782   2.500   0.199   8.177  3.0100  0.6934  0.6292
 5775SOL     OW28783   2.110   3.401  15.871  0.1154 -0.4677  0.3234
 5775SOL    HW128784   2.108   3.462  15.798  1.1901 -1.0412 -0.1957
 5775SOL    HW228785   2.030   3.431  15.914 -0.2255 -0.9272  0.0072
 5776SOL     OW28786   0.852   0.374   4.038 -0.4797 -0.3148 -0.6102
 5776SOL    HW128787   0.932   0.385   3.988  0.3571 -0.0575  0.8014
 5776SOL    HW228788   0.800   0.422   3.973 -1.4676 -1.7716 -0.9001
 5777SOL     OW28789   1.986   2.523   5.705  0.0240  0.0331 -0.3928
 5777SOL    HW128790   1.967   2.602   5.756  1.7577 -0.6880  1.3624
 5777SOL    HW228791   1.933   2.530   5.625  0.0358  1.4905 -0.2702
 5778SOL     OW28792   3.692   0.891   8.563  0.0418  0.2409  0.2105
 5778SOL    HW128793   3.646   0.966   8.599 -1.4690  0.0859 -1.4238
 5778SOL    HW228794   3.734   0.870   8.647  0.2264 -1.3537 -0.2651
 5779SOL     OW28795   1.460   3.378   7.946 -0.2991 -0.1192 -0.3315
 5779SOL    HW128796   1.537   3.329   7.974  0.2996 -0.5390 -2.7032
 5779SOL    HW228797   1.513   3.437   7.893 -1.4135 -2.2951 -3.9289
 5780SOL     OW28798   2.927   0.302   6.198  0.0075  0.4036  0.0428
 5780SOL    HW128799   2.878   0.241   6.144  0.4845  0.3553 -0.3315
 5780SOL    HW228800   2.885   0.275   6.280  0.3681  3.1276  1.1063
 5781SOL     OW28801   0.999   1.324   9.429 -0.3674 -0.0303 -0.1926
 5781SOL    HW128802   0.908   1.295   9.438 -0.1570 -0.9965 -1.3089
 5781SOL    HW228803   1.018   1.287   9.343 -3.0734  2.0443 -1.7118
 5782SOL     OW28804   0.596   1.661   4.806 -0.8304  0.6549  0.4391
 5782SOL    HW128805   0.579   1.753   4.784 -1.8227  0.6923  1.4191
 5782SOL    HW228806   0.676   1.635   4.759  0.5526  1.1091  2.5268
 5783SOL     OW28807   3.976   2.512  13.600 -0.3328  0.1584 -0.0396
 5783SOL    HW128808   4.018   2.537  13.518 -0.6391  1.7459  0.2931
 5783SOL    HW228809   4.042   2.445  13.617 -0.3925  0.0751 -0.1354
 5784SOL     OW28810   2.775   3.488   8.110  0.0754 -0.0935 -0.7024
 5784SOL    HW128811   2.813   3.407   8.142 -0.0824 -0.2634 -0.9510
 5784SOL    HW228812   2.701   3.510   8.167  0.3612 -2.2418  0.4870
 5785SOL     OW28813   0.249   0.683   7.335  0.0474 -0.0179 -0.2940
 5785SOL    HW128814   0.253   0.588   7.349 -1.1654 -0.1860 -1.0828
 5785SOL    HW228815   0.195   0.712   7.409 -0.9426 -1.8681 -0.2791
 5786SOL     OW28816   0.218   0.812   5.707  0.2441  0.0304 -0.1100
 5786SOL    HW128817   0.264   0.734   5.676 -1.2594 -1.5677  1.6685
 5786SOL    HW228818   0.142   0.813   5.648 -1.3606 -0.5507  1.9435
 5787SOL     OW28819   1.888   3.073   4.340 -0.0930  0.4851  0.4449
 5787SOL    HW128820   1.837   3.087   4.260  0.6263  2.3178  0.2951
 5787SOL    HW228821   1.960   3.135   4.334 -1.4339  1.9097 -1.1789
 5788SOL     OW28822   1.016   0.725  12.998 -0.8297 -0.2460 -0.3140
 5788SOL    HW128823   1.082   0.794  13.003 -0.1420 -1.0707  2.0382
 5788SOL    HW228824   0.992   0.723  12.905 -0.4552  0.2531 -0.4237
 5789SOL     OW28825   4.675   0.506   9.233 -0.1366  0.8910  0.4089
 5789SOL    HW128826   4.688   0.437   9.168  0.7181  1.8120 -0.4059
 5789SOL    HW228827   4.615   0.567   9.191 -0.2064  0.3154 -0.3365
 5790SOL     OW28828   0.112   4.406   5.466 -0.0933  0.1707 -0.1289
 5790SOL    HW128829   0.059   4.479   5.435  1.4151  1.3830  0.1861
 5790SOL    HW228830   0.053   4.334   5.444  2.9455 -2.0038 -1.2451
 5791SOL     OW28831   4.494   0.714  17.151 -0.3012 -0.3053  0.0391
 5791SOL    HW128832   4.441   0.794  17.145 -0.2029 -0.6838 -5.3497
 5791SOL    HW228833   4.474   0.700  17.244  1.8306 -0.1994  0.5106
 5792SOL     OW28834   3.877   4.416   0.692 -0.1559  0.0889  0.3693
 5792SOL    HW128835   3.911   4.355   0.757 -0.7101  0.7569  1.2909
 5792SOL    HW228836   3.823   4.361   0.636 -1.2642 -0.3291  1.8428
 5793SOL     OW28837   3.772   3.878   7.699  0.4326 -0.0960 -0.3687
 5793SOL    HW128838   3.808   3.797   7.663 -0.7047 -0.3259 -0.9900
 5793SOL    HW228839   3.815   3.951   7.653 -0.6075 -0.0648 -1.2927
 5794SOL     OW28840   0.969   2.225   9.555  0.1822  0.3914 -0.2836
 5794SOL    HW128841   0.912   2.294   9.521  0.9878  1.2602  0.1306
 5794SOL    HW228842   0.912   2.150   9.574 -0.0485  0.8668  0.8704
 5795SOL     OW28843   4.686   2.949   0.669  0.4570 -0.1537  0.4189
 5795SOL    HW128844   4.701   2.874   0.611 -3.0567 -0.2752 -0.3355
 5795SOL    HW228845   0.053   2.972   0.699  0.6520 -1.0551  0.5290
 5796SOL     OW28846   1.632   1.334   4.579  0.1938 -0.2758  0.8107
 5796SOL    HW128847   1.556   1.366   4.530  0.5359  1.3618  1.3569
 5796SOL    HW228848   1.701   1.393   4.547  0.6095 -0.9204  0.5183
 5797SOL     OW28849   3.940   2.631   8.228 -0.1853 -0.1248  0.5391
 5797SOL    HW128850   3.960   2.539   8.210 -1.9866 -0.3290 -0.4759
 5797SOL    HW228851   3.894   2.657   8.148  0.2675 -1.9216 -0.3145
 5798SOL     OW28852   2.261   4.154   6.168 -0.6942 -1.0365 -0.6370
 5798SOL    HW128853   2.305   4.141   6.253  1.3888  0.5080 -1.4819
 5798SOL    HW228854   2.330   4.144   6.102  0.6044  0.4970  0.4915
 5799SOL     OW28855   1.600   3.986   5.751 -0.0152  0.2131  0.0097
 5799SOL    HW128856   1.523   4.038   5.774  0.2811  0.7317 -0.1766
 5799SOL    HW228857   1.649   3.992   5.833  0.2515  0.6799 -0.1814
 5800SOL     OW28858   1.126   3.748   6.138 -0.7085  0.1661  0.1279
 5800SOL    HW128859   1.206   3.734   6.189 -1.6607 -1.0831  1.2571
 5800SOL    HW228860   1.155   3.839   6.126 -0.9181  0.1196 -0.6925
 5801SOL     OW28861   2.019   2.645  12.992 -0.3190  0.4436  0.5914
 5801SOL    HW128862   2.002   2.724  12.941 -1.7119  0.1306  0.5594
 5801SOL    HW228863   2.094   2.672  13.044 -0.6832 -0.2233  1.4758
 5802SOL     OW28864   1.701   0.118  14.338  0.2503  0.5815  0.1375
 5802SOL    HW128865   1.795   0.138  14.336  0.3278  0.2493  0.4213
 5802SOL    HW228866   1.703   0.048  14.404 -2.9147  1.1407  0.8108
 5803SOL     OW28867   1.261   3.311  15.034  0.6537 -0.4562  0.4678
 5803SOL    HW128868   1.230   3.303  15.124 -1.3168  0.4270 -0.1180
 5803SOL    HW228869   1.324   3.241  15.017  1.1335 -0.1540  1.0074
 5804SOL     OW28870   1.164   0.031   1.295  0.3050  0.0895  0.1836
 5804SOL    HW128871   1.216   0.023   1.215 -0.4016  1.3445 -0.3984
 5804SOL    HW228872   1.232   4.719   1.354 -0.0161 -0.4167  0.2703
 5805SOL     OW28873   2.659   1.070   2.850  0.0571 -0.5981 -0.4208
 5805SOL    HW128874   2.637   1.121   2.772  0.6035 -0.1754 -0.2997
 5805SOL    HW228875   2.577   1.023   2.863 -0.2389 -0.3056 -1.2361
 5806SOL     OW28876   3.307   4.230   6.052 -0.2725 -0.1822  0.2205
 5806SOL    HW128877   3.374   4.223   6.120  0.2304  2.0036 -0.0235
 5806SOL    HW228878   3.337   4.312   6.012  1.0587 -0.8139 -0.0612
 5807SOL     OW28879   4.187   4.269  11.472 -0.1287  0.0313 -0.8585
 5807SOL    HW128880   4.193   4.327  11.396  0.1015 -1.1696 -1.7601
 5807SOL    HW228881   4.101   4.228  11.470 -0.3118  0.4266 -1.0840
 5808SOL     OW28882   0.890   0.389   8.004 -0.3426 -0.7092  0.2786
 5808SOL    HW128883   0.892   0.475   8.048 -1.9336  0.1101 -1.2575
 5808SOL    HW228884   0.890   0.332   8.081 -1.2336  0.2797  1.0239
 5809SOL     OW28885   1.460   0.848   6.426 -0.7069  0.0528  0.0612
 5809SOL    HW128886   1.461   0.942   6.408  0.1053  0.3392  1.6105
 5809SOL    HW228887   1.456   0.836   6.521 -1.0421  0.9559  0.1647
 5810SOL     OW28888   4.093   1.445   4.734 -0.5195  0.4868  0.2618
 5810SOL    HW128889   4.023   1.425   4.796 -1.1604 -0.7029 -0.8599
 5810SOL    HW228890   4.070   1.382   4.666 -3.1718  1.4516  0.2723
 5811SOL     OW28891   0.090   2.392  14.376 -0.1909  0.7564 -0.0678
 5811SOL    HW128892   0.027   2.352  14.315 -0.3630 -1.9443  1.8902
 5811SOL    HW228893   0.028   2.456  14.411  0.6923  1.3479  0.3990
 5812SOL     OW28894   4.477   3.197   6.673 -0.2939  0.0279  0.1209
 5812SOL    HW128895   4.477   3.105   6.646  2.0930  0.5185 -1.4898
 5812SOL    HW228896   4.551   3.235   6.626 -0.8731 -0.1861 -0.9666
 5813SOL     OW28897   0.305   4.491   1.684  0.1181  0.1202  0.0056
 5813SOL    HW128898   0.272   4.577   1.659  3.8396  1.2795 -0.9255
 5813SOL    HW228899   0.334   4.508   1.774  0.7221  1.6448 -0.4745
 5814SOL     OW28900   2.498   2.306   7.958 -0.3822  0.0487 -0.4581
 5814SOL    HW128901   2.490   2.353   8.042 -0.3185  0.3168 -0.6011
 5814SOL    HW228902   2.559   2.237   7.983  1.0009  0.7053 -2.0058
 5815SOL     OW28903   3.852   2.527   7.698  0.2564 -0.0339  0.0794
 5815SOL    HW128904   3.907   2.450   7.681  1.8913  0.8497  1.3133
 5815SOL    HW228905   3.903   2.567   7.769 -0.3115  0.6292  0.1068
 5816SOL     OW28906   3.811   2.001   4.303  0.1679  0.3222  0.2844
 5816SOL    HW128907   3.851   1.925   4.261  1.9577  1.8338 -0.7983
 5816SOL    HW228908   3.803   1.967   4.392 -0.0972  0.4266  0.2995
 5817SOL     OW28909   1.976   0.095   8.186 -0.3077  0.2003  0.1940
 5817SOL    HW128910   1.920   0.114   8.262  0.2611  2.0192  0.1531
 5817SOL    HW228911   1.936   0.149   8.118 -2.1986 -1.2008  0.1990
 5818SOL     OW28912   2.085   0.936   7.161 -0.0567  0.0082 -0.2445
 5818SOL    HW128913   2.160   0.884   7.189  2.2990  2.0285 -2.9244
 5818SOL    HW228914   2.106   0.960   7.071 -0.5568  2.6042  0.3153
 5819SOL     OW28915   3.121   3.534  10.431  0.0917 -0.1583  0.6171
 5819SOL    HW128916   3.079   3.487  10.503 -0.1007  1.3733  1.4951
 5819SOL    HW228917   3.047   3.537  10.370 -0.4253 -1.2601  1.2017
 5820SOL     OW28918   3.612   4.524   0.974 -0.1668 -0.8062  0.0202
 5820SOL    HW128919   3.640   4.481   1.055 -2.2055 -0.7233  0.7837
 5820SOL    HW228920   3.681   4.499   0.913 -1.8123 -1.2108 -1.6737
 5821SOL     OW28921   4.176   1.571   5.051  0.2853 -0.4448  0.3247
 5821SOL    HW128922   4.263   1.574   5.011  0.0087 -0.0521 -0.2450
 5821SOL    HW228923   4.152   1.663   5.042  0.0826 -0.2306  3.1637
 5822SOL     OW28924   1.501   3.220  17.102  0.4113  0.1833  0.0680
 5822SOL    HW128925   1.498   3.127  17.124 -1.1688 -0.2740 -2.1254
 5822SOL    HW228926   1.417   3.250  17.136  0.4862  0.5784 -0.0894
 5823SOL     OW28927   2.364   0.380  13.747 -0.5039 -0.2684 -0.0909
 5823SOL    HW128928   2.446   0.401  13.792 -0.1891 -1.8753  0.0720
 5823SOL    HW228929   2.360   0.288  13.773 -2.4560 -0.3979 -0.8438
 5824SOL     OW28930   4.072   4.679   4.243  0.0158 -0.5017  0.4223
 5824SOL    HW128931   4.131   4.616   4.203 -0.0624  0.0271 -0.5213
 5824SOL    HW228932   4.052   4.637   4.327  1.4397 -1.0137  0.4982
 5825SOL     OW28933   0.320   4.193   3.711  0.0564 -0.3045 -0.2440
 5825SOL    HW128934   0.413   4.171   3.715  1.0236  3.6348 -1.0667
 5825SOL    HW228935   0.283   4.170   3.796  1.6871 -2.4861 -0.1148
 5826SOL     OW28936   1.569   2.008   3.521  0.1799  0.1179  0.1015
 5826SOL    HW128937   1.587   1.934   3.579 -0.6184  1.6657  2.3262
 5826SOL    HW228938   1.474   2.008   3.507 -0.0950 -0.3193  2.0339
 5827SOL     OW28939   0.437   2.997  11.241  0.0486 -0.2350  0.3355
 5827SOL    HW128940   0.400   2.909  11.251 -1.5856  0.3307 -0.8103
 5827SOL    HW228941   0.498   3.005  11.314  1.1619 -0.6591 -0.5334
 5828SOL     OW28942   1.771   2.955  11.307  0.1473  0.0769 -0.5676
 5828SOL    HW128943   1.701   2.897  11.338 -1.6353  1.7767 -1.4265
 5828SOL    HW228944   1.739   2.982  11.221 -0.8195  0.4240 -0.1062
 5829SOL     OW28945   3.844   1.970   2.603 -0.4795 -0.5118  0.5335
 5829SOL    HW128946   3.809   1.896   2.652  0.0595 -0.9797  0.2095
 5829SOL    HW228947   3.786   1.979   2.527  2.3069  0.7125 -1.4353
 5830SOL     OW28948   2.503   3.854   7.075  0.1254  0.5216 -0.1140
 5830SOL    HW128949   2.445   3.838   7.000 -0.8175 -0.4241  0.8275
 5830SOL    HW228950   2.520   3.946   7.054 -1.6888  0.9235  0.1748
 5831SOL     OW28951   3.807   2.899   5.731  0.0713 -0.4804 -0.3435
 5831SOL    HW128952   3.824   2.972   5.671 -1.5161  1.0482  1.0553
 5831SOL    HW228953   3.768   2.832   5.675  4.5359 -2.4240 -1.0777
 5832SOL     OW28954   0.988   4.285  13.852  0.2039 -0.2100 -0.5162
 5832SOL    HW128955   0.965   4.250  13.938  0.3464  0.5578 -0.1630
 5832SOL    HW228956   0.923   4.355  13.846 -0.7028 -0.9205  1.0391
 5833SOL     OW28957   1.904   2.678   1.730  0.3177 -0.8715 -0.1596
 5833SOL    HW128958   1.937   2.589   1.723  1.0780 -0.3317 -3.6238
 5833SOL    HW228959   1.932   2.717   1.646 -1.8023 -1.9789 -1.3754
 5834SOL     OW28960   0.039   2.920  17.110  0.3342  0.4996 -0.3311
 5834SOL    HW128961   4.705   2.986  17.152 -0.6837 -1.6190  1.6577
 5834SOL    HW228962   0.016   2.907  17.018  1.0657  2.3232 -0.7756
 5835SOL     OW28963   4.698   0.426   4.120 -0.1270 -0.0606 -0.4918
 5835SOL    HW128964   4.701   0.474   4.037 -0.3382  2.2626  0.8488
 5835SOL    HW228965   0.001   0.488   4.189  1.8364 -2.3816  0.8907
 5836SOL     OW28966   1.842   0.290   4.407  0.5710  0.3001 -0.3867
 5836SOL    HW128967   1.841   0.195   4.423 -2.2689  0.0843 -1.7869
 5836SOL    HW228968   1.820   0.327   4.492 -3.2802  1.7380 -2.0296
 5837SOL     OW28969   2.751   4.332   3.066  0.5184 -0.1160 -0.6669
 5837SOL    HW128970   2.818   4.334   3.135  1.0299  1.2892 -1.2088
 5837SOL    HW228971   2.796   4.274   3.004  1.6590 -2.5869  2.4363
 5838SOL     OW28972   0.914   0.149   5.487  0.6684  0.1300 -0.0506
 5838SOL    HW128973   0.837   0.101   5.458  0.2831  1.0244 -0.5234
 5838SOL    HW228974   0.981   0.080   5.483 -0.8085 -1.3709  1.3858
 5839SOL     OW28975   2.341   3.134   7.037  0.0406 -0.2226 -0.9296
 5839SOL    HW128976   2.421   3.178   7.009 -0.4513  0.3701 -1.4235
 5839SOL    HW228977   2.377   3.069   7.097 -0.6276  1.7815  1.6276
 5840SOL     OW28978   0.441   0.689   3.224  0.4565  0.9360 -0.5079
 5840SOL    HW128979   0.352   0.702   3.191  0.0344  0.7109  0.5695
 5840SOL    HW228980   0.480   0.623   3.166 -0.0390 -0.2045  0.4657
 5841SOL     OW28981   3.749   2.325  15.988 -0.6815  0.8483  0.2350
 5841SOL    HW128982   3.748   2.349  15.895 -2.4449  0.5418  0.1735
 5841SOL    HW228983   3.690   2.398  16.009 -1.1670  0.3742  0.5292
 5842SOL     OW28984   1.428   3.259   4.104 -0.1877 -0.5721 -0.0594
 5842SOL    HW128985   1.433   3.200   4.028 -0.3439  1.4909 -1.6892
 5842SOL    HW228986   1.514   3.299   4.111 -1.3740  2.2862 -1.6771
 5843SOL     OW28987   2.908   2.493   2.692  0.1871  0.1398  0.6269
 5843SOL    HW128988   2.952   2.446   2.622 -2.7228 -2.3025  0.4648
 5843SOL    HW228989   2.944   2.448   2.769 -2.0008 -3.3546 -0.4082
 5844SOL     OW28990   2.703   2.158   8.329  0.1407  0.0864 -0.0997
 5844SOL    HW128991   2.786   2.141   8.375  0.8185  1.8862 -0.6820
 5844SOL    HW228992   2.695   2.247   8.361  2.1794  0.2318  0.0087
 5845SOL     OW28993   0.161   0.921  14.539  0.3521 -0.0678 -0.2654
 5845SOL    HW128994   0.146   1.014  14.558 -3.6673 -0.8162  0.0624
 5845SOL    HW228995   0.102   0.868  14.593  1.5701 -1.0517  0.1068
 5846SOL     OW28996   0.201   2.534  10.096 -0.4250  0.0758  0.0179
 5846SOL    HW128997   0.144   2.598  10.054 -3.4554 -2.1078  0.8093
 5846SOL    HW228998   0.260   2.590  10.147  1.4274 -1.6134 -0.2934
 5847SOL     OW28999   3.933   1.097   6.530 -0.0039 -0.1305 -0.3701
 5847SOL    HW129000   4.003   1.120   6.469  0.9753 -1.3065  0.3281
 5847SOL    HW229001   3.961   1.015   6.571  0.9575 -0.5191 -1.8037
 5848SOL     OW29002   1.244   2.454   3.371 -0.0881 -0.3765  0.3829
 5848SOL    HW129003   1.266   2.535   3.418  0.2292  0.4819 -1.2104
 5848SOL    HW229004   1.216   2.393   3.438  2.0629 -1.5665  0.1946
 5849SOL     OW29005   1.129   2.509   1.141  0.0058  0.1190  0.7407
 5849SOL    HW129006   1.065   2.488   1.074  2.1226 -2.5502 -0.4531
 5849SOL    HW229007   1.170   2.423   1.152 -0.7045  0.1782  4.0310
 5850SOL     OW29008   0.666   3.830   4.158 -0.0483 -0.1951 -0.1230
 5850SOL    HW129009   0.609   3.796   4.228 -0.8436  0.7457 -0.3222
 5850SOL    HW229010   0.682   3.757   4.099  0.2875 -0.5024  0.3444
 5851SOL     OW29011   1.736   0.469   5.391  0.2885  0.4309  0.2169
 5851SOL    HW129012   1.811   0.416   5.415  0.4232 -0.1180 -1.3830
 5851SOL    HW229013   1.777   0.555   5.402  0.6779  0.2953 -0.1914
 5852SOL     OW29014   0.525   3.233   4.890 -0.6537  0.3741  0.2426
 5852SOL    HW129015   0.540   3.170   4.960 -0.9865 -1.1480 -1.0548
 5852SOL    HW229016   0.431   3.217   4.876 -0.2951  1.3315 -3.1950
 5853SOL     OW29017   0.172   4.552  12.485 -0.5723 -0.5306  0.0576
 5853SOL    HW129018   0.211   4.547  12.572 -1.1399  0.9025  0.3818
 5853SOL    HW229019   0.192   4.641  12.458  0.2183 -0.6387  0.2995
 5854SOL     OW29020   2.235   1.836   7.407  0.4114  0.1622  0.3154
 5854SOL    HW129021   2.244   1.898   7.335 -2.1113  0.5419  0.3330
 5854SOL    HW229022   2.204   1.759   7.360 -3.0785  1.9156 -0.2655
 5855SOL     OW29023   3.993   4.017  11.873  0.0527 -0.0055  0.0405
 5855SOL    HW129024   4.062   4.080  11.855 -0.5690  0.2997 -1.2578
 5855SOL    HW229025   3.991   3.964  11.794  1.2510 -0.7544  0.5087
 5856SOL     OW29026   0.855   0.638   7.516 -0.2343 -0.0141 -0.1420
 5856SOL    HW129027   0.806   0.563   7.549 -0.7415 -0.0188 -0.9272
 5856SOL    HW229028   0.853   0.694   7.595  0.3122 -0.9651  0.5435
 5857SOL     OW29029   0.445   1.405   4.817  0.2623  0.3005 -0.2191
 5857SOL    HW129030   0.498   1.482   4.796 -0.5323  0.4080 -1.8520
 5857SOL    HW229031   0.393   1.391   4.737 -0.6395 -0.1550  0.4507
 5858SOL     OW29032   0.933   3.226  17.421 -0.1558  0.3036  0.1221
 5858SOL    HW129033   0.849   3.244  17.464 -0.9724  0.7757 -1.6949
 5858SOL    HW229034   0.958   3.140  17.456  1.7998  0.9499  0.3405
 5859SOL     OW29035   1.981   0.171  10.707 -0.3700 -0.5053 -0.1629
 5859SOL    HW129036   1.916   0.213  10.764  0.2131  1.3035 -0.8437
 5859SOL    HW229037   1.943   0.084  10.700  1.0869 -1.1756  0.4367
 5860SOL     OW29038   1.225   2.644   5.622 -0.1470 -0.2800  0.4851
 5860SOL    HW129039   1.297   2.639   5.560  0.5517 -2.0938  1.4439
 5860SOL    HW229040   1.229   2.553   5.652 -0.2079 -0.1247  0.9695
 5861SOL     OW29041   2.476   1.731   3.836 -0.1321  0.4158  0.1850
 5861SOL    HW129042   2.394   1.710   3.792 -1.0363  2.5560  0.8453
 5861SOL    HW229043   2.475   1.666   3.906 -2.1738 -1.3729 -1.5113
 5862SOL     OW29044   1.473   3.224   6.209  0.2528  0.0417  0.1073
 5862SOL    HW129045   1.441   3.135   6.224 -1.2029  0.4373 -0.6884
 5862SOL    HW229046   1.523   3.238   6.290  0.0179 -0.0301  0.2655
 5863SOL     OW29047   4.218   4.435   2.649  0.0424 -0.7623  0.5703
 5863SOL    HW129048   4.222   4.530   2.659 -0.7315 -0.8395  1.6578
 5863SOL    HW229049   4.224   4.425   2.554 -0.8863 -1.1377  0.5551
 5864SOL     OW29050   1.292   3.474  14.807  0.0720 -0.3061 -0.0301
 5864SOL    HW129051   1.377   3.433  14.790  0.1743 -0.5584  1.1219
 5864SOL    HW229052   1.265   3.421  14.882  1.2745  0.5210  0.9958
 5865SOL     OW29053   3.910   0.381  13.558  0.3879 -0.1275  0.5558
 5865SOL    HW129054   4.002   0.359  13.574  1.3433  2.3044 -1.4848
 5865SOL    HW229055   3.865   0.308  13.601 -2.1791  0.8057 -0.5278
 5866SOL     OW29056   1.582   0.938   5.678  0.3161 -0.1324  0.0794
 5866SOL    HW129057   1.582   0.847   5.649  1.6862  0.1418 -0.7688
 5866SOL    HW229058   1.571   0.929   5.773 -0.3028 -0.3664 -0.0124
 5867SOL     OW29059   2.227   2.483   0.695  0.4787  0.4867 -0.5286
 5867SOL    HW129060   2.237   2.426   0.618 -0.6959  0.4031 -0.6226
 5867SOL    HW229061   2.140   2.519   0.678  0.8354  1.7931  0.4769
 5868SOL     OW29062   4.054   3.613   9.217 -0.0818 -0.5401  0.1971
 5868SOL    HW129063   3.974   3.608   9.270 -0.5334 -0.9926 -0.5167
 5868SOL    HW229064   4.121   3.592   9.282  3.0016 -0.6055 -3.0065
 5869SOL     OW29065   1.195   3.976  10.060 -0.0030  0.1735 -0.0534
 5869SOL    HW129066   1.180   3.980  10.155 -0.6666 -0.3261 -0.1308
 5869SOL    HW229067   1.245   3.895  10.055 -0.9477 -0.4412  0.3295
 5870SOL     OW29068   3.241   1.569  15.417 -0.1510  0.5190  0.2116
 5870SOL    HW129069   3.165   1.627  15.417  1.0877  2.1424 -0.0291
 5870SOL    HW229070   3.241   1.548  15.323  1.5295 -0.6460  0.4667
 5871SOL     OW29071   0.081   1.463  13.344  0.0850 -0.2558 -0.1119
 5871SOL    HW129072   0.139   1.531  13.380 -2.4994  1.2818  1.1151
 5871SOL    HW229073   0.153   1.401  13.336  1.4549  1.5902 -2.3032
 5872SOL     OW29074   2.976   0.783  16.561 -0.7222  0.2204  0.2840
 5872SOL    HW129075   3.031   0.857  16.586  0.1338 -0.1089 -0.6292
 5872SOL    HW229076   2.957   0.798  16.468  1.5973 -1.8442 -0.5107
 5873SOL     OW29077   1.515   2.931   3.361  0.3543  0.5210  0.6425
 5873SOL    HW129078   1.591   2.875   3.344  1.3103  1.2508  2.4823
 5873SOL    HW229079   1.478   2.949   3.275  0.0101  1.3256  0.9557
 5874SOL     OW29080   0.888   2.771  13.507  0.3085 -0.2448 -0.3797
 5874SOL    HW129081   0.876   2.786  13.601  0.4832 -2.5816  0.0057
 5874SOL    HW229082   0.947   2.696  13.508  0.8373  0.1863  0.6277
 5875SOL     OW29083   2.398   2.866   6.420  0.6975 -0.3329  0.1464
 5875SOL    HW129084   2.487   2.867   6.386  1.0977 -4.3301  1.0321
 5875SOL    HW229085   2.349   2.906   6.348  1.2216 -0.0366 -0.0460
 5876SOL     OW29086   3.423   0.588  11.780  0.3693  0.4601  0.1286
 5876SOL    HW129087   3.386   0.660  11.728  1.7824  1.1845  0.1307
 5876SOL    HW229088   3.467   0.539  11.710  0.9027 -0.2746  0.9874
 5877SOL     OW29089   2.997   4.232  17.171  0.2223  0.1740  0.1015
 5877SOL    HW129090   3.077   4.278  17.146 -0.5830  1.7461  0.3839
 5877SOL    HW229091   2.990   4.155  17.114 -2.7303 -0.2743  1.0266
 5878SOL     OW29092   1.377   3.183  14.378 -0.1225 -0.5246 -0.4038
 5878SOL    HW129093   1.304   3.178  14.316  1.0558  1.6408 -1.9711
 5878SOL    HW229094   1.350   3.260  14.428  4.1845  0.0257  1.0609
 5879SOL     OW29095   1.276   2.933  15.655 -0.2211 -0.3121  0.1822
 5879SOL    HW129096   1.232   2.879  15.589 -0.3724 -1.5478  1.2798
 5879SOL    HW229097   1.271   2.864  15.722  5.1955 -1.5940 -0.7042
 5880SOL     OW29098   0.711   3.273   1.222 -0.4288 -0.2965  0.2209
 5880SOL    HW129099   0.728   3.191   1.268  1.5825 -1.0126 -1.7740
 5880SOL    HW229100   0.683   3.329   1.294  1.8899  0.1264  0.7925
 5881SOL     OW29101   4.045   4.505   2.389  0.0321 -0.4959  0.1159
 5881SOL    HW129102   4.096   4.541   2.316 -0.9933 -1.6760 -1.1590
 5881SOL    HW229103   4.029   4.582   2.444  1.3763 -0.2294  0.1540
 5882SOL     OW29104   0.650   2.376  17.655 -0.2500  0.0559 -0.0680
 5882SOL    HW129105   0.590   2.447  17.680  1.2446  0.4950  2.2276
 5882SOL    HW229106   0.672   2.405  17.567 -0.3556 -0.4662 -0.2697
 5883SOL     OW29107   0.697   1.430   0.300  0.1734  0.2216  0.6696
 5883SOL    HW129108   0.697   1.365   0.370  0.4356 -0.7805 -0.2599
 5883SOL    HW229109   0.627   1.398   0.243  0.2687  1.9667 -0.4138
 5884SOL     OW29110   2.056   3.794  10.785 -0.1701 -0.2309  0.3652
 5884SOL    HW129111   1.965   3.764  10.776 -0.2759  0.5354 -1.3223
 5884SOL    HW229112   2.084   3.751  10.704 -0.3280 -2.4207  1.4633
 5885SOL     OW29113   2.863   1.492   3.098 -0.1780  0.5089 -0.2385
 5885SOL    HW129114   2.873   1.582   3.067  1.5791  0.5514  0.4239
 5885SOL    HW229115   2.926   1.448   3.040 -0.8124 -0.0202 -0.5206
 5886SOL     OW29116   2.326   3.050   6.208 -0.2589  0.6693  0.0085
 5886SOL    HW129117   2.286   3.131   6.176  0.6563  0.8409 -0.6908
 5886SOL    HW229118   2.403   3.048   6.152 -0.0467  1.3181  0.2803
 5887SOL     OW29119   0.182   1.262   7.344  0.0401  0.0054 -0.2227
 5887SOL    HW129120   0.136   1.185   7.379  1.2383 -0.4276  0.4011
 5887SOL    HW229121   0.131   1.275   7.264 -0.3968  1.3097  0.2811
 5888SOL     OW29122   3.432   1.339   5.977  0.0707 -0.3610  0.5180
 5888SOL    HW129123   3.355   1.286   5.959  1.9758 -2.6899 -0.7434
 5888SOL    HW229124   3.494   1.274   6.009  0.0480 -0.4546  0.3745
 5889SOL     OW29125   1.677   1.622   2.178  0.6280 -0.1783  0.2507
 5889SOL    HW129126   1.654   1.540   2.135 -2.2803  0.9171 -0.2788
 5889SOL    HW229127   1.742   1.660   2.119 -1.5490  1.7666 -0.8925
 5890SOL     OW29128   1.751   2.457   7.205  0.2588  0.3085 -0.1888
 5890SOL    HW129129   1.838   2.429   7.174  0.3221 -0.1675  0.4206
 5890SOL    HW229130   1.766   2.482   7.296 -2.5193 -1.3291  0.7296
 5891SOL     OW29131   1.957   4.573   5.567  0.2300 -0.1910  0.0869
 5891SOL    HW129132   1.906   4.535   5.639  0.1025  0.4531  0.3353
 5891SOL    HW229133   1.989   4.650   5.614  0.3724 -2.1000  3.1191
 5892SOL     OW29134   4.090   0.793   5.184  0.3755  0.6255  0.3172
 5892SOL    HW129135   4.098   0.735   5.260  0.0301  0.0440 -0.0915
 5892SOL    HW229136   4.077   0.873   5.235 -0.4108  1.5502 -1.3447
 5893SOL     OW29137   3.248   2.994   6.797  0.3672  0.6615 -0.4030
 5893SOL    HW129138   3.207   2.930   6.855 -0.8505 -0.3399 -2.3791
 5893SOL    HW229139   3.310   3.045   6.849 -1.7087  1.6228  1.1209
 5894SOL     OW29140   2.740   0.607  16.074  0.7464 -0.2898  0.2621
 5894SOL    HW129141   2.658   0.650  16.100 -0.5619 -0.7686 -2.9948
 5894SOL    HW229142   2.799   0.651  16.135  0.3815  1.0699 -0.3623
 5895SOL     OW29143   4.673   4.311   6.399  0.3915  0.0116  0.0807
 5895SOL    HW129144   4.721   4.255   6.338 -0.5210  1.4335 -1.9604
 5895SOL    HW229145   4.656   4.246   6.467  0.7349  0.3951  0.5266
 5896SOL     OW29146   0.108   1.732   8.807 -0.0410 -0.5448  0.1914
 5896SOL    HW129147   0.128   1.798   8.741 -2.3005  2.3285  2.3981
 5896SOL    HW229148   0.184   1.728   8.865 -0.7122  1.0346  1.2021
 5897SOL     OW29149   1.566   4.008   7.183 -0.0999  0.3399  0.4311
 5897SOL    HW129150   1.489   3.964   7.145 -0.4787  0.4772  1.0433
 5897SOL    HW229151   1.520   4.078   7.229 -0.8411  0.6102 -0.7097
 5898SOL     OW29152   2.792   2.887   8.063  0.0208 -0.1762  0.1214
 5898SOL    HW129153   2.845   2.879   7.984 -0.1461  3.0257 -0.3146
 5898SOL    HW229154   2.700   2.881   8.035 -0.2984 -0.2328  1.1916
 5899SOL     OW29155   1.598   2.835   3.883  0.1991 -0.3193 -0.6022
 5899SOL    HW129156   1.646   2.830   3.801  2.4736  0.3103  0.6917
 5899SOL    HW229157   1.595   2.741   3.902  0.1436 -0.5120 -1.5643
 5900SOL     OW29158   1.916   3.788   7.868 -0.3596 -0.4739 -0.6174
 5900SOL    HW129159   1.899   3.741   7.787 -4.3938 -2.0414  1.1225
 5900SOL    HW229160   1.824   3.801   7.891 -0.2934 -0.5231 -0.3284
 5901SOL     OW29161   4.405   1.987  12.472  0.0929  0.2545 -0.0262
 5901SOL    HW129162   4.491   1.951  12.494  0.2634  0.5137 -0.2758
 5901SOL    HW229163   4.359   1.967  12.554  1.1260 -3.1378 -0.2752
 5902SOL     OW29164   0.589   4.334   5.420 -0.9231 -0.3874 -0.2561
 5902SOL    HW129165   0.497   4.321   5.398 -1.8935  1.5524  2.6182
 5902SOL    HW229166   0.587   4.308   5.512  1.9172  0.8861  0.1671
 5903SOL     OW29167   3.994   1.554  17.209  0.3613 -0.7779  0.5723
 5903SOL    HW129168   3.970   1.533  17.299  0.0723  1.9926  1.1409
 5903SOL    HW229169   4.074   1.502  17.204  0.3435 -0.8316  0.8623
 5904SOL     OW29170   2.319   2.094   1.978 -0.3457  0.2349 -0.0690
 5904SOL    HW129171   2.334   2.107   2.072 -2.2058  1.3333  0.0917
 5904SOL    HW229172   2.328   1.999   1.982  2.4808  0.5473  1.1369
 5905SOL     OW29173   2.902   1.862  16.133 -0.2703  0.2873  0.4349
 5905SOL    HW129174   2.847   1.856  16.055 -0.8989  0.2216  0.8887
 5905SOL    HW229175   2.979   1.910  16.101 -0.2430  1.3514  2.0827
 5906SOL     OW29176   3.036   1.492  15.661  0.3637 -0.3658  0.2136
 5906SOL    HW129177   3.021   1.400  15.641 -0.1481 -0.4097  0.8053
 5906SOL    HW229178   3.094   1.473  15.735  0.9225  3.6601  0.8206
 5907SOL     OW29179   2.778   0.681   7.407 -0.5270 -0.3274 -0.7964
 5907SOL    HW129180   2.783   0.611   7.472 -0.5302  2.8046  2.5837
 5907SOL    HW229181   2.838   0.646   7.341 -2.0139 -3.4452 -0.4857
 5908SOL     OW29182   3.010   4.280  16.754 -0.2112  0.0884  0.5274
 5908SOL    HW129183   3.092   4.304  16.797  1.2866 -1.4354 -1.4129
 5908SOL    HW229184   3.033   4.230  16.675 -1.8667 -0.2555  0.2576
 5909SOL     OW29185   0.198   3.335  17.042  0.3269 -0.1959 -0.0659
 5909SOL    HW129186   0.223   3.247  17.068  1.1876  0.0975  0.1172
 5909SOL    HW229187   0.127   3.310  16.982 -0.0817 -1.0152  0.7606
 5910SOL     OW29188   2.834   0.395   2.634  0.4906  0.0102 -0.1196
 5910SOL    HW129189   2.798   0.316   2.593  1.8995 -0.5677 -0.2586
 5910SOL    HW229190   2.786   0.412   2.715  0.6930  0.6199 -0.1229
 5911SOL     OW29191   1.471   3.893   6.577  0.0289 -0.0683 -0.1747
 5911SOL    HW129192   1.393   3.930   6.619 -0.8714 -1.4456 -0.6423
 5911SOL    HW229193   1.520   3.852   6.648 -0.8043 -2.6771 -1.1226
 5912SOL     OW29194   2.511   1.128   8.740 -0.2903  0.3537  0.5077
 5912SOL    HW129195   2.602   1.120   8.711 -0.3492  1.9132 -0.0928
 5912SOL    HW229196   2.460   1.109   8.661 -1.9944 -0.2611  1.7428
 5913SOL     OW29197   0.891   3.400   9.307 -0.3753 -0.3112  0.6855
 5913SOL    HW129198   0.875   3.490   9.279 -2.6016 -0.2979  2.0064
 5913SOL    HW229199   0.927   3.354   9.231  0.0577 -0.9145  1.2498
 5914SOL     OW29200   0.978   3.637   1.989 -0.5492 -0.5417  0.2882
 5914SOL    HW129201   1.072   3.654   1.996 -0.8180  0.7463  0.7390
 5914SOL    HW229202   0.960   3.691   1.912  2.3480 -1.2386 -0.9094
 5915SOL     OW29203   2.527   1.524   3.993  0.3193  0.3310  0.1969
 5915SOL    HW129204   2.611   1.497   3.956  0.9154  2.1356  0.2729
 5915SOL    HW229205   2.556   1.534   4.083  2.3741  2.6830 -0.7418
 5916SOL     OW29206   1.969   4.076  10.702 -0.3592  1.3549  0.1560
 5916SOL    HW129207   2.018   4.135  10.645 -0.0211  0.9611  0.0371
 5916SOL    HW229208   2.030   4.010  10.735 -0.2409  1.6317  0.4833
 5917SOL     OW29209   1.715   1.027  10.125  0.1975  0.5217  0.0360
 5917SOL    HW129210   1.631   1.006  10.165  0.9265 -0.0740  1.2685
 5917SOL    HW229211   1.699   1.020  10.031 -0.0743  0.5590  0.0812
 5918SOL     OW29212   3.508   1.561   3.289  0.0554 -0.4787 -0.4211
 5918SOL    HW129213   3.463   1.620   3.229  0.6957  2.1174  1.6964
 5918SOL    HW229214   3.472   1.480   3.252 -2.3104  0.4443 -0.1837
 5919SOL     OW29215   3.809   2.257   4.212 -0.3219  0.1990  0.6396
 5919SOL    HW129216   3.821   2.179   4.266  0.6774 -0.5618 -0.6884
 5919SOL    HW229217   3.713   2.256   4.207 -0.1599 -0.3157 -2.2920
 5920SOL     OW29218   3.535   0.935   9.657  0.3251  1.4280 -0.1169
 5920SOL    HW129219   3.504   0.854   9.615 -0.8886  0.5641  2.4237
 5920SOL    HW229220   3.472   0.943   9.729 -0.9677 -0.6652 -1.0074
 5921SOL     OW29221   1.888   4.497   5.286 -0.8748 -0.0471 -0.0979
 5921SOL    HW129222   1.914   4.533   5.371  1.2158 -0.6271 -0.4842
 5921SOL    HW229223   1.818   4.435   5.304 -1.4845  0.2959 -1.2804
 5922SOL     OW29224   1.035   4.366   6.561  0.3482  0.4127  0.3440
 5922SOL    HW129225   0.947   4.329   6.552  0.5049  0.0694  0.2184
 5922SOL    HW229226   1.027   4.453   6.599 -2.0344 -0.4626  1.8287
 5923SOL     OW29227   1.440   1.267   0.865  0.2275  0.4295  0.4701
 5923SOL    HW129228   1.419   1.329   0.936 -3.3482 -0.7490  0.4426
 5923SOL    HW229229   1.386   1.198   0.902 -0.1730  0.4067 -0.1706
 5924SOL     OW29230   1.989   0.003   4.243  0.0121  0.4471  0.2678
 5924SOL    HW129231   2.083   0.013   4.257 -0.2016  1.7706  0.7360
 5924SOL    HW229232   1.978   4.678   4.326  2.0622  2.3095  1.5869
 5925SOL     OW29233   2.356   1.307   8.029 -0.8919 -0.2980 -0.0036
 5925SOL    HW129234   2.273   1.352   8.021 -0.9040 -0.3812 -0.3389
 5925SOL    HW229235   2.355   1.263   7.943 -0.4948 -2.4458  1.0783
 5926SOL     OW29236   1.845   1.082   6.490  0.4744 -0.3061  0.1312
 5926SOL    HW129237   1.769   1.137   6.508  0.3194 -0.3237 -0.4833
 5926SOL    HW229238   1.808   1.000   6.522 -2.5211  0.4312 -1.5180
 5927SOL     OW29239   0.666   1.004   1.071 -0.3238  0.1129 -0.0150
 5927SOL    HW129240   0.722   1.023   0.996 -1.9473  1.2010 -0.9580
 5927SOL    HW229241   0.693   1.057   1.146  2.1851 -1.3718  0.1328
 5928SOL     OW29242   4.569   3.958  14.927 -0.1729 -0.2318 -0.3941
 5928SOL    HW129243   4.638   3.895  14.906 -0.1677  0.1848 -1.6399
 5928SOL    HW229244   4.523   3.908  14.995  0.1753  1.3852  1.0335
 5929SOL     OW29245   4.413   1.333   8.532  0.2313  0.0079  0.0139
 5929SOL    HW129246   4.506   1.347   8.551  0.1527 -1.6207  1.5867
 5929SOL    HW229247   4.399   1.408   8.474  1.2281  0.2429  0.0686
 5930SOL     OW29248   3.781   1.658  11.788  0.1942  0.0335 -0.1040
 5930SOL    HW129249   3.870   1.695  11.794 -0.1233  0.6224  0.9531
 5930SOL    HW229250   3.729   1.722  11.836 -0.0857  1.1992 -1.9282
 5931SOL     OW29251   3.554   3.468   2.467  0.1349  0.3421  0.2206
 5931SOL    HW129252   3.614   3.542   2.478  0.5555  0.1714 -0.8033
 5931SOL    HW229253   3.471   3.504   2.497 -0.2021 -0.2048 -0.0551
 5932SOL     OW29254   1.416   0.993   1.995 -0.5509  0.3104 -0.2631
 5932SOL    HW129255   1.366   0.953   1.924 -0.9547  2.9681 -1.4633
 5932SOL    HW229256   1.469   1.058   1.949  0.1077  0.7051  1.0284
 5933SOL     OW29257   4.329   3.373   6.879  0.2157 -0.5422  0.4718
 5933SOL    HW129258   4.399   3.344   6.822 -1.2310 -2.3915 -0.3551
 5933SOL    HW229259   4.317   3.294   6.932 -1.6232 -1.9294 -2.0395
 5934SOL     OW29260   4.405   0.498   2.905 -0.0105  0.3016 -0.2721
 5934SOL    HW129261   4.379   0.405   2.904 -1.2819  0.6774 -1.2346
 5934SOL    HW229262   4.323   0.543   2.884 -1.5141 -1.0584  2.5786
 5935SOL     OW29263   3.769   2.737  16.935  0.6298  0.2955 -0.2359
 5935SOL    HW129264   3.802   2.820  16.972  2.3348 -0.2966 -0.4067
 5935SOL    HW229265   3.685   2.727  16.978 -0.3570  1.5269 -1.8603
 5936SOL     OW29266   2.676   1.545   8.365  0.0934  0.1115  0.1655
 5936SOL    HW129267   2.646   1.542   8.274  2.4534 -0.2250 -0.5847
 5936SOL    HW229268   2.720   1.460   8.367 -1.4478 -0.7756 -2.3971
 5937SOL     OW29269   0.765   2.491  14.868  0.5136 -0.2088  0.0987
 5937SOL    HW129270   0.812   2.498  14.951 -0.1594  0.4414  0.4208
 5937SOL    HW229271   0.771   2.396  14.857  1.0940  0.1675 -2.7723
 5938SOL     OW29272   4.446   2.780   7.006 -0.6258 -0.6011  0.4893
 5938SOL    HW129273   4.521   2.784   7.066  0.2107 -0.6871 -0.5673
 5938SOL    HW229274   4.416   2.695   7.038  0.6077 -1.0582  0.3938
 5939SOL     OW29275   0.456   1.060   8.493  0.1478 -0.2600 -0.3889
 5939SOL    HW129276   0.510   1.012   8.556  1.2437  0.0986 -1.0514
 5939SOL    HW229277   0.511   1.056   8.415 -0.9227  1.5703 -1.2471
 5940SOL     OW29278   3.797   2.980   3.340  0.3126 -0.0828  0.2636
 5940SOL    HW129279   3.741   2.950   3.412  1.2679 -1.9385  0.2349
 5940SOL    HW229280   3.859   3.035   3.388 -0.5508  0.8621  0.2956
 5941SOL     OW29281   0.229   0.007  10.952  0.2990  0.1502 -0.1273
 5941SOL    HW129282   0.138   0.010  10.981  0.2503 -1.0806 -0.1527
 5941SOL    HW229283   0.222   4.703  10.860 -0.6704 -1.1635  0.3020
 5942SOL     OW29284   2.234   0.456  10.736  0.0756  0.2133 -0.0462
 5942SOL    HW129285   2.262   0.370  10.767  0.9906  0.2229 -0.8460
 5942SOL    HW229286   2.310   0.504  10.704 -0.3480 -0.0741 -1.5074
 5943SOL     OW29287   1.129   3.989   3.225 -0.3012 -0.6200  0.0365
 5943SOL    HW129288   1.135   3.907   3.275  1.8970 -1.8435 -2.2943
 5943SOL    HW229289   1.110   3.958   3.137  2.0587  1.4874 -1.1913
 5944SOL     OW29290   0.062   3.472   1.380 -0.4264  0.2930  0.4544
 5944SOL    HW129291   0.143   3.433   1.347 -0.7092 -0.7903  1.0445
 5944SOL    HW229292   0.108   3.535   1.436  0.9926 -0.4388  0.1078
 5945SOL     OW29293   1.374   4.518   4.529 -0.1264  0.7619 -0.1034
 5945SOL    HW129294   1.329   4.551   4.451 -0.5421  0.0501 -0.1653
 5945SOL    HW229295   1.374   4.597   4.583 -0.9058  0.1409  0.8174
 5946SOL     OW29296   0.278   1.394   2.736  0.3163 -0.1398 -0.3722
 5946SOL    HW129297   0.296   1.459   2.668  1.1201 -0.2281 -0.2524
 5946SOL    HW229298   0.184   1.398   2.723  0.2420 -1.0335 -0.1311
 5947SOL     OW29299   0.381   0.922   2.316  0.0528  0.1653  0.4256
 5947SOL    HW129300   0.475   0.910   2.327  0.2062  1.5465  0.6579
 5947SOL    HW229301   0.335   0.867   2.380  0.0111  0.1842  0.4120
 5948SOL     OW29302   3.455   0.651   7.409 -0.0295 -0.1063 -0.1288
 5948SOL    HW129303   3.366   0.663   7.375 -0.7221 -2.1392  0.8971
 5948SOL    HW229304   3.495   0.608   7.334  0.6070  0.6796 -0.2351
 5949SOL     OW29305   4.272   2.909   6.838  0.0287  0.1340  0.3263
 5949SOL    HW129306   4.315   2.935   6.756 -0.9002  0.9981  0.1146
 5949SOL    HW229307   4.345   2.871   6.888 -1.3285 -2.6728  0.1501
 5950SOL     OW29308   3.727   3.920   7.366  0.3475 -0.5447 -0.2088
 5950SOL    HW129309   3.659   3.979   7.396  0.7356  0.4218 -1.2182
 5950SOL    HW229310   3.803   3.949   7.416 -0.0384  0.7018 -0.3392
 5951SOL     OW29311   2.345   2.719   4.132 -0.5817  0.0370  0.0588
 5951SOL    HW129312   2.295   2.644   4.099  1.1853  0.1573 -2.9563
 5951SOL    HW229313   2.427   2.672   4.150 -0.6641 -0.5641 -1.1271
 5952SOL     OW29314   2.730   2.884  13.732 -0.3876  0.2954  0.0049
 5952SOL    HW129315   2.809   2.842  13.697 -1.0939 -0.5296 -0.5764
 5952SOL    HW229316   2.661   2.861  13.671 -0.6909 -0.6657  0.7063
 5953SOL     OW29317   1.288   0.837   1.811  0.0488 -0.2686 -0.0878
 5953SOL    HW129318   1.318   0.777   1.880 -2.8672 -0.8786  0.6293
 5953SOL    HW229319   1.210   0.791   1.780  0.3029 -1.7758  1.5046
 5954SOL     OW29320   0.181   0.151   0.772  0.1098 -0.4423 -0.2633
 5954SOL    HW129321   0.259   0.122   0.726 -0.9932  0.1405 -2.5275
 5954SOL    HW229322   0.210   0.153   0.863  2.1979  3.3524 -0.9949
 5955SOL     OW29323   0.115   1.438   3.246  0.2298  0.0184 -0.4326
 5955SOL    HW129324   0.107   1.389   3.328 -0.7411  0.2784 -0.3654
 5955SOL    HW229325   0.188   1.496   3.267  0.8872 -0.6704 -0.8549
 5956SOL     OW29326   2.233   3.227   4.472 -0.2991 -0.1044 -0.1196
 5956SOL    HW129327   2.243   3.137   4.503 -0.7318  0.7361  2.4274
 5956SOL    HW229328   2.143   3.239   4.501 -0.0147 -2.5841  1.7533
 5957SOL     OW29329   4.649   2.589   3.069  0.4939  0.5109 -0.3212
 5957SOL    HW129330   4.642   2.683   3.051  2.0487  1.0336  1.6976
 5957SOL    HW229331   4.711   2.555   3.004 -0.8282  0.2554 -1.4453
 5958SOL     OW29332   2.583   2.356  16.903  0.1379  0.1063  1.1172
 5958SOL    HW129333   2.536   2.273  16.912  1.0189 -0.7584 -2.5106
 5958SOL    HW229334   2.662   2.326  16.859  1.0245  3.3551  0.4659
 5959SOL     OW29335   3.233   0.665   1.326  0.7728 -0.2209 -0.1413
 5959SOL    HW129336   3.199   0.666   1.237  0.3959  0.5694  0.0132
 5959SOL    HW229337   3.252   0.571   1.337  0.0222 -0.3244  0.3119
 5960SOL     OW29338   1.032   4.142  10.654 -0.6031 -0.1228  0.1395
 5960SOL    HW129339   1.107   4.192  10.619 -3.5039  1.7733 -3.3663
 5960SOL    HW229340   1.066   4.106  10.736  1.5531  0.1568 -0.6288
 5961SOL     OW29341   1.670   0.661   6.394  0.0687  0.4534 -0.0904
 5961SOL    HW129342   1.639   0.589   6.449 -1.6836  1.5257  0.3361
 5961SOL    HW229343   1.596   0.722   6.398  0.0221  0.2791  1.7854
 5962SOL     OW29344   1.856   1.277   3.087 -0.0211  0.4371 -0.6984
 5962SOL    HW129345   1.828   1.199   3.135  1.1863  1.0867  1.0599
 5962SOL    HW229346   1.875   1.337   3.159  0.9198  1.8661 -2.1384
 5963SOL     OW29347   3.666   3.340  16.033  0.0537 -0.1894 -0.0396
 5963SOL    HW129348   3.631   3.306  16.116  0.4967 -2.4922 -0.7928
 5963SOL    HW229349   3.612   3.418  16.019 -1.2625 -1.1281 -0.2144
 5964SOL     OW29350   1.974   0.460   7.418 -0.5272 -0.4663 -0.1943
 5964SOL    HW129351   1.962   0.532   7.356  1.1397  1.4183  1.6599
 5964SOL    HW229352   2.009   0.391   7.361  1.1896  1.4629 -1.4486
 5965SOL     OW29353   1.956   2.842  12.805  0.5457 -0.3162 -0.6241
 5965SOL    HW129354   2.027   2.901  12.779  0.3569 -0.8082 -2.2375
 5965SOL    HW229355   1.888   2.888  12.756  0.2819 -1.3733 -1.2343
 5966SOL     OW29356   4.606   2.672   4.036 -0.1659 -0.3264 -0.3175
 5966SOL    HW129357   4.642   2.673   4.124  1.8472  0.7328 -1.1445
 5966SOL    HW229358   4.567   2.585   4.034 -1.5634  0.2512  1.9084
 5967SOL     OW29359   3.498   0.216   9.724  0.0365 -0.4595 -0.0514
 5967SOL    HW129360   3.403   0.217   9.737 -0.1371 -1.1587 -1.2866
 5967SOL    HW229361   3.533   0.244   9.808  1.0658 -0.9323 -0.3164
 5968SOL     OW29362   3.710   2.215   3.024  0.0589 -0.1184  0.5593
 5968SOL    HW129363   3.743   2.140   3.073  1.0570  0.2792  0.4930
 5968SOL    HW229364   3.615   2.206   3.023  0.2088 -1.1640 -2.9309
 5969SOL     OW29365   2.334   2.832   2.630 -0.5814  0.2154  0.2264
 5969SOL    HW129366   2.297   2.769   2.692 -3.2193  0.7193 -0.8048
 5969SOL    HW229367   2.249   2.871   2.607 -0.0938  1.2449  0.1704
 5970SOL     OW29368   2.827   4.425   6.013 -0.3492  0.1985 -0.2994
 5970SOL    HW129369   2.867   4.398   5.930 -1.9912 -1.0730 -0.6659
 5970SOL    HW229370   2.732   4.419   6.006 -0.3958  0.5204  0.0820
 5971SOL     OW29371   1.937   0.903   2.290  0.6163 -0.0062  0.3090
 5971SOL    HW129372   1.883   0.918   2.367 -2.3950 -1.9151 -1.4769
 5971SOL    HW229373   1.973   0.992   2.287 -1.4054  0.7398 -2.1354
 5972SOL     OW29374   2.713   2.829   6.583  0.0303  0.4401  0.3719
 5972SOL    HW129375   2.725   2.814   6.489  2.7081 -0.4872  0.8673
 5972SOL    HW229376   2.755   2.915   6.583 -0.2988  0.6023  0.8027
 5973SOL     OW29377   4.591   1.661   7.988  0.2958 -0.1828  0.6390
 5973SOL    HW129378   4.600   1.577   7.943  0.7201  0.2383 -0.0481
 5973SOL    HW229379   4.556   1.705   7.910 -0.3182  0.6279  1.3680
 5974SOL     OW29380   4.208   3.422   6.095  0.3051 -0.1471  0.3749
 5974SOL    HW129381   4.179   3.379   6.014  0.2619  2.1418 -0.8211
 5974SOL    HW229382   4.147   3.399   6.164  0.1928  3.0057  1.2820
 5975SOL     OW29383   2.994   1.793   3.351  0.8944  0.1247 -0.4378
 5975SOL    HW129384   2.995   1.855   3.424 -0.3923 -2.8193  2.0625
 5975SOL    HW229385   3.016   1.706   3.386  0.8246  0.7346  1.1376
 5976SOL     OW29386   4.067   2.096   7.320  0.5183 -0.0493 -0.5007
 5976SOL    HW129387   4.102   2.089   7.409 -1.8800  0.1918  0.4611
 5976SOL    HW229388   4.002   2.167   7.320  1.0805  0.4613  0.9304
 5977SOL     OW29389   3.902   3.754   2.623 -0.3768  0.2124  0.5179
 5977SOL    HW129390   3.965   3.711   2.682  0.0780  1.4276  0.9062
 5977SOL    HW229391   3.956   3.807   2.565  0.6898 -1.9739 -0.4702
 5978SOL     OW29392   1.444   2.910   8.078  0.6615  0.5370 -0.8266
 5978SOL    HW129393   1.393   2.978   8.034 -1.6328  0.1437  1.2143
 5978SOL    HW229394   1.461   2.956   8.160  1.0774 -1.9911  0.5142
 5979SOL     OW29395   3.213   1.580   6.721 -0.0676  0.2821  0.0215
 5979SOL    HW129396   3.295   1.570   6.671 -0.4808 -0.4994 -0.4836
 5979SOL    HW229397   3.218   1.504   6.778 -0.3271 -0.0679 -0.4254
 5980SOL     OW29398   2.445   2.395   5.383  0.4056 -0.7361 -0.1230
 5980SOL    HW129399   2.362   2.419   5.422 -0.8510 -2.5356 -1.6296
 5980SOL    HW229400   2.503   2.460   5.422  2.3828 -0.8697 -2.8688
 5981SOL     OW29401   4.571   0.889  10.286 -0.0644  0.7146  0.6393
 5981SOL    HW129402   4.489   0.848  10.313 -1.4880  1.5261 -2.4570
 5981SOL    HW229403   4.620   0.887  10.368 -1.0510 -0.1372  1.2117
 5982SOL     OW29404   3.138   2.534   1.614 -0.0270  0.5395  0.5774
 5982SOL    HW129405   3.127   2.605   1.551 -1.0758  0.6834  0.9205
 5982SOL    HW229406   3.130   2.462   1.551  0.2103  0.6252  0.4479
 5983SOL     OW29407   2.571   2.651  16.890  0.1311 -0.4677 -0.5273
 5983SOL    HW129408   2.519   2.603  16.953  0.1123  0.5473  0.2268
 5983SOL    HW229409   2.619   2.579  16.848  0.4614 -2.2018  2.8767
 5984SOL     OW29410   1.099   1.893   6.568 -0.1778 -0.2709  0.2285
 5984SOL    HW129411   1.116   1.822   6.630  2.0255 -0.6335 -0.7831
 5984SOL    HW229412   1.032   1.948   6.610 -0.7449 -1.1249  0.4365
 5985SOL     OW29413   1.253   2.424   7.137  0.1073  0.2447  0.0937
 5985SOL    HW129414   1.317   2.444   7.069 -1.1258 -0.1579 -1.1979
 5985SOL    HW229415   1.211   2.343   7.109 -0.9144  0.2356  1.6789
 5986SOL     OW29416   3.797   0.400   6.789 -0.3301 -0.1896  0.3258
 5986SOL    HW129417   3.871   0.340   6.790 -1.0061 -0.9935  1.2235
 5986SOL    HW229418   3.737   0.331   6.762  0.0853 -0.0912 -0.8687
 5987SOL     OW29419   3.652   1.195   7.316  0.0936 -0.1253 -0.0104
 5987SOL    HW129420   3.710   1.125   7.348  0.4439 -0.9121 -2.3585
 5987SOL    HW229421   3.686   1.269   7.366 -2.2832 -0.9534  2.8043
 5988SOL     OW29422   0.300   0.832   9.601 -0.1379  0.2786  0.2060
 5988SOL    HW129423   0.313   0.804   9.510 -0.0554 -0.7445  0.5231
 5988SOL    HW229424   0.225   0.889   9.612 -0.6680 -0.4278  0.2887
 5989SOL     OW29425   4.325   1.860   6.548 -0.4529  0.3207 -0.0883
 5989SOL    HW129426   4.303   1.903   6.465  1.3114 -0.9022 -1.1849
 5989SOL    HW229427   4.420   1.867   6.549 -0.4253 -0.3004  1.4315
 5990SOL     OW29428   2.720   3.255   4.398 -0.1741  0.2676 -0.0861
 5990SOL    HW129429   2.660   3.229   4.329 -2.0576  4.1525  0.0889
 5990SOL    HW229430   2.676   3.252   4.483 -1.0053 -0.6591 -0.5601
 5991SOL     OW29431   2.553   4.703  10.323 -0.5759 -0.0502 -0.5779
 5991SOL    HW129432   2.556   4.693  10.228 -1.3011  0.1160 -0.6150
 5991SOL    HW229433   2.565   0.076  10.330 -2.6752  0.0912  1.0632
 5992SOL     OW29434   3.721   3.212   6.287 -0.2758  0.7896  0.0451
 5992SOL    HW129435   3.791   3.190   6.225  1.5077 -0.4471  2.5474
 5992SOL    HW229436   3.653   3.149   6.263  1.6838 -1.2347 -0.1371
 5993SOL     OW29437   2.678   4.192   8.271 -0.4621 -0.0137  0.0108
 5993SOL    HW129438   2.673   4.202   8.367 -4.3173  1.7407 -0.3865
 5993SOL    HW229439   2.614   4.122   8.268  0.1612 -0.5689 -0.2557
 5994SOL     OW29440   0.956   1.008   6.325  0.2283 -0.1412  0.6041
 5994SOL    HW129441   0.977   1.053   6.243 -0.9181  0.1417  0.4618
 5994SOL    HW229442   1.039   0.974   6.359  0.7628  0.5551  0.0231
 5995SOL     OW29443   2.237   0.553   4.271 -0.4863 -0.0676 -0.0314
 5995SOL    HW129444   2.203   0.483   4.326  0.0411 -0.5560 -0.3341
 5995SOL    HW229445   2.156   0.589   4.234  0.0199  2.4305  1.2395
 5996SOL     OW29446   1.479   3.277   5.714 -0.1725 -0.4768 -0.4429
 5996SOL    HW129447   1.489   3.288   5.808 -1.8507  4.6226 -0.8286
 5996SOL    HW229448   1.402   3.333   5.696  0.0823 -0.2114 -0.7175
 5997SOL     OW29449   2.434   0.212   2.324 -0.2133  0.4785 -0.6683
 5997SOL    HW129450   2.390   0.221   2.409  0.3579 -1.6775 -0.1335
 5997SOL    HW229451   2.422   0.295   2.278  0.0164  1.3343  0.7881
 5998SOL     OW29452   3.127   4.108  14.801  0.8876 -0.4809  0.3118
 5998SOL    HW129453   3.198   4.168  14.825  2.1984 -1.3471 -1.3737
 5998SOL    HW229454   3.156   4.083  14.713 -2.3127 -1.6365 -0.4218
 5999SOL     OW29455   3.652   3.778   3.433  0.2656 -0.3394 -0.1954
 5999SOL    HW129456   3.617   3.827   3.359 -0.6306 -0.7719 -0.0644
 5999SOL    HW229457   3.662   3.850   3.494 -0.3959  1.3150 -2.0448
 6000SOL     OW29458   2.280   0.424   3.434 -0.6720 -0.3059 -0.1808
 6000SOL    HW129459   2.209   0.436   3.498  0.5388 -1.0333  1.2781
 6000SOL    HW229460   2.284   0.329   3.433 -0.0924 -0.2859  0.2671
 6001SOL     OW29461   1.341   4.466  11.064 -0.5419  0.2579 -0.1732
 6001SOL    HW129462   1.360   4.378  11.097  1.3230  0.9131  0.4989
 6001SOL    HW229463   1.400   4.474  10.988 -0.4786 -0.2334 -0.1744
 6002SOL     OW29464   1.029   4.077   7.548  0.3963 -0.3361  0.1427
 6002SOL    HW129465   0.963   4.056   7.482 -0.1328 -0.4447  0.7108
 6002SOL    HW229466   1.082   4.133   7.491 -0.2205 -0.0904 -0.1926
 6003SOL     OW29467   1.633   3.084   0.973  0.2653  0.4853 -0.5578
 6003SOL    HW129468   1.662   3.023   1.041 -1.6998 -0.4474 -0.5685
 6003SOL    HW229469   1.575   3.142   1.023  1.7095 -0.3463  2.1010
 6004SOL     OW29470   3.897   4.648   4.032  0.1572 -0.5234 -0.2012
 6004SOL    HW129471   3.881   0.018   4.008  2.3843  0.0455  0.4757
 6004SOL    HW229472   3.969   4.640   4.094  0.6827  0.5656 -0.6657
 6005SOL     OW29473   0.772   4.452   3.001 -0.2670  0.7567 -0.0936
 6005SOL    HW129474   0.783   4.366   2.962  0.0169  0.8885 -0.3014
 6005SOL    HW229475   0.852   4.499   2.977  0.3076  0.1329  0.6165
 6006SOL     OW29476   1.693   3.951   6.062  0.0042  0.2056 -0.3085
 6006SOL    HW129477   1.784   3.921   6.063  0.1490  0.6478 -0.5407
 6006SOL    HW229478   1.651   3.865   6.053  1.2705 -0.4548  0.0874
 6007SOL     OW29479   0.496   2.855  14.655  0.4856 -0.5405 -0.6133
 6007SOL    HW129480   0.446   2.802  14.593 -0.3052  0.4062 -0.8015
 6007SOL    HW229481   0.525   2.792  14.720 -0.6181 -1.6612 -1.2172
 6008SOL     OW29482   3.440   1.432   2.881  0.3408 -0.0292  0.3747
 6008SOL    HW129483   3.436   1.389   2.967 -1.5823 -0.2049  0.2074
 6008SOL    HW229484   3.349   1.462   2.881  1.0455  2.0703  0.0260
 6009SOL     OW29485   1.306   0.651   7.781  0.0099 -0.4133 -0.2690
 6009SOL    HW129486   1.374   0.694   7.730  2.3064 -0.0607  3.1435
 6009SOL    HW229487   1.314   0.563   7.745 -0.3111 -0.2664 -0.7057
 6010SOL     OW29488   2.027   3.100   3.473 -0.6062  0.0225  0.7745
 6010SOL    HW129489   1.947   3.081   3.425 -1.0852  1.8122  0.8774
 6010SOL    HW229490   1.986   3.159   3.535 -1.2665  1.0350 -0.6246
 6011SOL     OW29491   3.900   0.676   4.084 -0.4360 -0.2995 -0.3826
 6011SOL    HW129492   3.977   0.714   4.043 -3.1661  2.7020 -2.6621
 6011SOL    HW229493   3.838   0.721   4.027 -0.5084 -1.7650 -1.4579
 6012SOL     OW29494   1.352   2.295  16.819 -0.7301  0.8879 -0.1575
 6012SOL    HW129495   1.402   2.262  16.744 -3.1819  1.8066 -2.1735
 6012SOL    HW229496   1.272   2.315  16.771 -0.3296  1.4163 -0.6055
 6013SOL     OW29497   0.687   1.252   0.495 -0.1656 -0.1771 -0.4984
 6013SOL    HW129498   0.765   1.208   0.529 -0.2035 -1.7290 -2.4052
 6013SOL    HW229499   0.645   1.265   0.580  3.0373  0.2519  1.0489
 6014SOL     OW29500   2.683   0.062   7.011 -0.1816  0.2473 -0.0030
 6014SOL    HW129501   2.730   0.129   7.060  0.2347  1.1104 -1.5924
 6014SOL    HW229502   2.592   0.078   7.036 -1.0289 -0.4325 -2.7054
 6015SOL     OW29503   4.507   4.332   1.274  0.1542 -0.4111  0.3517
 6015SOL    HW129504   4.468   4.262   1.222  1.6316 -0.1751 -1.0560
 6015SOL    HW229505   4.541   4.402   1.218 -1.1736  0.8684  1.1514
 6016SOL     OW29506   0.618   2.595   2.137  0.2174  0.2082  0.0276
 6016SOL    HW129507   0.659   2.544   2.207 -1.6157 -3.6371 -1.7176
 6016SOL    HW229508   0.597   2.676   2.183 -0.0973 -0.7224  1.5250
 6017SOL     OW29509   3.719   1.406   7.499 -0.2159  0.3813  0.0879
 6017SOL    HW129510   3.633   1.446   7.513  0.6250  2.4627 -0.8201
 6017SOL    HW229511   3.766   1.412   7.582 -2.0865 -0.1095  1.1809
 6018SOL     OW29512   0.727   2.193   5.888  0.7825  0.0657 -0.5363
 6018SOL    HW129513   0.646   2.209   5.839 -0.5013 -2.9951  0.5930
 6018SOL    HW229514   0.746   2.104   5.857 -1.3083 -0.0166 -1.5678
 6019SOL     OW29515   2.415   2.569   3.728  0.6990  0.1249  0.1730
 6019SOL    HW129516   2.403   2.655   3.688  3.4917  0.5287  0.2163
 6019SOL    HW229517   2.328   2.533   3.742  0.4922 -0.0218 -1.4970
 6020SOL     OW29518   1.550   4.001   7.639  0.3395  0.4326  0.2894
 6020SOL    HW129519   1.528   4.006   7.733 -1.0484  1.6689 -0.0925
 6020SOL    HW229520   1.501   3.925   7.609  2.1573 -0.4260 -0.4752
 6021SOL     OW29521   1.368   1.483   1.068 -0.3842 -0.0716  0.2353
 6021SOL    HW129522   1.415   1.541   1.007  1.9259 -3.1286 -0.8372
 6021SOL    HW229523   1.331   1.550   1.126  0.4266 -1.1404  1.9710
 6022SOL     OW29524   1.048   0.321   4.957 -0.3762  0.6252  0.2663
 6022SOL    HW129525   1.118   0.332   5.021  1.2890 -0.3265 -1.3872
 6022SOL    HW229526   1.001   0.246   4.992 -1.2341 -0.7350 -3.8443
 6023SOL     OW29527   4.366   1.311  15.377 -0.0665  0.1590 -0.4570
 6023SOL    HW129528   4.414   1.238  15.416 -0.1627  0.4304  0.1803
 6023SOL    HW229529   4.278   1.275  15.365 -0.6172  1.4041 -0.1574
 6024SOL     OW29530   0.529   0.114  11.456  0.1180 -0.2838  0.5372
 6024SOL    HW129531   0.549   0.093  11.365  1.4477  0.9909  0.5365
 6024SOL    HW229532   0.611   0.154  11.486  0.4084  0.6906 -1.5954
 6025SOL     OW29533   0.652   2.228   6.757  0.5892  0.8410 -0.6814
 6025SOL    HW129534   0.672   2.321   6.765 -2.7063  1.4485  0.1356
 6025SOL    HW229535   0.659   2.201   6.849 -1.6697  0.0705 -0.7304
 6026SOL     OW29536   1.565   0.736   5.403 -0.6596 -0.0659  0.2371
 6026SOL    HW129537   1.470   0.728   5.401 -0.5978 -0.6721 -0.3033
 6026SOL    HW229538   1.585   0.733   5.497 -1.9263 -0.1512  0.5057
 6027SOL     OW29539   1.460   4.711   8.414 -0.2848 -0.0708  0.6703
 6027SOL    HW129540   1.511   0.028   8.343 -0.7743  1.4228  1.1300
 6027SOL    HW229541   1.383   4.675   8.369  0.2967 -0.7387  0.2110
 6028SOL     OW29542   2.887   4.220   8.040  0.1692 -0.4230  0.0093
 6028SOL    HW129543   2.847   4.302   8.069  0.2549  0.1936 -1.5904
 6028SOL    HW229544   2.808   4.186   7.996 -0.9698  0.0588  1.6972
 6029SOL     OW29545   2.566   3.847   8.385 -0.2135  0.1220 -0.1475
 6029SOL    HW129546   2.481   3.828   8.426  0.8620 -2.0774  1.0644
 6029SOL    HW229547   2.536   3.908   8.318 -1.3715 -0.0355  0.2121
 6030SOL     OW29548   0.686   3.505   0.234 -0.5280 -0.0931 -0.0876
 6030SOL    HW129549   0.771   3.468   0.258  0.0651  1.7901  0.7034
 6030SOL    HW229550   0.665   3.570   0.301  0.0646  0.7540 -0.7181
 6031SOL     OW29551   1.429   0.206   2.369  0.0870 -0.0818 -0.0406
 6031SOL    HW129552   1.501   0.251   2.324 -0.1921  0.2810 -0.1291
 6031SOL    HW229553   1.447   0.198   2.463  1.2149 -3.8134 -0.5634
 6032SOL     OW29554   3.405   1.401   9.067  0.4475  0.0026  0.5403
 6032SOL    HW129555   3.358   1.342   9.125  0.3309  0.6877  1.1388
 6032SOL    HW229556   3.493   1.400   9.103  1.1232  0.4027 -1.1064
 6033SOL     OW29557   1.847   1.217   9.751 -0.9787 -0.2932 -0.0937
 6033SOL    HW129558   1.754   1.241   9.749 -0.3275  2.0322 -3.1120
 6033SOL    HW229559   1.875   1.255   9.668  0.2650 -0.8263  0.0847
 6034SOL     OW29560   1.701   4.573   3.606  0.6073 -0.0194 -0.5327
 6034SOL    HW129561   1.605   4.571   3.603  0.5686  1.9519 -0.3178
 6034SOL    HW229562   1.709   4.636   3.678  2.8525 -2.0992  1.0510
 6035SOL     OW29563   2.178   1.147   8.926 -0.2443 -0.1754 -0.3639
 6035SOL    HW129564   2.088   1.141   8.960 -0.7941 -0.3542 -1.8856
 6035SOL    HW229565   2.160   1.109   8.840 -1.6470  0.9162 -0.5585
 6036SOL     OW29566   4.442   0.479  10.487 -0.4869 -0.2505  0.1639
 6036SOL    HW129567   4.487   0.544  10.541  3.1330 -2.8469  0.2754
 6036SOL    HW229568   4.499   0.403  10.500  0.4974  1.0117  3.2489
 6037SOL     OW29569   3.534   2.293  16.703  0.4736 -0.1412  0.0737
 6037SOL    HW129570   3.492   2.240  16.771  1.1157  0.3965  0.8821
 6037SOL    HW229571   3.458   2.305  16.646 -1.1601 -1.5780  1.9467
 6038SOL     OW29572   3.128   3.318   9.172  0.0161  0.4817 -0.4899
 6038SOL    HW129573   3.052   3.305   9.228  0.2461 -0.3864 -0.3761
 6038SOL    HW229574   3.200   3.327   9.234 -0.0149  3.2871 -0.8390
 6039SOL     OW29575   0.513   3.039   5.772  0.4561  0.8734  0.6299
 6039SOL    HW129576   0.576   3.033   5.844 -0.3887 -0.8084  1.2322
 6039SOL    HW229577   0.464   2.957   5.783  3.6525 -0.9609  1.1284
 6040SOL     OW29578   0.577   1.545   8.689 -0.3859  0.3011  0.2651
 6040SOL    HW129579   0.599   1.453   8.671  1.3364  0.7988 -0.2615
 6040SOL    HW229580   0.541   1.540   8.777  1.6478  0.8198  1.1299
 6041SOL     OW29581   3.300   2.144   8.043  0.2996  0.0894  0.4933
 6041SOL    HW129582   3.227   2.140   8.105 -1.8215  0.4822 -1.9562
 6041SOL    HW229583   3.349   2.221   8.071  0.2925 -0.6367  2.5212
 6042SOL     OW29584   0.807   3.007   0.267 -0.3920 -0.4060  0.2182
 6042SOL    HW129585   0.735   2.977   0.324 -1.4019  1.0155 -0.3274
 6042SOL    HW229586   0.854   3.060   0.331  1.3111 -1.6125 -0.0265
 6043SOL     OW29587   4.574   2.739   8.838  0.7695 -0.0780 -0.3089
 6043SOL    HW129588   4.653   2.789   8.858  0.7627  1.2487 -3.7116
 6043SOL    HW229589   4.584   2.674   8.909  0.8966 -0.0994 -0.3450
 6044SOL     OW29590   0.643   0.558  16.823  0.0388 -0.2184  0.3278
 6044SOL    HW129591   0.610   0.490  16.882 -1.7670  0.6181  0.2857
 6044SOL    HW229592   0.715   0.599  16.872  0.4635 -0.0973 -0.3994
 6045SOL     OW29593   2.038   1.748   5.264 -0.2150  0.0522 -0.0074
 6045SOL    HW129594   2.069   1.717   5.179  1.2663 -0.3796  0.6767
 6045SOL    HW229595   1.966   1.687   5.280 -0.3761  0.2301 -0.0579
 6046SOL     OW29596   1.151   4.141   8.288  0.0782 -0.1810  0.5704
 6046SOL    HW129597   1.170   4.176   8.375 -0.7781  0.2577  0.5797
 6046SOL    HW229598   1.102   4.210   8.244  0.0345 -0.6481 -0.1148
 6047SOL     OW29599   0.072   2.827   8.356  0.2520 -0.6284  0.2035
 6047SOL    HW129600   0.125   2.895   8.398  1.3575 -1.5120  0.2216
 6047SOL    HW229601   4.707   2.860   8.381  0.0753  0.4210 -1.8024
 6048SOL     OW29602   0.152   3.199  14.951  0.5454 -0.2598 -0.5878
 6048SOL    HW129603   0.098   3.277  14.962  0.9774 -0.0789  0.2852
 6048SOL    HW229604   0.132   3.142  15.025  0.0987 -0.6839 -1.0431
 6049SOL     OW29605   4.559   2.748   2.713 -0.2390  0.1407  0.1662
 6049SOL    HW129606   4.577   2.842   2.707  0.2617 -0.0217 -0.8286
 6049SOL    HW229607   4.490   2.736   2.778 -1.9062  1.3130 -1.4064
 6050SOL     OW29608   0.241   3.329   7.340  0.9747 -0.0750 -0.0062
 6050SOL    HW129609   0.196   3.413   7.352  1.7889  0.3579  0.0935
 6050SOL    HW229610   0.246   3.331   7.244  2.2785  0.0916  0.0639
 6051SOL     OW29611   3.333   4.087   5.746  0.5537  0.0820 -0.3413
 6051SOL    HW129612   3.384   4.036   5.808  1.3693 -0.0717 -1.1337
 6051SOL    HW229613   3.268   4.021   5.724  0.6682 -0.1066 -0.1132
 6052SOL     OW29614   3.608   1.726  11.508 -0.4972  0.1713 -0.2226
 6052SOL    HW129615   3.643   1.809  11.476  1.4558 -0.3596  0.5612
 6052SOL    HW229616   3.530   1.717  11.452  0.7798  2.5948 -2.4341
 6053SOL     OW29617   1.745   0.787  11.596  0.1390 -0.3992  0.1296
 6053SOL    HW129618   1.763   0.866  11.544  2.0638 -1.2308 -0.4832
 6053SOL    HW229619   1.796   0.809  11.674 -0.0525 -1.2566  0.4871
 6054SOL     OW29620   3.407   4.490  16.119 -0.5543  0.4834  0.6901
 6054SOL    HW129621   3.317   4.460  16.109  0.2612 -0.1689 -4.8161
 6054SOL    HW229622   3.415   4.449  16.205 -0.3043 -2.2607 -0.6176
 6055SOL     OW29623   2.179   4.242   5.091  0.5485  0.0201  0.0163
 6055SOL    HW129624   2.253   4.303   5.082  2.8060 -2.5927  0.6769
 6055SOL    HW229625   2.215   4.157   5.119  0.6630  0.6138  1.6792
 6056SOL     OW29626   4.492   2.701   8.333 -0.1814 -0.5313 -0.2022
 6056SOL    HW129627   4.501   2.657   8.418 -1.8394  1.5789  1.0954
 6056SOL    HW229628   4.506   2.791   8.365 -0.3660 -0.9531  1.0886
 6057SOL     OW29629   3.643   4.156   4.521  0.3788  0.3943  0.0502
 6057SOL    HW129630   3.674   4.065   4.525 -2.3450 -0.6211 -2.2324
 6057SOL    HW229631   3.595   4.153   4.438 -0.7669 -1.5380  0.7941
 6058SOL     OW29632   0.307   2.671   9.680 -0.2479 -0.1200 -0.2293
 6058SOL    HW129633   0.228   2.651   9.730  0.7374 -2.3509  0.4401
 6058SOL    HW229634   0.312   2.766   9.689  0.6736 -0.1088 -0.8766
 6059SOL     OW29635   4.720   4.503   1.066  0.0425 -0.2529  0.1807
 6059SOL    HW129636   4.648   4.510   1.003  0.1338  0.1348  0.1154
 6059SOL    HW229637   0.039   4.418   1.051 -0.1575 -0.5061  1.0655
 6060SOL     OW29638   4.568   3.131   1.427 -0.1649  0.0946 -0.6902
 6060SOL    HW129639   4.517   3.148   1.347  1.1137  0.5684 -1.4105
 6060SOL    HW229640   4.582   3.222   1.453  2.5051 -1.3020  2.7448
 6061SOL     OW29641   3.812   2.385   4.516  0.5031  0.2366 -0.7705
 6061SOL    HW129642   3.763   2.304   4.499  0.5666  0.0771 -0.1842
 6061SOL    HW229643   3.905   2.363   4.519  0.4049  0.1178  1.6234
 6062SOL     OW29644   0.552   4.475   8.668 -0.1909 -1.2358  0.6503
 6062SOL    HW129645   0.619   4.461   8.601  0.8363  1.2020  1.1502
 6062SOL    HW229646   0.545   4.569   8.686  0.8119 -1.1126  0.4167
 6063SOL     OW29647   3.199   2.684   5.221  0.4294  0.1937  0.3332
 6063SOL    HW129648   3.267   2.657   5.159 -1.0018 -1.3752 -0.5426
 6063SOL    HW229649   3.211   2.779   5.229 -1.4803  0.6362 -1.9124
 6064SOL     OW29650   0.733   0.272   4.942  0.4186 -0.1261  0.2107
 6064SOL    HW129651   0.759   0.324   4.866 -0.4219 -0.4766 -0.3117
 6064SOL    HW229652   0.680   0.202   4.905  0.4828 -0.2023  0.2617
 6065SOL     OW29653   4.388   2.331   7.209  0.0965  0.1861  0.7139
 6065SOL    HW129654   4.362   2.248   7.171 -1.1330  0.4851  0.8853
 6065SOL    HW229655   4.444   2.303   7.281 -1.7109 -0.9598  1.6903
 6066SOL     OW29656   1.671   3.842   7.980  1.0358  0.2932  0.4458
 6066SOL    HW129657   1.606   3.892   7.932  0.6722 -0.5840  0.0185
 6066SOL    HW229658   1.628   3.856   8.065  2.6532 -0.1414  1.3449
 6067SOL     OW29659   1.053   4.368   8.146  0.1830  0.0558 -0.1731
 6067SOL    HW129660   0.977   4.386   8.202  0.3879 -0.9463  0.4461
 6067SOL    HW229661   1.010   4.376   8.061  0.3687 -3.8442 -0.6426
 6068SOL     OW29662   4.238   0.983   6.590 -0.0228 -0.0537 -0.5605
 6068SOL    HW129663   4.152   0.944   6.574 -0.8044  2.1169 -1.6705
 6068SOL    HW229664   4.296   0.910   6.611 -1.1620 -1.1381 -1.1735
 6069SOL     OW29665   0.839   1.642   3.756 -0.0602 -0.5247 -0.4326
 6069SOL    HW129666   0.919   1.676   3.797 -0.7299 -1.6479  1.8148
 6069SOL    HW229667   0.859   1.637   3.663 -0.6212 -0.2622 -0.5663
 6070SOL     OW29668   3.861   3.839  15.679  0.4663 -0.6047 -0.8405
 6070SOL    HW129669   3.832   3.922  15.718  2.0787 -1.6004  2.4845
 6070SOL    HW229670   3.867   3.790  15.761 -0.0115 -0.7102 -0.8690
 6071SOL     OW29671   1.486   2.612  16.816  0.3554  0.4481  0.6893
 6071SOL    HW129672   1.410   2.563  16.786  0.8925  0.0478 -0.0160
 6071SOL    HW229673   1.514   2.565  16.895  0.5590  0.2200  0.4832
 6072SOL     OW29674   1.575   0.619   6.692 -0.2464  0.1903 -0.3495
 6072SOL    HW129675   1.539   0.582   6.773  0.9830 -1.1497 -0.4084
 6072SOL    HW229676   1.589   0.534   6.651  0.0171 -0.2899  0.7335
 6073SOL     OW29677   0.495   3.515   1.102 -0.3470 -0.3711 -0.6827
 6073SOL    HW129678   0.440   3.580   1.059  0.8507  0.5578 -0.8083
 6073SOL    HW229679   0.492   3.552   1.191 -1.7464  1.3457 -1.4631
 6074SOL     OW29680   4.541   2.368  11.097  0.4236 -0.2785 -0.3511
 6074SOL    HW129681   4.489   2.447  11.110  2.5306  0.9218  0.8233
 6074SOL    HW229682   4.517   2.334  11.011  1.2200 -1.9975  0.1056
 6075SOL     OW29683   2.462   2.337   2.061  0.1115  0.2261  0.0580
 6075SOL    HW129684   2.496   2.343   2.150  0.9723  0.3520 -0.2792
 6075SOL    HW229685   2.368   2.342   2.077 -0.0097  3.0432 -1.6253
 6076SOL     OW29686   1.266   4.379   7.926  0.1532  0.4920  0.1200
 6076SOL    HW129687   1.173   4.394   7.908  0.0487 -1.4022 -1.0129
 6076SOL    HW229688   1.257   4.290   7.960 -0.7298  0.6008  0.1633
 6077SOL     OW29689   4.004   2.275   6.865  0.3412  0.5332 -0.2648
 6077SOL    HW129690   3.977   2.193   6.905 -1.1057  1.0729 -0.1372
 6077SOL    HW229691   4.032   2.315   6.947  0.5459 -0.6749  0.2439
 6078SOL     OW29692   4.185   0.224   2.238 -0.2211  0.0122 -0.5577
 6078SOL    HW129693   4.199   0.208   2.144  2.0639 -2.3556  0.1934
 6078SOL    HW229694   4.117   0.292   2.237 -1.4528 -1.2001  0.5064
 6079SOL     OW29695   1.166   1.001   3.502 -0.0308 -0.0726  0.1597
 6079SOL    HW129696   1.104   0.929   3.503 -1.1659  0.9095 -0.4361
 6079SOL    HW229697   1.104   1.069   3.530  0.3962  0.5871 -0.4824
 6080SOL     OW29698   3.457   4.595   7.049  0.1775 -0.7692  0.2657
 6080SOL    HW129699   3.386   4.602   6.985 -0.2030  1.4035  0.9229
 6080SOL    HW229700   3.429   4.671   7.100  2.3864 -1.0840  1.9718
 6081SOL     OW29701   1.269   2.054  11.433  0.5278  0.1739 -0.0059
 6081SOL    HW129702   1.263   2.082  11.341 -1.2665 -2.3707 -0.6454
 6081SOL    HW229703   1.222   2.130  11.466  2.2449  0.2169  2.3348
 6082SOL     OW29704   3.949   2.348  12.897  0.4267  0.3265 -0.1615
 6082SOL    HW129705   3.894   2.426  12.901 -0.1246 -0.1829  2.3791
 6082SOL    HW229706   3.881   2.288  12.866 -1.1993  1.3182  1.4854
 6083SOL     OW29707   1.979   4.511  16.748  0.2152  0.1584 -0.5721
 6083SOL    HW129708   2.048   4.488  16.810  0.5916 -3.0672 -2.2197
 6083SOL    HW229709   1.895   4.496  16.793  0.0796 -0.0872 -0.9099
 6084SOL     OW29710   3.541   2.848   7.035 -0.3460 -0.0336  0.5236
 6084SOL    HW129711   3.565   2.756   7.040 -1.9131 -0.5046 -0.6970
 6084SOL    HW229712   3.449   2.839   7.060 -0.3753 -1.7367 -0.2321
 6085SOL     OW29713   4.360   1.836   3.264  0.1005 -0.2127 -0.4308
 6085SOL    HW129714   4.385   1.912   3.212 -1.7535 -0.8679 -2.2847
 6085SOL    HW229715   4.381   1.752   3.223 -0.1603  0.0925 -1.1891
 6086SOL     OW29716   1.339   3.730   2.385 -0.0071  0.5051  0.5734
 6086SOL    HW129717   1.335   3.769   2.297 -0.3275  0.1251  0.4172
 6086SOL    HW229718   1.320   3.814   2.426 -2.4641  0.2514 -0.0029
 6087SOL     OW29719   4.655   0.537   4.908 -0.0462  0.6052  0.2488
 6087SOL    HW129720   4.560   0.528   4.903 -0.1208  1.5110 -0.0734
 6087SOL    HW229721   4.660   0.633   4.906 -0.4762  0.5934 -1.9294
 6088SOL     OW29722   1.889   3.932   8.341  0.1338  0.5289  0.0392
 6088SOL    HW129723   1.947   3.860   8.316 -0.1021  0.0544  0.8528
 6088SOL    HW229724   1.940   3.965   8.416  0.6809 -1.3675  0.4930
 6089SOL     OW29725   4.221   1.418   8.077 -0.2072 -0.2868  0.3864
 6089SOL    HW129726   4.275   1.357   8.028  1.4180 -0.2699  2.1587
 6089SOL    HW229727   4.225   1.488   8.012 -0.2801 -1.7046 -1.1398
 6090SOL     OW29728   2.889   2.277   1.083  0.3632  0.4284 -0.0465
 6090SOL    HW129729   2.825   2.316   1.023 -1.2607 -0.1380  1.3132
 6090SOL    HW229730   2.840   2.270   1.164 -2.5040  1.6503 -1.6600
 6091SOL     OW29731   4.020   0.009   6.991  0.4754  0.1452  0.2545
 6091SOL    HW129732   4.051   4.667   7.057  0.6173  1.2801  1.2662
 6091SOL    HW229733   3.928   4.705   6.984  0.5535  0.0222 -0.2806
 6092SOL     OW29734   1.973   3.430   7.258  0.0757  0.4765  0.1095
 6092SOL    HW129735   1.892   3.381   7.240 -0.4380  1.6120 -0.6771
 6092SOL    HW229736   2.032   3.355   7.266 -1.4366 -0.6409  0.7010
 6093SOL     OW29737   4.143   3.869   6.248 -0.2260  0.2415  0.3555
 6093SOL    HW129738   4.220   3.817   6.226  0.0626  0.5601  0.6156
 6093SOL    HW229739   4.097   3.815   6.312 -0.2185 -1.9239 -1.4689
 6094SOL     OW29740   0.408   4.544   6.727 -0.8271  0.7804  0.4258
 6094SOL    HW129741   0.327   4.550   6.676 -1.7765 -1.8999  1.6065
 6094SOL    HW229742   0.398   4.624   6.778 -0.0130  1.8306 -1.0769
 6095SOL     OW29743   3.817   2.436   3.401 -0.5802 -0.3456 -0.2044
 6095SOL    HW129744   3.823   2.480   3.316  1.0263 -0.6449 -0.2474
 6095SOL    HW229745   3.880   2.364   3.395  0.6250  0.7603 -1.1371
 6096SOL     OW29746   0.278   2.150   3.704  0.0681  0.0823 -0.4368
 6096SOL    HW129747   0.335   2.219   3.670 -0.9287  1.2374  0.2293
 6096SOL    HW229748   0.290   2.166   3.798 -1.4174 -0.9733 -0.0689
 6097SOL     OW29749   0.668   1.661   2.113  0.2707  0.6901 -0.1412
 6097SOL    HW129750   0.759   1.677   2.138  0.3713 -0.4767  0.2263
 6097SOL    HW229751   0.635   1.744   2.147  0.6788  1.4246 -1.5274
 6098SOL     OW29752   2.745   1.958  11.564  0.3087 -0.5776 -0.4228
 6098SOL    HW129753   2.709   1.946  11.476 -1.3695 -0.2821  0.2324
 6098SOL    HW229754   2.672   1.979  11.621 -0.1657 -1.8180 -0.5643
 6099SOL     OW29755   0.498   2.231   0.805 -0.2156 -0.0675 -0.6520
 6099SOL    HW129756   0.441   2.171   0.855  2.0041 -1.3859  0.2786
 6099SOL    HW229757   0.432   2.258   0.741 -1.6664 -0.2981  0.7305
 6100SOL     OW29758   2.909   3.833  17.382  0.4827  0.2605  0.0025
 6100SOL    HW129759   2.942   3.797  17.464 -0.1797 -2.3944 -0.8977
 6100SOL    HW229760   2.988   3.883  17.363  0.5701 -0.2652 -0.9922
 6101SOL     OW29761   1.951   3.916   5.133  0.0351 -0.8054 -0.2685
 6101SOL    HW129762   2.046   3.915   5.123  0.2188  0.5546  1.2841
 6101SOL    HW229763   1.938   3.823   5.151 -0.3444 -1.0414 -1.7519
 6102SOL     OW29764   0.142   3.624  17.102  0.2324 -0.0635  0.4001
 6102SOL    HW129765   0.188   3.557  17.153  0.8809  0.9252  1.1084
 6102SOL    HW229766   0.169   3.607  17.012 -1.6331  1.6896 -0.4991
 6103SOL     OW29767   2.745   3.048   1.718  0.2407  0.2164 -0.9381
 6103SOL    HW129768   2.838   3.028   1.712  0.4336  0.3934  1.9658
 6103SOL    HW229769   2.722   3.049   1.624  0.2407  0.6958 -0.9325
 6104SOL     OW29770   4.302   3.972   2.795 -0.5420 -0.0189 -0.5227
 6104SOL    HW129771   4.307   4.046   2.733 -1.2004 -0.3619 -0.9842
 6104SOL    HW229772   4.297   4.015   2.880  2.1230 -1.7553  0.4982
 6105SOL     OW29773   4.047   1.958   2.986 -0.1920 -0.7555  0.1121
 6105SOL    HW129774   4.057   2.051   2.963 -0.6597 -0.5003  0.9619
 6105SOL    HW229775   4.130   1.921   2.957 -0.4495 -2.6474  1.7721
 6106SOL     OW29776   1.349   2.530  17.499 -0.4864 -0.3844 -0.3115
 6106SOL    HW129777   1.327   2.623  17.499 -0.3930 -0.3683  1.4821
 6106SOL    HW229778   1.268   2.498  17.539 -2.8184  2.6120 -2.7193
 6107SOL     OW29779   3.943   4.046   2.550  0.5445 -0.7052 -0.5031
 6107SOL    HW129780   3.869   4.104   2.528  1.7493  1.1809  0.3830
 6107SOL    HW229781   3.923   4.018   2.639 -1.6946 -0.4199 -0.8881
 6108SOL     OW29782   4.126   3.224   0.482 -0.3241 -0.1540  0.0906
 6108SOL    HW129783   4.206   3.277   0.483 -0.0426 -0.5192 -1.9186
 6108SOL    HW229784   4.070   3.289   0.440  0.1660 -1.4374 -2.5567
 6109SOL     OW29785   3.854   3.683   8.328 -0.5256  0.3580 -0.1019
 6109SOL    HW129786   3.776   3.734   8.305 -0.4625  0.9842  1.0701
 6109SOL    HW229787   3.830   3.599   8.290 -1.6067  0.4554  0.3756
 6110SOL     OW29788   0.134   1.777   0.471  0.0889  0.3739  0.3016
 6110SOL    HW129789   0.152   1.698   0.421 -1.5203  0.0657  0.2099
 6110SOL    HW229790   0.163   1.842   0.407 -3.4320  0.1126 -1.5141
 6111SOL     OW29791   2.497   2.443   9.407  0.2538 -0.2303 -0.1596
 6111SOL    HW129792   2.534   2.488   9.483 -0.6547 -2.1455  1.3826
 6111SOL    HW229793   2.521   2.352   9.422  2.7879  0.1807 -1.5096
 6112SOL     OW29794   3.163   0.065   8.588 -0.1661  0.5497 -0.7109
 6112SOL    HW129795   3.219   0.064   8.667 -0.4762  1.3859 -0.4738
 6112SOL    HW229796   3.224   0.089   8.518  0.1916 -0.8651 -0.8841
 6113SOL     OW29797   2.879   3.740   8.148 -0.6609  0.5367  0.0884
 6113SOL    HW129798   2.850   3.652   8.123 -0.6506  0.7073 -0.5238
 6113SOL    HW229799   2.882   3.730   8.243 -0.1570  1.0957  0.1232
 6114SOL     OW29800   3.431   1.964   5.180 -0.0592 -0.2974  0.5430
 6114SOL    HW129801   3.478   2.043   5.211 -0.7695 -0.5024  2.1516
 6114SOL    HW229802   3.460   1.953   5.090 -1.1197 -1.0333  0.3017
 6115SOL     OW29803   1.784   1.045  15.151 -0.1297  0.1176  0.2206
 6115SOL    HW129804   1.716   1.081  15.207  1.6497  1.4674  1.5350
 6115SOL    HW229805   1.829   1.123  15.120 -1.8944  0.3638 -1.6476
 6116SOL     OW29806   4.609   4.246   0.751  0.0328  0.4158 -0.3374
 6116SOL    HW129807   4.521   4.217   0.772  0.9790 -1.6710  0.7677
 6116SOL    HW229808   4.605   4.242   0.655  1.4750 -0.6262 -0.3571
 6117SOL     OW29809   3.316   0.531   0.886 -0.0124 -0.0192  0.1809
 6117SOL    HW129810   3.369   0.453   0.897  0.3092  0.3797  1.4539
 6117SOL    HW229811   3.230   0.495   0.865 -1.2227  2.9916 -0.1114
 6118SOL     OW29812   3.318   4.463  12.832  0.0192 -0.4470  0.2975
 6118SOL    HW129813   3.405   4.502  12.842 -0.3863  0.6132 -0.2470
 6118SOL    HW229814   3.319   4.405  12.907 -0.1668  0.7025  1.1843
 6119SOL     OW29815   4.097   2.370  16.755  0.4608  0.0103 -0.4594
 6119SOL    HW129816   4.008   2.403  16.771  0.0495 -1.2480 -0.1722
 6119SOL    HW229817   4.126   2.433  16.689  2.9619  1.3228  1.8923
 6120SOL     OW29818   2.088   1.758   6.212  0.1220  0.4490 -0.0883
 6120SOL    HW129819   2.134   1.783   6.131  0.1027 -2.0238 -0.8421
 6120SOL    HW229820   2.149   1.706   6.265  0.1992  0.7359  0.1064
 6121SOL     OW29821   2.049   1.199   3.347 -0.1981  0.3186  0.5699
 6121SOL    HW129822   2.034   1.179   3.440 -0.8751 -0.9582  0.1770
 6121SOL    HW229823   1.969   1.155   3.319 -0.8048  2.4398 -1.0331
 6122SOL     OW29824   4.189   4.414  11.255  0.1506  0.0591 -0.6444
 6122SOL    HW129825   4.262   4.475  11.244 -0.8536  1.4737  0.5422
 6122SOL    HW229826   4.225   4.349  11.195 -0.4402 -2.7433  2.0668
 6123SOL     OW29827   4.402   3.866   6.938  0.3258 -0.7625  0.4676
 6123SOL    HW129828   4.400   3.924   7.014 -1.2598 -0.4073  0.1444
 6123SOL    HW229829   4.312   3.866   6.906  0.3019  1.9648  0.5301
 6124SOL     OW29830   0.794   4.224   2.829  0.5745  0.7154 -0.2887
 6124SOL    HW129831   0.818   4.203   2.739  1.5679 -0.1720  0.1687
 6124SOL    HW229832   0.699   4.228   2.820  0.6934  1.5655 -1.0493
 6125SOL     OW29833   4.414   4.659   8.950 -0.4783 -0.3124  0.5908
 6125SOL    HW129834   4.345   4.595   8.968 -0.1968 -0.7072  0.2507
 6125SOL    HW229835   4.493   4.609   8.972  0.7745  1.3278 -0.2017
 6126SOL     OW29836   1.954   0.873   5.789 -0.5577  0.2731  0.1432
 6126SOL    HW129837   1.919   0.798   5.836  0.5320  2.0685  3.7941
 6126SOL    HW229838   1.990   0.927   5.859 -4.2243  2.7862  0.0539
 6127SOL     OW29839   3.372   1.364   4.334 -0.0335  0.3563  0.5061
 6127SOL    HW129840   3.358   1.392   4.425  0.2660  0.7522  0.4313
 6127SOL    HW229841   3.350   1.445   4.288 -2.0216 -0.3035  0.2877
 6128SOL     OW29842   4.653   0.862   5.843  0.1817  0.3394 -0.1448
 6128SOL    HW129843   4.674   0.779   5.886  0.1364  0.6339  0.4433
 6128SOL    HW229844   4.570   0.837   5.801 -0.0671 -0.5944  0.8885
 6129SOL     OW29845   2.688   4.001   3.759  0.5534 -0.0950 -0.6719
 6129SOL    HW129846   2.731   3.955   3.831  1.6874  0.8951 -0.7188
 6129SOL    HW229847   2.725   3.958   3.682 -0.0097  0.1808 -1.0941
 6130SOL     OW29848   3.624   4.346   2.690  0.4374 -0.5939 -0.2947
 6130SOL    HW129849   3.571   4.425   2.694  1.7544  0.1553  1.8957
 6130SOL    HW229850   3.706   4.394   2.697 -0.7407  1.3773 -0.2384
 6131SOL     OW29851   3.464   2.507   2.373 -0.3777 -0.5230 -0.1601
 6131SOL    HW129852   3.541   2.510   2.430  0.5871 -0.6682 -1.4523
 6131SOL    HW229853   3.470   2.413   2.357 -1.1398 -0.5075 -0.5227
 6132SOL     OW29854   2.142   3.217   6.397 -0.0344 -0.0011 -0.1757
 6132SOL    HW129855   2.166   3.124   6.395 -1.1316 -0.2838  0.2626
 6132SOL    HW229856   2.170   3.242   6.309  1.3895 -0.4130  0.1608
 6133SOL     OW29857   2.906   3.397  13.283  0.1954  0.3078 -0.1113
 6133SOL    HW129858   2.950   3.472  13.323  2.1962 -0.9320  0.0592
 6133SOL    HW229859   2.868   3.438  13.205 -1.5559  0.8208  1.0255
 6134SOL     OW29860   0.088   1.442  14.748 -0.0031  0.4773 -0.0932
 6134SOL    HW129861   0.168   1.448  14.801 -0.6716  0.1763  0.9442
 6134SOL    HW229862   0.017   1.437  14.812  0.8817 -0.2651  0.8447
 6135SOL     OW29863   1.449   3.116   8.274  0.0068 -0.3007 -0.7297
 6135SOL    HW129864   1.528   3.096   8.324 -0.6320 -0.7785  0.0961
 6135SOL    HW229865   1.457   3.210   8.260 -3.8030 -0.1375 -1.8496
 6136SOL     OW29866   2.118   1.981   3.800  0.0067  0.4103 -0.3617
 6136SOL    HW129867   2.042   1.975   3.742  0.6262  2.3522 -1.3632
 6136SOL    HW229868   2.191   1.965   3.740  0.1478  0.7511 -0.2808
 6137SOL     OW29869   0.192   4.086  17.660 -0.0731  0.3989 -0.1240
 6137SOL    HW129870   0.163   4.074  17.570 -1.1762 -1.5293  0.4901
 6137SOL    HW229871   0.138   4.023   0.020  0.3786  1.1657  1.4409
 6138SOL     OW29872   1.965   2.692   2.242  0.3161 -0.0582 -0.4621
 6138SOL    HW129873   2.040   2.655   2.289 -2.0801 -2.0530  1.7600
 6138SOL    HW229874   1.896   2.666   2.303  0.7289  0.4579  0.2114
 6139SOL     OW29875   0.156   4.547  16.289  0.5475  0.3775 -0.1420
 6139SOL    HW129876   0.068   4.542  16.325 -0.3545 -0.7411 -2.4770
 6139SOL    HW229877   0.205   4.572  16.367  1.1159 -1.9288  0.2327
 6140SOL     OW29878   0.370   0.110   3.401  0.0073  0.2255  0.0138
 6140SOL    HW129879   0.353   0.198   3.367  0.0990  0.2459  0.0205
 6140SOL    HW229880   0.370   0.127   3.495 -0.5685 -0.5147  0.1531
 6141SOL     OW29881   4.570   4.491   2.557  0.7990  0.4412 -0.8241
 6141SOL    HW129882   4.618   4.569   2.586  0.5984  0.0588  0.5548
 6141SOL    HW229883   4.646   4.435   2.573  1.1420  0.9572 -0.6491
 6142SOL     OW29884   0.349   1.713   4.252 -0.3527  0.6714  0.3885
 6142SOL    HW129885   0.430   1.668   4.279 -0.8777 -0.0143  0.8115
 6142SOL    HW229886   0.363   1.724   4.158  0.7139  1.9769  0.6889
 6143SOL     OW29887   1.535   2.013   4.838 -0.6946 -0.4961  0.1585
 6143SOL    HW129888   1.537   2.032   4.932  1.3982 -0.0751  0.0420
 6143SOL    HW229889   1.441   2.025   4.826 -0.6190 -2.1413 -2.0559
 6144SOL     OW29890   1.143   0.643   2.690  0.1314 -0.6699  0.4125
 6144SOL    HW129891   1.094   0.619   2.611 -0.3726  0.4310  0.3922
 6144SOL    HW229892   1.232   0.623   2.662  0.5608  1.7565  0.0629
 6145SOL     OW29893   2.015   2.821   6.865  0.0343 -0.2494 -0.2603
 6145SOL    HW129894   1.931   2.787   6.835 -0.7885  0.3448  1.3491
 6145SOL    HW229895   1.993   2.914   6.868  3.1273  0.4030  2.9967
 6146SOL     OW29896   1.385   1.987   6.086 -0.6051 -0.6008  0.1316
 6146SOL    HW129897   1.294   2.014   6.101 -0.1203  0.2354  1.5766
 6146SOL    HW229898   1.422   1.980   6.174  0.2410 -0.2544 -0.1959
 6147SOL     OW29899   1.060   0.521  17.385  1.1382  0.0876  0.4348
 6147SOL    HW129900   1.056   0.426  17.377 -1.0084  0.1170  1.3270
 6147SOL    HW229901   1.062   0.544  17.478  0.0035  0.9218  0.2480
 6148SOL     OW29902   1.041   3.234   2.694 -0.7641  0.3606  0.7966
 6148SOL    HW129903   0.987   3.171   2.647  2.1315 -2.0738  0.7909
 6148SOL    HW229904   0.999   3.220   2.779 -0.2755  0.6724  1.0908
 6149SOL     OW29905   2.421   2.969   9.451 -0.1547  0.1915 -0.1599
 6149SOL    HW129906   2.486   3.019   9.402  0.3798 -0.7946 -0.4694
 6149SOL    HW229907   2.473   2.907   9.501 -1.9476  1.2801  3.0125
 6150SOL     OW29908   4.337   2.171   9.379  0.5061  0.1995  0.2477
 6150SOL    HW129909   4.293   2.214   9.305 -1.5157 -2.5215 -0.1165
 6150SOL    HW229910   4.306   2.082   9.367  1.3784 -0.1744  0.8042
 6151SOL     OW29911   4.441   2.860   9.202 -0.2801  0.3420  0.8340
 6151SOL    HW129912   4.444   2.812   9.285  2.8798 -0.1688  0.4133
 6151SOL    HW229913   4.533   2.870   9.180 -0.3000  4.0550  2.4073
 6152SOL     OW29914   3.383   2.240   6.434 -0.3994  0.1080  0.3484
 6152SOL    HW129915   3.371   2.223   6.527 -1.1403 -1.9409 -0.1257
 6152SOL    HW229916   3.472   2.210   6.417 -1.3372 -3.7991  2.3707
 6153SOL     OW29917   4.347   0.750   3.750 -0.3332 -0.0470 -0.0264
 6153SOL    HW129918   4.432   0.785   3.777  0.4538 -0.5149 -1.8862
 6153SOL    HW229919   4.384   0.698   3.679 -0.8843 -1.1919  0.5225
 6154SOL     OW29920   0.073   0.019   6.275 -0.2032  0.0895  0.3753
 6154SOL    HW129921   4.718   0.077   6.288 -1.4836 -0.9048 -2.7022
 6154SOL    HW229922   0.048   4.676   6.208 -0.5818  1.1981 -0.5434
 6155SOL     OW29923   0.620   2.826   3.068 -0.3413  0.3835 -0.4537
 6155SOL    HW129924   0.606   2.896   3.005 -2.5482  2.7969  2.6881
 6155SOL    HW229925   0.674   2.763   3.020 -2.8212 -3.1474  1.3737
 6156SOL     OW29926   4.237   0.712   0.917  0.2159 -0.1208 -1.2454
 6156SOL    HW129927   4.183   0.791   0.905 -0.9396 -0.6941  0.3421
 6156SOL    HW229928   4.303   0.741   0.854 -0.2695  0.4948 -1.4734
 6157SOL     OW29929   4.673   1.064   9.174 -0.4020  0.4566  0.0166
 6157SOL    HW129930   4.664   1.019   9.091  0.0256 -3.2306  1.9768
 6157SOL    HW229931   4.599   1.035   9.227 -1.2368  3.6527  0.5970
 6158SOL     OW29932   2.196   1.974   2.974  0.0062 -0.2895 -0.4457
 6158SOL    HW129933   2.131   2.043   2.987  0.1121  0.0866 -1.8431
 6158SOL    HW229934   2.261   2.032   2.935  1.2652 -3.4034 -2.9321
 6159SOL     OW29935   4.538   4.310   6.696 -0.0120  0.2172 -0.2497
 6159SOL    HW129936   4.621   4.273   6.665  0.8225  1.0580  0.9681
 6159SOL    HW229937   4.567   4.369   6.765 -1.2149 -1.7543  1.9290
 6160SOL     OW29938   1.687   0.829   5.170  0.3344 -0.4235 -0.1401
 6160SOL    HW129939   1.630   0.900   5.141  3.8391  3.0779  1.5454
 6160SOL    HW229940   1.641   0.801   5.250 -1.3006  0.5598 -0.7313
 6161SOL     OW29941   3.749   1.819  10.831  0.4251  0.2057 -0.1587
 6161SOL    HW129942   3.655   1.828  10.814  0.3339 -0.3997  0.0144
 6161SOL    HW229943   3.768   1.875  10.905 -0.5029  0.3771 -0.0443
 6162SOL     OW29944   2.709   0.320   5.732  0.4403  0.5527 -0.2586
 6162SOL    HW129945   2.688   0.254   5.666 -2.7789  0.8054  0.5432
 6162SOL    HW229946   2.678   0.265   5.804 -1.2032  0.5452 -0.9708
 6163SOL     OW29947   4.527   1.510   2.686  0.0675  0.1310  0.0800
 6163SOL    HW129948   4.481   1.571   2.630 -0.5902 -1.4945 -1.1550
 6163SOL    HW229949   4.511   1.558   2.767  2.7427  0.0416  0.6548
 6164SOL     OW29950   0.365   0.213  13.693  0.0296  0.5115  0.4041
 6164SOL    HW129951   0.350   0.148  13.624  0.7692  1.0613 -0.2801
 6164SOL    HW229952   0.280   0.256  13.691 -0.2056  0.0389  0.4334
 6165SOL     OW29953   0.900   3.760   8.865 -0.4178  0.0232 -0.3577
 6165SOL    HW129954   0.833   3.826   8.846 -0.3497 -0.5661 -2.6645
 6165SOL    HW229955   0.951   3.798   8.937 -0.5425 -2.1767  0.8713
 6166SOL     OW29956   0.803   1.270   9.082  0.3502 -0.3316 -0.0109
 6166SOL    HW129957   0.823   1.272   8.988  0.2698 -0.4307 -0.0307
 6166SOL    HW229958   0.889   1.241   9.114  1.0167  0.4960 -1.0541
 6167SOL     OW29959   2.837   3.973   5.414  0.2670 -0.0354 -0.0188
 6167SOL    HW129960   2.780   4.044   5.444  3.7326  1.6818  2.5491
 6167SOL    HW229961   2.777   3.928   5.355  0.0762  3.5947 -2.6280
 6168SOL     OW29962   3.394   0.574   3.432  0.5175 -0.3417 -0.1576
 6168SOL    HW129963   3.354   0.596   3.516  1.0076 -3.8117  0.9571
 6168SOL    HW229964   3.336   0.603   3.362  1.1482 -0.3585 -0.6878
 6169SOL     OW29965   1.295   1.548   3.240 -0.5505  0.2361  0.3060
 6169SOL    HW129966   1.261   1.635   3.218 -0.6052 -0.6200 -3.0033
 6169SOL    HW229967   1.333   1.567   3.326 -0.2892  1.1799 -0.0112
 6170SOL     OW29968   3.596   2.954   3.111  0.2247  0.0194 -0.2153
 6170SOL    HW129969   3.599   2.883   3.175 -1.9265  0.0049 -0.1153
 6170SOL    HW229970   3.501   2.969   3.111  0.1433 -0.4906 -1.2904
 6171SOL     OW29971   4.632   2.502   2.778 -0.0221 -0.3486 -0.1613
 6171SOL    HW129972   4.594   2.572   2.726 -0.6709 -0.5160  0.0818
 6171SOL    HW229973   4.577   2.498   2.856  2.1222  0.1617  1.3908
 6172SOL     OW29974   3.571   2.618   4.263  0.7583 -0.1652  0.4978
 6172SOL    HW129975   3.525   2.667   4.194 -0.2464  0.8443  1.8890
 6172SOL    HW229976   3.530   2.535   4.239 -2.0550  2.2779 -3.0336
 6173SOL     OW29977   0.645   4.351   3.821 -0.5979  0.0058 -0.1337
 6173SOL    HW129978   0.661   4.319   3.910  2.6797  0.5212 -0.5063
 6173SOL    HW229979   0.590   4.429   3.833  0.0062  0.4489 -0.1977
 6174SOL     OW29980   2.115   2.812  11.036 -0.0128  0.7252 -0.0137
 6174SOL    HW129981   2.110   2.813  11.131  3.1111 -2.3179  0.1854
 6174SOL    HW229982   2.183   2.878  11.023  0.7248 -0.5934 -2.9145
 6175SOL     OW29983   0.359   4.224   9.777 -0.1144  0.4582  0.1159
 6175SOL    HW129984   0.376   4.281   9.852 -0.4990  0.2017  0.3972
 6175SOL    HW229985   0.407   4.275   9.712 -0.5398 -0.4207 -0.8893
 6176SOL     OW29986   1.416   0.295   5.969  0.3970  0.1863  0.2505
 6176SOL    HW129987   1.445   0.218   6.017  2.8317  0.8190 -0.2236
 6176SOL    HW229988   1.333   0.280   5.923 -0.4447 -0.3476  1.9446
 6177SOL     OW29989   3.983   0.827   9.143 -0.0246 -0.3195 -0.0886
 6177SOL    HW129990   3.947   0.788   9.063 -2.4556  0.2139  0.7335
 6177SOL    HW229991   4.069   0.787   9.151 -0.0252 -0.2397  0.3218
 6178SOL     OW29992   0.589   4.113   4.755 -1.0395 -0.0533  0.8883
 6178SOL    HW129993   0.530   4.184   4.782  0.5702  1.5987  0.0576
 6178SOL    HW229994   0.520   4.065   4.709 -0.0682 -0.3760 -0.2241
 6179SOL     OW29995   0.130   2.836   8.905  0.1673 -0.3887  0.1428
 6179SOL    HW129996   0.219   2.800   8.913  0.2561 -0.5421 -1.5094
 6179SOL    HW229997   0.151   2.894   8.831 -2.6480  1.2369  0.6332
 6180SOL     OW29998   1.245   4.075   4.027  0.5788  0.2358 -0.1531
 6180SOL    HW129999   1.171   4.045   3.974  0.4328 -1.8941  1.2431
 6180SOL    HW230000   1.313   4.102   3.965  1.1613 -0.6779  0.0956
 6181SOL     OW30001   0.816   3.990   3.287  0.5266 -0.2283 -0.0858
 6181SOL    HW130002   0.763   4.067   3.268  0.4612  0.2607  2.0779
 6181SOL    HW230003   0.883   4.007   3.221  2.2589 -0.6998  1.5478
 6182SOL     OW30004   1.658   4.201   8.009 -0.1266 -0.3949  0.0018
 6182SOL    HW130005   1.588   4.214   8.073 -2.0455 -0.7145 -2.0527
 6182SOL    HW230006   1.729   4.174   8.068  2.6193  1.8509 -2.2684
 6183SOL     OW30007   0.494   3.842   7.405 -0.4855  0.0638  0.0097
 6183SOL    HW130008   0.428   3.794   7.456 -0.6036 -0.2281 -0.4173
 6183SOL    HW230009   0.500   3.918   7.462 -0.9224 -1.0432  1.5252
 6184SOL     OW30010   1.448   1.926   9.372  0.0732  0.2371  0.4763
 6184SOL    HW130011   1.428   2.012   9.335  0.4633  0.5468  0.9789
 6184SOL    HW230012   1.452   1.874   9.292  1.7861  1.7986 -0.4568
 6185SOL     OW30013   1.920   2.045   6.671 -0.3018 -0.4032 -0.3922
 6185SOL    HW130014   1.868   1.987   6.614 -2.9068 -0.4601  2.0934
 6185SOL    HW230015   1.975   2.086   6.603  0.7529  0.0446  0.7352
 6186SOL     OW30016   2.227   3.258   1.017  0.3946 -0.4007 -0.0723
 6186SOL    HW130017   2.192   3.196   0.954  1.1048  0.2923 -1.1384
 6186SOL    HW230018   2.143   3.284   1.056  0.7987  2.5688 -1.1578
 6187SOL     OW30019   1.736   4.546   8.339 -0.2664  0.2256 -0.1815
 6187SOL    HW130020   1.831   4.553   8.342 -0.1748 -0.9099 -0.2823
 6187SOL    HW230021   1.724   4.479   8.406  1.2465  1.7374  1.5639
 6188SOL     OW30022   3.710   0.583   6.487  0.2823 -0.6265  0.2856
 6188SOL    HW130023   3.694   0.596   6.394 -1.9100  0.9074  0.8735
 6188SOL    HW230024   3.804   0.600   6.490  0.5069 -1.9590  1.0009
 6189SOL     OW30025   0.285   3.751   7.550  0.4068 -0.3941 -0.1135
 6189SOL    HW130026   0.280   3.725   7.642 -1.0348  3.2912  0.8267
 6189SOL    HW230027   0.256   3.841   7.555  2.9454  0.3224  1.6727
 6190SOL     OW30028   2.848   0.149   6.413  0.1040  0.9664  0.1470
 6190SOL    HW130029   2.926   0.100   6.438  0.9086  0.9229 -2.4664
 6190SOL    HW230030   2.777   0.111   6.465  1.2994 -3.2130 -1.2091
 6191SOL     OW30031   4.109   0.890   3.013 -0.3669  0.2805  0.2320
 6191SOL    HW130032   4.114   0.850   3.100 -1.3768  0.8356  0.5494
 6191SOL    HW230033   4.040   0.951   3.038  1.3774  1.7907  1.4067
 6192SOL     OW30034   0.320   0.408   0.996 -0.0163 -0.5469 -0.2917
 6192SOL    HW130035   0.367   0.348   0.938  0.7480 -0.5283  0.3171
 6192SOL    HW230036   0.293   0.346   1.064  0.2742  0.0573  0.3743
 6193SOL     OW30037   2.067   0.541   6.160  0.0881 -0.4225  0.3788
 6193SOL    HW130038   2.046   0.597   6.236  0.1174 -1.9106  1.4817
 6193SOL    HW230039   2.042   0.454   6.189  0.0491  0.0732  1.8610
 6194SOL     OW30040   2.882   0.980  13.940 -0.6166  0.1468  0.3902
 6194SOL    HW130041   2.965   1.026  13.930 -0.9713  0.6835 -0.1399
 6194SOL    HW230042   2.867   0.931  13.859  2.6428  1.6100 -1.1029
 6195SOL     OW30043   2.224   2.691   7.252 -0.2032  0.0785  0.4414
 6195SOL    HW130044   2.304   2.659   7.208  0.3047  0.6355  0.9643
 6195SOL    HW230045   2.151   2.659   7.200 -0.1649  2.1703 -0.9346
 6196SOL     OW30046   1.875   4.579   7.276  0.1439  0.0270  0.0573
 6196SOL    HW130047   1.872   4.669   7.310 -0.1815 -0.4513  1.2929
 6196SOL    HW230048   1.839   4.595   7.188  2.2820 -1.8148 -1.1457
 6197SOL     OW30049   3.956   4.074   4.770 -0.1102  0.1702  1.2808
 6197SOL    HW130050   3.961   3.987   4.808  2.9548  0.0140  0.5548
 6197SOL    HW230051   3.950   4.067   4.675  0.6954  3.2887  0.9707
 6198SOL     OW30052   3.467   3.753   4.280 -0.0888 -0.4982  0.1151
 6198SOL    HW130053   3.522   3.676   4.267  1.7780  0.7704  0.4100
 6198SOL    HW230054   3.518   3.828   4.248 -2.2829  1.7575  1.9184
 6199SOL     OW30055   0.321   0.693  16.083 -0.7775 -0.5669  0.4822
 6199SOL    HW130056   0.236   0.659  16.110 -0.9574 -1.1226 -0.7891
 6199SOL    HW230057   0.344   0.605  16.054  3.8705  0.7961  0.0476
 6200SOL     OW30058   1.945   1.241   6.010  0.0359  0.7719  0.0117
 6200SOL    HW130059   1.882   1.205   6.072  1.4802 -0.9988  0.4599
 6200SOL    HW230060   1.911   1.331   6.013 -4.0395 -0.7491 -0.8831
 6201SOL     OW30061   0.012   3.957  16.140 -0.3885 -0.4129 -0.0027
 6201SOL    HW130062   4.701   3.867  16.137  1.3409 -1.0430  0.2631
 6201SOL    HW230063   4.699   3.978  16.227 -0.9756 -1.2385 -0.0401
 6202SOL     OW30064   2.997   4.599   4.594  0.2810 -0.1879  0.3478
 6202SOL    HW130065   3.026   4.521   4.642 -0.4016  0.2001  1.4085
 6202SOL    HW230066   2.905   4.603   4.621 -0.2489 -0.3742 -1.4699
 6203SOL     OW30067   4.041   2.034   4.798 -0.2718 -0.3876 -0.1164
 6203SOL    HW130068   3.952   2.064   4.782 -0.9668 -1.6535  1.4217
 6203SOL    HW230069   4.060   2.062   4.887 -2.9290 -0.1742  0.3699
 6204SOL     OW30070   3.795   2.167   4.770  0.2567  0.0477 -0.2972
 6204SOL    HW130071   3.752   2.166   4.685 -1.2558  2.9480  0.4453
 6204SOL    HW230072   3.744   2.105   4.823 -0.1023 -1.3268 -2.2395
 6205SOL     OW30073   2.904   2.678   8.703 -0.5653  0.0927 -0.1106
 6205SOL    HW130074   2.949   2.719   8.777  0.4344  0.3297 -0.8507
 6205SOL    HW230075   2.820   2.660   8.744 -0.8738 -0.3104 -0.9189
 6206SOL     OW30076   3.569   2.755   4.784  0.4905  0.1332 -0.1096
 6206SOL    HW130077   3.506   2.826   4.777  0.2611 -0.3860 -3.0765
 6206SOL    HW230078   3.591   2.728   4.695  0.9075  0.3923 -0.0854
 6207SOL     OW30079   3.855   2.632   6.424 -0.3118 -0.2075  0.0927
 6207SOL    HW130080   3.875   2.691   6.351 -0.5812 -1.4012 -0.9456
 6207SOL    HW230081   3.907   2.661   6.499 -1.0687  0.2785  0.4209
 6208SOL     OW30082   2.552   3.457   7.262  0.5296 -0.2885 -0.0396
 6208SOL    HW130083   2.557   3.506   7.180  2.8885  0.0942  0.3479
 6208SOL    HW230084   2.565   3.520   7.332 -0.1162 -1.7490  1.3785
 6209SOL     OW30085   1.592   2.878   6.408  0.5226 -0.7820  0.0494
 6209SOL    HW130086   1.673   2.831   6.430  0.8884  0.7405  1.9626
 6209SOL    HW230087   1.577   2.944   6.475  1.2768  1.1055 -1.6222
 6210SOL     OW30088   1.182   1.059   2.906  0.5971  0.4868  0.8116
 6210SOL    HW130089   1.246   1.031   2.840  0.9417 -1.3102  1.9114
 6210SOL    HW230090   1.135   1.131   2.864  1.2600  0.0286 -0.7305
 6211SOL     OW30091   3.987   2.239  14.322  0.0325  0.3082  0.1517
 6211SOL    HW130092   3.920   2.265  14.385  0.7474  2.1623  0.1635
 6211SOL    HW230093   4.059   2.249  14.384 -0.7877 -0.4422  1.2043
 6212SOL     OW30094   3.256   3.877   5.511 -0.7919  0.1492 -0.3509
 6212SOL    HW130095   3.224   3.935   5.441 -0.7644 -0.8029 -1.1501
 6212SOL    HW230096   3.185   3.885   5.574 -0.3972 -0.1538  0.1320
 6213SOL     OW30097   0.204   3.229   6.370  0.0331  0.1587  0.1115
 6213SOL    HW130098   0.209   3.321   6.342  1.7463 -0.5429 -1.8909
 6213SOL    HW230099   0.285   3.196   6.333  0.3646  0.6550  0.3997
 6214SOL     OW30100   3.801   1.690  16.852  0.3035 -0.2902  0.1465
 6214SOL    HW130101   3.891   1.685  16.884  1.1269  1.7278 -1.8733
 6214SOL    HW230102   3.793   1.785  16.843  2.4593 -0.3688 -2.4410
 6215SOL     OW30103   2.735   1.797   0.102  0.1213 -0.0702  0.5179
 6215SOL    HW130104   2.685   1.759   0.174 -1.4494  0.2025 -0.4191
 6215SOL    HW230105   2.683   1.874   0.078 -0.6163 -0.8266 -0.3551
 6216SOL     OW30106   0.315   2.013  15.900  0.3872 -0.4988 -0.0546
 6216SOL    HW130107   0.373   2.087  15.878 -0.9177  0.8673  1.0708
 6216SOL    HW230108   0.320   2.025  15.995 -2.5109 -0.7765  0.1370
 6217SOL     OW30109   0.748   2.260   0.712 -0.1587  0.8144 -0.0746
 6217SOL    HW130110   0.673   2.254   0.772 -0.2620  3.1686  0.0458
 6217SOL    HW230111   0.769   2.351   0.730 -0.9039  0.6563  1.7019
 6218SOL     OW30112   0.134   3.076   9.348 -0.0612  0.3456 -0.0632
 6218SOL    HW130113   0.160   3.160   9.385 -1.2151  0.6816 -0.0273
 6218SOL    HW230114   0.060   3.058   9.406 -1.4007 -0.9501 -2.1418
 6219SOL     OW30115   4.055   4.245   6.512  0.4632 -0.1140 -0.3281
 6219SOL    HW130116   4.068   4.336   6.488  2.9312 -0.1791  0.7871
 6219SOL    HW230117   4.146   4.215   6.523  0.0111 -1.6739 -0.7525
 6220SOL     OW30118   4.256   2.265   3.135 -0.3784 -0.5015 -0.0422
 6220SOL    HW130119   4.292   2.177   3.127  1.0000  0.1084 -0.5976
 6220SOL    HW230120   4.326   2.330   3.141 -0.2961 -0.4991 -0.9850
 6221SOL     OW30121   0.471   3.120   6.143 -0.1337  0.1464  0.0905
 6221SOL    HW130122   0.435   3.035   6.170  0.2819 -0.1052 -0.1348
 6221SOL    HW230123   0.537   3.079   6.086 -1.0150 -0.1852 -0.6995
 6222SOL     OW30124   1.050   2.757   7.555  0.0439 -0.2639 -0.1605
 6222SOL    HW130125   1.049   2.757   7.650 -3.1643 -2.4873 -0.2203
 6222SOL    HW230126   0.996   2.834   7.537  0.3526  0.2746  1.1936
 6223SOL     OW30127   1.211   1.305  13.335 -0.0210  0.9264  0.3410
 6223SOL    HW130128   1.255   1.232  13.379 -0.8430  0.7770  0.9105
 6223SOL    HW230129   1.154   1.329  13.408  0.8884 -2.3998  2.1311
 6224SOL     OW30130   0.916   3.221  14.308  1.0598 -0.3267 -0.7123
 6224SOL    HW130131   0.826   3.194  14.289  1.3471 -2.0442  0.4028
 6224SOL    HW230132   0.931   3.148  14.368 -1.2262 -0.7276 -0.6035
 6225SOL     OW30133   3.458   4.319   3.627 -0.0606  0.4856  0.3843
 6225SOL    HW130134   3.419   4.403   3.604 -1.6078 -0.7730 -1.6210
 6225SOL    HW230135   3.405   4.261   3.573  1.1676 -0.7862  0.5273
 6226SOL     OW30136   0.349   0.285   8.714  0.1100  0.0986  0.1853
 6226SOL    HW130137   0.381   0.368   8.749  0.1225  0.0265  0.3458
 6226SOL    HW230138   0.290   0.262   8.785 -0.1437 -0.2647 -0.1446
 6227SOL     OW30139   4.597   1.855   6.168  0.4475  0.2786 -0.1905
 6227SOL    HW130140   4.547   1.914   6.225 -1.1744 -2.7950  1.5675
 6227SOL    HW230141   4.527   1.797   6.137  0.9907  0.3623 -1.5545
 6228SOL     OW30142   2.304   3.142   3.250  0.2745 -0.6557 -0.0571
 6228SOL    HW130143   2.336   3.159   3.162  1.9671  0.7942  0.8319
 6228SOL    HW230144   2.296   3.231   3.285 -0.3060 -0.1139 -1.5565
 6229SOL     OW30145   3.792   2.557  12.829  0.2489 -0.1701 -0.9503
 6229SOL    HW130146   3.706   2.561  12.787  0.3565 -0.8453 -1.2357
 6229SOL    HW230147   3.851   2.607  12.773  0.7406 -0.3330 -0.5786
 6230SOL     OW30148   4.164   1.485   8.558  0.1446  0.2817 -0.1532
 6230SOL    HW130149   4.228   1.506   8.491  1.3999 -0.8233  0.6974
 6230SOL    HW230150   4.214   1.427   8.615 -0.1082 -1.0493 -1.2808
 6231SOL     OW30151   0.471   3.883  14.802 -0.4967 -0.2828 -0.2604
 6231SOL    HW130152   0.513   3.906  14.885 -2.5910 -0.8925  0.9895
 6231SOL    HW230153   0.465   3.788  14.810  0.1604 -0.3196 -0.2422
 6232SOL     OW30154   3.597   3.010   8.744 -0.4280 -0.3755 -0.2409
 6232SOL    HW130155   3.533   3.080   8.729 -0.2508 -0.1461  0.0729
 6232SOL    HW230156   3.674   3.056   8.778  0.4813  0.4248 -3.4321
 6233SOL     OW30157   0.223   1.985   6.535 -0.4403 -0.0926  1.1587
 6233SOL    HW130158   0.282   1.912   6.517 -0.2771  0.1441  0.7295
 6233SOL    HW230159   0.277   2.051   6.491  0.4830 -0.8785  1.1077
 6234SOL     OW30160   1.427   1.113   5.177  0.0904  0.0531 -0.3691
 6234SOL    HW130161   1.496   1.090   5.116 -0.8454 -1.2644 -0.9228
 6234SOL    HW230162   1.387   1.186   5.130  2.7137  0.9206 -1.2689
 6235SOL     OW30163   0.260   4.192   3.045  0.0904 -0.3343  0.1089
 6235SOL    HW130164   0.297   4.278   3.065 -0.4618 -0.2178  0.6205
 6235SOL    HW230165   0.180   4.221   3.002  1.6192 -0.5927 -2.8930
 6236SOL     OW30166   0.871   0.263   8.263 -0.3492 -0.3658  0.3797
 6236SOL    HW130167   0.868   0.308   8.347  2.5142  1.0313 -0.2595
 6236SOL    HW230168   0.835   0.178   8.286 -0.3396 -1.0211 -2.0482
 6237SOL     OW30169   2.201   4.705  15.305 -0.7088  0.3011  0.1546
 6237SOL    HW130170   2.186   4.694  15.211 -0.1660  3.3562 -0.2691
 6237SOL    HW230171   2.160   4.626  15.340 -0.3809  0.6712  1.3470
 6238SOL     OW30172   1.931   2.548  17.206 -0.1386  0.3881  0.1813
 6238SOL    HW130173   1.955   2.490  17.133  0.3877  0.2730  0.4497
 6238SOL    HW230174   1.838   2.526  17.213 -0.6015  2.5943  0.9717
 6239SOL     OW30175   4.290   1.984   5.823  0.5104 -0.3755  0.1148
 6239SOL    HW130176   4.241   2.029   5.754  0.1925  1.5786  1.6122
 6239SOL    HW230177   4.222   1.949   5.880  0.8995 -2.1491 -0.5192
 6240SOL     OW30178   2.725   1.473   5.974 -0.4095 -0.3926 -1.0376
 6240SOL    HW130179   2.696   1.491   5.884  0.9617  2.1648 -0.9802
 6240SOL    HW230180   2.771   1.390   5.966  0.1689 -0.1364 -0.3788
 6241SOL     OW30181   0.785   3.670   1.087  0.2038 -0.5759  0.3359
 6241SOL    HW130182   0.695   3.700   1.077  0.8644  0.6778 -1.9518
 6241SOL    HW230183   0.836   3.741   1.047  1.8711 -1.9987 -0.0862
 6242SOL     OW30184   2.023   0.078   5.722 -0.0558 -0.1246 -0.4035
 6242SOL    HW130185   1.963   0.153   5.719  1.0090  0.7196 -0.1234
 6242SOL    HW230186   2.101   0.115   5.761  0.2964 -0.7672 -0.4969
 6243SOL     OW30187   1.597   4.247  17.289 -0.9142  0.9699 -0.1862
 6243SOL    HW130188   1.647   4.219  17.366 -0.6010  1.5688 -0.1766
 6243SOL    HW230189   1.634   4.330  17.262  0.1756  1.4269  2.7264
 6244SOL     OW30190   2.006   3.245   5.699  0.5422  0.5730  0.2805
 6244SOL    HW130191   1.911   3.236   5.702  0.4476  0.9946 -1.4573
 6244SOL    HW230192   2.029   3.153   5.707 -1.2487  0.1927  1.1071
 6245SOL     OW30193   0.032   4.139   8.633  0.5153  0.0924 -0.5263
 6245SOL    HW130194   4.718   4.203   8.695 -1.1978  0.2734 -1.6789
 6245SOL    HW230195   4.680   4.083   8.609 -0.1714  1.1123 -0.8458
 6246SOL     OW30196   3.389   2.961   4.518  0.2833  0.1764 -0.0073
 6246SOL    HW130197   3.404   3.044   4.473 -0.1875  0.0369 -0.4288
 6246SOL    HW230198   3.466   2.961   4.575  0.7232  0.2662 -0.6036
 6247SOL     OW30199   3.385   3.832  12.789  0.1194 -0.6298 -0.2026
 6247SOL    HW130200   3.334   3.913  12.791  2.1986  0.5969  1.9636
 6247SOL    HW230201   3.449   3.858  12.855 -3.2455 -0.1996  2.8802
 6248SOL     OW30202   2.128   1.250   2.780 -0.2442 -0.6735 -0.2673
 6248SOL    HW130203   2.139   1.249   2.685 -1.9433  0.3537 -0.4721
 6248SOL    HW230204   2.047   1.300   2.784  0.2136  0.0593 -0.0274
 6249SOL     OW30205   0.391   4.258  15.791  0.0810  0.2624  0.0250
 6249SOL    HW130206   0.384   4.192  15.860 -0.0573 -0.1007 -0.3409
 6249SOL    HW230207   0.302   4.292  15.777 -0.1149 -0.5773 -0.7645
 6250SOL     OW30208   2.553   2.714  12.821  0.0811  0.0333 -0.1142
 6250SOL    HW130209   2.461   2.705  12.845  0.2327  0.4108  0.5986
 6250SOL    HW230210   2.594   2.630  12.840 -2.9979 -1.8687 -1.9052
 6251SOL     OW30211   0.636   4.483   5.921  0.8656 -0.3322 -0.2760
 6251SOL    HW130212   0.684   4.422   5.866  1.8850  0.7800 -0.6195
 6251SOL    HW230213   0.675   4.565   5.891 -1.2068  0.4467 -0.8762
 6252SOL     OW30214   1.626   2.729  15.975  0.0312 -0.1353 -0.4538
 6252SOL    HW130215   1.619   2.756  16.067 -0.4204 -0.0944 -0.4972
 6252SOL    HW230216   1.590   2.811  15.941  0.1170 -0.2075 -0.7182
 6253SOL     OW30217   4.233   1.770   9.818  0.2703 -0.6241 -0.1700
 6253SOL    HW130218   4.299   1.836   9.797 -0.5686 -0.0180 -0.8402
 6253SOL    HW230219   4.199   1.805   9.900  0.8155  2.1705 -1.1476
 6254SOL     OW30220   3.640   2.629   4.521  0.0174  0.0552  0.4255
 6254SOL    HW130221   3.608   2.633   4.431  1.6815  0.9734 -0.1281
 6254SOL    HW230222   3.657   2.535   4.530  0.1014 -0.0445 -0.7762
 6255SOL     OW30223   4.345   1.345   7.740  0.5948 -0.2021 -0.4603
 6255SOL    HW130224   4.296   1.410   7.790  0.5902  0.2158 -1.0034
 6255SOL    HW230225   4.377   1.291   7.812 -0.2264 -2.6928 -1.9646
 6256SOL     OW30226   4.421   3.710   5.634 -0.2439 -0.1253 -0.1470
 6256SOL    HW130227   4.361   3.677   5.701 -0.1136  1.3596  0.6926
 6256SOL    HW230228   4.450   3.627   5.596 -3.2927 -0.3816 -1.8845
 6257SOL     OW30229   2.860   1.374  11.895 -0.3930  0.0178 -0.3622
 6257SOL    HW130230   2.789   1.390  11.833 -2.2749 -0.2109  1.7510
 6257SOL    HW230231   2.818   1.399  11.977  2.5234 -1.5402  1.6202
 6258SOL     OW30232   2.965   1.594   4.238  0.1467 -0.0444 -0.1043
 6258SOL    HW130233   3.056   1.604   4.265 -0.0899  0.4586  0.5149
 6258SOL    HW230234   2.968   1.643   4.155  0.3545  1.3096  0.6988
 6259SOL     OW30235   0.485   0.018   7.290  0.0388 -0.1479  0.1282
 6259SOL    HW130236   0.416   4.674   7.277 -1.1743  0.7556  2.0277
 6259SOL    HW230237   0.529   0.020   7.206  2.1613 -0.8757  1.2338
 6260SOL     OW30238   4.108   4.084  17.089  0.4622 -0.1901 -0.6698
 6260SOL    HW130239   4.025   4.041  17.111  0.0854 -0.2893 -2.2671
 6260SOL    HW230240   4.163   4.070  17.165 -2.5721  0.0550  1.5724
 6261SOL     OW30241   0.563   0.354  12.275  0.6495  0.6891  0.0709
 6261SOL    HW130242   0.548   0.313  12.190 -1.5993 -0.7601  1.1871
 6261SOL    HW230243   0.596   0.282  12.329 -0.3267  0.8184  0.8348
 6262SOL     OW30244   1.259   2.738   6.252 -0.0044 -0.4656  0.6848
 6262SOL    HW130245   1.174   2.698   6.272 -1.1092  1.4763 -0.0550
 6262SOL    HW230246   1.325   2.669   6.254  0.3813 -0.1253 -0.4029
 6263SOL     OW30247   4.079   0.361   8.944 -0.0600  0.5158 -0.1246
 6263SOL    HW130248   4.101   0.275   8.908  0.8837 -0.0026  1.6784
 6263SOL    HW230249   4.157   0.392   8.989  0.1859 -0.4084  0.0833
 6264SOL     OW30250   4.278   2.367   8.917  0.5385  0.2461 -0.0289
 6264SOL    HW130251   4.363   2.355   8.876 -0.2083 -3.6635 -0.4554
 6264SOL    HW230252   4.270   2.273   8.934  3.1905  0.2654  1.3819
 6265SOL     OW30253   4.485   4.568   3.788 -0.7083  0.6783 -0.4039
 6265SOL    HW130254   4.398   4.540   3.758  0.1004 -2.0474 -0.2377
 6265SOL    HW230255   4.528   4.483   3.795  0.4838  1.2985 -0.2216
 6266SOL     OW30256   1.818   2.839   0.771  0.3102  0.3366  0.1389
 6266SOL    HW130257   1.762   2.785   0.827 -0.4612  0.5959 -0.3854
 6266SOL    HW230258   1.780   2.803   0.691 -0.7123  1.9601 -0.0945
 6267SOL     OW30259   4.308   0.525  14.578  0.2126  0.1905  0.3321
 6267SOL    HW130260   4.338   0.603  14.530 -0.7073  0.0864 -0.4150
 6267SOL    HW230261   4.303   0.461  14.508  2.4103 -1.5676  1.7846
 6268SOL     OW30262   3.981   0.638  14.685 -0.5451 -0.3786 -0.5717
 6268SOL    HW130263   4.000   0.712  14.742 -2.0274 -1.1963  0.9773
 6268SOL    HW230264   3.923   0.585  14.740 -0.4580  0.5920  0.4512
 6269SOL     OW30265   4.403   2.209   7.496  0.3196 -0.2662  0.4668
 6269SOL    HW130266   4.456   2.137   7.462 -1.8225 -1.4392 -0.3604
 6269SOL    HW230267   4.457   2.247   7.566 -1.2798  0.0159  1.5289
 6270SOL     OW30268   3.593   4.179   5.278 -0.3516 -0.2460  0.0476
 6270SOL    HW130269   3.552   4.093   5.272 -0.6074 -0.1291  0.1201
 6270SOL    HW230270   3.582   4.202   5.371 -3.4678  1.1511 -0.6653
 6271SOL     OW30271   3.443   2.048   2.850 -0.5743  0.4067  0.0115
 6271SOL    HW130272   3.459   2.084   2.937 -1.2017 -1.1016  0.7610
 6271SOL    HW230273   3.465   1.956   2.867  1.2208  0.2968 -3.0400
 6272SOL     OW30274   4.362   2.481  11.784  0.1845  0.2056 -0.5299
 6272SOL    HW130275   4.304   2.408  11.803 -0.1851  0.2946 -1.3253
 6272SOL    HW230276   4.401   2.446  11.704  1.6766  0.2235  0.1888
 6273SOL     OW30277   0.281   4.049   4.347 -0.0944  0.2036  0.3020
 6273SOL    HW130278   0.300   4.122   4.288 -0.0572  0.4486  0.6175
 6273SOL    HW230279   0.200   4.075   4.391  0.0773  0.4644  0.4648
 6274SOL     OW30280   3.236   1.861   9.708  0.0739  0.6053  1.1495
 6274SOL    HW130281   3.147   1.895   9.696  0.4507  1.3046  0.2916
 6274SOL    HW230282   3.249   1.807   9.630 -2.0028  1.4887  0.1839
 6275SOL     OW30283   0.884   4.062   8.649 -0.2095  0.1819  0.1078
 6275SOL    HW130284   0.884   4.141   8.704  1.2998  0.0444  0.2878
 6275SOL    HW230285   0.826   4.005   8.700 -1.7362  0.3762 -1.4126
 6276SOL     OW30286   3.160   3.995   4.838  0.3131  0.2078  0.1049
 6276SOL    HW130287   3.109   3.945   4.901 -0.4749  0.5158 -0.2998
 6276SOL    HW230288   3.175   4.072   4.894  1.3632  0.7714 -0.9550
 6277SOL     OW30289   0.331   4.320   5.336  0.5363  0.2053  0.3155
 6277SOL    HW130290   0.263   4.357   5.393  0.3252  0.1968  0.0679
 6277SOL    HW230291   0.317   4.226   5.344 -1.2068  0.4278 -0.0758
 6278SOL     OW30292   0.025   1.691   0.863  0.7118 -0.1369 -0.0122
 6278SOL    HW130293   4.708   1.657   0.944 -0.2060 -1.9475 -1.1980
 6278SOL    HW230294   0.001   1.623   0.799  0.4261  0.0506 -0.1080
 6279SOL     OW30295   1.596   0.696   2.425 -0.6166 -0.2174  0.1717
 6279SOL    HW130296   1.655   0.664   2.493  0.1649 -0.3835 -0.5872
 6279SOL    HW230297   1.647   0.775   2.402  1.0976 -1.2749  0.3363
 6280SOL     OW30298   1.080   4.506   4.719 -0.3022 -0.6016  0.2107
 6280SOL    HW130299   1.070   4.503   4.814 -0.1827 -1.1041  0.2096
 6280SOL    HW230300   1.036   4.586   4.691  0.8802 -0.4209 -1.1378
 6281SOL     OW30301   3.969   2.034   5.412 -0.4159  0.1126  0.0576
 6281SOL    HW130302   3.972   2.061   5.504 -0.7736  0.6110 -0.0825
 6281SOL    HW230303   3.907   2.090   5.367 -0.6617  0.9631  1.4496
 6282SOL     OW30304   4.025   2.865  15.235 -0.4174  0.2029  0.3360
 6282SOL    HW130305   4.053   2.943  15.188 -0.1716 -0.2444 -0.2615
 6282SOL    HW230306   4.042   2.906  15.320 -1.1022  1.7695 -0.2868
 6283SOL     OW30307   2.401   2.258   0.492  0.4605 -0.1942  0.4169
 6283SOL    HW130308   2.341   2.208   0.546  2.0863 -1.3457  1.1659
 6283SOL    HW230309   2.451   2.187   0.452 -0.2496 -0.2317 -0.4119
 6284SOL     OW30310   2.538   2.784  16.070 -0.0286  0.5209 -0.3281
 6284SOL    HW130311   2.496   2.868  16.055  2.3426  1.0831 -3.7211
 6284SOL    HW230312   2.609   2.816  16.126 -1.8655 -0.2380  2.4148
 6285SOL     OW30313   0.323   3.084   1.114  0.4758 -0.0280  0.5039
 6285SOL    HW130314   0.308   3.036   1.032 -0.4417 -0.0483  0.6912
 6285SOL    HW230315   0.416   3.101   1.099  0.4791  1.2031  2.0055
 6286SOL     OW30316   2.684   0.236  15.729 -0.2788  0.3451 -0.3294
 6286SOL    HW130317   2.636   0.163  15.768 -0.1003  0.7364  0.6344
 6286SOL    HW230318   2.727   0.279  15.803 -0.1521  0.7486 -0.6372
 6287SOL     OW30319   3.109   3.597   3.924 -0.3881 -0.0550  0.3422
 6287SOL    HW130320   3.070   3.583   3.837 -0.8282 -2.3985  0.9287
 6287SOL    HW230321   3.050   3.555   3.986  0.5416 -1.1418  0.4714
 6288SOL     OW30322   3.934   1.882  11.643  0.5119 -0.3380 -0.5371
 6288SOL    HW130323   3.855   1.924  11.678 -0.0531  0.1958 -2.4897
 6288SOL    HW230324   3.925   1.893  11.549 -1.6767  1.0845 -0.1527
 6289SOL     OW30325   3.183   4.222   9.473 -0.4545  0.7433 -0.5840
 6289SOL    HW130326   3.224   4.177   9.399 -1.1792  0.9121 -1.0821
 6289SOL    HW230327   3.250   4.199   9.537 -0.9622 -0.6094 -0.5412
 6290SOL     OW30328   2.802   4.452   8.243 -0.1821 -0.3255 -0.3757
 6290SOL    HW130329   2.740   4.380   8.258 -0.6612  0.0204 -0.7339
 6290SOL    HW230330   2.750   4.528   8.218 -0.4153  0.1546  1.5886
 6291SOL     OW30331   2.414   0.557   3.067  0.2910 -0.5111  0.1487
 6291SOL    HW130332   2.464   0.570   2.986  2.1898 -1.1121  1.2249
 6291SOL    HW230333   2.478   0.514   3.123  0.1995 -2.9772 -1.6393
 6292SOL     OW30334   3.206   1.970   2.342  0.0063 -0.3144  0.0760
 6292SOL    HW130335   3.243   1.958   2.255  2.6498  0.1629  1.1450
 6292SOL    HW230336   3.255   1.914   2.402 -1.1401  1.1809  2.4219
 6293SOL     OW30337   1.770   0.489   8.319  0.1579  0.4562  0.2733
 6293SOL    HW130338   1.840   0.507   8.382  0.1218 -2.3113  1.1317
 6293SOL    HW230339   1.733   0.577   8.320  1.6083  1.1003 -2.3223
 6294SOL     OW30340   0.579   1.799  11.401  0.4904 -0.4899  0.2202
 6294SOL    HW130341   0.659   1.773  11.447 -0.4058 -3.3432  0.1376
 6294SOL    HW230342   0.580   1.729  11.335  1.6764  0.1497 -0.4487
 6295SOL     OW30343   0.808   3.802  15.737 -0.0851 -0.4772  0.4923
 6295SOL    HW130344   0.760   3.733  15.783  0.0450 -1.4539 -0.8519
 6295SOL    HW230345   0.808   3.776  15.645 -1.8481  1.6345 -0.1286
 6296SOL     OW30346   3.299   3.699   9.777 -0.0352  0.0636 -0.0714
 6296SOL    HW130347   3.315   3.788   9.745 -2.1839  0.3359 -0.3467
 6296SOL    HW230348   3.385   3.672   9.809 -0.3538  0.7752  1.3699
 6297SOL     OW30349   4.575   3.150  15.879  0.4768  0.1837 -0.1309
 6297SOL    HW130350   4.605   3.125  15.791  0.0269 -0.5089 -0.0847
 6297SOL    HW230351   4.607   3.240  15.886  2.2369 -0.4687  0.1479
 6298SOL     OW30352   2.690   0.201   2.498 -0.1978  0.0110 -0.2242
 6298SOL    HW130353   2.612   0.200   2.444 -1.7222  0.4526  1.9718
 6298SOL    HW230354   2.673   0.135   2.565 -1.7236  1.6866  1.0506
 6299SOL     OW30355   1.997   2.595  15.388 -0.3574  0.0635  0.2283
 6299SOL    HW130356   2.045   2.545  15.322 -0.2347 -0.4444  0.7021
 6299SOL    HW230357   2.052   2.572  15.463 -1.2567 -1.2112  0.4991
 6300SOL     OW30358   3.819   3.387   6.541  0.4087 -0.0875  0.2100
 6300SOL    HW130359   3.878   3.377   6.615 -0.7189 -1.0323  0.9922
 6300SOL    HW230360   3.745   3.340   6.580  0.3812  1.5661  2.1547
 6301SOL     OW30361   3.551   1.782   8.053 -0.5428  0.3546  0.4325
 6301SOL    HW130362   3.632   1.741   8.022 -1.4095 -1.2033  0.1858
 6301SOL    HW230363   3.579   1.837   8.126 -0.9978 -0.0511  0.9146
 6302SOL     OW30364   4.549   0.171   3.450 -0.0824  0.3435  0.3179
 6302SOL    HW130365   4.467   0.171   3.499 -0.8288 -1.8646 -0.9148
 6302SOL    HW230366   4.573   0.264   3.447  1.5121 -0.0603  0.4981
 6303SOL     OW30367   1.016   0.343  14.117 -0.3630 -0.0502 -0.3703
 6303SOL    HW130368   1.033   0.257  14.154 -2.1386 -0.2952 -0.1592
 6303SOL    HW230369   0.925   0.329  14.090 -0.1071 -2.9403  0.2903
 6304SOL     OW30370   3.406   4.040  17.285 -0.0132  0.3594 -0.5427
 6304SOL    HW130371   3.460   3.962  17.282 -0.0270  0.3015  0.7684
 6304SOL    HW230372   3.473   4.108  17.276  1.4877 -1.1515 -0.6270
 6305SOL     OW30373   2.119   2.276   9.301 -0.4324 -0.0156 -0.4405
 6305SOL    HW130374   2.128   2.315   9.214 -2.3340  0.6532 -0.3330
 6305SOL    HW230375   2.085   2.189   9.285  0.8905 -0.6809  0.3350
 6306SOL     OW30376   0.015   2.981   6.663 -0.3288 -0.2309 -0.2355
 6306SOL    HW130377   0.039   2.936   6.743 -0.8582 -1.2993 -0.6811
 6306SOL    HW230378   4.656   2.937   6.636 -0.6234 -1.0440  2.0541
 6307SOL     OW30379   4.186   1.253   8.896  0.2108 -0.3282 -0.1576
 6307SOL    HW130380   4.226   1.336   8.922 -2.9419  1.1253  0.0786
 6307SOL    HW230381   4.263   1.198   8.884  0.4859 -0.1928  1.0454
 6308SOL     OW30382   4.515   0.613  11.107  0.1628  0.2473 -0.2380
 6308SOL    HW130383   4.508   0.701  11.071  1.3746  0.3699 -0.1680
 6308SOL    HW230384   4.476   0.561  11.036  0.3970 -0.4011  0.1122
 6309SOL     OW30385   4.632   3.820   6.171  0.3003  0.1649  0.1395
 6309SOL    HW130386   4.571   3.803   6.099  0.6624 -0.3904 -0.0355
 6309SOL    HW230387   4.572   3.840   6.243  2.2498 -0.5950  1.9554
 6310SOL     OW30388   1.167   0.918   7.632  0.0079 -0.0882 -0.6463
 6310SOL    HW130389   1.191   0.872   7.551 -1.4805  1.5161 -2.0229
 6310SOL    HW230390   1.132   0.854   7.693 -1.0254  0.1443 -0.9826
 6311SOL     OW30391   0.534   1.502   8.971 -0.0952  0.0531  0.0642
 6311SOL    HW130392   0.566   1.443   9.040 -0.4211 -1.4992 -1.1173
 6311SOL    HW230393   0.532   1.591   9.005  0.9555 -0.2836  1.0101
 6312SOL     OW30394   0.991   2.439   9.301  0.1328  0.1449 -0.1687
 6312SOL    HW130395   0.984   2.387   9.222 -0.0366 -0.8517  0.5040
 6312SOL    HW230396   0.910   2.411   9.345  0.1404  0.3499 -0.0222
 6313SOL     OW30397   1.153   2.351   6.409  0.3431 -0.5156 -0.1387
 6313SOL    HW130398   1.126   2.415   6.475  0.1754 -2.6704  1.9306
 6313SOL    HW230399   1.210   2.393   6.345  0.7993  2.6756  2.3687
 6314SOL     OW30400   2.017   3.599   7.048 -0.0413  0.5224 -0.5872
 6314SOL    HW130401   2.015   3.560   7.136 -2.5665  1.9351 -0.0162
 6314SOL    HW230402   1.950   3.544   7.006  0.8090 -2.7666  2.3087
 6315SOL     OW30403   2.310   1.469  10.162 -0.0407 -0.0470  0.3118
 6315SOL    HW130404   2.357   1.543  10.123 -0.7858  0.1493 -0.2096
 6315SOL    HW230405   2.377   1.401  10.153  0.9540  0.9755 -0.0135
 6316SOL     OW30406   4.495   4.124   4.215  0.4874 -0.4216 -0.7809
 6316SOL    HW130407   4.527   4.125   4.305  1.1829 -1.9877 -1.0100
 6316SOL    HW230408   4.451   4.040   4.201  1.4721 -0.6311 -2.5248
 6317SOL     OW30409   1.136   2.274   8.029  0.3284 -0.5864 -0.2136
 6317SOL    HW130410   1.109   2.185   8.048 -0.1875 -0.7321 -1.6092
 6317SOL    HW230411   1.090   2.289   7.945 -0.0223 -2.6485 -0.3762
 6318SOL     OW30412   4.107   2.583   8.865 -0.0484 -0.2700  0.9715
 6318SOL    HW130413   4.172   2.650   8.887  0.6968 -0.0104 -2.0506
 6318SOL    HW230414   4.158   2.506   8.889  1.1377 -0.3980 -1.9770
 6319SOL     OW30415   3.201   1.578   8.993 -0.5402  0.4008  0.5150
 6319SOL    HW130416   3.253   1.501   9.015 -1.2280  0.2843  1.7090
 6319SOL    HW230417   3.174   1.564   8.902 -1.6975  1.6691  0.6607
 6320SOL     OW30418   2.225   3.815   3.721 -0.3003 -0.4299 -0.0199
 6320SOL    HW130419   2.246   3.906   3.738 -4.3888  0.1873  1.7362
 6320SOL    HW230420   2.309   3.790   3.682 -1.5420 -1.2882 -2.1640
 6321SOL     OW30421   1.490   1.157   6.726  0.3215 -0.0867  0.1371
 6321SOL    HW130422   1.412   1.209   6.706  0.8410  1.9383  3.3761
 6321SOL    HW230423   1.544   1.167   6.647 -2.1449 -0.9117 -1.6369
 6322SOL     OW30424   0.775   2.100   4.219  0.1387  0.2510  0.3960
 6322SOL    HW130425   0.689   2.137   4.197  0.8240  0.5346 -1.8163
 6322SOL    HW230426   0.795   2.131   4.307  0.9641 -1.6153  0.8577
 6323SOL     OW30427   3.640   2.112   8.681 -0.3006  0.0451 -0.1144
 6323SOL    HW130428   3.634   2.204   8.656  1.4839  0.0723 -0.4725
 6323SOL    HW230429   3.735   2.100   8.685 -0.4785 -1.2160  0.3044
 6324SOL     OW30430   4.163   3.806   2.322 -0.5770 -0.0130 -0.2674
 6324SOL    HW130431   4.245   3.776   2.284 -0.0947  3.6984 -2.1702
 6324SOL    HW230432   4.132   3.725   2.363 -2.8918  0.1537 -1.6863
 6325SOL     OW30433   2.853   2.370  14.972  0.0088  0.2958  0.0580
 6325SOL    HW130434   2.811   2.405  15.051 -1.3884  0.5696 -0.7915
 6325SOL    HW230435   2.934   2.353  15.019  0.5716  1.4176 -0.5075
 6326SOL     OW30436   1.929   4.136  16.812 -0.1060  0.0571 -0.4572
 6326SOL    HW130437   1.872   4.210  16.832 -0.1961 -0.6337  1.8210
 6326SOL    HW230438   1.869   4.063  16.825 -0.1351  0.2292  0.3481
 6327SOL     OW30439   3.173   0.391   8.328  0.7339 -0.6399 -0.3520
 6327SOL    HW130440   3.089   0.344   8.327  0.7939 -0.7621  1.0831
 6327SOL    HW230441   3.137   0.480   8.331  0.3947 -0.8180  1.0003
 6328SOL     OW30442   3.002   1.825   8.647 -0.0259 -0.5478  0.3488
 6328SOL    HW130443   3.063   1.822   8.574 -1.3475  0.4356 -0.7934
 6328SOL    HW230444   3.033   1.755   8.704  1.3504  0.1932  0.5136
 6329SOL     OW30445   1.148   1.920  15.660 -0.1477 -0.5784  0.0748
 6329SOL    HW130446   1.185   1.846  15.611  0.5707  1.3210 -2.2741
 6329SOL    HW230447   1.227   1.948  15.705 -0.1128 -0.6717  0.0709
 6330SOL     OW30448   3.121   2.992   0.922 -0.1975  0.1148  0.0267
 6330SOL    HW130449   3.061   3.013   0.994 -1.3605  0.7712 -1.1318
 6330SOL    HW230450   3.162   3.073   0.892 -0.7391 -0.2352 -1.6885
 6331SOL     OW30451   4.529   0.694   2.684  0.0192  0.0644  0.2401
 6331SOL    HW130452   4.510   0.610   2.726 -1.6080  0.9627  1.3069
 6331SOL    HW230453   4.441   0.732   2.681 -0.1615 -0.5832 -3.4716
 6332SOL     OW30454   0.256   0.460   9.672  0.4030 -0.8156  0.1796
 6332SOL    HW130455   0.205   0.388   9.708 -0.1047 -0.4147  0.2700
 6332SOL    HW230456   0.200   0.486   9.598 -0.3515 -0.4660  0.8730
 6333SOL     OW30457   2.351   4.516   2.977 -0.9167 -0.3643 -0.3238
 6333SOL    HW130458   2.282   4.582   2.972  0.0823  0.7946  1.3663
 6333SOL    HW230459   2.309   4.460   3.041 -0.3969 -0.6297 -0.2120
 6334SOL     OW30460   3.081   1.076  15.172  0.3824 -0.5145  0.1530
 6334SOL    HW130461   3.065   1.133  15.097  1.6475  2.3137  2.0328
 6334SOL    HW230462   3.063   1.135  15.245  0.5452 -0.5121  0.1904
 6335SOL     OW30463   3.645   1.396   9.218 -0.1266 -0.5465  0.0024
 6335SOL    HW130464   3.682   1.315   9.252  0.6506  0.5118  1.6639
 6335SOL    HW230465   3.720   1.455   9.207  0.6708 -1.5452  0.1271
 6336SOL     OW30466   0.634   2.126   4.893 -0.1289 -0.2557 -0.5556
 6336SOL    HW130467   0.614   2.064   4.822 -0.0164 -2.6813  1.5292
 6336SOL    HW230468   0.718   2.162   4.864  0.0300 -0.0950  0.1175
 6337SOL     OW30469   3.452   3.158  16.509  0.4458 -0.6906 -0.6720
 6337SOL    HW130470   3.413   3.085  16.462 -0.5904 -0.4687 -0.1512
 6337SOL    HW230471   3.373   3.207  16.531  0.5322  0.1522 -2.2611
 6338SOL     OW30472   1.408   4.185   3.005 -0.1093  0.0529  0.4613
 6338SOL    HW130473   1.338   4.151   2.949  0.5731 -1.7788  0.7323
 6338SOL    HW230474   1.490   4.182   2.956 -0.6205  0.6463 -0.4360
 6339SOL     OW30475   4.547   0.701  11.791 -0.1654 -0.1296 -0.4116
 6339SOL    HW130476   4.471   0.760  11.793  0.8700  1.2096 -0.6941
 6339SOL    HW230477   4.571   0.720  11.881 -3.6639  0.7969  0.3521
 6340SOL     OW30478   4.224   1.679   4.741 -0.6307  0.2564 -0.1113
 6340SOL    HW130479   4.188   1.591   4.750  0.9902 -0.2221  1.9091
 6340SOL    HW230480   4.270   1.681   4.825 -0.1232  0.5794 -0.3929
 6341SOL     OW30481   2.527   1.475   3.098 -0.0097 -0.1189  0.4028
 6341SOL    HW130482   2.610   1.468   3.051 -0.7021  0.7185 -0.9446
 6341SOL    HW230483   2.486   1.554   3.062 -0.9947 -1.0926 -0.6059
 6342SOL     OW30484   4.162   0.161   6.302  0.2753 -0.2454  0.1261
 6342SOL    HW130485   4.116   0.212   6.368 -2.6396 -0.2497 -1.9260
 6342SOL    HW230486   4.251   0.169   6.337  1.0731 -0.8544 -1.7989
 6343SOL     OW30487   0.302   1.921  17.504  0.7265 -0.7199  0.3488
 6343SOL    HW130488   0.328   1.995  17.558  1.2670  0.4674 -1.5261
 6343SOL    HW230489   0.277   1.969  17.425 -2.9406 -0.8650  1.4328
 6344SOL     OW30490   0.069   1.213   3.410  0.0273  0.0085 -0.1771
 6344SOL    HW130491   0.082   1.191   3.502 -2.1595  1.3577  0.4586
 6344SOL    HW230492   4.695   1.227   3.410  0.4855  3.0598 -2.9606
 6345SOL     OW30493   3.092   3.885   6.997  0.0763 -0.1930  0.0508
 6345SOL    HW130494   3.037   3.810   6.973  2.5242 -2.0771  0.3885
 6345SOL    HW230495   3.184   3.860   6.989  0.4977  1.1951  0.7097
 6346SOL     OW30496   3.625   1.771   6.785  0.2740 -0.4060  0.1870
 6346SOL    HW130497   3.597   1.679   6.783 -0.2253 -0.2085 -2.3397
 6346SOL    HW230498   3.684   1.772   6.860 -0.3812 -0.2643  0.7018
 6347SOL     OW30499   4.124   0.302   4.949 -0.0055  0.2351 -0.2805
 6347SOL    HW130500   4.109   0.277   5.040  0.9275 -1.8103 -0.6861
 6347SOL    HW230501   4.056   0.251   4.904  0.9267 -1.4564  0.2308
 6348SOL     OW30502   4.236   0.018   7.390 -0.1971 -0.1926  0.6496
 6348SOL    HW130503   4.239   4.676   7.319 -1.3093  1.6129 -0.9837
 6348SOL    HW230504   4.329   0.043   7.394 -0.5475  1.3558 -1.3142
 6349SOL     OW30505   0.988   3.241   0.756 -0.5432 -0.5289  0.5029
 6349SOL    HW130506   0.964   3.291   0.834  0.9470 -1.4026  1.5329
 6349SOL    HW230507   0.919   3.265   0.694  0.4440 -1.5310 -0.9789
 6350SOL     OW30508   3.061   1.394   9.214 -0.4111 -0.0107  0.3015
 6350SOL    HW130509   3.143   1.347   9.228  1.3549  2.5781 -1.2808
 6350SOL    HW230510   3.009   1.341   9.274  1.3340 -0.0842  1.7666
 6351SOL     OW30511   0.738   1.123   7.846 -0.0948 -0.0051  0.0246
 6351SOL    HW130512   0.827   1.117   7.811  0.3553  2.0600  0.7801
 6351SOL    HW230513   0.699   1.174   7.776 -1.2709  0.5409  1.0702
 6352SOL     OW30514   2.510   2.602  14.720  0.1030  0.5359 -0.1746
 6352SOL    HW130515   2.475   2.686  14.748  0.7017  0.4333  0.8560
 6352SOL    HW230516   2.565   2.577  14.794  0.2758  1.2997 -0.0461
 6353SOL     OW30517   0.779   2.058   2.656 -0.5732  0.0722  0.4289
 6353SOL    HW130518   0.745   2.146   2.670 -1.6305 -0.3858  0.6899
 6353SOL    HW230519   0.817   2.045   2.743 -1.2347  0.5284  0.7788
 6354SOL     OW30520   1.712   4.515   1.028  0.3446  0.5986 -0.0710
 6354SOL    HW130521   1.742   4.426   1.009 -3.2355 -0.6490  0.1647
 6354SOL    HW230522   1.777   4.563   0.977  1.1081 -0.8695 -0.4786
 6355SOL     OW30523   2.825   1.574   8.805  0.2290 -0.8289 -0.1189
 6355SOL    HW130524   2.752   1.636   8.812 -0.6390 -1.7369 -1.0402
 6355SOL    HW230525   2.773   1.493   8.802 -0.8299 -0.1066 -1.6921
 6356SOL     OW30526   3.691   1.674  12.951 -0.6197 -0.4997  0.2143
 6356SOL    HW130527   3.628   1.615  12.993 -1.6803  0.1498 -0.4531
 6356SOL    HW230528   3.656   1.672  12.862  0.6856  0.1947 -0.3105
 6357SOL     OW30529   2.883   0.583   7.164 -0.1377  0.3559 -0.2834
 6357SOL    HW130530   2.969   0.602   7.200 -0.0693  0.6867 -0.6201
 6357SOL    HW230531   2.903   0.539   7.081  1.3777  1.7037 -0.6275
 6358SOL     OW30532   0.425   2.598   5.975 -0.3190  0.2853  0.4691
 6358SOL    HW130533   0.398   2.677   5.930 -1.5274 -0.2193  0.3087
 6358SOL    HW230534   0.370   2.610   6.052  0.0721 -1.6746  1.0695
 6359SOL     OW30535   0.676   4.545   4.590  0.2499  0.4151  0.4532
 6359SOL    HW130536   0.636   4.619   4.544  1.8626  1.0521  0.0555
 6359SOL    HW230537   0.703   4.495   4.513  0.3005  0.6550  0.3144
 6360SOL     OW30538   0.290   2.038   4.324  0.0234  0.0255 -0.0030
 6360SOL    HW130539   0.323   2.035   4.234 -0.4524 -3.1095 -0.0916
 6360SOL    HW230540   0.232   1.962   4.321 -2.2929  1.9071 -2.1258
 6361SOL     OW30541   4.333   0.948   0.777  0.2329  0.5412  0.2303
 6361SOL    HW130542   4.291   1.005   0.842 -1.8106 -0.4540 -0.1986
 6361SOL    HW230543   4.418   0.991   0.776  0.5788 -0.1230  0.6971
 6362SOL     OW30544   0.942   0.009  12.733  0.0350  0.1938  0.4695
 6362SOL    HW130545   0.944   0.022  12.638 -1.5850  1.3745  0.6120
 6362SOL    HW230546   0.848   0.006  12.749 -0.0936  1.2435 -0.1251
 6363SOL     OW30547   1.823   0.689  12.688  0.3904  1.0013 -0.2361
 6363SOL    HW130548   1.764   0.711  12.760 -0.2352  0.1318 -0.4905
 6363SOL    HW230549   1.859   0.605  12.718  0.0491  1.0321  0.2613
 6364SOL     OW30550   0.480   3.361   2.256 -0.6581  0.3184 -0.1538
 6364SOL    HW130551   0.481   3.457   2.257  1.4758  0.2654  2.7114
 6364SOL    HW230552   0.420   3.346   2.329 -0.3661  1.1723  0.2565
 6365SOL     OW30553   2.467   4.196   3.393  0.4007 -0.5208  0.0547
 6365SOL    HW130554   2.416   4.215   3.314  0.0936  2.3461  0.9428
 6365SOL    HW230555   2.536   4.261   3.380  1.8173 -2.3145 -1.4380
 6366SOL     OW30556   0.741   3.515   6.956 -0.0598 -0.1776  0.4329
 6366SOL    HW130557   0.729   3.421   6.959 -1.2838  0.0171  1.4503
 6366SOL    HW230558   0.828   3.513   6.997  0.1365 -0.8726 -0.0293
 6367SOL     OW30559   1.952   3.988  13.195 -0.2483 -0.3598  0.0816
 6367SOL    HW130560   1.956   3.951  13.283  0.7954 -0.9401 -0.2102
 6367SOL    HW230561   1.936   3.910  13.142 -0.8368 -0.1347 -0.0784
 6368SOL     OW30562   0.271   2.278   0.643  0.0458 -0.7309 -0.3222
 6368SOL    HW130563   0.230   2.299   0.727 -0.1268  2.7466 -1.2801
 6368SOL    HW230564   0.208   2.233   0.586  1.9622 -1.2555 -2.0272
 6369SOL     OW30565   0.918   1.764   2.102  0.1637 -0.0381 -0.0622
 6369SOL    HW130566   0.903   1.832   2.037 -1.8892  1.1592  1.6603
 6369SOL    HW230567   0.992   1.793   2.155 -1.0997  0.3069  1.4986
 6370SOL     OW30568   0.410   1.468   6.776 -0.5137  0.1731 -0.1449
 6370SOL    HW130569   0.410   1.433   6.866 -0.3250  1.6178  0.4192
 6370SOL    HW230570   0.485   1.527   6.783 -0.9967  1.0761 -2.5789
 6371SOL     OW30571   0.488   1.965   1.363  0.0296  0.8733 -0.1764
 6371SOL    HW130572   0.546   1.905   1.317 -1.7514 -0.7238 -0.3386
 6371SOL    HW230573   0.420   1.912   1.406  0.3384  1.8849  1.5815
 6372SOL     OW30574   0.720   2.147   1.387  0.2566  0.1947  0.2060
 6372SOL    HW130575   0.634   2.119   1.418 -0.4133  1.1434 -0.7765
 6372SOL    HW230576   0.716   2.121   1.295 -0.4436  2.7074 -0.4663
 6373SOL     OW30577   0.086   2.937   5.960 -0.2375  0.4042 -0.5289
 6373SOL    HW130578   0.011   2.983   5.924  0.5953  0.8341 -1.6993
 6373SOL    HW230579   0.065   2.946   6.053  0.5450  0.6502 -0.3738
 6374SOL     OW30580   1.814   3.487   8.706  0.2690  0.0491  0.6785
 6374SOL    HW130581   1.721   3.508   8.717  0.1942  0.3478 -0.5127
 6374SOL    HW230582   1.830   3.528   8.621  0.3304  0.0579  0.6946
 6375SOL     OW30583   3.017   2.034  13.258 -0.0558 -0.2709 -0.2268
 6375SOL    HW130584   2.971   1.975  13.198  3.6079 -2.0191 -1.3507
 6375SOL    HW230585   2.951   2.102  13.265  0.3173  0.0355  0.2990
 6376SOL     OW30586   0.525   0.437   8.330  0.7891 -0.0500  0.1363
 6376SOL    HW130587   0.460   0.374   8.361  2.3958 -1.8255 -0.0217
 6376SOL    HW230588   0.576   0.391   8.263  1.6036  0.1286  0.6288
 6377SOL     OW30589   2.760   1.191  11.597 -0.5461 -0.0206  0.0602
 6377SOL    HW130590   2.766   1.155  11.509  0.0339  0.4784 -0.0979
 6377SOL    HW230591   2.679   1.242  11.594 -0.4690  0.0753 -0.3543
 6378SOL     OW30592   1.600   0.335  14.487  0.6938  0.1943  0.6397
 6378SOL    HW130593   1.591   0.277  14.412 -1.7860  0.1634  0.9577
 6378SOL    HW230594   1.546   0.413  14.481  0.8481  0.3844  1.6539
 6379SOL     OW30595   0.698   2.107   6.500 -0.2044 -0.2259 -0.8268
 6379SOL    HW130596   0.614   2.092   6.456 -1.0491 -0.8551  1.0260
 6379SOL    HW230597   0.668   2.174   6.561  1.6398 -1.5749  1.5180
 6380SOL     OW30598   3.159   3.534   2.909  0.7017  0.2470 -0.0255
 6380SOL    HW130599   3.235   3.510   2.857  0.1428 -1.6974  0.0679
 6380SOL    HW230600   3.084   3.512   2.854  1.1880 -0.5340 -0.3805
 6381SOL     OW30601   1.633   3.889   3.728  0.0228 -0.0837 -0.6515
 6381SOL    HW130602   1.708   3.922   3.679  1.1755 -1.4126  0.2115
 6381SOL    HW230603   1.669   3.806   3.760  0.6075  0.1167 -0.7928
 6382SOL     OW30604   1.130   3.360  10.285 -0.4896  0.4571 -0.1943
 6382SOL    HW130605   1.219   3.342  10.315 -0.7995 -0.5327  0.1213
 6382SOL    HW230606   1.128   3.327  10.195  0.5588 -3.8784  1.4073
 6383SOL     OW30607   2.969   4.289   8.855  0.0083  0.1306 -0.4272
 6383SOL    HW130608   3.012   4.367   8.819  1.5693 -0.7857 -0.5650
 6383SOL    HW230609   2.952   4.236   8.777  0.0088  1.4516 -1.3285
 6384SOL     OW30610   3.765   0.317   4.078  0.3564  0.0681  0.2547
 6384SOL    HW130611   3.721   0.271   4.150 -0.2949  0.4982  0.1386
 6384SOL    HW230612   3.691   0.346   4.025  0.8050 -0.2137 -0.5283
 6385SOL     OW30613   1.306   1.796   4.227 -0.3719 -0.2828  0.4685
 6385SOL    HW130614   1.296   1.869   4.289  1.4222 -0.1695  0.6343
 6385SOL    HW230615   1.325   1.725   4.288  0.8597  0.4988  1.0112
 6386SOL     OW30616   2.731   2.230   0.492  0.3534  0.0125  0.4393
 6386SOL    HW130617   2.762   2.142   0.470 -1.4908 -0.2325 -1.1757
 6386SOL    HW230618   2.741   2.273   0.407 -0.2536  0.6130  0.6765
 6387SOL     OW30619   3.706   4.452  10.438  0.4927 -0.3788  0.6310
 6387SOL    HW130620   3.623   4.470  10.393 -1.5688 -1.9443  3.8397
 6387SOL    HW230621   3.682   4.371  10.483  1.8385 -0.6233  0.9038
 6388SOL     OW30622   1.007   3.574   6.833 -0.1576 -0.3055  0.1731
 6388SOL    HW130623   0.998   3.562   6.927 -0.1079  0.2325  0.2458
 6388SOL    HW230624   0.984   3.666   6.818 -0.2396 -0.6632 -1.8555
 6389SOL     OW30625   1.989   2.357   2.563 -0.0441  0.2991 -0.0800
 6389SOL    HW130626   1.975   2.272   2.520 -0.0158  0.7170 -0.9253
 6389SOL    HW230627   2.032   2.409   2.494 -0.5112  0.3723 -0.3171
 6390SOL     OW30628   3.957   2.910   9.501 -0.1686 -0.1410 -0.1416
 6390SOL    HW130629   3.884   2.886   9.559 -0.3548  1.0966  0.1436
 6390SOL    HW230630   4.026   2.853   9.534 -0.5400 -0.8129 -0.5313
 6391SOL     OW30631   3.105   2.885   8.264  0.1306 -0.6536  0.4537
 6391SOL    HW130632   3.175   2.908   8.325 -0.8297  1.1379  0.8517
 6391SOL    HW230633   3.043   2.835   8.316  0.0414 -0.0685  0.9025
 6392SOL     OW30634   0.860   1.777  16.478  0.7356  0.4826  0.2701
 6392SOL    HW130635   0.851   1.872  16.476 -1.0140  0.2894 -1.0090
 6392SOL    HW230636   0.892   1.762  16.566 -0.6449 -1.2272  0.4803
 6393SOL     OW30637   3.429   1.100   1.000 -0.2397 -0.3090  0.7273
 6393SOL    HW130638   3.402   1.182   0.958  0.1780 -0.7440 -0.3868
 6393SOL    HW230639   3.505   1.134   1.048  2.4729 -2.1873 -2.2310
 6394SOL     OW30640   4.049   0.040   2.518 -1.0106  0.0075 -0.4868
 6394SOL    HW130641   4.070   0.070   2.607 -0.4563  0.7139 -0.8427
 6394SOL    HW230642   4.136   0.046   2.476 -0.5523 -0.3284  0.4158
 6395SOL     OW30643   2.351   0.119   4.716 -0.0003  0.5924 -0.5575
 6395SOL    HW130644   2.436   0.098   4.676  0.5702  1.1981  0.3281
 6395SOL    HW230645   2.366   0.098   4.808 -1.4173 -0.4478 -0.5687
 6396SOL     OW30646   4.630   4.628   9.138  0.2437  0.1296  0.4204
 6396SOL    HW130647   4.716   4.633   9.181  1.3965 -3.3845 -1.4683
 6396SOL    HW230648   4.582   4.680   9.202  0.4685  0.4122  0.3614
 6397SOL     OW30649   3.705   2.692   7.327  0.1343  0.2695  0.2445
 6397SOL    HW130650   3.632   2.631   7.315 -1.2983  2.7927 -3.9577
 6397SOL    HW230651   3.691   2.752   7.253 -2.5297  0.1562  0.6798
 6398SOL     OW30652   3.430   3.618   5.196  0.3373 -0.2500 -0.5981
 6398SOL    HW130653   3.352   3.593   5.147 -0.1939  0.2563 -0.0073
 6398SOL    HW230654   3.423   3.714   5.189 -1.8760 -0.2188  2.0580
 6399SOL     OW30655   3.353   1.727   3.133 -0.2304 -0.5595 -0.3251
 6399SOL    HW130656   3.309   1.806   3.164 -0.8021 -0.8566 -0.3759
 6399SOL    HW230657   3.276   1.670   3.129  0.4591 -1.4899 -0.5003
 6400SOL     OW30658   2.267   2.130   8.067 -0.4098 -0.0223 -0.0466
 6400SOL    HW130659   2.325   2.206   8.074 -2.2784  1.4150 -0.0939
 6400SOL    HW230660   2.253   2.105   8.159 -1.6171  1.8028  0.2726
 6401SOL     OW30661   1.938   4.660   6.780  0.2616  0.1253  0.0613
 6401SOL    HW130662   1.918   4.567   6.792  1.5293 -0.2432 -0.6899
 6401SOL    HW230663   1.997   4.677   6.853 -1.0597  0.9128  0.9295
 6402SOL     OW30664   3.635   1.831   7.367 -0.0495 -0.6935 -1.0106
 6402SOL    HW130665   3.727   1.839   7.340  0.2471 -0.2177  0.1008
 6402SOL    HW230666   3.598   1.903   7.316  2.7201  1.0221 -0.6146
 6403SOL     OW30667   0.072   3.916   3.075  0.6665  0.6819  0.5592
 6403SOL    HW130668   0.064   4.010   3.091 -1.2206  0.1864  2.6428
 6403SOL    HW230669   0.153   3.915   3.023  0.6014  3.3156  0.4156
 6404SOL     OW30670   0.918   1.494   2.327 -0.2540 -0.3870  0.3196
 6404SOL    HW130671   0.834   1.488   2.371 -0.3409 -0.5087  0.1369
 6404SOL    HW230672   0.945   1.402   2.324  1.1575  0.0434 -0.4642
 6405SOL     OW30673   0.413   2.034  13.527 -0.4498  0.5487  0.0329
 6405SOL    HW130674   0.466   2.100  13.483  0.3226 -0.2863 -0.2992
 6405SOL    HW230675   0.487   1.977  13.551  0.0937  0.8041 -1.0358
 6406SOL     OW30676   2.227   3.801  12.631 -0.1287 -0.1923 -0.8162
 6406SOL    HW130677   2.205   3.763  12.546  0.7193  2.4827 -2.2137
 6406SOL    HW230678   2.322   3.803  12.622 -0.1964 -1.3666 -1.8145
 6407SOL     OW30679   3.936   4.675   7.702 -0.3393  0.0291 -0.0200
 6407SOL    HW130680   3.912   4.678   7.795 -1.1047 -0.3693 -0.2085
 6407SOL    HW230681   3.858   4.640   7.659  0.8679  1.1741 -3.1208
 6408SOL     OW30682   2.944   4.249   5.562 -0.5430 -0.0480  0.0106
 6408SOL    HW130683   2.923   4.184   5.629 -1.4265 -0.3002 -0.5147
 6408SOL    HW230684   2.932   4.336   5.601  3.4095  0.4272  0.1659
 6409SOL     OW30685   3.699   1.317   1.758  0.1523  0.3522  0.3224
 6409SOL    HW130686   3.654   1.232   1.768  0.7898 -0.1991 -1.5932
 6409SOL    HW230687   3.774   1.277   1.714 -0.6221 -0.9788  0.1952
 6410SOL     OW30688   3.093   3.654  13.960  0.2559  0.1187 -0.5171
 6410SOL    HW130689   3.088   3.672  14.053 -1.4543  0.1983 -0.6376
 6410SOL    HW230690   3.078   3.737  13.916  0.3028  0.3849 -0.0180
 6411SOL     OW30691   3.323   2.350   5.017  0.0454 -0.5291  0.5687
 6411SOL    HW130692   3.260   2.410   4.979  0.0194 -1.4042 -0.7394
 6411SOL    HW230693   3.374   2.405   5.078  0.7143  2.4456 -2.6768
 6412SOL     OW30694   4.223   4.159   3.057 -0.3868 -0.2822 -0.0316
 6412SOL    HW130695   4.265   4.098   3.118  0.7283  1.5822  1.0744
 6412SOL    HW230696   4.277   4.235   3.079  2.0618 -1.9455 -0.2711
 6413SOL     OW30697   0.572   0.778   3.458  0.5352  0.4247 -0.0708
 6413SOL    HW130698   0.529   0.756   3.376  0.1713 -0.0020  0.2314
 6413SOL    HW230699   0.568   0.697   3.509  0.6206  0.3848 -0.1287
 6414SOL     OW30700   2.680   2.378   0.928  0.1023  0.1720  0.5457
 6414SOL    HW130701   2.626   2.446   0.889 -1.1846 -1.7607 -1.0728
 6414SOL    HW230702   2.658   2.301   0.875  0.9268 -0.3087  0.9022
 6415SOL     OW30703   3.783   3.750  13.898  0.0652 -0.0305  0.2596
 6415SOL    HW130704   3.727   3.733  13.822  0.5014 -1.5942  0.2917
 6415SOL    HW230705   3.850   3.811  13.869 -0.4278 -0.4810 -1.8278
 6416SOL     OW30706   3.457   1.535   4.799  0.1306  0.4511 -0.1578
 6416SOL    HW130707   3.472   1.487   4.880 -0.9563  0.2290 -0.0979
 6416SOL    HW230708   3.494   1.620   4.823 -1.6396  1.7625 -2.0108
 6417SOL     OW30709   1.105   2.765   6.917 -0.1659 -0.1933 -0.1793
 6417SOL    HW130710   1.094   2.852   6.878 -0.1021 -0.8392 -1.6661
 6417SOL    HW230711   1.024   2.732   6.878 -0.6529 -0.2062  0.8391
 6418SOL     OW30712   2.031   4.058   7.887  0.2765  0.0508  0.1557
 6418SOL    HW130713   2.000   3.969   7.872  1.8914 -0.0369 -2.6347
 6418SOL    HW230714   1.986   4.076   7.970  1.4523  0.1070  0.7702
 6419SOL     OW30715   1.553   1.034   9.871 -0.5032  0.3437  0.0570
 6419SOL    HW130716   1.522   1.097   9.935 -3.0588 -0.5541 -0.3070
 6419SOL    HW230717   1.510   1.060   9.790 -0.6906  2.2459  0.7822
 6420SOL     OW30718   4.459   3.885  15.948 -0.3537  0.2278  0.5403
 6420SOL    HW130719   4.555   3.883  15.939 -0.2908  0.8192  1.0607
 6420SOL    HW230720   4.432   3.795  15.969  1.6056 -0.7221 -0.9542
 6421SOL     OW30721   1.574   1.151  15.547  0.3856 -0.1663  0.5077
 6421SOL    HW130722   1.545   1.228  15.596  3.3723 -0.0286  2.0905
 6421SOL    HW230723   1.520   1.081  15.584 -0.0006 -0.0629  0.1376
 6422SOL     OW30724   3.539   1.129  13.400 -0.0325  0.0060 -0.5874
 6422SOL    HW130725   3.484   1.063  13.442  0.8851 -1.7960 -2.2157
 6422SOL    HW230726   3.626   1.091  13.415 -0.2163 -0.3475 -0.4277
 6423SOL     OW30727   2.971   1.591   8.257  0.4827 -0.0634  0.4415
 6423SOL    HW130728   2.952   1.678   8.293  0.1481  0.7995 -1.8450
 6423SOL    HW230729   2.890   1.542   8.268  0.7238 -0.4445  0.5238
 6424SOL     OW30730   4.129   1.929   8.328  0.4040  0.1336  0.0155
 6424SOL    HW130731   4.165   1.941   8.416 -0.2008 -0.0683  0.2859
 6424SOL    HW230732   4.179   1.851   8.302 -0.1224 -0.4156  0.6487
 6425SOL     OW30733   2.088   0.877   7.600  0.3563  0.1828  0.0516
 6425SOL    HW130734   2.108   0.820   7.675 -1.9089 -0.9504 -0.2129
 6425SOL    HW230735   2.053   0.951   7.649 -0.3061 -0.3550  0.3818
 6426SOL     OW30736   3.841   3.461   5.090 -0.1387  0.5875 -0.0107
 6426SOL    HW130737   3.842   3.412   5.008  2.0110 -0.7944  0.8263
 6426SOL    HW230738   3.934   3.486   5.085 -0.1654  0.3871 -1.3056
 6427SOL     OW30739   4.384   1.052   5.121  0.5490 -0.0342 -0.2629
 6427SOL    HW130740   4.470   1.094   5.118  1.1016 -1.1203  0.8950
 6427SOL    HW230741   4.342   1.088   5.200  0.2423 -0.5573 -0.1921
 6428SOL     OW30742   1.351   2.575  17.209 -0.6397 -0.3799  0.0095
 6428SOL    HW130743   1.358   2.489  17.167 -0.4500 -0.0643 -0.6037
 6428SOL    HW230744   1.363   2.553  17.301 -0.0386 -1.0593 -0.2304
 6429SOL     OW30745   0.990   2.788   2.113  0.1682  0.3194  0.5017
 6429SOL    HW130746   0.991   2.835   2.197 -0.0774  0.8044  0.2295
 6429SOL    HW230747   1.067   2.824   2.068  0.0458 -0.9195 -0.6991
 6430SOL     OW30748   0.234   4.645   8.492 -0.0021 -0.5752  0.3912
 6430SOL    HW130749   0.211   4.665   8.402 -1.5829  0.0292  0.9229
 6430SOL    HW230750   0.158   4.687   8.533  0.5074  0.0062  0.7282
 6431SOL     OW30751   3.983   4.368  14.964 -0.1096  0.4695  0.4788
 6431SOL    HW130752   3.962   4.280  14.997  2.5361 -0.4656 -0.2432
 6431SOL    HW230753   4.058   4.352  14.906 -0.6344 -3.0994  0.7348
 6432SOL     OW30754   3.297   2.221   5.909 -0.2486 -0.4256  0.0721
 6432SOL    HW130755   3.232   2.267   5.963  1.6950  1.0307  1.1884
 6432SOL    HW230756   3.306   2.282   5.836 -0.2924  1.7634  1.8853
 6433SOL     OW30757   0.104   1.762   7.296 -0.2100  0.0832  0.3874
 6433SOL    HW130758   0.105   1.847   7.251 -0.5910  1.5738  3.2097
 6433SOL    HW230759   0.103   1.704   7.220  1.3298  1.0716 -0.4022
 6434SOL     OW30760   1.154   0.204   8.247  0.3180 -0.1669  0.6309
 6434SOL    HW130761   1.059   0.202   8.232  0.4188  1.6694 -0.3459
 6434SOL    HW230762   1.177   0.114   8.226 -0.2641 -0.2239  0.2478
 6435SOL     OW30763   1.598   3.064   6.628 -0.6821 -0.4981 -0.9335
 6435SOL    HW130764   1.540   3.132   6.663  1.2316  0.7833 -0.2708
 6435SOL    HW230765   1.597   2.999   6.698 -0.6396 -0.9578 -1.3603
 6436SOL     OW30766   4.306   0.365   6.906 -0.8339 -0.1027 -0.1130
 6436SOL    HW130767   4.386   0.389   6.951 -1.9567  2.5851  0.4444
 6436SOL    HW230768   4.271   0.305   6.973  1.2679  0.7823  1.7446
 6437SOL     OW30769   3.271   2.448   1.362 -0.0050 -0.4080 -0.2411
 6437SOL    HW130770   3.248   2.386   1.292 -2.1710 -1.1701  1.1506
 6437SOL    HW230771   3.300   2.525   1.314  1.5334 -0.4113  0.7024
 6438SOL     OW30772   2.550   4.139  17.070 -0.2273  0.3026  0.3875
 6438SOL    HW130773   2.606   4.087  17.013 -1.4269  0.7206 -1.1614
 6438SOL    HW230774   2.465   4.099  17.052  0.3398 -1.1239  0.9686
 6439SOL     OW30775   1.635   1.587   3.445 -0.8538  0.4211 -0.1740
 6439SOL    HW130776   1.655   1.602   3.537  2.3809  1.0518 -0.9829
 6439SOL    HW230777   1.632   1.491   3.439  1.2184  0.5477 -3.2474
 6440SOL     OW30778   2.978   3.491   7.692 -0.0175  0.1040  0.3359
 6440SOL    HW130779   3.029   3.452   7.764 -0.8735 -0.2155  0.7757
 6440SOL    HW230780   3.025   3.571   7.670 -3.0909  2.1106  1.1362
 6441SOL     OW30781   3.945   2.310   8.900  0.1704 -0.3026  0.0977
 6441SOL    HW130782   3.972   2.356   8.979 -0.4937 -1.8319  1.2186
 6441SOL    HW230783   3.866   2.279   8.944 -0.5956  3.3029  1.3108
 6442SOL     OW30784   2.559   2.157   5.320 -0.5916  0.8469 -0.0671
 6442SOL    HW130785   2.515   2.241   5.335  0.5790  1.1281  1.9318
 6442SOL    HW230786   2.634   2.173   5.378 -1.0542  0.0066  0.7624
 6443SOL     OW30787   2.396   0.600  17.116 -0.6500  0.4074 -0.3142
 6443SOL    HW130788   2.478   0.606  17.166 -0.2759 -2.1812 -0.6009
 6443SOL    HW230789   2.376   0.690  17.091  3.0871  1.1251 -0.7453
 6444SOL     OW30790   0.541   3.746   8.993 -0.9445 -0.1941 -0.5720
 6444SOL    HW130791   0.617   3.694   9.019 -0.8012  0.7854  0.9805
 6444SOL    HW230792   0.560   3.817   9.055 -1.3261  0.0512 -0.7330
 6445SOL     OW30793   1.189   2.096   4.518 -0.1352 -0.2681 -0.1219
 6445SOL    HW130794   1.191   2.176   4.571  1.5874 -0.5655  0.2478
 6445SOL    HW230795   1.188   2.123   4.427  1.8991  0.3032  0.0234
 6446SOL     OW30796   1.585   4.318   1.234  0.1765  0.3064  0.2133
 6446SOL    HW130797   1.542   4.382   1.290 -0.5888 -1.5221  1.6959
 6446SOL    HW230798   1.548   4.334   1.147  0.3611 -0.0801  0.0613
 6447SOL     OW30799   3.139   1.627   4.600 -0.3459 -0.9718 -0.0465
 6447SOL    HW130800   3.079   1.699   4.583 -1.8439 -2.0747  0.5881
 6447SOL    HW230801   3.147   1.639   4.695 -0.2504  1.0240 -0.3119
 6448SOL     OW30802   0.867   0.520   9.991  0.1455  0.1811 -0.1416
 6448SOL    HW130803   0.963   0.526   9.996  0.2692 -0.4716 -1.6881
 6448SOL    HW230804   0.861   0.540   9.897 -2.2868 -2.0854 -0.4522
 6449SOL     OW30805   2.887   0.204   4.150  0.1898 -0.2656  0.2360
 6449SOL    HW130806   2.833   0.186   4.227  0.7837  1.1895  1.0010
 6449SOL    HW230807   2.828   0.192   4.076  0.5653 -0.2469 -0.0688
 6450SOL     OW30808   0.632   2.835  12.526 -0.0691  0.1209  0.2402
 6450SOL    HW130809   0.657   2.836  12.434 -2.0067 -0.9582 -0.3036
 6450SOL    HW230810   0.700   2.781  12.566 -0.1487  0.2380  0.5393
 6451SOL     OW30811   1.501   2.582   5.776 -0.3065 -0.4693 -0.0312
 6451SOL    HW130812   1.410   2.567   5.802  0.4135 -3.5968  0.6469
 6451SOL    HW230813   1.521   2.499   5.734  0.5370 -0.0199 -0.5036
 6452SOL     OW30814   4.324   4.048  12.651  0.6652  1.0051 -0.9429
 6452SOL    HW130815   4.373   4.103  12.712  2.8692 -0.5714 -1.2698
 6452SOL    HW230816   4.233   4.068  12.672  0.1035 -1.1666 -1.3364
 6453SOL     OW30817   0.060   3.806   4.574  0.0176  0.1138 -0.4063
 6453SOL    HW130818   4.714   3.836   4.636  1.3942 -0.0391  1.1561
 6453SOL    HW230819   0.134   3.811   4.634 -1.6375 -0.4512  1.6891
 6454SOL     OW30820   2.357   0.072  17.295  0.3345 -0.1192 -0.8602
 6454SOL    HW130821   2.436   0.098  17.247  0.9596  0.1139  0.2976
 6454SOL    HW230822   2.307   0.154  17.301 -0.0312 -0.4208  0.0788
 6455SOL     OW30823   2.220   0.724   6.819  0.3595  0.0608  0.1730
 6455SOL    HW130824   2.246   0.653   6.761 -0.9522 -1.1381  1.0807
 6455SOL    HW230825   2.238   0.690   6.907 -2.4569 -3.7347 -0.7218
 6456SOL     OW30826   0.832   2.371  11.743  0.5686 -0.0468  0.4519
 6456SOL    HW130827   0.826   2.399  11.652 -0.3327 -0.0955  0.4963
 6456SOL    HW230828   0.910   2.416  11.775  2.0544 -1.2279 -1.5328
 6457SOL     OW30829   1.317   2.419   3.046  0.0792  0.1641 -0.5709
 6457SOL    HW130830   1.234   2.398   3.003 -0.8795 -2.8732  2.7914
 6457SOL    HW230831   1.295   2.397   3.137 -0.4093 -1.4808 -1.0948
 6458SOL     OW30832   1.481   2.142  14.776  0.0315 -0.2348 -0.6975
 6458SOL    HW130833   1.537   2.215  14.752 -0.0559 -0.3307 -1.1958
 6458SOL    HW230834   1.398   2.164  14.734  1.1498  2.5262 -1.4671
 6459SOL     OW30835   3.776   0.949   5.437  0.4540 -0.6646  0.2322
 6459SOL    HW130836   3.701   0.940   5.496  0.5114 -2.0706  0.0897
 6459SOL    HW230837   3.775   1.039   5.406 -1.6838 -0.4434  0.9393
 6460SOL     OW30838   3.572   1.955  16.143 -0.4772 -0.1412  0.1522
 6460SOL    HW130839   3.640   1.906  16.095 -0.3688  1.8241 -1.6838
 6460SOL    HW230840   3.619   2.010  16.205 -4.3558  0.5633  2.4573
 6461SOL     OW30841   0.399   2.066   7.024 -0.3863  0.1010  0.7709
 6461SOL    HW130842   0.409   1.976   6.993 -0.9200 -0.2854  1.7175
 6461SOL    HW230843   0.486   2.094   7.052  0.1066 -0.2265 -0.4434
 6462SOL     OW30844   2.654   0.447   6.188 -0.3541  0.3900 -0.3021
 6462SOL    HW130845   2.584   0.510   6.174  1.4892  2.7145  0.8987
 6462SOL    HW230846   2.730   0.505   6.189  0.1102 -0.2224  0.4488
 6463SOL     OW30847   4.305   3.531   0.134  0.1040  0.2738 -0.2311
 6463SOL    HW130848   4.388   3.519   0.181 -0.2501 -0.1349  0.2836
 6463SOL    HW230849   4.266   3.592   0.197  0.4152 -0.8380  1.0402
 6464SOL     OW30850   4.346   2.424  10.415 -0.0021 -0.3969 -0.4596
 6464SOL    HW130851   4.335   2.332  10.438 -0.7262  0.2901  1.8824
 6464SOL    HW230852   4.437   2.436  10.388 -0.2498  0.1478 -1.0783
 6465SOL     OW30853   2.586   2.936  16.876  0.2143 -0.0336 -0.2956
 6465SOL    HW130854   2.634   2.980  16.946  2.0763 -3.5463  0.6156
 6465SOL    HW230855   2.606   2.842  16.883  0.7763  0.1048 -0.0359
 6466SOL     OW30856   1.435   1.936   5.817 -0.0764 -0.0208 -0.2063
 6466SOL    HW130857   1.474   2.023   5.801  1.2060 -0.9724 -2.2433
 6466SOL    HW230858   1.418   1.952   5.910 -0.2872  1.6697 -0.5349
 6467SOL     OW30859   0.397   1.877   6.765 -0.1290 -0.2648 -0.4738
 6467SOL    HW130860   0.470   1.864   6.705 -2.0143 -0.9772 -2.5811
 6467SOL    HW230861   0.379   1.970   6.755 -0.4297 -0.1314  1.3426
 6468SOL     OW30862   0.497   1.916  11.655 -1.1604 -0.1534 -0.0842
 6468SOL    HW130863   0.536   1.894  11.570  0.2182  0.9955  0.2290
 6468SOL    HW230864   0.466   2.004  11.634  0.4811  0.4975  0.2068
 6469SOL     OW30865   3.195   1.058   7.593  1.0265 -0.1989  0.1439
 6469SOL    HW130866   3.270   1.033   7.538 -0.0504 -0.7554 -1.0712
 6469SOL    HW230867   3.160   1.136   7.550 -0.4259 -1.1841 -0.4430
 6470SOL     OW30868   0.127   4.364  11.162 -0.0520 -0.1054 -0.1285
 6470SOL    HW130869   0.092   4.453  11.159 -0.5132 -0.2502  1.4224
 6470SOL    HW230870   0.174   4.352  11.079 -0.1282  0.7258 -0.2984
 6471SOL     OW30871   1.954   1.355  11.885 -0.1599 -0.8796  0.1050
 6471SOL    HW130872   2.023   1.380  11.947 -0.5627  0.7293 -0.0932
 6471SOL    HW230873   1.983   1.266  11.869 -1.9336 -1.3200 -0.6310
 6472SOL     OW30874   4.580   4.460   6.937 -0.1854 -0.0638 -0.9970
 6472SOL    HW130875   4.573   4.503   7.022  2.1168 -2.5960  0.4680
 6472SOL    HW230876   4.669   4.425   6.933  0.8025  2.0764  2.1296
 6473SOL     OW30877   1.634   3.755   7.360  0.1334  0.2309 -0.3034
 6473SOL    HW130878   1.727   3.752   7.382  0.3891 -2.1712 -1.6848
 6473SOL    HW230879   1.612   3.847   7.347  1.3505  0.5188 -0.3159
 6474SOL     OW30880   4.420   2.357   2.936  0.3962  0.3535  0.2166
 6474SOL    HW130881   4.383   2.349   2.848 -3.5947  1.6539  1.7931
 6474SOL    HW230882   4.358   2.421   2.971  2.6224  2.0475  1.0659
 6475SOL     OW30883   2.736   1.647   2.496 -0.4037  0.1502 -0.1848
 6475SOL    HW130884   2.829   1.666   2.490 -0.4613  0.6837  0.6325
 6475SOL    HW230885   2.707   1.719   2.439  1.3340 -0.5013 -1.8959
 6476SOL     OW30886   2.513   0.609   2.397 -0.5312  0.2889  0.1218
 6476SOL    HW130887   2.606   0.592   2.385 -0.3647  0.4460  1.2400
 6476SOL    HW230888   2.482   0.551   2.326 -0.0476 -0.3767  0.4565
 6477SOL     OW30889   1.556   4.339  15.266  0.4092 -0.1871 -0.3034
 6477SOL    HW130890   1.529   4.397  15.338 -1.3377 -1.6913  0.2665
 6477SOL    HW230891   1.530   4.257  15.307  1.5615  0.5765  1.9418
 6478SOL     OW30892   1.313   1.990   8.944 -0.2419 -0.3170 -0.1728
 6478SOL    HW130893   1.338   1.945   9.025 -0.5519  0.9668  0.6463
 6478SOL    HW230894   1.377   2.061   8.947 -1.0611  0.3876  0.4913
 6479SOL     OW30895   2.011   3.438   4.090  0.5170 -0.2106  0.0251
 6479SOL    HW130896   1.955   3.479   4.156  0.8321 -1.0046  0.7713
 6479SOL    HW230897   2.093   3.435   4.140  0.8891  0.3200 -0.5513
 6480SOL     OW30898   0.663   3.214   5.195 -0.0476  0.2654 -0.0888
 6480SOL    HW130899   0.685   3.127   5.230  0.3983 -0.1515 -1.4193
 6480SOL    HW230900   0.746   3.245   5.158 -0.7672 -1.0053 -2.7402
 6481SOL     OW30901   1.810   0.841   6.890 -0.5620 -0.3879  0.6136
 6481SOL    HW130902   1.811   0.774   6.958 -3.4886 -0.1814  0.8690
 6481SOL    HW230903   1.763   0.910   6.936 -0.0416 -0.0008  0.5598
 6482SOL     OW30904   0.982   1.967   4.899  0.0233  0.2577 -0.2779
 6482SOL    HW130905   0.909   1.921   4.942  0.1217  0.4246  0.0659
 6482SOL    HW230906   1.038   1.894   4.876 -0.6446 -0.2905 -0.1749
 6483SOL     OW30907   0.798   3.173   4.725 -0.8795 -0.3621 -0.8693
 6483SOL    HW130908   0.829   3.102   4.781  2.5611 -1.2914 -3.9264
 6483SOL    HW230909   0.711   3.139   4.702 -1.2088 -0.0941  0.0033
 6484SOL     OW30910   4.533   2.852   5.890 -0.4706 -0.1768 -0.2591
 6484SOL    HW130911   4.443   2.870   5.862 -0.5555 -1.0035 -0.5054
 6484SOL    HW230912   4.589   2.876   5.816  0.5873  1.4329  1.0647
 6485SOL     OW30913   3.801   4.042  10.497  0.6305 -0.0447  0.2652
 6485SOL    HW130914   3.867   4.087  10.443 -0.1014  0.5160 -0.1568
 6485SOL    HW230915   3.808   3.950  10.470  1.5090 -0.9602  3.5285
 6486SOL     OW30916   4.435   1.681   6.057 -0.0542  0.0129  0.0314
 6486SOL    HW130917   4.428   1.636   5.973  0.0788 -1.9957  1.1048
 6486SOL    HW230918   4.504   1.628   6.097  0.2641  1.4340  1.3722
 6487SOL     OW30919   1.989   0.047   5.010 -0.1946 -0.1165  0.0343
 6487SOL    HW130920   1.972   0.121   4.951 -1.3947  0.2628  0.8406
 6487SOL    HW230921   1.980   4.703   4.941 -0.3279  0.4868 -0.5209
 6488SOL     OW30922   2.115   2.944   6.462 -0.6574  0.2583  0.1151
 6488SOL    HW130923   2.055   2.968   6.532 -0.3399  0.7405  0.2190
 6488SOL    HW230924   2.114   2.849   6.476  2.8834  0.4093  1.6910
 6489SOL     OW30925   2.829   2.584   9.350  0.1626 -0.4393  0.0629
 6489SOL    HW130926   2.907   2.544   9.388 -0.2057 -0.3928  0.8739
 6489SOL    HW230927   2.790   2.638   9.419  2.3788 -1.8703  2.4046
 6490SOL     OW30928   2.939   1.655  13.902  0.0157  0.1358  0.0099
 6490SOL    HW130929   3.022   1.612  13.878 -0.0901 -0.4793  0.7170
 6490SOL    HW230930   2.913   1.601  13.977  0.5472 -2.7350 -1.8337
 6491SOL     OW30931   3.925   3.677   6.371  0.5312 -0.0611 -0.1523
 6491SOL    HW130932   3.867   3.687   6.447 -0.4510 -2.0035 -0.6528
 6491SOL    HW230933   3.880   3.614   6.315 -0.4139  0.4212  0.0629
 6492SOL     OW30934   1.804   2.113   4.541 -0.6137  0.6386 -0.2508
 6492SOL    HW130935   1.750   2.060   4.482  2.4427 -0.8977 -1.6644
 6492SOL    HW230936   1.739   2.156   4.596 -0.8513 -0.7801  0.5683
 6493SOL     OW30937   0.893   2.017   7.084 -0.1593  0.1584 -0.4450
 6493SOL    HW130938   0.850   1.969   7.155 -0.0991  0.0699 -0.4686
 6493SOL    HW230939   0.840   1.989   7.009 -0.9731  1.2989 -0.3021
 6494SOL     OW30940   4.076   0.075   3.029  0.0632  0.1136 -0.4189
 6494SOL    HW130941   4.014   0.142   3.057 -0.0069  0.3584 -1.1506
 6494SOL    HW230942   4.111   0.057   3.116  1.8866 -0.8448 -1.3576
 6495SOL     OW30943   0.687   2.398   2.369  0.0243 -0.2778 -0.4909
 6495SOL    HW130944   0.728   2.353   2.295  1.2787  1.4163 -0.8182
 6495SOL    HW230945   0.631   2.328   2.404  0.5537 -0.1506  0.6179
 6496SOL     OW30946   1.479   1.439   1.808 -0.0491  0.0492  0.7642
 6496SOL    HW130947   1.424   1.515   1.825 -0.2101  0.3553 -1.2412
 6496SOL    HW230948   1.522   1.473   1.730 -0.5091 -1.5208 -0.1619
 6497SOL     OW30949   4.165   1.901   5.308  0.2939 -0.2235  0.3255
 6497SOL    HW130950   4.088   1.938   5.352  0.2828 -1.7520  1.5700
 6497SOL    HW230951   4.201   1.851   5.381 -2.6035 -2.6707  0.0656
 6498SOL     OW30952   1.038   0.258   6.506 -0.1068  0.3056 -0.5877
 6498SOL    HW130953   1.007   0.230   6.419  0.2290 -4.7459  0.8971
 6498SOL    HW230954   1.112   0.308   6.470 -2.1484  1.7327 -2.8170
 6499SOL     OW30955   3.472   1.982   7.875  0.0937 -0.0358  0.8164
 6499SOL    HW130956   3.484   1.916   7.943  0.7623  0.1879  0.9198
 6499SOL    HW230957   3.427   2.047   7.929  0.5989  0.0074  1.1903
 6500SOL     OW30958   1.780   3.148  17.259 -0.5579  0.2132 -0.5321
 6500SOL    HW130959   1.744   3.177  17.343 -3.1035  2.2273 -2.3369
 6500SOL    HW230960   1.860   3.098  17.276  1.0227  2.6129 -0.9449
 6501SOL     OW30961   1.194   1.844   5.366 -0.2290 -0.2326 -0.0013
 6501SOL    HW130962   1.194   1.762   5.416  2.8212  0.0497  0.4321
 6501SOL    HW230963   1.205   1.904   5.439 -2.2190 -0.1893  0.2636
 6502SOL     OW30964   1.812   3.067   5.473 -0.4470  0.1587 -0.7134
 6502SOL    HW130965   1.722   3.033   5.477 -0.3621  0.1208  0.9407
 6502SOL    HW230966   1.857   2.982   5.475 -0.4094  0.1879 -0.1961
 6503SOL     OW30967   1.319   3.295  12.033 -0.5899  0.0430 -0.2349
 6503SOL    HW130968   1.254   3.365  12.026 -0.4900  0.3924  2.2439
 6503SOL    HW230969   1.381   3.329  11.969 -0.1032 -2.0613 -0.8906
 6504SOL     OW30970   1.767   1.003   4.402  0.7945  0.5736  0.3525
 6504SOL    HW130971   1.771   0.943   4.327 -1.0583 -1.3429  1.7647
 6504SOL    HW230972   1.815   1.074   4.361 -1.9385  2.0172 -0.3381
 6505SOL     OW30973   4.329   1.901   7.437 -0.0512  0.7603  0.0827
 6505SOL    HW130974   4.289   1.877   7.353  1.5939  2.8699 -1.2960
 6505SOL    HW230975   4.420   1.873   7.431  0.1911  1.7517 -0.8558
 6506SOL     OW30976   1.581   0.653   8.648 -0.4405  0.0595 -0.7139
 6506SOL    HW130977   1.592   0.668   8.554  0.9217 -0.4344 -0.6419
 6506SOL    HW230978   1.664   0.610   8.669 -1.3531 -1.8926 -1.1528
 6507SOL     OW30979   2.114   4.029   3.211  0.0810  0.6388  0.1158
 6507SOL    HW130980   2.149   4.012   3.299 -0.4224 -2.6035 -0.3152
 6507SOL    HW230981   2.049   4.093   3.240 -2.1627 -1.9591  0.8039
 6508SOL     OW30982   2.235   1.758   9.698  0.2608 -0.3597  0.1488
 6508SOL    HW130983   2.280   1.689   9.649  1.1929  1.3532 -1.4035
 6508SOL    HW230984   2.264   1.751   9.789 -1.8504  0.3941  0.8828
 6509SOL     OW30985   0.932   0.589  13.919  0.4191 -0.1353 -0.1333
 6509SOL    HW130986   0.882   0.519  13.877  1.8424 -0.0931 -1.8924
 6509SOL    HW230987   0.976   0.538  13.987 -2.4332 -0.4697  1.4527
 6510SOL     OW30988   2.431   1.569   9.597 -0.3300 -0.3750  0.1995
 6510SOL    HW130989   2.359   1.561   9.535 -1.9818  0.1175  2.0598
 6510SOL    HW230990   2.462   1.479   9.603 -0.7893 -0.5518 -0.1899
 6511SOL     OW30991   1.918   0.718   5.131 -0.0034  0.3763  0.1113
 6511SOL    HW130992   1.829   0.751   5.147  0.5008  0.8879  1.9219
 6511SOL    HW230993   1.942   0.778   5.061 -2.0043 -0.2457 -1.1013
 6512SOL     OW30994   1.877   2.158   5.109 -0.1323  0.0914 -0.5470
 6512SOL    HW130995   1.806   2.150   5.173  1.0127 -1.0750  0.5813
 6512SOL    HW230996   1.939   2.095   5.146  1.3320  2.4947  1.0619
 6513SOL     OW30997   1.377   2.364  15.744 -0.1498  0.0483  0.2851
 6513SOL    HW130998   1.339   2.386  15.830 -1.9951 -0.1773 -0.4625
 6513SOL    HW230999   1.435   2.438  15.729  0.0622  0.2825  2.1555
 6514SOL     OW31000   0.488   2.730  17.436 -0.3270 -0.2611  0.1146
 6514SOL    HW131001   0.497   2.791  17.363  1.3915  0.9434  1.3474
 6514SOL    HW231002   0.577   2.695  17.442 -0.1293  0.3432  0.7264
 6515SOL     OW31003   3.956   4.092   4.474  1.0616 -0.0086 -0.0072
 6515SOL    HW131004   3.880   4.036   4.458  0.1572  1.2739 -0.1170
 6515SOL    HW231005   4.032   4.043   4.444  0.4322 -0.8675 -0.2093
 6516SOL     OW31006   4.219   2.428  10.158 -0.6724 -0.0984  0.3190
 6516SOL    HW131007   4.293   2.427  10.218 -1.9544  1.8395  1.9348
 6516SOL    HW231008   4.232   2.343  10.116 -0.3324  0.2764 -0.3293
 6517SOL     OW31009   4.173   4.111   9.038 -0.0660  0.3921 -0.3987
 6517SOL    HW131010   4.258   4.101   9.080 -0.7435  2.5778  1.5385
 6517SOL    HW231011   4.132   4.036   9.080  0.2998  0.6230  0.3744
 6518SOL     OW31012   1.433   1.661   1.563  0.6491  0.0097 -0.5235
 6518SOL    HW131013   1.525   1.654   1.590  0.4745 -0.1128  0.0534
 6518SOL    HW231014   1.400   1.705   1.641 -1.5520  0.3190 -1.6504
 6519SOL     OW31015   4.505   2.660   6.547  0.4051 -0.0861  0.1113
 6519SOL    HW131016   4.550   2.676   6.464  0.4134  0.0181  0.1367
 6519SOL    HW231017   4.572   2.606   6.589  0.3530  0.0221  0.3295
 6520SOL     OW31018   0.712   4.282   7.748  0.0272  0.3406  0.2732
 6520SOL    HW131019   0.619   4.306   7.743  0.0681  0.1857 -1.3004
 6520SOL    HW231020   0.724   4.296   7.842  1.0179  1.3275  0.0026
 6521SOL     OW31021   1.524   2.982  17.419 -0.0463 -0.1993  0.0197
 6521SOL    HW131022   1.597   2.923  17.402 -0.1058  0.1469 -1.4899
 6521SOL    HW231023   1.496   2.990  17.327 -0.5398 -1.9256  0.0155
 6522SOL     OW31024   4.512   1.347  16.150  0.4127  0.5667 -0.2075
 6522SOL    HW131025   4.552   1.433  16.136 -0.9979  1.6101  2.1526
 6522SOL    HW231026   4.426   1.368  16.112  0.8506  0.0752 -1.4899
 6523SOL     OW31027   0.904   0.914   7.376  0.0861  0.1450 -0.0206
 6523SOL    HW131028   0.996   0.897   7.397  0.6681  1.9495 -1.1068
 6523SOL    HW231029   0.859   0.829   7.380  1.9862 -0.8884 -0.3379
 6524SOL     OW31030   3.064   0.235   3.854  0.4216 -0.3599  0.1572
 6524SOL    HW131031   3.061   0.208   3.945  0.0768 -2.2382 -0.4096
 6524SOL    HW231032   3.001   0.183   3.804  0.1199 -1.3004  1.5139
 6525SOL     OW31033   3.632   0.578   5.495 -0.6092 -0.3620  0.1353
 6525SOL    HW131034   3.602   0.634   5.424 -0.9676  0.1734  0.7159
 6525SOL    HW231035   3.570   0.504   5.491 -0.3158 -0.6963  1.5363
 6526SOL     OW31036   0.457   4.471   2.562 -0.2375  0.1188 -0.6366
 6526SOL    HW131037   0.408   4.467   2.644  2.2269  0.1105  0.8414
 6526SOL    HW231038   0.502   4.555   2.570 -0.7158  0.1849  1.2378
 6527SOL     OW31039   2.607   2.033  14.956  0.2921 -0.2942  0.5492
 6527SOL    HW131040   2.620   2.111  14.903 -3.4891  0.2840  0.5381
 6527SOL    HW231041   2.518   2.047  14.986  1.1874  0.6383  2.7855
 6528SOL     OW31042   4.491   0.256   8.990 -0.0367 -0.1382  0.7370
 6528SOL    HW131043   4.488   0.161   8.987 -2.7804 -0.0646  1.0185
 6528SOL    HW231044   4.510   0.281   8.900 -0.4687 -1.1877  0.3560
 6529SOL     OW31045   2.112   3.907   7.188 -0.0602  0.5467 -0.8667
 6529SOL    HW131046   2.115   3.858   7.270  1.0524  0.2342 -1.0954
 6529SOL    HW231047   2.021   3.936   7.187 -0.7587 -1.6065  1.6401
 6530SOL     OW31048   0.284   2.040  13.266 -0.4476  0.3927 -0.3476
 6530SOL    HW131049   0.368   2.068  13.232 -1.4383  1.4991 -1.8987
 6530SOL    HW231050   0.308   2.022  13.357  1.6372 -0.3143 -1.0365
 6531SOL     OW31051   0.437   0.828   9.318  0.8522  0.0670  0.4326
 6531SOL    HW131052   0.520   0.817   9.272  0.6393  2.7090 -0.6164
 6531SOL    HW231053   0.414   0.920   9.303  0.6352  0.1074  1.0395
 6532SOL     OW31054   1.127   0.707  14.077 -0.3331  0.4649 -0.2950
 6532SOL    HW131055   1.055   0.745  14.027 -0.3380  2.8275  1.5434
 6532SOL    HW231056   1.198   0.772  14.076  1.1180 -1.0999  0.0221
 6533SOL     OW31057   3.582   4.074   3.389 -0.1180  0.7183 -0.0562
 6533SOL    HW131058   3.644   4.140   3.357  2.6178 -1.6084  0.5014
 6533SOL    HW231059   3.568   4.019   3.312  4.9854 -1.2853  0.4355
 6534SOL     OW31060   2.515   1.501   7.573  0.0948 -0.4767  0.1663
 6534SOL    HW131061   2.519   1.523   7.666 -3.1798 -0.9334  0.3993
 6534SOL    HW231062   2.421   1.490   7.567 -0.1872  1.7161  0.3843
 6535SOL     OW31063   3.541   2.131  17.665 -0.0037  0.1055  0.2781
 6535SOL    HW131064   3.633   2.159  17.662 -0.1937  0.5308 -1.3907
 6535SOL    HW231065   3.541   2.072  17.590  0.1298  0.5904 -0.1034
 6536SOL     OW31066   4.029   1.752   5.824  0.1050  0.0999  0.1644
 6536SOL    HW131067   4.057   1.664   5.798  0.5501  0.4659 -0.5972
 6536SOL    HW231068   3.991   1.784   5.742  0.3426  0.8127  0.3314
 6537SOL     OW31069   0.773   3.610   9.050 -0.3786 -0.3358  0.0122
 6537SOL    HW131070   0.848   3.664   9.025 -0.0138 -1.1734 -0.6842
 6537SOL    HW231071   0.764   3.560   8.969 -1.9245  3.7136 -2.3615
 6538SOL     OW31072   3.041   2.053   0.996  0.4734 -0.0086  0.2926
 6538SOL    HW131073   3.134   2.054   0.974  0.8355 -0.5096  1.7992
 6538SOL    HW231074   3.012   2.140   0.967  0.8198 -0.2152 -0.6921
 6539SOL     OW31075   1.397   1.069   9.629 -0.0951 -0.8504 -0.6930
 6539SOL    HW131076   1.316   1.030   9.662 -0.3834  0.2648 -0.1047
 6539SOL    HW231077   1.368   1.149   9.585 -0.0847 -0.2486  0.3900
 6540SOL     OW31078   3.938   1.532   3.621 -0.1397 -0.2773  0.4428
 6540SOL    HW131079   4.022   1.497   3.649  0.7753  1.6776  0.1475
 6540SOL    HW231080   3.952   1.529   3.526 -0.2837  0.5981  0.3966
 6541SOL     OW31081   1.349   3.426   3.632  1.0403  0.5025 -0.4322
 6541SOL    HW131082   1.306   3.493   3.580  0.2977  0.3063 -0.0610
 6541SOL    HW231083   1.283   3.396   3.695 -0.0623 -0.0133 -1.8308
 6542SOL     OW31084   4.294   3.480   7.281 -0.1052  0.9965 -0.4635
 6542SOL    HW131085   4.236   3.488   7.357 -0.7111  2.1399 -1.0285
 6542SOL    HW231086   4.306   3.385   7.276 -0.7521  0.9709 -1.5968
 6543SOL     OW31087   3.666   4.498   5.016  0.2675  0.0192 -0.2856
 6543SOL    HW131088   3.714   4.417   5.031  2.0074  1.3035  0.9423
 6543SOL    HW231089   3.616   4.479   4.936  1.2157  0.7708 -1.0481
 6544SOL     OW31090   2.085   2.141  15.499 -0.7836 -0.1811  0.6537
 6544SOL    HW131091   2.088   2.084  15.576 -0.2285  0.1147  0.8520
 6544SOL    HW231092   2.137   2.217  15.525 -1.2134  0.7818 -1.3202
 6545SOL     OW31093   1.611   4.573  11.726  0.5912  0.4750  0.6227
 6545SOL    HW131094   1.624   4.628  11.802  1.3433 -2.4967  2.6200
 6545SOL    HW231095   1.691   4.523  11.738 -0.5358 -1.0623  1.8064
 6546SOL     OW31096   4.623   1.218   5.105  0.7951  0.2141 -0.0232
 6546SOL    HW131097   4.618   1.243   5.197 -2.1028 -0.5243  0.0034
 6546SOL    HW231098   4.710   1.180   5.091  0.4958 -0.4093 -0.1563
 6547SOL     OW31099   3.463   4.486   7.682  0.1729  0.3674 -0.3485
 6547SOL    HW131100   3.471   4.579   7.660 -0.2504  0.4893  0.0134
 6547SOL    HW231101   3.372   4.484   7.711  0.6834 -0.0927  1.2508
 6548SOL     OW31102   0.350   1.489   0.813 -0.1360  0.7663  0.2445
 6548SOL    HW131103   0.345   1.580   0.785 -3.6559  0.4540 -0.0979
 6548SOL    HW231104   0.407   1.455   0.744  0.4107 -0.2047  1.1631
 6549SOL     OW31105   3.823   3.256   6.831  0.6012 -0.5031 -0.5836
 6549SOL    HW131106   3.741   3.291   6.795  0.1216 -1.8263 -0.7636
 6549SOL    HW231107   3.790   3.177   6.874  0.7970 -0.2284  0.0678
 6550SOL     OW31108   2.796   0.404  15.062  0.6093  0.4262 -0.3539
 6550SOL    HW131109   2.777   0.337  15.128 -0.5201 -0.2006 -1.3194
 6550SOL    HW231110   2.777   0.338  14.995 -1.0358  0.7008 -0.1525
 6551SOL     OW31111   0.207   0.249   7.083 -0.1220  0.0650 -0.2087
 6551SOL    HW131112   0.284   0.255   7.026 -0.7220 -0.3814 -1.0739
 6551SOL    HW231113   0.136   0.244   7.019  0.3145  2.4759 -0.8439
 6552SOL     OW31114   4.689   1.595  13.134  0.0493 -0.4117  0.5851
 6552SOL    HW131115   0.004   1.565  13.217  0.0321  2.0065  1.4660
 6552SOL    HW231116   4.664   1.509  13.101  2.0827 -0.4425 -0.8745
 6553SOL     OW31117   3.326   2.421   3.755 -0.2160 -0.1569  0.2583
 6553SOL    HW131118   3.368   2.343   3.717 -0.0651  1.0444 -2.0176
 6553SOL    HW231119   3.305   2.389   3.842 -0.5716 -0.0478  0.2114
 6554SOL     OW31120   0.939   0.686  11.469 -0.5608 -0.0277 -0.2615
 6554SOL    HW131121   0.855   0.725  11.445 -1.0713 -0.5621  0.6871
 6554SOL    HW231122   0.991   0.766  11.477  1.6973 -1.4257 -0.9928
 6555SOL     OW31123   2.124   0.326   2.636  0.2278 -0.4442  0.3833
 6555SOL    HW131124   2.179   0.299   2.710  0.3823  0.4336  0.5855
 6555SOL    HW231125   2.085   0.408   2.666  2.6866  1.1121 -0.6518
 6556SOL     OW31126   0.148   2.346   7.222  0.3294  0.0060  0.1378
 6556SOL    HW131127   0.225   2.308   7.264  0.7294 -0.7793 -1.2717
 6556SOL    HW231128   0.157   2.439   7.244  0.2753  0.5672 -2.1793
 6557SOL     OW31129   4.166   2.401   5.001 -0.4129 -0.0151  0.0563
 6557SOL    HW131130   4.103   2.375   4.934 -1.8580 -2.4725  2.4176
 6557SOL    HW231131   4.235   2.344   4.969 -2.3191 -0.2739 -3.6170
 6558SOL     OW31132   0.617   1.675   3.292 -0.5715  0.7166  0.6031
 6558SOL    HW131133   0.629   1.584   3.265  0.5355  0.8936  0.5313
 6558SOL    HW231134   0.521   1.665   3.297 -0.4280 -2.7358 -3.9309
 6559SOL     OW31135   1.001   1.281  14.537  0.4648 -0.3198  0.0382
 6559SOL    HW131136   0.969   1.268  14.447  1.0506 -0.5033 -0.1495
 6559SOL    HW231137   0.917   1.284  14.582  0.1412  2.1715 -0.7330
 6560SOL     OW31138   4.317   0.409   5.706  0.8390  0.1570  0.9494
 6560SOL    HW131139   4.245   0.471   5.719 -1.7334 -2.7893  0.6056
 6560SOL    HW231140   4.271   0.331   5.674  1.5732  0.8355 -1.7881
 6561SOL     OW31141   4.669   1.189   6.695  0.2909 -0.3458 -0.2934
 6561SOL    HW131142   4.583   1.223   6.671 -0.3843 -0.8185  1.4633
 6561SOL    HW231143   0.002   1.262   6.664  0.8432 -0.3650  0.6060
 6562SOL     OW31144   3.778   4.126  15.332  0.3368 -0.4280 -0.3311
 6562SOL    HW131145   3.771   4.047  15.280  3.3346  1.1754 -3.1748
 6562SOL    HW231146   3.873   4.118  15.342  0.3081  0.4397  0.6698
 6563SOL     OW31147   4.387   2.660   3.456 -0.6152  0.9504 -0.3687
 6563SOL    HW131148   4.443   2.632   3.528 -0.1048  1.9176 -0.3818
 6563SOL    HW231149   4.441   2.727   3.413  0.1356 -0.6113 -1.8483
 6564SOL     OW31150   0.574   0.056   3.071  0.2011  0.0049 -0.0469
 6564SOL    HW131151   0.646   0.117   3.054  1.2685 -1.4232 -0.6706
 6564SOL    HW231152   0.609   0.018   3.152  0.6251 -1.7650 -1.0563
 6565SOL     OW31153   3.043   1.967   8.992  0.1355  0.2367  0.2682
 6565SOL    HW131154   3.132   1.951   8.961  0.4247 -1.0501  1.7702
 6565SOL    HW231155   3.017   1.882   9.026 -1.1156  0.1444 -0.8988
 6566SOL     OW31156   2.515   4.256   6.515  0.4180  0.4586 -0.4315
 6566SOL    HW131157   2.508   4.335   6.462 -0.7872  0.9928  0.5080
 6566SOL    HW231158   2.457   4.193   6.473 -1.6250  1.7619  0.4456
 6567SOL     OW31159   2.702   0.031   8.684 -0.4504  0.2510 -0.0271
 6567SOL    HW131160   2.768   0.041   8.616  0.9518  1.1857  1.4934
 6567SOL    HW231161   2.658   0.116   8.685 -2.7785 -0.9358 -1.1597
 6568SOL     OW31162   4.416   4.130   9.410 -0.0919  0.5908 -0.1126
 6568SOL    HW131163   4.482   4.193   9.382 -0.1813  0.8890  0.3479
 6568SOL    HW231164   4.453   4.046   9.385 -0.7256  0.1711  0.3557
 6569SOL     OW31165   1.203   4.699  16.219  0.0583 -0.7336  0.1422
 6569SOL    HW131166   1.219   4.604  16.225  2.9624 -0.2802 -0.1286
 6569SOL    HW231167   1.111   4.702  16.245  0.1156  0.3832  0.1894
 6570SOL     OW31168   0.941   1.773   7.943 -0.1720  0.0627 -0.2477
 6570SOL    HW131169   0.935   1.854   7.892  3.9070 -0.4146 -1.5467
 6570SOL    HW231170   0.903   1.805   8.025 -1.0320  0.5681 -0.8479
 6571SOL     OW31171   4.454   0.050   7.180 -0.7047  0.2936 -0.0623
 6571SOL    HW131172   4.516   4.715   7.226  0.2185  3.1061  2.0991
 6571SOL    HW231173   4.477   0.140   7.203 -3.5000  0.9880  0.1043
 6572SOL     OW31174   3.123   0.247   0.937  0.5343 -0.0829 -0.0609
 6572SOL    HW131175   3.093   0.288   1.018 -0.9173 -0.2105 -0.5387
 6572SOL    HW231176   3.108   0.327   0.885  1.4992  0.6027  0.7197
 6573SOL     OW31177   3.490   0.611   4.267 -0.1406  0.3006 -0.0866
 6573SOL    HW131178   3.397   0.613   4.288 -0.2436 -0.9478 -0.3982
 6573SOL    HW231179   3.491   0.632   4.174  0.8534  0.1445 -0.1183
 6574SOL     OW31180   1.376   1.105   7.647  0.0259  0.0528 -0.6280
 6574SOL    HW131181   1.290   1.067   7.626  1.1806 -2.3110 -1.1219
 6574SOL    HW231182   1.428   1.033   7.682 -0.2816 -0.9370 -2.2090
 6575SOL     OW31183   3.197   0.925  14.334 -0.6703 -0.1930 -0.2335
 6575SOL    HW131184   3.142   0.878  14.271  0.4801  0.0992 -1.4696
 6575SOL    HW231185   3.263   0.963  14.277 -1.5294  0.8723 -0.5097
 6576SOL     OW31186   3.605   4.330   8.767  0.0411 -0.5406  0.2319
 6576SOL    HW131187   3.516   4.360   8.751  0.0077 -2.1902 -2.5429
 6576SOL    HW231188   3.633   4.414   8.803 -2.1528  0.0065  0.6379
 6577SOL     OW31189   4.621   2.046   8.757 -0.0049 -0.4297 -0.1371
 6577SOL    HW131190   4.668   2.094   8.825  1.3744 -0.2164 -1.2509
 6577SOL    HW231191   4.559   1.991   8.805  0.0773 -0.4813 -0.0907
 6578SOL     OW31192   0.844   1.178  10.036  0.0171 -0.3332  0.1546
 6578SOL    HW131193   0.939   1.187  10.048  0.0285 -0.3107  0.0396
 6578SOL    HW231194   0.827   1.217  10.122 -0.5993  3.1698 -1.5802
 6579SOL     OW31195   1.766   3.331   0.606 -0.1211 -0.2389  0.4321
 6579SOL    HW131196   1.792   3.253   0.657  1.4384  0.0670  0.1184
 6579SOL    HW231197   1.675   3.346   0.630 -0.0845  0.7968 -0.1202
 6580SOL     OW31198   1.807   2.163   9.149  0.1993 -0.4185  0.4979
 6580SOL    HW131199   1.883   2.136   9.202 -0.1692 -3.4118 -0.5049
 6580SOL    HW231200   1.784   2.242   9.198 -1.0945 -0.1418 -0.5529
 6581SOL     OW31201   1.496   3.263   1.107 -0.1440  0.0053  0.2530
 6581SOL    HW131202   1.540   3.289   1.188 -0.5329 -1.4071  0.9149
 6581SOL    HW231203   1.494   3.342   1.053  1.4461  0.3865  0.7726
 6582SOL     OW31204   0.801   2.785   5.479 -0.1916 -0.6995  0.3864
 6582SOL    HW131205   0.893   2.793   5.454 -0.0946  1.8090  1.5810
 6582SOL    HW231206   0.816   2.825   5.564  0.6678 -1.5700  0.6476
 6583SOL     OW31207   3.164   1.955   3.187  0.2689  0.3048  0.2972
 6583SOL    HW131208   3.113   2.009   3.127 -0.6437 -1.2171 -0.2857
 6583SOL    HW231209   3.094   1.914   3.238 -0.9589  0.8535 -0.9459
 6584SOL     OW31210   1.639   1.909   7.510 -0.1145 -0.0892  0.8514
 6584SOL    HW131211   1.605   1.910   7.421 -0.6168 -1.9527  1.0153
 6584SOL    HW231212   1.636   2.001   7.536 -2.1511 -0.9670  3.6796
 6585SOL     OW31213   0.303   0.513   3.517  0.1054  0.1757  0.6574
 6585SOL    HW131214   0.292   0.495   3.424  1.7197  1.2955  0.2513
 6585SOL    HW231215   0.229   0.573   3.523 -1.6995 -2.2586  3.2095
 6586SOL     OW31216   1.158   3.764  10.727 -0.1085  0.5451  0.1809
 6586SOL    HW131217   1.118   3.682  10.754  2.3315 -0.3514  1.0082
 6586SOL    HW231218   1.141   3.822  10.801 -0.4990  0.2846  0.2927
 6587SOL     OW31219   1.341   1.492  10.947  0.5848  0.6616 -0.3298
 6587SOL    HW131220   1.371   1.473  10.858 -0.1202 -2.8328  0.1535
 6587SOL    HW231221   1.366   1.584  10.955  0.0110  0.6056  2.0392
 6588SOL     OW31222   0.541   3.830   5.952 -1.0576  0.2412  1.2132
 6588SOL    HW131223   0.543   3.753   5.895  0.4082 -0.0139  1.6102
 6588SOL    HW231224   0.539   3.902   5.890 -1.5675 -1.5943 -0.8973
 6589SOL     OW31225   1.073   4.044  14.886  0.5377  0.1734  0.1901
 6589SOL    HW131226   1.026   3.976  14.838 -0.0979  0.3839  0.5255
 6589SOL    HW231227   1.110   4.077  14.804 -0.8590  1.2044 -0.0105
 6590SOL     OW31228   3.713   0.307   0.235 -0.4565 -0.3187 -0.2996
 6590SOL    HW131229   3.738   0.370   0.302 -0.6606 -0.2657 -0.2746
 6590SOL    HW231230   3.802   0.277   0.213 -0.3215  1.1520 -1.6995
 6591SOL     OW31231   1.142   2.168   7.084 -0.0940  0.5037  0.0111
 6591SOL    HW131232   1.072   2.103   7.082 -0.7058  1.1874 -1.1379
 6591SOL    HW231233   1.216   2.114   7.058 -1.2346 -0.6968 -0.7761
 6592SOL     OW31234   4.070   1.548   4.286  0.1857 -0.1975  0.2270
 6592SOL    HW131235   4.010   1.477   4.308  0.3615 -0.2581  0.4969
 6592SOL    HW231236   4.152   1.534   4.332  0.6947 -0.0963 -0.6466
 6593SOL     OW31237   4.406   3.814   8.104  0.2677 -0.0186  0.4700
 6593SOL    HW131238   4.500   3.807   8.124  0.4953 -1.5128 -1.0144
 6593SOL    HW231239   4.373   3.894   8.142 -0.2405  0.6900 -1.4431
 6594SOL     OW31240   2.720   0.332   3.308 -0.8249  0.2944  0.3577
 6594SOL    HW131241   2.695   0.246   3.273 -1.2076  0.9208 -0.9158
 6594SOL    HW231242   2.813   0.334   3.289 -1.3061  3.0940 -1.6652
 6595SOL     OW31243   0.855   0.131   5.144  0.2564 -0.0651 -0.0689
 6595SOL    HW131244   0.826   0.199   5.204  0.7030 -1.6823  2.0040
 6595SOL    HW231245   0.813   0.155   5.062  0.3559 -0.4281 -0.2296
 6596SOL     OW31246   0.501   3.312  10.527  0.1221 -0.1040  0.2500
 6596SOL    HW131247   0.569   3.372  10.498  2.5504 -2.1871  1.6705
 6596SOL    HW231248   0.543   3.233  10.496  1.8968  1.4226 -1.2491
 6597SOL     OW31249   1.296   2.739   3.421  0.2743 -0.0267 -0.4004
 6597SOL    HW131250   1.233   2.809   3.438  1.6057  1.0164  0.2384
 6597SOL    HW231251   1.380   2.785   3.427 -0.3079  1.1628 -1.3070
 6598SOL     OW31252   0.866   1.702   6.200  0.0967 -0.3611  0.5764
 6598SOL    HW131253   0.858   1.793   6.227 -0.7253 -0.5913  1.1215
 6598SOL    HW231254   0.773   1.688   6.178  0.6619 -1.5828 -1.0476
 6599SOL     OW31255   3.136   0.871  14.923 -0.0871 -0.1644  0.0809
 6599SOL    HW131256   3.231   0.877  14.931  0.0277 -3.5207  1.1291
 6599SOL    HW231257   3.105   0.826  15.002  0.5714  1.6935  1.3944
 6600SOL     OW31258   1.777   2.491   2.675 -0.1074 -0.3531 -0.9530
 6600SOL    HW131259   1.711   2.442   2.626 -2.6044  0.6703  1.3594
 6600SOL    HW231260   1.858   2.442   2.663 -1.0741 -2.6381  1.6504
 6601SOL     OW31261   3.022   0.884   6.436 -0.3885  0.3172  0.1350
 6601SOL    HW131262   3.082   0.884   6.362  0.0707 -0.4911  0.5031
 6601SOL    HW231263   3.045   0.798   6.474 -1.3534  1.6797  3.8456
 6602SOL     OW31264   0.469   0.222   0.848 -0.0550 -0.9202 -0.3206
 6602SOL    HW131265   0.452   0.225   0.754  0.7282  0.5568 -0.4036
 6602SOL    HW231266   0.535   0.291   0.850 -0.7713 -0.2535  0.2805
 6603SOL     OW31267   1.761   2.187  15.603 -0.5360  0.0691 -0.4530
 6603SOL    HW131268   1.744   2.093  15.590 -2.8678  0.0915  2.3168
 6603SOL    HW231269   1.751   2.230  15.519  0.0061 -1.5678 -1.3520
 6604SOL     OW31270   1.259   1.116   3.833 -0.2463  0.0354 -0.3215
 6604SOL    HW131271   1.164   1.107   3.845 -0.0526 -1.9144 -0.3258
 6604SOL    HW231272   1.259   1.212   3.826 -1.2567 -0.1891 -3.5996
 6605SOL     OW31273   3.798   2.192   7.169 -0.3773  0.1291 -0.0688
 6605SOL    HW131274   3.864   2.145   7.117  0.5542  2.6271 -1.1085
 6605SOL    HW231275   3.742   2.225   7.098 -1.9708 -2.8563 -0.1996
 6606SOL     OW31276   0.966   1.311   8.827  0.1252  0.1160  0.1881
 6606SOL    HW131277   0.966   1.405   8.811 -2.2098  0.0306 -0.2245
 6606SOL    HW231278   1.061   1.296   8.826  0.1849  0.4310  1.4621
 6607SOL     OW31279   4.040   2.616   2.514  0.1951 -0.7151 -0.2473
 6607SOL    HW131280   4.120   2.659   2.542  0.8139 -1.3176 -1.1084
 6607SOL    HW231281   3.977   2.648   2.579  0.8625 -0.4518  0.2705
 6608SOL     OW31282   1.782   1.831   8.144  0.0139 -0.3824 -0.1826
 6608SOL    HW131283   1.815   1.912   8.106  2.5238 -1.5480 -0.4829
 6608SOL    HW231284   1.689   1.819   8.123 -0.3887  0.7543  0.9624
 6609SOL     OW31285   0.387   2.655   0.768 -0.1529 -0.4576 -0.7678
 6609SOL    HW131286   0.424   2.690   0.687  2.0038  0.4001  0.6077
 6609SOL    HW231287   0.293   2.673   0.762 -0.3936 -0.1488  3.5224
 6610SOL     OW31288   2.191   1.295   2.181 -0.2577 -0.5362 -0.0607
 6610SOL    HW131289   2.280   1.296   2.144 -0.9670  0.6880 -1.7711
 6610SOL    HW231290   2.170   1.383   2.149 -2.1555 -0.7733  0.5370
 6611SOL     OW31291   1.553   1.920  13.453 -0.1496 -0.5678 -0.0695
 6611SOL    HW131292   1.567   1.825  13.450  0.9896 -0.4146  0.5631
 6611SOL    HW231293   1.569   1.941  13.544 -1.3506  0.8413 -0.1782
 6612SOL     OW31294   2.597   1.246   5.074 -0.2335 -0.3092  0.6300
 6612SOL    HW131295   2.504   1.228   5.086 -0.5326  0.5322 -0.5063
 6612SOL    HW231296   2.595   1.337   5.044  1.6993  0.0843  1.7258
 6613SOL     OW31297   2.017   0.289  10.291  0.3320  0.8453 -0.6584
 6613SOL    HW131298   2.049   0.318  10.377 -1.0572 -0.6361  0.3621
 6613SOL    HW231299   1.921   0.285  10.298  0.3803  1.4338  0.3210
 6614SOL     OW31300   0.101   0.758   7.937  0.4078  0.2776  0.5604
 6614SOL    HW131301   0.050   0.758   7.856  1.9434  4.6054 -0.3678
 6614SOL    HW231302   0.046   0.721   8.006 -2.0229 -0.2605 -1.6535
 6615SOL     OW31303   0.451   1.254   6.604 -0.1848  0.1900  0.2443
 6615SOL    HW131304   0.469   1.316   6.674  1.5829 -1.0992  0.9161
 6615SOL    HW231305   0.511   1.184   6.630 -2.1170 -0.0977  3.9154
 6616SOL     OW31306   3.517   4.183  16.107  0.3446 -0.0688 -0.3070
 6616SOL    HW131307   3.604   4.210  16.134  1.1434 -0.9294 -2.0886
 6616SOL    HW231308   3.516   4.234  16.026 -0.2865  1.7446  0.8457
 6617SOL     OW31309   1.914   0.593  15.047 -0.6927 -0.0207  0.1247
 6617SOL    HW131310   1.984   0.538  15.011 -0.9075 -1.2151  1.5439
 6617SOL    HW231311   1.899   0.549  15.130  1.4442 -1.3867 -0.1857
 6618SOL     OW31312   1.622   1.814   3.702 -0.3441 -0.1559  0.1617
 6618SOL    HW131313   1.635   1.826   3.796 -0.5749  0.9995  0.0380
 6618SOL    HW231314   1.584   1.726   3.710 -0.6842 -0.0732 -0.5023
 6619SOL     OW31315   1.674   2.902   2.466 -0.2050 -0.4068 -0.0500
 6619SOL    HW131316   1.584   2.927   2.449 -0.1597  0.1047  0.4553
 6619SOL    HW231317   1.723   2.964   2.411 -1.8517  0.6783 -0.2770
 6620SOL     OW31318   1.553   4.427   3.031 -0.0662  0.2414  0.0744
 6620SOL    HW131319   1.482   4.379   2.987 -1.2052  0.2401  1.9109
 6620SOL    HW231320   1.509   4.510   3.047  2.0227  1.7274 -1.8206
 6621SOL     OW31321   1.630   1.979   3.172  0.5242 -0.1118  0.4724
 6621SOL    HW131322   1.587   1.999   3.255  1.0421  0.4432  0.6031
 6621SOL    HW231323   1.675   1.896   3.191  1.5032  0.2530 -0.2833
 6622SOL     OW31324   4.548   1.921   2.418  0.6410  0.4708  0.3249
 6622SOL    HW131325   4.465   1.893   2.380  0.2030 -1.1271  2.4503
 6622SOL    HW231326   4.575   1.997   2.366 -1.1319  0.3280 -0.8228
 6623SOL     OW31327   1.810   3.495   6.903  0.1247 -0.6297  0.5679
 6623SOL    HW131328   1.731   3.514   6.953  1.7184  1.7376  2.1760
 6623SOL    HW231329   1.791   3.416   6.852 -0.3512 -0.6440  0.7667
 6624SOL     OW31330   3.814   1.967  12.961 -0.2701 -0.0408 -0.9559
 6624SOL    HW131331   3.874   1.927  13.024 -2.0296  1.0020  1.3487
 6624SOL    HW231332   3.753   1.894  12.950  0.3517 -0.5748 -0.8250
 6625SOL     OW31333   1.396   2.357  17.085 -1.3042  0.2401 -0.5091
 6625SOL    HW131334   1.346   2.282  17.119 -3.0210  1.3476 -0.6028
 6625SOL    HW231335   1.392   2.346  16.990  1.0208  0.1553 -0.5840
 6626SOL     OW31336   1.238   3.465   0.634 -0.5733 -0.2761  0.0282
 6626SOL    HW131337   1.294   3.477   0.557 -0.1203 -0.1387  0.3796
 6626SOL    HW231338   1.154   3.506   0.611 -0.8896 -0.7986  0.2752
 6627SOL     OW31339   0.900   4.534  13.871 -0.6015 -0.7512  0.3499
 6627SOL    HW131340   0.871   4.598  13.806  2.3205  1.3139  1.0371
 6627SOL    HW231341   0.815   4.509  13.906 -0.7503  0.8315  1.1367
 6628SOL     OW31342   2.247   3.280   2.045  0.0440 -0.1983  0.1034
 6628SOL    HW131343   2.191   3.343   2.091  0.5276  0.6003 -0.3879
 6628SOL    HW231344   2.276   3.332   1.970 -0.2250 -1.4573 -0.8763
 6629SOL     OW31345   4.308   4.008   5.849 -0.5150 -0.4527 -0.0256
 6629SOL    HW131346   4.259   4.089   5.835 -0.7347 -0.6469 -0.3955
 6629SOL    HW231347   4.331   3.991   5.758  0.9954  1.6436 -0.0294
 6630SOL     OW31348   4.416   0.516   7.369 -0.1314  0.2227 -0.1120
 6630SOL    HW131349   4.449   0.429   7.345 -0.3606  0.5067 -1.4504
 6630SOL    HW231350   4.490   0.576   7.359 -1.3603  1.8418  0.4737
 6631SOL     OW31351   1.815   3.718  17.031 -0.1973 -0.1026 -0.0872
 6631SOL    HW131352   1.832   3.672  17.112 -2.0603 -0.8290 -0.1110
 6631SOL    HW231353   1.802   3.652  16.963  2.5672 -0.9056  0.2052
 6632SOL     OW31354   2.061   2.289   8.170  0.5326 -0.4190  0.4834
 6632SOL    HW131355   1.989   2.341   8.133  0.7834  0.7887  1.6843
 6632SOL    HW231356   2.008   2.237   8.232  1.1970  1.8001  2.9197
 6633SOL     OW31357   2.129   0.322   7.013  0.0485  0.0379  0.5994
 6633SOL    HW131358   2.177   0.347   6.933 -0.9146  1.3668  0.4434
 6633SOL    HW231359   2.165   0.237   7.040 -1.2903 -0.4572  0.8335
 6634SOL     OW31360   0.565   4.053   3.604  0.0720 -0.7024  0.2065
 6634SOL    HW131361   0.555   4.140   3.565  1.9571  0.7602  3.0352
 6634SOL    HW231362   0.512   3.999   3.545  1.5561 -3.1381  1.1052
 6635SOL     OW31363   2.642   1.428  10.406 -0.2761  0.4177 -0.3617
 6635SOL    HW131364   2.628   1.462  10.317  1.2283  0.9983 -0.3863
 6635SOL    HW231365   2.725   1.380  10.402 -1.2899 -1.2781 -1.4576
 6636SOL     OW31366   2.504   2.531   9.924  0.2274  0.5329 -0.2604
 6636SOL    HW131367   2.490   2.545   9.830 -1.8483  1.1924  0.1511
 6636SOL    HW231368   2.450   2.601   9.959 -3.4205 -1.0729 -2.6307
 6637SOL     OW31369   3.923   1.739   5.532  0.4462  0.3795 -0.4614
 6637SOL    HW131370   3.902   1.694   5.451 -1.0247  0.4889 -0.1532
 6637SOL    HW231371   3.867   1.816   5.521  0.1331  0.2803  0.4162
 6638SOL     OW31372   1.765   2.448   2.141 -0.8713  0.4265 -0.0754
 6638SOL    HW131373   1.769   2.521   2.079  1.3974 -0.0903 -0.5334
 6638SOL    HW231374   1.673   2.456   2.167 -0.7706 -0.5544  0.5671
 6639SOL     OW31375   2.584   3.201  13.329 -0.2381  0.0241  0.3867
 6639SOL    HW131376   2.532   3.150  13.391 -1.0773 -0.4700 -0.7325
 6639SOL    HW231377   2.549   3.172  13.245  0.7381 -0.5705  0.1892
 6640SOL     OW31378   1.448   1.150   2.224  0.3602  0.0055 -0.2353
 6640SOL    HW131379   1.469   1.078   2.285  0.5070  1.4964  1.4713
 6640SOL    HW231380   1.443   1.109   2.138 -0.6353 -2.0838  0.8085
 6641SOL     OW31381   3.954   4.707  14.054 -0.0374  0.7419 -0.0549
 6641SOL    HW131382   3.938   4.695  14.148 -4.3472 -0.6901 -0.9752
 6641SOL    HW231383   4.020   4.639  14.044 -1.3058 -0.5739  0.6052
 6642SOL     OW31384   1.100   4.009   0.160 -0.6736 -0.0858 -0.1033
 6642SOL    HW131385   1.104   4.022   0.255 -1.4542  1.4444 -0.2837
 6642SOL    HW231386   1.059   3.922   0.164 -1.6148  0.3690 -0.1201
 6643SOL     OW31387   1.550   3.785   4.217 -0.2634  0.3181 -0.0068
 6643SOL    HW131388   1.529   3.746   4.132  0.1761  0.8349 -0.3484
 6643SOL    HW231389   1.645   3.791   4.206 -0.3805 -0.0718 -1.2297
 6644SOL     OW31390   3.208   2.097   3.723  0.1608  0.5384  0.1985
 6644SOL    HW131391   3.257   2.044   3.786  0.2644 -0.7046 -0.9316
 6644SOL    HW231392   3.250   2.086   3.638  0.8784 -0.0046  0.6211
 6645SOL     OW31393   1.100   4.518   3.153  0.4192  0.1330  0.4567
 6645SOL    HW131394   1.022   4.539   3.101 -0.8710  1.5965  2.9806
 6645SOL    HW231395   1.071   4.436   3.194  1.2086 -1.2141 -1.6854
 6646SOL     OW31396   0.579   4.242   1.745  0.3956  0.1023 -0.8962
 6646SOL    HW131397   0.521   4.241   1.821  1.7572 -0.5636  0.1340
 6646SOL    HW231398   0.527   4.213   1.670 -0.1108  1.9575 -1.2627
 6647SOL     OW31399   1.026   1.774   0.530  0.0892 -0.4083 -0.0906
 6647SOL    HW131400   1.082   1.708   0.571 -0.3414  0.3788  1.7780
 6647SOL    HW231401   0.953   1.718   0.500  1.3311 -2.5618  0.9096
 6648SOL     OW31402   3.329   0.564  14.526 -0.1398  0.4428 -0.0560
 6648SOL    HW131403   3.247   0.516  14.511  0.7067 -1.2847  0.8205
 6648SOL    HW231404   3.312   0.597  14.615  0.7857 -1.9665  1.0124
 6649SOL     OW31405   2.626   2.054   8.908 -0.2262  0.3527  0.5059
 6649SOL    HW131406   2.650   2.021   8.995  1.5396 -0.8992 -0.4385
 6649SOL    HW231407   2.687   2.003   8.855  0.6120 -1.0447  2.8158
 6650SOL     OW31408   3.601   2.386   4.004  0.4838  0.5610  0.0914
 6650SOL    HW131409   3.627   2.316   3.945  0.3268 -0.1076  0.8155
 6650SOL    HW231410   3.692   2.412   4.022  0.7960  0.0227 -0.7309
 6651SOL     OW31411   3.634   1.369   2.508  0.7001  0.3992  0.0533
 6651SOL    HW131412   3.591   1.298   2.460 -2.3861  0.3576  2.8500
 6651SOL    HW231413   3.670   1.317   2.581 -0.2120  0.9339  0.8767
 6652SOL     OW31414   0.809   4.067   6.800  0.8655 -0.2388  0.4424
 6652SOL    HW131415   0.876   3.998   6.795  2.4849  1.4221 -0.6921
 6652SOL    HW231416   0.824   4.122   6.723 -1.4068 -1.5673 -0.9479
 6653SOL     OW31417   3.214   0.598   4.328 -0.3963  1.0323 -0.2441
 6653SOL    HW131418   3.219   0.574   4.420  0.7942 -2.8115 -1.2802
 6653SOL    HW231419   3.156   0.532   4.290  0.3882  0.3164 -0.2022
 6654SOL     OW31420   0.984   3.779   7.989 -0.7099  0.4329  0.2043
 6654SOL    HW131421   1.040   3.702   7.997  0.3326  1.0354 -1.1057
 6654SOL    HW231422   0.988   3.807   8.080 -2.1386  1.8735 -0.1663
 6655SOL     OW31423   3.426   1.674   6.542  0.5134  0.4991 -0.1881
 6655SOL    HW131424   3.431   1.657   6.448 -0.3630 -0.9874  0.0344
 6655SOL    HW231425   3.480   1.603   6.577  0.5117  0.0424 -1.1119
 6656SOL     OW31426   2.730   0.600  14.882 -0.7777  0.1070 -0.3280
 6656SOL    HW131427   2.755   0.640  14.799 -2.5284 -0.8750 -1.3492
 6656SOL    HW231428   2.793   0.529  14.889 -0.7836 -0.1033 -2.4058
 6657SOL     OW31429   4.250   2.088   8.979  0.4788 -0.4941 -0.1747
 6657SOL    HW131430   4.224   2.112   9.068  1.7689  0.4820 -0.0446
 6657SOL    HW231431   4.167   2.048   8.953  0.1389 -0.1786  0.4228
 6658SOL     OW31432   2.669   4.416   2.105 -0.2796  0.0257 -0.2940
 6658SOL    HW131433   2.616   4.368   2.041  3.3444  0.1022 -3.3435
 6658SOL    HW231434   2.738   4.352   2.121  0.6001  0.9730 -0.2963
 6659SOL     OW31435   3.959   0.234   0.736  0.0072  0.1204 -0.2310
 6659SOL    HW131436   3.989   0.147   0.711 -0.0362  0.0703 -0.1093
 6659SOL    HW231437   3.976   0.289   0.660  1.5867  1.3970  1.0233
 6660SOL     OW31438   1.582   3.657   6.207 -0.0852 -0.1089  0.1008
 6660SOL    HW131439   1.490   3.633   6.218 -0.2420 -0.8144 -2.8079
 6660SOL    HW231440   1.604   3.687   6.295 -1.3696 -0.1501  0.4322
 6661SOL     OW31441   3.643   2.010   8.229 -0.0607  0.5960  0.3075
 6661SOL    HW131442   3.711   2.060   8.274  2.2538 -1.2166 -1.1782
 6661SOL    HW231443   3.576   2.076   8.247 -2.5367 -1.9180  0.2971
 6662SOL     OW31444   0.319   4.593   5.279 -0.1925  0.5172 -0.1053
 6662SOL    HW131445   0.407   4.620   5.253  0.4223 -1.1338  0.2674
 6662SOL    HW231446   0.319   4.499   5.297  0.8286  0.4732 -0.3547
 6663SOL     OW31447   3.502   4.097   2.249  0.0234  0.1055 -0.3260
 6663SOL    HW131448   3.583   4.071   2.206 -1.4783  0.2645 -3.2622
 6663SOL    HW231449   3.554   4.129   2.322  0.8039 -0.4581 -0.6391
 6664SOL     OW31450   1.502   2.463   9.159  0.0270  0.0909  0.3580
 6664SOL    HW131451   1.408   2.466   9.146  0.0010 -1.2139  0.2732
 6664SOL    HW231452   1.543   2.510   9.086  0.6810 -2.3170 -0.8025
 6665SOL     OW31453   0.239   2.666   3.850 -0.1421  0.2801  0.3005
 6665SOL    HW131454   0.285   2.609   3.789 -0.6648 -1.7132  1.7726
 6665SOL    HW231455   0.161   2.616   3.874 -1.8832  1.6945 -2.5404
 6666SOL     OW31456   2.171   0.467   9.632 -0.4851 -0.2993 -0.5160
 6666SOL    HW131457   2.234   0.516   9.580  0.0624 -3.3397 -2.7115
 6666SOL    HW231458   2.100   0.532   9.631 -1.2847 -1.1700 -0.7226
 6667SOL     OW31459   2.395   3.141   5.567  0.0888  1.2958  0.4784
 6667SOL    HW131460   2.460   3.205   5.596  0.0457  1.7178 -0.3383
 6667SOL    HW231461   2.329   3.201   5.531  0.6274  1.9130  0.5195
 6668SOL     OW31462   0.307   4.576   7.512  0.0627  0.3341  0.8429
 6668SOL    HW131463   0.379   4.618   7.559  0.7191 -1.9317  1.8272
 6668SOL    HW231464   0.232   4.597   7.567  0.9749  0.8157  1.8929
 6669SOL     OW31465   1.530   3.882   1.831  0.1980 -0.0593  0.0108
 6669SOL    HW131466   1.464   3.940   1.793  0.6067  0.3878 -0.0221
 6669SOL    HW231467   1.544   3.936   1.909 -0.2843  1.6185 -1.0532
 6670SOL     OW31468   2.055   4.122   7.612  0.2602  0.4210 -0.3831
 6670SOL    HW131469   2.043   4.118   7.707 -0.5103 -0.2658 -0.5102
 6670SOL    HW231470   2.137   4.081   7.588  1.4229  1.2273  2.2344
 6671SOL     OW31471   0.769   3.958   0.965 -0.2828 -0.4044  0.2087
 6671SOL    HW131472   0.815   4.008   1.033  1.2029 -1.0006 -0.3478
 6671SOL    HW231473   0.814   3.988   0.885  2.3369  0.9865  2.1880
 6672SOL     OW31474   3.289   4.329   5.408  0.6988  0.1405  0.1858
 6672SOL    HW131475   3.371   4.370   5.436  0.3872  0.3779  0.7427
 6672SOL    HW231476   3.283   4.235   5.427 -1.5410  0.0768 -0.8142
 6673SOL     OW31477   4.125   4.648   8.287 -0.5284  0.0907  0.3514
 6673SOL    HW131478   4.198   4.691   8.243 -2.6436  0.4550 -2.8359
 6673SOL    HW231479   4.157   4.664   8.376  1.0537 -0.3087 -0.1468
 6674SOL     OW31480   2.787   3.735   9.696 -0.3000  0.0058  0.3525
 6674SOL    HW131481   2.696   3.749   9.722 -0.1147 -0.2545  1.1272
 6674SOL    HW231482   2.808   3.823   9.664  1.6305 -0.1212  1.3179
 6675SOL     OW31483   1.046   3.736   7.316 -0.0747 -0.2454  0.1933
 6675SOL    HW131484   1.103   3.659   7.313 -0.3362 -0.4131 -0.5548
 6675SOL    HW231485   1.110   3.801   7.343  0.5684 -0.5097 -0.6869
 6676SOL     OW31486   3.084   0.820   0.442  0.1598 -0.2771 -0.6727
 6676SOL    HW131487   3.001   0.858   0.412  0.6897  0.5362 -1.0710
 6676SOL    HW231488   3.106   0.865   0.523 -3.0371  1.1158 -0.5844
 6677SOL     OW31489   2.452   0.077   8.958 -0.0337 -0.1228 -0.2728
 6677SOL    HW131490   2.472   0.169   8.940  1.5872 -0.2828  0.7053
 6677SOL    HW231491   2.382   0.076   9.022 -0.3628 -0.4681 -0.6347
 6678SOL     OW31492   2.307   2.910  11.694 -0.3838 -0.1898 -0.0154
 6678SOL    HW131493   2.294   2.907  11.599  1.4636  1.3286 -0.3252
 6678SOL    HW231494   2.257   2.989  11.714 -0.3738 -0.3210  0.5240
 6679SOL     OW31495   4.014   4.120  12.695  0.1833  0.3688 -0.2876
 6679SOL    HW131496   3.983   4.197  12.647 -0.9548  0.5474  0.7185
 6679SOL    HW231497   4.071   4.170  12.755  1.1040 -1.4500  0.3402
 6680SOL     OW31498   2.614   4.442   0.011  0.1937 -0.1742 -0.4111
 6680SOL    HW131499   2.655   4.498  17.632 -0.6995 -0.9181 -1.6083
 6680SOL    HW231500   2.580   4.372  17.642  0.6543 -0.4229 -0.3853
 6681SOL     OW31501   4.319   1.230   9.189  0.1864 -0.3755 -0.0323
 6681SOL    HW131502   4.229   1.260   9.196  0.4009 -0.5114  3.1987
 6681SOL    HW231503   4.310   1.136   9.176 -2.7784 -0.5208  3.4456
 6682SOL     OW31504   4.291   4.283   7.686 -0.4706 -0.0556  0.1401
 6682SOL    HW131505   4.321   4.346   7.620 -0.4031 -0.9369 -0.6654
 6682SOL    HW231506   4.337   4.322   7.761  0.0412 -0.4569  0.0366
 6683SOL     OW31507   2.886   1.795   7.972 -0.0667  0.4092  0.4459
 6683SOL    HW131508   2.794   1.784   7.994  0.7847 -0.6216  3.4442
 6683SOL    HW231509   2.921   1.818   8.058 -0.1523 -3.3627  1.5056
 6684SOL     OW31510   2.791   1.627   4.489 -0.3282  0.5864 -0.1067
 6684SOL    HW131511   2.863   1.681   4.521 -0.2359 -1.2930  2.8267
 6684SOL    HW231512   2.817   1.541   4.522  1.7920  2.2955  2.6824
 6685SOL     OW31513   0.878   2.185   4.760 -0.4286  0.7471 -0.0779
 6685SOL    HW131514   0.924   2.116   4.809 -1.0691  0.6822  0.4484
 6685SOL    HW231515   0.922   2.252   4.812  3.2261 -1.4981 -0.3193
 6686SOL     OW31516   1.564   3.866  13.669  0.6012 -0.2477  0.2411
 6686SOL    HW131517   1.562   3.771  13.673  0.2409 -0.2764 -0.6943
 6686SOL    HW231518   1.517   3.864  13.586  1.3326  2.3141 -0.2459
 6687SOL     OW31519   1.477   2.967  15.477  0.2244  0.3634 -0.3917
 6687SOL    HW131520   1.512   2.898  15.533 -0.2524  0.4434 -0.0042
 6687SOL    HW231521   1.401   2.997  15.526  0.1065  1.1151 -1.0239
 6688SOL     OW31522   2.006   0.556   5.695  0.0880  0.0709 -0.1756
 6688SOL    HW131523   1.997   0.573   5.601 -0.3182  1.2463  0.0653
 6688SOL    HW231524   2.094   0.587   5.716 -1.4564  3.2127  1.7857
 6689SOL     OW31525   1.575   4.535  14.269  0.1557  0.2236  0.1922
 6689SOL    HW131526   1.486   4.522  14.303 -0.2902 -1.6403 -1.6543
 6689SOL    HW231527   1.561   4.605  14.205 -2.9809 -2.1205 -1.6995
 6690SOL     OW31528   3.530   1.798  16.940  0.3477  0.4471 -0.2776
 6690SOL    HW131529   3.498   1.807  16.850  1.6662  0.6687 -0.7215
 6690SOL    HW231530   3.511   1.705  16.945  1.0248  0.2770 -0.8225
 6691SOL     OW31531   1.813   1.643  15.383 -0.1649 -0.4017  0.9480
 6691SOL    HW131532   1.884   1.624  15.322  0.3299 -0.8148  1.6410
 6691SOL    HW231533   1.789   1.560  15.426 -0.4700 -1.7941 -1.9321
 6692SOL     OW31534   0.958   4.607  17.274 -0.6090 -0.6126 -0.2561
 6692SOL    HW131535   0.971   4.668  17.201  1.9077  0.8111  1.3728
 6692SOL    HW231536   1.025   4.543  17.250 -1.2560 -0.7255 -1.7562
 6693SOL     OW31537   1.334   0.382   4.098  0.3893 -0.2314 -0.1184
 6693SOL    HW131538   1.408   0.350   4.150 -0.0606  1.1476  1.3250
 6693SOL    HW231539   1.382   0.385   4.014 -0.2745  0.3235 -0.4800
 6694SOL     OW31540   3.753   4.494  14.958 -0.2017  0.4446  0.1915
 6694SOL    HW131541   3.702   4.446  15.023 -0.7737  0.9737  0.1321
 6694SOL    HW231542   3.831   4.438  14.956 -0.2186  0.4095  0.5597
 6695SOL     OW31543   1.681   4.417   6.360 -0.1322 -0.5413 -0.1375
 6695SOL    HW131544   1.774   4.398   6.373  0.4444  1.9193 -0.6501
 6695SOL    HW231545   1.650   4.333   6.328 -1.1986 -0.8568  1.7608
 6696SOL     OW31546   0.840   1.994  10.199 -0.0762 -0.1342 -0.3569
 6696SOL    HW131547   0.899   1.983  10.274 -0.8412 -0.9648  0.1286
 6696SOL    HW231548   0.776   2.060  10.226  0.6623 -0.0063  1.0821
 6697SOL     OW31549   1.115   3.419   4.983 -0.0176 -0.3681 -0.3512
 6697SOL    HW131550   1.123   3.499   4.931  1.9158 -1.3932 -1.6279
 6697SOL    HW231551   1.188   3.430   5.045 -0.2115 -1.3424  0.0522
 6698SOL     OW31552   4.246   0.857   5.509 -0.3342  0.2460 -0.3570
 6698SOL    HW131553   4.177   0.879   5.572  0.5277  0.0215  0.6691
 6698SOL    HW231554   4.260   0.940   5.464  0.6939  0.7616  0.9023
 6699SOL     OW31555   3.720   2.861   5.981 -0.2458  0.6419  0.1584
 6699SOL    HW131556   3.646   2.800   5.985 -2.0947  2.8927 -0.2893
 6699SOL    HW231557   3.735   2.870   5.887 -0.5094 -1.2641 -0.0749
 6700SOL     OW31558   0.980   0.982   3.147 -0.2084  0.1382  0.1523
 6700SOL    HW131559   0.981   0.895   3.187 -1.1946  0.6995  1.4112
 6700SOL    HW231560   1.064   0.979   3.102 -0.3145 -2.0567  0.1124
 6701SOL     OW31561   4.380   1.693  17.202  0.0622 -0.1574  0.5639
 6701SOL    HW131562   4.340   1.667  17.119 -0.8676  4.8092 -0.5242
 6701SOL    HW231563   4.371   1.608  17.246  1.1661  0.1747  1.4412
 6702SOL     OW31564   1.408   1.276   7.885  0.1551 -0.9022  0.2146
 6702SOL    HW131565   1.325   1.228   7.880  0.8005 -1.7831 -2.0663
 6702SOL    HW231566   1.422   1.263   7.979  0.5768  0.7821  0.3977
 6703SOL     OW31567   1.181   0.581   9.174  0.1448 -0.2734 -0.4136
 6703SOL    HW131568   1.123   0.536   9.113 -0.6702  1.3838 -0.8713
 6703SOL    HW231569   1.121   0.643   9.215  1.1273  0.7004 -0.4646
 6704SOL     OW31570   1.244   3.304  17.182  0.0406  0.4124  0.1877
 6704SOL    HW131571   1.257   3.399  17.179 -1.7089  0.6325 -0.3101
 6704SOL    HW231572   1.157   3.293  17.144  0.5203 -1.2279 -0.4296
 6705SOL     OW31573   2.813   1.330   8.284  0.0860  0.1573 -0.1014
 6705SOL    HW131574   2.737   1.273   8.274 -1.3329  1.6177  2.4135
 6705SOL    HW231575   2.860   1.304   8.363 -0.2679 -2.4613 -0.7519
 6706SOL     OW31576   1.258   1.740   8.827  0.0769  0.2464  0.6701
 6706SOL    HW131577   1.289   1.828   8.847 -0.2409  0.5954 -0.3485
 6706SOL    HW231578   1.309   1.724   8.748  1.3732 -0.8544  1.7454
 6707SOL     OW31579   1.576   2.463   6.419  0.1752 -0.0950 -0.8545
 6707SOL    HW131580   1.655   2.491   6.375  0.5048  1.1831  0.5643
 6707SOL    HW231581   1.598   2.374   6.446  3.2921  0.8860 -0.1683
 6708SOL     OW31582   4.662   3.406  15.880 -0.1701 -0.0394  0.5794
 6708SOL    HW131583   4.710   3.424  15.800  2.8952  0.2972  2.4865
 6708SOL    HW231584   4.632   3.492  15.913 -2.0712 -0.3225 -0.4083
 6709SOL     OW31585   1.681   0.740   8.400 -0.3647  0.2543 -0.9155
 6709SOL    HW131586   1.691   0.816   8.458  0.5041 -0.7301  0.2262
 6709SOL    HW231587   1.692   0.777   8.312  0.0686 -0.4635 -1.1647
 6710SOL     OW31588   2.099   0.338  13.303 -0.2152  0.2443 -0.5341
 6710SOL    HW131589   2.185   0.367  13.335  0.9467 -3.0559 -0.6716
 6710SOL    HW231590   2.056   0.423  13.299 -0.1368  0.3376  0.7085
 6711SOL     OW31591   2.502   0.664   6.177 -0.0950 -0.2853 -0.2308
 6711SOL    HW131592   2.430   0.687   6.118 -0.0951  1.4003  0.4353
 6711SOL    HW231593   2.498   0.739   6.236 -0.9130  0.0497 -0.7084
 6712SOL     OW31594   1.551   3.912  10.097  0.4034  0.2072  0.2951
 6712SOL    HW131595   1.494   3.982  10.129 -1.0730  0.9308 -3.9831
 6712SOL    HW231596   1.604   3.961  10.034 -1.5495  1.2166 -0.5465
 6713SOL     OW31597   2.379   2.219  10.664  0.5018  0.1226 -0.0628
 6713SOL    HW131598   2.369   2.126  10.684  2.6108  0.4698  2.6342
 6713SOL    HW231599   2.288   2.228  10.635 -0.5643  0.9766  3.4997
 6714SOL     OW31600   2.438   3.840  15.255 -0.2010  0.1819 -0.6697
 6714SOL    HW131601   2.501   3.904  15.222  0.0418  1.1440  1.6536
 6714SOL    HW231602   2.365   3.900  15.271  0.5965  0.5996  1.3861
 6715SOL     OW31603   2.088   3.914  14.731  0.3013  0.3748  0.0993
 6715SOL    HW131604   2.137   3.833  14.746 -0.0774  0.2245  0.5538
 6715SOL    HW231605   2.142   3.957  14.665  0.6524 -0.0388  0.1207
 6716SOL     OW31606   2.609   3.037   9.254  0.2211 -0.2401  0.4654
 6716SOL    HW131607   2.659   3.096   9.197  1.0166  0.5661  2.0244
 6716SOL    HW231608   2.667   2.962   9.250 -1.9625 -1.8410 -1.7082
 6717SOL     OW31609   0.003   0.616   2.436  0.2452  0.1804  0.0137
 6717SOL    HW131610   4.689   0.593   2.522  0.5946 -0.1789  0.0589
 6717SOL    HW231611   4.653   0.665   2.396 -1.0486 -1.4330  0.3677
 6718SOL     OW31612   4.424   3.404   5.155 -0.2789 -0.5964 -0.2786
 6718SOL    HW131613   4.500   3.411   5.213 -1.7717  1.5688  1.4102
 6718SOL    HW231614   4.392   3.320   5.186  0.8286  0.2224  3.0112
 6719SOL     OW31615   0.126   0.623  11.274 -0.0907 -1.0620 -0.0161
 6719SOL    HW131616   0.158   0.689  11.211 -0.2844  0.3106  1.3240
 6719SOL    HW231617   0.181   0.545  11.267  1.9553  0.2720  1.4373
 6720SOL     OW31618   1.277   4.256   4.630 -0.6866 -0.2154  0.5550
 6720SOL    HW131619   1.258   4.189   4.564 -1.3041 -0.3481  0.8617
 6720SOL    HW231620   1.263   4.342   4.592  0.8215  0.1907  0.9163
 6721SOL     OW31621   3.345   3.825   3.547 -0.0592 -0.5038 -0.1555
 6721SOL    HW131622   3.255   3.815   3.579  0.4982  0.9376  1.9130
 6721SOL    HW231623   3.327   3.802   3.456  0.4675 -1.1734 -0.0900
 6722SOL     OW31624   2.913   4.588  16.438 -0.4729 -0.2560 -0.3143
 6722SOL    HW131625   2.987   4.593  16.378  0.4940  0.7639  0.9753
 6722SOL    HW231626   2.922   4.663  16.497 -1.0453 -0.0484 -0.4921
 6723SOL     OW31627   2.570   4.575  15.333 -0.3923  0.0572  0.2166
 6723SOL    HW131628   2.524   4.501  15.295  0.7385  0.2317 -1.4632
 6723SOL    HW231629   2.611   4.618  15.259  0.4605 -1.2835 -0.0977
 6724SOL     OW31630   3.143   0.921   2.202 -0.0942 -0.3243  0.0127
 6724SOL    HW131631   3.197   0.853   2.162  2.2055  1.2453  0.4320
 6724SOL    HW231632   3.154   0.892   2.293  1.7430  0.0119 -0.1016
 6725SOL     OW31633   1.290   1.062   3.155 -0.6374  0.2847  0.0083
 6725SOL    HW131634   1.240   1.058   3.074  1.4344  2.2114 -1.3364
 6725SOL    HW231635   1.249   1.140   3.193  0.5775  1.3470 -0.8952
 6726SOL     OW31636   0.645   3.657  10.564 -0.3689 -0.0411  0.0633
 6726SOL    HW131637   0.562   3.668  10.610  0.5681  0.1383  1.7121
 6726SOL    HW231638   0.706   3.643  10.636 -0.4401 -1.6955 -0.1912
 6727SOL     OW31639   3.818   0.986   9.642 -0.6226 -0.0079 -0.0307
 6727SOL    HW131640   3.734   0.941   9.633 -1.2255  1.3267 -1.2191
 6727SOL    HW231641   3.799   1.069   9.599 -0.8838  0.0867  0.2708
 6728SOL     OW31642   2.998   1.059  17.198 -0.2083  0.4972  0.2005
 6728SOL    HW131643   2.931   1.087  17.261 -0.8054  0.2398 -0.3172
 6728SOL    HW231644   3.075   1.104  17.232  1.3923 -1.1356 -1.2714
 6729SOL     OW31645   1.779   4.087   4.786 -0.0052 -0.0389 -0.2375
 6729SOL    HW131646   1.875   4.088   4.780 -0.0749 -0.6891 -1.5492
 6729SOL    HW231647   1.774   4.119   4.876  4.9726  0.2289 -0.0594
 6730SOL     OW31648   4.044   3.356   6.329 -0.1366  0.5489 -0.5540
 6730SOL    HW131649   3.965   3.397   6.363  0.3846 -0.7024  2.1169
 6730SOL    HW231650   4.097   3.368   6.408 -0.4273 -1.3253 -0.0902
 6731SOL     OW31651   2.465   2.290   1.131 -0.3426  0.6727 -0.3263
 6731SOL    HW131652   2.370   2.288   1.122 -0.4361 -0.3513  0.8309
 6731SOL    HW231653   2.505   2.243   1.058 -1.0586  1.8606 -1.4658
 6732SOL     OW31654   1.462   3.001  12.552  0.3153  0.1213  0.0492
 6732SOL    HW131655   1.411   3.068  12.508  1.3941  0.4821 -0.6773
 6732SOL    HW231656   1.458   2.943  12.476  1.4138  1.3982 -0.9923
 6733SOL     OW31657   1.608   4.647   2.093 -0.3168 -0.0314 -0.6773
 6733SOL    HW131658   1.650   0.000   2.049 -0.8828  1.0407  0.6066
 6733SOL    HW231659   1.526   4.638   2.046 -0.5205  0.2632 -0.3763
 6734SOL     OW31660   1.921   3.119   1.745 -0.5826  0.0603 -0.2300
 6734SOL    HW131661   2.008   3.082   1.727 -0.7567 -1.3336  1.8165
 6734SOL    HW231662   1.879   3.044   1.787  0.5189 -0.8926 -0.8049
 6735SOL     OW31663   1.429   3.407  11.797  0.1088 -0.4161 -0.5030
 6735SOL    HW131664   1.343   3.439  11.770  0.0616  0.8916  1.1700
 6735SOL    HW231665   1.439   3.335  11.735 -0.9210  1.1516 -2.4908
 6736SOL     OW31666   3.963   2.454   9.142 -0.2616 -0.0309 -0.1111
 6736SOL    HW131667   3.899   2.427   9.208  2.3556  0.2895  2.5961
 6736SOL    HW231668   3.969   2.547   9.164  1.4912  0.1858 -1.5262
 6737SOL     OW31669   3.898   2.178  15.002  0.0614  0.4633  0.1578
 6737SOL    HW131670   3.981   2.131  15.000  0.4616  1.1797 -0.1908
 6737SOL    HW231671   3.920   2.246  15.066  0.1271  2.3451 -1.8486
 6738SOL     OW31672   4.176   2.945   0.088 -0.4622  0.1139  0.7407
 6738SOL    HW131673   4.191   3.037   0.108 -1.4018 -0.2360  2.9939
 6738SOL    HW231674   4.220   2.893   0.156  0.3266 -0.8816 -0.5167
 6739SOL     OW31675   4.521   3.623   8.748 -0.2112  0.2442  0.6357
 6739SOL    HW131676   4.588   3.634   8.816  0.3032 -0.4312  0.2320
 6739SOL    HW231677   4.467   3.566   8.803 -1.5798 -0.6927 -1.7040
 6740SOL     OW31678   0.603   1.279   8.689 -0.8076 -0.0788 -0.1877
 6740SOL    HW131679   0.692   1.247   8.705 -0.3185  0.2705 -2.2738
 6740SOL    HW231680   0.563   1.222   8.624 -2.3913  0.3120  0.4355
 6741SOL     OW31681   1.467   0.976   9.055 -0.2970 -0.0182 -0.3183
 6741SOL    HW131682   1.559   0.969   9.082 -0.2221  2.1854  0.0025
 6741SOL    HW231683   1.469   0.913   8.984 -0.2584 -0.0579 -0.2823
 6742SOL     OW31684   2.093   1.178   6.520  0.2825 -0.1249 -0.0674
 6742SOL    HW131685   2.007   1.150   6.489  0.3272  0.0608 -0.3527
 6742SOL    HW231686   2.102   1.244   6.452 -1.5236  1.7066  1.4967
 6743SOL     OW31687   0.638   4.076   5.325 -0.2638  0.4503 -0.1116
 6743SOL    HW131688   0.542   4.081   5.320 -0.3359 -0.7206  0.0638
 6743SOL    HW231689   0.655   4.168   5.347 -1.3658  0.5756  0.2427
 6744SOL     OW31690   4.003   3.965  16.075  0.1356  0.1155 -0.0824
 6744SOL    HW131691   3.953   4.042  16.048 -1.2858 -0.7831 -0.0063
 6744SOL    HW231692   4.059   3.960  15.999 -0.7149 -0.7055 -0.6456
 6745SOL     OW31693   1.520   1.210   5.418  0.5032  0.1424  0.5564
 6745SOL    HW131694   1.509   1.194   5.324 -1.3673  2.1203  0.4297
 6745SOL    HW231695   1.479   1.295   5.429  0.8219  0.0368  2.5482
 6746SOL     OW31696   4.347   1.248   5.830 -0.1884 -0.1433 -0.7770
 6746SOL    HW131697   4.323   1.212   5.745 -1.2828 -1.3280  0.0241
 6746SOL    HW231698   4.395   1.177   5.872  0.0923  1.9703  2.4935
 6747SOL     OW31699   3.267   2.406   9.122  0.3951  0.5444 -0.5265
 6747SOL    HW131700   3.298   2.353   9.195 -1.3052 -0.3072 -0.4128
 6747SOL    HW231701   3.259   2.487   9.172 -2.6102  1.0489 -1.8392
 6748SOL     OW31702   0.846   2.912   1.798  0.1122  0.3245 -0.1501
 6748SOL    HW131703   0.777   2.868   1.749  0.1156  1.0346 -0.7922
 6748SOL    HW231704   0.906   2.838   1.810  0.3797  0.4771 -0.5366
 6749SOL     OW31705   1.222   3.723  17.507 -0.2248  0.3851  0.0441
 6749SOL    HW131706   1.180   3.711  17.592 -0.3733 -0.5031 -0.1610
 6749SOL    HW231707   1.160   3.785  17.467  0.6723  1.0542 -0.3108
 6750SOL     OW31708   4.320   4.714  17.244  0.2299  0.3232  0.0189
 6750SOL    HW131709   4.263   0.058  17.202 -1.6148 -2.1726 -1.3452
 6750SOL    HW231710   4.278   4.631  17.222  1.2859 -0.6505  1.7291
 6751SOL     OW31711   2.083   3.904   2.931 -0.0342  0.0300 -0.6295
 6751SOL    HW131712   2.084   3.970   3.001  1.0565 -0.6341 -0.0203
 6751SOL    HW231713   2.010   3.844   2.947 -1.2240  1.6335  0.0121
 6752SOL     OW31714   0.260   1.520   0.055  0.1271 -0.4510  0.3699
 6752SOL    HW131715   0.231   1.575  17.669 -0.2998  1.6398  2.1145
 6752SOL    HW231716   0.309   1.458   0.001  2.2509  0.6033  1.0705
 6753SOL     OW31717   2.716   1.809   2.865 -0.3670 -0.0709  0.2556
 6753SOL    HW131718   2.709   1.862   2.786  0.0843 -1.9875 -1.0910
 6753SOL    HW231719   2.630   1.812   2.907 -1.6758 -0.7968 -2.3443
 6754SOL     OW31720   0.409   1.372   1.057  0.8816 -0.2955 -0.0627
 6754SOL    HW131721   0.502   1.395   1.052  0.7469 -0.3196 -2.9347
 6754SOL    HW231722   0.375   1.415   0.978 -1.0678  0.3790  1.1574
 6755SOL     OW31723   1.867   2.206  11.671 -0.3421  0.1327  0.0875
 6755SOL    HW131724   1.937   2.269  11.684  1.2040 -1.3062 -1.2234
 6755SOL    HW231725   1.798   2.271  11.662  0.4816  0.9244 -0.3997
 6756SOL     OW31726   0.307   0.469   4.902 -0.3465  0.0675 -0.2493
 6756SOL    HW131727   0.242   0.404   4.875 -0.2285  0.4532 -1.4869
 6756SOL    HW231728   0.386   0.445   4.853 -1.1537 -0.6893 -1.1802
 6757SOL     OW31729   4.605   3.302   5.546  0.9536  0.4148 -0.0619
 6757SOL    HW131730   4.537   3.369   5.545  0.5007 -0.0417 -0.1444
 6757SOL    HW231731   4.618   3.280   5.453  0.8454 -3.2027  0.7457
 6758SOL     OW31732   1.197   2.224   0.812  0.0018  0.2576 -0.2485
 6758SOL    HW131733   1.259   2.296   0.820  1.0104 -0.7198  0.8597
 6758SOL    HW231734   1.137   2.252   0.744  1.3104  3.1023 -0.2328
 6759SOL     OW31735   3.667   1.563  17.052  0.2311 -0.0107 -0.6697
 6759SOL    HW131736   3.645   1.648  17.090 -0.1661  0.7497 -2.6057
 6759SOL    HW231737   3.697   1.593  16.966 -0.3733  2.1720 -0.1120
 6760SOL     OW31738   4.005   4.703  16.363  0.1183 -0.1236  0.4142
 6760SOL    HW131739   3.986   4.668  16.450 -2.2541  0.0147 -0.0288
 6760SOL    HW231740   3.972   0.072  16.367  0.5107  0.2399 -3.8826
 6761SOL     OW31741   2.245   3.218  12.292 -0.3966 -0.6232  0.1394
 6761SOL    HW131742   2.302   3.268  12.234  2.2659 -2.3321  1.2462
 6761SOL    HW231743   2.317   3.179  12.342  0.4918  1.9748  0.8801
 6762SOL     OW31744   1.957   1.138   9.992 -0.4504 -0.6059 -0.2991
 6762SOL    HW131745   1.877   1.137  10.046 -0.6745 -1.0838 -0.6453
 6762SOL    HW231746   1.919   1.175   9.912 -0.6541  0.5088  0.3100
 6763SOL     OW31747   1.528   1.394  17.383  0.4865 -0.1297 -0.5896
 6763SOL    HW131748   1.541   1.385  17.478  0.1421 -3.0364 -0.8207
 6763SOL    HW231749   1.569   1.315  17.349  1.8581  0.0141  0.7343
 6764SOL     OW31750   2.220   4.142   5.734 -0.5473 -0.2326 -0.1818
 6764SOL    HW131751   2.201   4.232   5.709 -1.1259 -0.2684  0.1301
 6764SOL    HW231752   2.132   4.110   5.752 -1.4189  1.3489 -1.6387
 6765SOL     OW31753   3.157   0.639   6.531  0.6484 -0.2945 -0.5209
 6765SOL    HW131754   3.232   0.616   6.476  1.9888 -0.4635  1.3513
 6765SOL    HW231755   3.136   0.551   6.561  1.1535 -0.2354  0.0018
 6766SOL     OW31756   3.364   2.980   0.416  0.0580 -0.7100  0.6489
 6766SOL    HW131757   3.299   2.952   0.480 -0.0603  0.2459  0.9439
 6766SOL    HW231758   3.435   2.924   0.447  0.3407 -1.3597 -1.1673
 6767SOL     OW31759   2.267   3.847   5.923  0.2337 -0.4502 -0.0830
 6767SOL    HW131760   2.193   3.802   5.884  0.1304 -1.5949  1.4454
 6767SOL    HW231761   2.228   3.880   6.004  0.2321  0.5718 -0.4951
 6768SOL     OW31762   1.731   2.715   6.810 -0.2886 -0.4800 -0.4166
 6768SOL    HW131763   1.688   2.691   6.892 -0.6217 -0.3218 -0.5484
 6768SOL    HW231764   1.652   2.742   6.765 -0.0619  0.6517 -0.1291
 6769SOL     OW31765   3.491   0.302   8.009 -0.2772 -0.5202 -0.3811
 6769SOL    HW131766   3.516   0.211   8.027 -0.3089 -0.9310 -2.3831
 6769SOL    HW231767   3.478   0.337   8.097  0.7583  1.5836 -1.0819
 6770SOL     OW31768   3.146   0.656   7.040 -0.0214 -0.3829  0.7681
 6770SOL    HW131769   3.082   0.675   6.972  3.0273 -0.1257 -2.0357
 6770SOL    HW231770   3.225   0.652   6.986  1.3569  2.8305  2.5018
 6771SOL     OW31771   3.719   1.498  16.657 -0.0558  0.0864  0.0875
 6771SOL    HW131772   3.781   1.479  16.586  0.2290  0.2035  0.3065
 6771SOL    HW231773   3.779   1.528  16.725 -0.8886  0.9414  0.4414
 6772SOL     OW31774   0.153   1.521   4.384  0.0888 -0.6643 -0.0127
 6772SOL    HW131775   0.214   1.574   4.333  0.6696 -1.6051 -0.3153
 6772SOL    HW231776   0.076   1.512   4.328  0.2405  2.0323 -0.6481
 6773SOL     OW31777   4.164   1.699   3.404 -0.3105  0.1932  0.4918
 6773SOL    HW131778   4.170   1.605   3.421  2.6771  0.4435  0.9337
 6773SOL    HW231779   4.249   1.715   3.363  0.3532 -0.9521  1.4380
 6774SOL     OW31780   3.437   2.432   2.046  0.7230  0.3832 -0.1022
 6774SOL    HW131781   3.448   2.454   2.139 -0.7485 -3.4253  0.9871
 6774SOL    HW231782   3.353   2.387   2.053  1.2197 -0.5965 -0.6229
 6775SOL     OW31783   3.305   3.208   0.565  0.2826  0.4356 -0.3901
 6775SOL    HW131784   3.325   3.264   0.490 -3.5058  2.9896  0.5053
 6775SOL    HW231785   3.356   3.131   0.539  2.8903  1.6839  0.9695
 6776SOL     OW31786   2.876   3.734   8.944 -0.6225 -0.4648 -0.5602
 6776SOL    HW131787   2.829   3.652   8.926 -2.4959  0.6160 -0.5934
 6776SOL    HW231788   2.818   3.793   8.897 -0.9344  0.3080  0.8045
 6777SOL     OW31789   1.706   3.042  13.990  0.5804  0.5242  0.0481
 6777SOL    HW131790   1.722   3.050  13.896 -1.2514  0.2691 -0.2826
 6777SOL    HW231791   1.699   3.135  14.013 -3.0280  0.6760 -1.7120
 6778SOL     OW31792   1.946   0.799  17.192 -0.6501  0.2097  0.2500
 6778SOL    HW131793   2.034   0.777  17.222 -1.7602 -1.9058  2.0103
 6778SOL    HW231794   1.902   0.733  17.246 -0.4070 -1.9199 -2.1654
 6779SOL     OW31795   1.566   0.625   0.616 -0.2704  0.0115  0.9881
 6779SOL    HW131796   1.643   0.569   0.623  0.0311  0.4974  1.5437
 6779SOL    HW231797   1.509   0.572   0.672 -1.2880  1.9092  1.7571
 6780SOL     OW31798   0.514   3.993  16.806  0.3364 -0.1785  0.0240
 6780SOL    HW131799   0.512   4.051  16.882 -3.9268 -1.2974  0.7607
 6780SOL    HW231800   0.542   4.059  16.743 -0.5935  1.1208  0.9717
 6781SOL     OW31801   2.151   3.781  14.381 -0.3485  0.1374  0.2197
 6781SOL    HW131802   2.117   3.769  14.293 -1.8240 -1.6760  1.0431
 6781SOL    HW231803   2.072   3.821  14.416 -0.2284  0.5956 -0.0419
 6782SOL     OW31804   3.221   3.299  16.313 -0.0198 -0.5031 -1.2674
 6782SOL    HW131805   3.215   3.206  16.288  0.7033 -1.4617  2.1222
 6782SOL    HW231806   3.167   3.341  16.247 -1.7955 -0.9464 -0.0795
 6783SOL     OW31807   2.251   2.352  11.740  0.2283 -0.5013  0.0838
 6783SOL    HW131808   2.239   2.259  11.760  0.0652 -0.6893 -0.8756
 6783SOL    HW231809   2.180   2.372  11.679 -0.5076  2.2927  1.8972
 6784SOL     OW31810   1.899   0.328   7.988  0.4758 -0.3105  0.0619
 6784SOL    HW131811   1.822   0.381   7.968  1.1180  0.0863 -1.3398
 6784SOL    HW231812   1.878   0.242   7.952 -2.1928  0.1013  0.6560
 6785SOL     OW31813   3.998   2.156   2.699 -0.5639  0.0203  0.2534
 6785SOL    HW131814   3.932   2.093   2.671 -0.3378 -0.5304  0.9474
 6785SOL    HW231815   3.946   2.222   2.746 -0.3676  0.7543 -0.5475
 6786SOL     OW31816   1.484   0.062  16.650 -0.3890 -0.0772 -0.2161
 6786SOL    HW131817   1.452   0.073  16.561 -0.4669 -1.1244 -0.3230
 6786SOL    HW231818   1.437   4.708  16.685  1.8371 -0.5824  1.6949
 6787SOL     OW31819   1.541   3.330   5.985 -0.4352 -0.0399  0.0651
 6787SOL    HW131820   1.633   3.322   5.960 -0.9599  0.8135 -2.1231
 6787SOL    HW231821   1.533   3.291   6.072 -0.5372 -0.6006 -0.1978
 6788SOL     OW31822   1.408   2.422  16.365  0.2586  0.1882 -0.2082
 6788SOL    HW131823   1.351   2.492  16.396  0.6241 -0.3254  1.6497
 6788SOL    HW231824   1.485   2.476  16.346 -1.2901  2.6851  0.5752
 6789SOL     OW31825   2.325   0.360  15.125  0.3034  0.3356 -0.2161
 6789SOL    HW131826   2.352   0.269  15.136 -2.0934 -0.3841 -0.2965
 6789SOL    HW231827   2.242   0.347  15.079  0.5798 -1.9753 -0.0928
 6790SOL     OW31828   2.922   0.871   1.167  0.4798  0.0206 -0.7922
 6790SOL    HW131829   2.935   0.954   1.120 -0.1279 -0.5650 -1.9789
 6790SOL    HW231830   2.968   0.806   1.115  0.5860 -1.6024  1.3377
 6791SOL     OW31831   4.067   1.642   8.972 -0.1090 -0.1393 -0.1701
 6791SOL    HW131832   4.012   1.620   9.047  0.5519 -1.7113 -0.1642
 6791SOL    HW231833   4.143   1.585   8.982 -0.0212  0.1723  0.9481
 6792SOL     OW31834   2.950   1.832   4.597  0.1424  0.0568 -0.1192
 6792SOL    HW131835   3.015   1.854   4.664  0.3080  0.7713 -0.5207
 6792SOL    HW231836   2.869   1.861   4.637  1.6626  1.1234  2.1808
 6793SOL     OW31837   3.749   3.453   7.344  0.2763  0.6264 -0.9018
 6793SOL    HW131838   3.735   3.411   7.259  3.6299 -0.0842 -1.1054
 6793SOL    HW231839   3.794   3.532   7.315 -1.6626  1.3511 -1.9031
 6794SOL     OW31840   0.863   0.635   5.347 -0.4519 -0.0118 -0.1945
 6794SOL    HW131841   0.864   0.569   5.278 -0.4780 -2.5389  2.2052
 6794SOL    HW231842   0.953   0.667   5.341 -1.0876  1.4816 -1.6073
 6795SOL     OW31843   2.889   1.186   5.130  0.0844  0.3950 -1.0133
 6795SOL    HW131844   2.886   1.185   5.226  0.1380 -1.1298 -1.0321
 6795SOL    HW231845   2.800   1.200   5.097 -0.9201 -0.5231  1.2693
 6796SOL     OW31846   1.927   0.613   4.483  0.3354  0.1640 -0.3499
 6796SOL    HW131847   1.960   0.556   4.414  1.4695 -0.5994  0.8214
 6796SOL    HW231848   1.887   0.546   4.539 -0.2906 -1.1655 -2.3975
 6797SOL     OW31849   0.411   1.121  16.562 -0.7236  0.2780 -0.0523
 6797SOL    HW131850   0.357   1.053  16.521  0.6611 -0.5255 -0.5087
 6797SOL    HW231851   0.356   1.194  16.531  0.4711  2.3888  2.8507
 6798SOL     OW31852   0.498   3.108  16.977 -0.0449 -0.8413 -0.0328
 6798SOL    HW131853   0.552   3.150  16.911 -2.1508 -0.1703 -1.3201
 6798SOL    HW231854   0.413   3.106  16.933 -0.1672 -1.4376  0.2353
 6799SOL     OW31855   1.519   2.159   2.067 -0.5994 -0.0465  0.2973
 6799SOL    HW131856   1.559   2.097   2.128 -1.6344  2.1775  3.2349
 6799SOL    HW231857   1.562   2.130   1.986  1.5796 -2.2272  2.2054
 6800SOL     OW31858   1.621   4.032   1.413 -0.7187 -0.0102  0.0963
 6800SOL    HW131859   1.684   4.054   1.343 -0.1984 -1.3583  0.1350
 6800SOL    HW231860   1.606   4.124   1.437 -1.9518 -0.4602  1.0271
 6801SOL     OW31861   1.425   4.068   5.458 -0.1385  0.1759 -0.2634
 6801SOL    HW131862   1.494   4.128   5.486 -1.5551  1.5053  0.4000
 6801SOL    HW231863   1.453   4.024   5.378  2.5546 -2.0694  1.8938
 6802SOL     OW31864   1.434   3.484   4.995 -0.4596  0.5889  0.2161
 6802SOL    HW131865   1.418   3.398   4.955 -0.0670  0.4697  0.3105
 6802SOL    HW231866   1.529   3.491   4.981 -0.4759  0.5254  0.0668
 6803SOL     OW31867   0.330   4.141   0.961  0.4664  0.2560 -0.1888
 6803SOL    HW131868   0.252   4.195   0.969  0.5480  0.6472 -2.2543
 6803SOL    HW231869   0.291   4.062   0.925  1.8945 -1.4017  1.9076
 6804SOL     OW31870   2.937   0.724   5.360  0.0291 -0.1362  0.3888
 6804SOL    HW131871   2.937   0.635   5.325  1.2159  0.3012 -0.7405
 6804SOL    HW231872   2.902   0.767   5.282  0.4429  1.5380  1.1323
 6805SOL     OW31873   0.015   3.756   9.659 -0.1706 -0.0209  0.3476
 6805SOL    HW131874   0.046   3.828   9.715 -0.4481  0.6895 -0.4096
 6805SOL    HW231875   4.697   3.801   9.584  1.3960  0.8079  0.0444
 6806SOL     OW31876   1.242   0.097   5.802  0.4403  0.0491 -0.5475
 6806SOL    HW131877   1.155   0.118   5.835 -0.1950 -2.9471 -0.3082
 6806SOL    HW231878   1.258   0.015   5.849 -2.0274  0.1674  0.5244
 6807SOL     OW31879   0.753   2.612  17.458  0.0747  0.5324  0.0755
 6807SOL    HW131880   0.758   2.646  17.368 -1.6171 -2.7083 -1.2321
 6807SOL    HW231881   0.847   2.603  17.476  0.0882  1.0958  0.2811
 6808SOL     OW31882   1.019   0.229  10.023  0.1205  0.6713  0.0973
 6808SOL    HW131883   1.069   0.149  10.041 -2.6169 -1.3283 -1.2497
 6808SOL    HW231884   1.023   0.238   9.928 -0.4708  0.9378  0.0967
 6809SOL     OW31885   2.353   1.829   6.512 -0.4527 -0.4634  0.5098
 6809SOL    HW131886   2.379   1.840   6.603  1.5471  1.3724 -0.2938
 6809SOL    HW231887   2.438   1.829   6.467 -1.8016 -2.0604 -2.0544
 6810SOL     OW31888   4.542   1.702   5.677 -0.1366 -0.3132  0.4120
 6810SOL    HW131889   4.574   1.731   5.762  1.3699  1.5476 -0.8069
 6810SOL    HW231890   4.593   1.751   5.613  1.7500 -0.8844  1.4821
 6811SOL     OW31891   2.737   0.376   4.603 -0.3058 -0.6738  0.0425
 6811SOL    HW131892   2.822   0.416   4.587 -1.4139  1.0909 -1.3619
 6811SOL    HW231893   2.696   0.358   4.519  0.5561 -0.2674 -0.4599
 6812SOL     OW31894   4.089   1.492   0.020 -0.6709 -0.1767 -0.1653
 6812SOL    HW131895   4.012   1.536  17.670  0.8155  0.9332 -1.9686
 6812SOL    HW231896   4.132   1.554   0.079  0.3409  0.8440 -1.9746
 6813SOL     OW31897   1.957   3.579   7.493  0.0226  0.5206 -0.3010
 6813SOL    HW131898   1.961   3.516   7.421  0.0328 -1.2021  1.2252
 6813SOL    HW231899   2.043   3.573   7.533  0.4070 -1.0327 -1.3980
 6814SOL     OW31900   3.029   0.105   2.528  0.0371  0.5079  0.0482
 6814SOL    HW131901   3.104   0.048   2.543 -1.3147 -0.9565  1.2721
 6814SOL    HW231902   2.962   0.057   2.577 -0.1416  0.5617 -0.1471
 6815SOL     OW31903   4.294   1.903   9.331 -0.4420  0.2562 -0.1119
 6815SOL    HW131904   4.346   1.830   9.297  1.1759  1.5002 -0.3273
 6815SOL    HW231905   4.326   1.906   9.421  0.2135  1.6609 -0.4011
 6816SOL     OW31906   1.239   3.176   0.678  0.3514 -0.1206  1.0287
 6816SOL    HW131907   1.151   3.196   0.712 -1.1447  0.5396 -3.2385
 6816SOL    HW231908   1.254   3.259   0.634  0.8898 -1.1850 -0.7964
 6817SOL     OW31909   4.703   1.036   5.585 -0.3353 -0.0810 -0.1169
 6817SOL    HW131910   4.675   1.007   5.671 -0.3071  1.7578  0.4979
 6817SOL    HW231911   4.714   0.949   5.547 -1.4800 -0.9011  1.4608
 6818SOL     OW31912   0.741   2.325   9.370 -0.1960  0.7849 -0.5304
 6818SOL    HW131913   0.684   2.322   9.447 -0.5423  0.3372 -0.8023
 6818SOL    HW231914   0.744   2.234   9.339  0.9221  0.7554 -0.3155
 6819SOL     OW31915   1.931   2.064   0.129 -0.1364 -0.1367 -0.4846
 6819SOL    HW131916   1.982   2.006   0.072  0.9642  0.5455 -0.2049
 6819SOL    HW231917   1.839   2.037   0.127  0.0729 -0.9262  0.5542
 6820SOL     OW31918   1.967   2.736   5.878 -0.2979 -0.1136 -0.1088
 6820SOL    HW131919   2.031   2.703   5.941  1.6923  0.5042 -1.7981
 6820SOL    HW231920   1.881   2.699   5.900  0.0672 -0.0284  1.4725
 6821SOL     OW31921   4.122   3.509   4.265 -0.3388  0.0746  0.7328
 6821SOL    HW131922   4.169   3.454   4.202 -4.2511 -2.3736 -0.0921
 6821SOL    HW231923   4.201   3.553   4.297  1.1585  0.2861 -3.2496
 6822SOL     OW31924   4.272   1.718   7.619  0.0913 -0.7412 -0.0109
 6822SOL    HW131925   4.297   1.793   7.566 -1.6016 -0.3793 -0.2963
 6822SOL    HW231926   4.295   1.650   7.556  2.9145 -1.6583  2.0009
 6823SOL     OW31927   1.065   4.036   0.826  0.1705  0.5559  0.2756
 6823SOL    HW131928   1.034   4.074   0.908 -3.2259 -1.6636  0.0223
 6823SOL    HW231929   1.014   4.080   0.758  1.3062  0.6807 -0.4857
 6824SOL     OW31930   0.960   2.949  17.437  0.5939 -0.1383 -0.2155
 6824SOL    HW131931   0.874   2.908  17.426  0.4176  0.1312  0.1321
 6824SOL    HW231932   0.985   2.908  17.520 -1.8420 -1.3800 -0.0826
 6825SOL     OW31933   4.432   0.773   5.136  0.0684 -0.2027 -0.2664
 6825SOL    HW131934   4.367   0.738   5.076  0.4624 -0.3557 -0.6018
 6825SOL    HW231935   4.396   0.856   5.167  0.0953 -0.5374  0.6790
 6826SOL     OW31936   1.116   1.202   1.587 -0.0023  0.2784 -0.0293
 6826SOL    HW131937   1.115   1.274   1.651 -0.9508  0.3243 -0.0927
 6826SOL    HW231938   1.025   1.217   1.559 -0.4082 -1.9793  0.0702
 6827SOL     OW31939   0.481   4.690  17.519  0.0140 -0.3468 -0.3713
 6827SOL    HW131940   0.428   4.663  17.593 -0.6877  0.0875 -0.7092
 6827SOL    HW231941   0.421   0.031  17.477  2.0703  1.0138 -1.3312
 6828SOL     OW31942   2.267   1.982   7.188  0.1961 -0.2296  0.1738
 6828SOL    HW131943   2.283   2.074   7.210 -3.3791  0.3973  0.2713
 6828SOL    HW231944   2.204   1.990   7.116 -2.2566  2.7654  2.6229
 6829SOL     OW31945   0.249   2.103  11.477  0.5379  0.0988  0.1415
 6829SOL    HW131946   0.199   2.038  11.526 -2.1610  1.8733 -0.2880
 6829SOL    HW231947   0.255   2.174  11.541  2.3151 -0.9951  1.2011
 6830SOL     OW31948   0.490   0.090   6.011  0.2056  0.3343 -0.3789
 6830SOL    HW131949   0.444   0.028   5.954  0.2405  0.8321 -0.9493
 6830SOL    HW231950   0.533   0.157   5.957  0.9024 -0.0834 -0.3353
 6831SOL     OW31951   0.622   0.574   6.780  0.0676  0.9079 -0.1103
 6831SOL    HW131952   0.572   0.622   6.846 -0.1273 -2.6398  2.2862
 6831SOL    HW231953   0.556   0.558   6.712  0.3509  0.0935 -0.1891
 6832SOL     OW31954   3.103   0.183  16.337  0.2736  0.0897 -0.0212
 6832SOL    HW131955   3.135   0.270  16.314  1.8276 -1.5963 -4.3337
 6832SOL    HW231956   3.100   0.175  16.432  1.4389  0.0889  0.0154
 6833SOL     OW31957   2.665   1.827  11.342 -0.0186  0.1378 -0.7270
 6833SOL    HW131958   2.659   1.833  11.247  0.3130 -0.3509 -0.7814
 6833SOL    HW231959   2.578   1.841  11.378  0.2091  1.6771 -0.7910
 6834SOL     OW31960   1.488   1.081   0.547  0.1435 -0.0598 -0.2248
 6834SOL    HW131961   1.417   1.129   0.504  1.0229  2.5878  1.2606
 6834SOL    HW231962   1.548   1.153   0.567  0.1912  0.7892 -3.5100
 6835SOL     OW31963   0.591   2.752  10.343 -0.0484 -0.4202 -0.5251
 6835SOL    HW131964   0.567   2.668  10.305  0.8879 -1.2036  0.6395
 6835SOL    HW231965   0.540   2.809  10.286 -0.0393  0.9666  0.8583
 6836SOL     OW31966   1.259   1.160   8.300 -0.1131 -0.3755  0.8324
 6836SOL    HW131967   1.188   1.208   8.256 -1.0504 -1.8336  0.7479
 6836SOL    HW231968   1.255   1.189   8.391 -0.4758 -0.4790  0.8496
 6837SOL     OW31969   3.751   1.261   0.080  0.1500  0.1058 -0.1560
 6837SOL    HW131970   3.734   1.326   0.148 -0.3255 -1.7704  1.5390
 6837SOL    HW231971   3.736   1.181   0.131 -1.5127 -0.5706 -1.6903
 6838SOL     OW31972   3.932   3.574   2.138  0.6702 -0.0243 -0.2370
 6838SOL    HW131973   4.001   3.511   2.115  1.7881  0.6985  1.0635
 6838SOL    HW231974   3.877   3.507   2.178  0.3648  1.2324  1.4865
 6839SOL     OW31975   0.188   1.924  10.593  0.1311  0.2693 -0.0446
 6839SOL    HW131976   0.215   2.015  10.579 -1.0275  0.6270  0.0031
 6839SOL    HW231977   0.098   1.941  10.620  0.5743  1.0003  0.9804
 6840SOL     OW31978   4.278   3.404   9.979  0.1558 -0.7610  0.5477
 6840SOL    HW131979   4.209   3.434   9.920  1.9169 -0.1710 -1.2322
 6840SOL    HW231980   4.224   3.358  10.043  0.7063 -1.9468  0.1771
 6841SOL     OW31981   2.923   3.451   2.784  0.1653  0.7117 -0.1040
 6841SOL    HW131982   2.950   3.411   2.701 -0.7409  0.1862 -0.1504
 6841SOL    HW231983   2.831   3.424   2.789  0.0386  1.4301  1.6579
 6842SOL     OW31984   2.574   4.579   8.151  0.5726 -0.4503 -0.5872
 6842SOL    HW131985   2.599   4.650   8.093  1.7991  1.0675  1.7918
 6842SOL    HW231986   2.479   4.590   8.155  0.6852  0.2472  0.0604
 6843SOL     OW31987   0.591   1.293   4.470  0.1288  0.0286  0.0817
 6843SOL    HW131988   0.590   1.366   4.408  1.9971  0.9992  1.1988
 6843SOL    HW231989   0.681   1.303   4.502 -0.5841  1.5104  1.6478
 6844SOL     OW31990   2.654   2.498   3.562 -0.2263 -0.4468  0.2799
 6844SOL    HW131991   2.626   2.513   3.652  1.1002  1.1820  0.4071
 6844SOL    HW231992   2.571   2.509   3.515  1.2781  1.0365 -2.0662
 6845SOL     OW31993   3.927   1.800  15.627 -0.1157  0.2490 -0.1062
 6845SOL    HW131994   3.906   1.751  15.548 -0.2990 -1.2408  0.8666
 6845SOL    HW231995   3.967   1.724  15.668 -1.1142 -0.4136 -0.3739
 6846SOL     OW31996   0.654   1.053   3.377 -0.9471  0.1887  0.3048
 6846SOL    HW131997   0.562   1.073   3.397 -1.2850 -0.1508 -0.9208
 6846SOL    HW231998   0.646   0.958   3.385 -1.1197  0.2016  0.2848
 6847SOL     OW31999   2.676   2.832   1.968  0.1732  0.9124  0.1815
 6847SOL    HW132000   2.696   2.812   2.060 -0.6563 -0.8935 -0.0322
 6847SOL    HW232001   2.672   2.739   1.945 -0.3404  0.9272  0.2216
 6848SOL     OW32002   0.602   4.627   4.965 -0.4722 -0.2283 -0.2104
 6848SOL    HW132003   0.622   4.534   4.956 -0.9129 -0.1010 -2.4968
 6848SOL    HW232004   0.593   4.638   5.060 -1.6496 -3.6663  0.0626
 6849SOL     OW32005   1.474   3.694  17.394  0.0042  0.4833  0.1160
 6849SOL    HW132006   1.408   3.665  17.457  2.3259 -1.9433  1.4158
 6849SOL    HW232007   1.477   3.787  17.415  0.0239 -0.3800  3.8692
 6850SOL     OW32008   0.121   0.039   7.206  0.1132 -0.3321 -0.2059
 6850SOL    HW132009   0.158   0.114   7.160  2.5016 -0.4942  1.4101
 6850SOL    HW232010   0.116   0.074   7.295  2.0779  1.8264 -0.9405
 6851SOL     OW32011   1.683   0.263   8.594 -0.0675 -0.0403  0.2387
 6851SOL    HW132012   1.625   0.237   8.665  3.2346 -0.9968  2.6095
 6851SOL    HW232013   1.765   0.277   8.642 -0.2376 -0.7204  0.7252
 6852SOL     OW32014   3.817   1.706   6.417  0.0909 -0.1109 -0.3718
 6852SOL    HW132015   3.746   1.741   6.363  0.7150 -0.3214 -1.3272
 6852SOL    HW232016   3.787   1.716   6.507  1.6203  0.7331  0.0358
 6853SOL     OW32017   1.778   3.952   3.180 -0.3813  0.6356 -0.3220
 6853SOL    HW132018   1.849   3.916   3.234  1.3136  2.9030 -1.0376
 6853SOL    HW232019   1.780   3.887   3.110  0.5346 -0.1050  0.3747
 6854SOL     OW32020   0.493   4.214   1.166 -0.1344 -0.1401 -0.1563
 6854SOL    HW132021   0.416   4.213   1.224  0.3219  0.4276  0.4662
 6854SOL    HW232022   0.450   4.192   1.084 -0.2025  0.7212 -0.3471
 6855SOL     OW32023   2.777   4.625   7.364  0.7255 -0.0859 -0.4438
 6855SOL    HW132024   2.719   4.679   7.310 -2.2572 -2.5234  0.3369
 6855SOL    HW232025   2.778   4.686   7.437 -0.8343 -1.1090  0.4296
 6856SOL     OW32026   4.128   3.576   5.600  0.1482 -0.0086  0.1191
 6856SOL    HW132027   4.150   3.600   5.510  0.6416 -1.1123 -0.0576
 6856SOL    HW232028   4.033   3.569   5.599  0.2651 -1.7030  0.2192
 6857SOL     OW32029   2.493   0.778   3.447  0.5489  0.7818  0.0549
 6857SOL    HW132030   2.531   0.703   3.401  3.2029  1.0096  1.8669
 6857SOL    HW232031   2.569   0.837   3.455 -0.6834  2.2911  0.5830
 6858SOL     OW32032   3.119   3.966   5.113  0.1007  0.3150 -0.4460
 6858SOL    HW132033   3.110   4.003   5.201 -1.7026  0.8783 -0.8651
 6858SOL    HW232034   3.058   3.892   5.112  0.6230 -0.1446  2.3023
 6859SOL     OW32035   2.922   1.935  10.884 -0.4305  0.1603 -0.4745
 6859SOL    HW132036   2.948   1.849  10.852  0.7505  0.5737 -0.6288
 6859SOL    HW232037   2.995   1.988  10.851  0.3029 -0.5476 -0.0057
 6860SOL     OW32038   1.251   3.581   1.763  0.4113 -0.0354  0.2926
 6860SOL    HW132039   1.332   3.548   1.725  0.0905 -0.1301 -0.3138
 6860SOL    HW232040   1.214   3.618   1.682  1.0404 -0.2382 -0.0882
 6861SOL     OW32041   4.008   4.391   6.191  0.3498  0.0932 -0.3788
 6861SOL    HW132042   4.064   4.314   6.204 -0.4405 -0.7447 -1.8701
 6861SOL    HW232043   4.017   4.444   6.270  0.8295  0.4717 -0.6842
 6862SOL     OW32044   1.008   1.543   2.981 -0.0092 -0.0816  0.4444
 6862SOL    HW132045   1.063   1.592   2.920 -0.0455 -0.7951 -0.1578
 6862SOL    HW232046   0.980   1.612   3.042  3.4781  2.3425 -0.6983
 6863SOL     OW32047   0.310   0.838  13.509 -0.6908  0.1821 -0.0776
 6863SOL    HW132048   0.269   0.797  13.585 -1.4910  0.4731 -0.3534
 6863SOL    HW232049   0.238   0.831  13.446 -0.3375  1.1107 -0.5876
 6864SOL     OW32050   0.927   3.313   5.165  0.2825 -0.5485  0.4258
 6864SOL    HW132051   0.987   3.335   5.093 -0.0954  0.3927  0.4038
 6864SOL    HW232052   0.914   3.399   5.205  1.7433  0.5397 -1.4535
 6865SOL     OW32053   1.151   4.481  13.632 -0.5694  0.4031 -0.2649
 6865SOL    HW132054   1.129   4.406  13.687 -0.6801  0.6518  0.0298
 6865SOL    HW232055   1.231   4.450  13.589 -0.7170 -1.1541  0.5858
 6866SOL     OW32056   0.671   1.780   8.550 -0.2036  0.4740  0.2412
 6866SOL    HW132057   0.743   1.748   8.496 -1.2990  0.5441 -1.2565
 6866SOL    HW232058   0.636   1.701   8.590  0.0432  1.5564  2.6359
 6867SOL     OW32059   2.913   1.655  10.813  0.4201 -0.0408  0.5426
 6867SOL    HW132060   2.919   1.668  10.718  0.9118  2.9940  0.9954
 6867SOL    HW232061   2.979   1.585  10.813 -0.0685 -0.5065  1.1885
 6868SOL     OW32062   2.467   0.353   8.985 -0.4020 -0.0040 -0.3848
 6868SOL    HW132063   2.477   0.427   9.044  2.5798  0.1643 -1.0748
 6868SOL    HW232064   2.510   0.391   8.908 -2.0570 -0.0835 -1.3520
 6869SOL     OW32065   0.918   1.538   8.132 -0.2643  0.0914 -0.2498
 6869SOL    HW132066   0.837   1.582   8.106 -0.3368 -1.3192 -2.4264
 6869SOL    HW232067   0.969   1.619   8.121 -1.2288  0.6982 -0.2534
 6870SOL     OW32068   2.824   4.126   0.663  0.0629 -0.6046 -0.1355
 6870SOL    HW132069   2.867   4.122   0.749 -1.2852  0.6437  0.5960
 6870SOL    HW232070   2.889   4.160   0.602  1.8378  1.6032  3.0105
 6871SOL     OW32071   1.724   3.169   0.351 -0.0382  0.2495  0.2720
 6871SOL    HW132072   1.679   3.221   0.285 -2.9491 -2.5302  0.0864
 6871SOL    HW232073   1.783   3.234   0.391  2.8713 -2.7228  0.8366
 6872SOL     OW32074   4.029   3.806  12.953 -0.0622  0.6225  0.3629
 6872SOL    HW132075   4.018   3.751  13.030 -3.1818  1.6864  0.6838
 6872SOL    HW232076   4.124   3.816  12.958 -0.1916 -0.2110  4.1100
 6873SOL     OW32077   2.880   4.521   3.768  0.0624  0.5647  0.7234
 6873SOL    HW132078   2.911   4.570   3.692  1.0302 -2.4856 -0.8445
 6873SOL    HW232079   2.785   4.535   3.770 -0.1512 -0.8751  0.6117
 6874SOL     OW32080   0.843   0.283  13.918  0.8027 -0.3402  0.5303
 6874SOL    HW132081   0.756   0.259  13.885  0.6999  0.8734 -0.1076
 6874SOL    HW232082   0.898   0.215  13.880  0.4092 -1.3277  1.7230
 6875SOL     OW32083   2.773   0.978   5.955  0.0866 -0.2589 -0.2565
 6875SOL    HW132084   2.694   0.978   5.901  0.9262 -0.4422 -1.4855
 6875SOL    HW232085   2.825   0.913   5.908 -0.5665 -1.2411  0.3584
 6876SOL     OW32086   0.508   4.485   7.071 -0.1478  0.0317 -0.2131
 6876SOL    HW132087   0.512   4.568   7.023 -0.5218  0.7694  1.0298
 6876SOL    HW232088   0.420   4.481   7.110 -1.2420  1.2437 -2.5308
 6877SOL     OW32089   0.708   2.830  15.482 -0.0743 -0.1082 -0.0404
 6877SOL    HW132090   0.645   2.888  15.526  0.3060 -1.4634  2.2593
 6877SOL    HW232091   0.776   2.892  15.456  0.9255 -0.7278  1.1191
 6878SOL     OW32092   3.791   4.610  15.745 -0.3418 -0.5808  0.2626
 6878SOL    HW132093   3.830   4.527  15.716  1.2589  0.6649 -1.1779
 6878SOL    HW232094   3.738   4.568  15.813  0.9004 -0.4778  1.2853
 6879SOL     OW32095   3.405   2.236   9.315  0.1830  0.0543  0.0358
 6879SOL    HW132096   3.333   2.173   9.318  0.9977 -1.0074 -2.6874
 6879SOL    HW232097   3.478   2.176   9.303 -1.8632 -2.1706 -1.4768
 6880SOL     OW32098   2.601   4.705   5.874  0.0436 -0.1781  0.1655
 6880SOL    HW132099   2.630   0.020   5.958  2.3185  0.6455 -0.9543
 6880SOL    HW232100   2.569   4.616   5.889  0.1196 -0.0832  0.9268
 6881SOL     OW32101   3.456   2.040  10.498 -0.2562 -0.0751  0.1332
 6881SOL    HW132102   3.550   2.047  10.481 -0.3721  0.3743 -0.3215
 6881SOL    HW232103   3.440   2.130  10.528 -1.5260  0.2316 -1.4832
 6882SOL     OW32104   4.351   0.472   9.365  0.1381  0.6910 -0.2032
 6882SOL    HW132105   4.257   0.471   9.379  0.0621  1.2581 -0.6395
 6882SOL    HW232106   4.376   0.433   9.449 -1.7658 -0.1626 -0.0355
 6883SOL     OW32107   0.293   4.481  13.994 -0.5447 -0.1889 -0.5071
 6883SOL    HW132108   0.284   4.395  14.034 -0.6269  0.5358  1.0503
 6883SOL    HW232109   0.292   4.535  14.073  0.0953 -0.8990 -0.0226
 6884SOL     OW32110   0.767   1.781   7.177  0.2059  0.2218  0.4698
 6884SOL    HW132111   0.716   1.780   7.096 -0.4736  2.0729  0.8872
 6884SOL    HW232112   0.837   1.729   7.137  0.0890  1.0977 -0.8754
 6885SOL     OW32113   2.054   1.344  14.504  0.0714 -0.1266 -0.1561
 6885SOL    HW132114   1.975   1.306  14.466 -0.9500  0.6692  1.1731
 6885SOL    HW232115   2.029   1.434  14.482 -1.9710 -0.9649 -1.2325
 6886SOL     OW32116   1.239   1.372   6.920 -0.1402 -0.0462 -0.0253
 6886SOL    HW132117   1.183   1.314   6.971 -0.8758 -0.7696 -1.6468
 6886SOL    HW232118   1.268   1.441   6.979  2.2258 -0.4242 -0.7075
 6887SOL     OW32119   4.696   0.784   5.213  0.2788  0.0004  0.0038
 6887SOL    HW132120   4.604   0.758   5.206  0.0966  0.7795 -0.4927
 6887SOL    HW232121   4.717   0.813   5.124  0.3402 -0.6656 -0.1967
 6888SOL     OW32122   1.096   0.082   6.701  0.9351 -0.1324 -0.0461
 6888SOL    HW132123   1.145   0.021   6.646 -1.5869 -0.3840 -1.9788
 6888SOL    HW232124   1.074   0.150   6.637 -0.9677 -0.3500  0.3758
 6889SOL     OW32125   0.463   1.444   7.808  0.0846 -0.3505  0.3138
 6889SOL    HW132126   0.388   1.430   7.750 -0.3828  1.0020  0.5896
 6889SOL    HW232127   0.421   1.477   7.888  0.2310  0.6299 -0.0166
 6890SOL     OW32128   0.154   2.345  16.375  0.1911 -0.2490  0.2058
 6890SOL    HW132129   0.114   2.258  16.374 -0.5674  0.1090 -0.1696
 6890SOL    HW232130   0.117   2.374  16.292 -3.0164 -2.1050  0.9920
 6891SOL     OW32131   0.992   4.488  17.682  0.9150  0.1752  0.0461
 6891SOL    HW132132   0.988   4.571  17.634  0.3465  0.4066  0.4930
 6891SOL    HW232133   1.072   4.449  17.648  0.2914 -0.2384 -0.9207
 6892SOL     OW32134   2.542   1.703   6.288  0.4379  0.1080 -0.5028
 6892SOL    HW132135   2.620   1.719   6.340  0.2618  0.6564 -0.4163
 6892SOL    HW232136   2.539   1.772   6.222  0.1649  0.7992  0.2431
 6893SOL     OW32137   1.854   2.505   6.683  0.3580 -0.3280 -0.0704
 6893SOL    HW132138   1.843   2.536   6.593  0.6714  1.0307  0.3613
 6893SOL    HW232139   1.811   2.570   6.737 -0.0265 -1.0081  0.4296
 6894SOL     OW32140   1.418   0.462   9.208 -0.0334 -0.7455  0.2054
 6894SOL    HW132141   1.337   0.511   9.194  0.2993 -0.1484  0.4107
 6894SOL    HW232142   1.474   0.538   9.221  0.9743 -2.0001  3.1821
 6895SOL     OW32143   3.468   4.047   6.914 -0.3548 -0.3022 -0.4523
 6895SOL    HW132144   3.476   4.135   6.876  1.2014 -0.0324  0.5270
 6895SOL    HW232145   3.515   3.990   6.853  0.6803  2.1892 -1.9949
 6896SOL     OW32146   0.482   2.511   1.768 -0.0305 -0.2596 -0.6566
 6896SOL    HW132147   0.432   2.463   1.702  1.3049 -0.5690 -1.4449
 6896SOL    HW232148   0.545   2.553   1.709 -0.6466 -1.1389 -1.9568
 6897SOL     OW32149   0.958   3.832  10.527 -0.1389 -0.0524  0.2608
 6897SOL    HW132150   1.030   3.849  10.588  0.5354 -0.8303 -0.3112
 6897SOL    HW232151   0.922   3.748  10.553  1.4993 -1.2905 -1.5191
 6898SOL     OW32152   3.400   2.234  16.211  0.0416  0.4098  0.1943
 6898SOL    HW132153   3.310   2.204  16.195  0.5387 -0.9531 -0.0032
 6898SOL    HW232154   3.449   2.161  16.174  0.1045  0.5766 -0.0554
 6899SOL     OW32155   3.944   0.591   4.722 -0.7684  0.7614  0.4913
 6899SOL    HW132156   3.947   0.566   4.814  3.7119  0.3016  0.2421
 6899SOL    HW232157   3.855   0.626   4.720 -1.4368 -0.9198  0.9234
 6900SOL     OW32158   0.333   2.950   4.691 -0.6664 -0.1591 -0.2802
 6900SOL    HW132159   0.395   2.904   4.747 -0.3732 -1.3124 -1.5483
 6900SOL    HW232160   0.260   2.888   4.693  0.0352 -0.8587  2.6415
 6901SOL     OW32161   2.384   2.841  17.545 -0.3078  0.2157 -0.1379
 6901SOL    HW132162   2.460   2.839  17.602  1.2585 -1.4544 -2.2858
 6901SOL    HW232163   2.379   2.933  17.522  3.6369 -0.2975 -3.0128
 6902SOL     OW32164   0.933   1.984   0.657  0.1768 -0.1777 -0.0663
 6902SOL    HW132165   0.894   1.924   0.720  2.3836 -0.0397  1.4332
 6902SOL    HW232166   0.985   1.919   0.610 -1.1763  0.0065 -1.8101
 6903SOL     OW32167   2.861   2.008   2.360  0.1164 -0.9511  0.3972
 6903SOL    HW132168   2.870   1.949   2.285  1.9250  0.9907 -0.8943
 6903SOL    HW232169   2.947   2.049   2.366  0.0581 -0.9682  1.3778
 6904SOL     OW32170   4.604   2.443   5.529  0.2040 -0.5881 -0.2115
 6904SOL    HW132171   4.579   2.518   5.474  1.2215 -0.4929 -0.5424
 6904SOL    HW232172   4.682   2.407   5.488  0.1445  0.3561 -1.1679
 6905SOL     OW32173   3.312   3.579   7.329 -0.6338 -0.1367  0.2034
 6905SOL    HW132174   3.304   3.552   7.237  1.7715 -0.4632  0.0917
 6905SOL    HW232175   3.295   3.494   7.371 -0.8601 -0.3425 -0.3056
 6906SOL     OW32176   4.424   1.623   4.936  0.2838  0.0179  0.1426
 6906SOL    HW132177   4.484   1.562   4.893  0.8563  0.1758  0.7245
 6906SOL    HW232178   4.490   1.677   4.979  2.6888 -0.9272 -2.3845
 6907SOL     OW32179   2.542   3.394   5.703 -0.2392  0.2363 -0.3437
 6907SOL    HW132180   2.532   3.432   5.616 -1.7347  1.5734  0.3996
 6907SOL    HW232181   2.507   3.458   5.765 -2.0689 -2.6690  1.6016
 6908SOL     OW32182   1.520   1.282   7.497 -0.1869  0.0126 -0.1736
 6908SOL    HW132183   1.462   1.343   7.452 -0.9503 -1.6134 -1.3853
 6908SOL    HW232184   1.457   1.214   7.520 -0.4091  0.0414 -0.6972
 6909SOL     OW32185   4.513   4.084   8.078 -0.2230 -0.0393 -0.0873
 6909SOL    HW132186   4.552   4.145   8.141 -1.0449 -0.0187  0.3998
 6909SOL    HW232187   4.429   4.072   8.122 -1.0949  3.3376 -0.8065
 6910SOL     OW32188   3.704   3.183   9.328 -0.2073  0.4248 -0.2752
 6910SOL    HW132189   3.710   3.275   9.303  1.2415 -0.2892 -2.5411
 6910SOL    HW232190   3.620   3.160   9.287 -0.3815 -2.5118  1.7501
 6911SOL     OW32191   3.048   4.271   3.439  0.4397 -0.3720  0.1784
 6911SOL    HW132192   3.024   4.273   3.532 -0.1684  1.5450 -0.0146
 6911SOL    HW232193   3.128   4.220   3.449 -0.5965 -1.9011  0.5575
 6912SOL     OW32194   2.107   1.933  10.686  0.1509 -0.2256 -0.6625
 6912SOL    HW132195   2.030   1.894  10.644  1.0932 -1.1711 -1.5268
 6912SOL    HW232196   2.118   2.015  10.639  0.6662  0.9347  1.5030
 6913SOL     OW32197   0.895   2.032   6.657  1.0375  0.3309  0.1809
 6913SOL    HW132198   0.812   2.049   6.613  2.0023  2.2829 -0.8853
 6913SOL    HW232199   0.891   2.096   6.727  0.5991 -0.0020  0.4629
 6914SOL     OW32200   0.979   1.537   6.374 -0.0356  0.1188 -0.0012
 6914SOL    HW132201   0.977   1.617   6.321 -2.2951 -0.4384 -0.7743
 6914SOL    HW232202   0.891   1.500   6.383  0.1212  0.1666  1.6358
 6915SOL     OW32203   3.244   4.050  12.864 -0.1152  0.5007 -0.1225
 6915SOL    HW132204   3.163   4.100  12.879 -1.0022 -1.3032  1.0531
 6915SOL    HW232205   3.273   4.050  12.955 -0.0190  2.6063 -0.1445
 6916SOL     OW32206   2.640   0.725  10.592  0.2108  0.2063 -0.0033
 6916SOL    HW132207   2.710   0.788  10.613  0.8494 -0.6280  0.3753
 6916SOL    HW232208   2.671   0.635  10.602 -0.1312  0.0888 -0.0085
 6917SOL     OW32209   0.192   1.449  16.612  0.5817 -0.6614  0.1650
 6917SOL    HW132210   0.162   1.409  16.531  1.0466  0.2669 -0.4707
 6917SOL    HW232211   0.281   1.471  16.585  0.3327 -1.7340 -1.4809
 6918SOL     OW32212   2.777   2.798   2.212  0.3076  0.2548 -0.1818
 6918SOL    HW132213   2.828   2.787   2.293  1.1341  0.3507 -0.6847
 6918SOL    HW232214   2.743   2.887   2.224  0.7143  0.5316 -1.0356
 6919SOL     OW32215   1.637   3.691   1.153 -0.5021  0.3111  0.4037
 6919SOL    HW132216   1.687   3.657   1.227  1.4854  0.5362 -0.8342
 6919SOL    HW232217   1.561   3.730   1.196 -0.9515 -0.9624  0.7642
 6920SOL     OW32218   1.761   0.264  10.297  0.5454  0.2757 -0.2704
 6920SOL    HW132219   1.715   0.344  10.274 -0.2749 -0.1369 -0.0692
 6920SOL    HW232220   1.705   0.236  10.369 -0.8423 -0.1794 -1.5546
 6921SOL     OW32221   0.773   1.909   5.311  0.0197 -0.2646 -0.2389
 6921SOL    HW132222   0.849   1.967   5.315  1.1216 -1.7401  0.3136
 6921SOL    HW232223   0.776   1.863   5.395 -1.3683 -1.2164 -0.7060
 6922SOL     OW32224   1.866   1.956   3.656 -0.2236 -0.0212  0.4092
 6922SOL    HW132225   1.895   1.906   3.580 -1.1056 -0.3583  0.2949
 6922SOL    HW232226   1.818   1.892   3.709 -0.6842  0.3271  0.4074
 6923SOL     OW32227   3.812   4.376  15.638  0.7881  0.4838  0.0817
 6923SOL    HW132228   3.901   4.370  15.602 -0.0074 -0.3340 -1.7368
 6923SOL    HW232229   3.791   4.287  15.664  1.5547  0.2342 -0.1697
 6924SOL     OW32230   3.151   2.800   9.916  0.1966 -0.2401 -0.0895
 6924SOL    HW132231   3.099   2.781   9.839  2.7902  0.3815 -2.0239
 6924SOL    HW232232   3.103   2.870   9.961  0.6769  1.6523 -2.4756
 6925SOL     OW32233   0.529   3.627   7.791  0.3329  0.6559  1.0468
 6925SOL    HW132234   0.576   3.588   7.718 -1.9854 -1.9939  0.9471
 6925SOL    HW232235   0.592   3.697   7.810  1.4234  0.0114 -0.2856
 6926SOL     OW32236   2.504   3.601  15.336 -0.6923  0.0865 -0.0033
 6926SOL    HW132237   2.485   3.691  15.310 -1.1733 -0.1199 -0.3493
 6926SOL    HW232238   2.430   3.554  15.298 -0.2461 -3.5301  3.4975
 6927SOL     OW32239   4.526   0.531  11.562 -0.5267  0.5186 -0.1662
 6927SOL    HW132240   4.554   0.458  11.618 -2.2753 -1.2317 -1.6019
 6927SOL    HW232241   4.523   0.603  11.625  1.2038  0.7961 -0.3842
 6928SOL     OW32242   4.039   1.271   3.138  0.0072  0.0998 -0.2588
 6928SOL    HW132243   3.960   1.313   3.173  0.7609  1.5989 -0.3546
 6928SOL    HW232244   4.000   1.190   3.106 -1.9429  0.2916  1.6675
 6929SOL     OW32245   0.214   3.695   4.927  0.1012 -0.5085 -0.0537
 6929SOL    HW132246   0.120   3.704   4.940 -0.0265  4.6647 -4.3112
 6929SOL    HW232247   0.248   3.723   5.012 -2.0653  3.9773 -0.6702
 6930SOL     OW32248   2.043   4.352   9.623 -0.2009 -0.2530  0.1967
 6930SOL    HW132249   1.950   4.366   9.604 -0.1124  1.3910  0.9223
 6930SOL    HW232250   2.085   4.333   9.540 -1.9034  0.0983 -0.7412
 6931SOL     OW32251   1.205   1.277   3.277 -0.0463  0.1502  0.0105
 6931SOL    HW132252   1.139   1.296   3.343 -0.6567 -1.6086 -0.0774
 6931SOL    HW232253   1.244   1.363   3.266  0.3855  0.0017  0.3696
 6932SOL     OW32254   2.440   2.346  14.638 -0.2961  0.4105  0.7647
 6932SOL    HW132255   2.369   2.385  14.688 -2.2667 -1.4910 -0.5710
 6932SOL    HW232256   2.512   2.318  14.694  0.7528  0.2304 -0.6562
 6933SOL     OW32257   3.033   0.531  15.319  0.0118  0.2998  0.5774
 6933SOL    HW132258   3.031   0.559  15.228  0.9704  1.7397  1.0067
 6933SOL    HW232259   3.124   0.553  15.340  0.9343 -2.4408 -0.4756
 6934SOL     OW32260   0.522   2.588   2.686  0.0839 -0.2152  0.3947
 6934SOL    HW132261   0.439   2.540   2.687  0.1684 -0.3447  1.8533
 6934SOL    HW232262   0.487   2.657   2.629  2.0728  0.7400  0.3280
 6935SOL     OW32263   4.602   1.356   8.230 -0.2256  0.4368 -0.0708
 6935SOL    HW132264   4.655   1.435   8.241 -0.3878  0.4201  0.8278
 6935SOL    HW232265   4.515   1.388   8.251  0.3205  1.7909  0.1470
 6936SOL     OW32266   3.650   2.505  13.769 -0.5983 -0.2029 -0.8367
 6936SOL    HW132267   3.629   2.461  13.687  2.6009 -2.0213 -0.6643
 6936SOL    HW232268   3.645   2.427  13.825 -1.0259 -1.3098 -2.4308
 6937SOL     OW32269   1.027   1.765  15.933  0.3845 -0.9720 -0.0969
 6937SOL    HW132270   0.983   1.748  15.850 -0.7237  0.0124  0.2936
 6937SOL    HW232271   0.965   1.818  15.983  2.5557  0.8545  0.6884
 6938SOL     OW32272   3.987   3.767  15.466 -0.4055 -0.2243 -0.1146
 6938SOL    HW132273   4.055   3.727  15.520  0.7312  0.8883 -0.7405
 6938SOL    HW232274   3.922   3.794  15.531 -0.5461  0.3559 -0.5003
 6939SOL     OW32275   2.910   3.166   3.562  0.0923 -0.7953  0.6756
 6939SOL    HW132276   2.988   3.114   3.542  0.3071  0.5985 -2.1188
 6939SOL    HW232277   2.864   3.180   3.479 -1.0192  0.8169  1.5619
 6940SOL     OW32278   2.919   3.332   1.455 -0.0582  0.0927 -0.5398
 6940SOL    HW132279   2.872   3.409   1.423  0.0868  0.7617  0.8225
 6940SOL    HW232280   2.849   3.268   1.465 -0.3159  0.3910 -0.4341
 6941SOL     OW32281   2.259   2.655   2.808 -0.3358 -0.0010 -0.0343
 6941SOL    HW132282   2.346   2.633   2.840 -1.0601  2.1277  3.3659
 6941SOL    HW232283   2.227   2.566   2.796 -0.0597 -0.1312  0.2108
 6942SOL     OW32284   3.269   0.848   4.256  0.2797 -0.4102  0.3526
 6942SOL    HW132285   3.232   0.763   4.280 -1.2448  0.2795  0.4079
 6942SOL    HW232286   3.268   0.846   4.161  3.2330 -0.0023  0.3054
 6943SOL     OW32287   3.481   4.536   2.823 -0.1012  0.5350 -0.2751
 6943SOL    HW132288   3.395   4.576   2.809 -0.9969 -1.6789 -1.1064
 6943SOL    HW232289   3.493   4.534   2.918  1.5616  2.8190 -0.4390
 6944SOL     OW32290   3.861   2.779  16.345 -0.0503  0.0790 -0.3630
 6944SOL    HW132291   3.892   2.794  16.256  1.1690  1.1495  0.2554
 6944SOL    HW232292   3.802   2.855  16.349  1.5561  1.2090  1.9187
 6945SOL     OW32293   2.365   2.747   9.688  0.3048 -0.5538 -0.6652
 6945SOL    HW132294   2.284   2.717   9.728  0.1972 -0.6024 -0.9201
 6945SOL    HW232295   2.378   2.826   9.740 -2.7448 -1.1098  0.9120
 6946SOL     OW32296   2.561   3.748   7.966  0.2460  0.0426 -0.0447
 6946SOL    HW132297   2.641   3.713   7.926  0.1275  0.4088 -0.6037
 6946SOL    HW232298   2.522   3.672   8.010  0.7797  0.5796  1.3597
 6947SOL     OW32299   0.539   1.159   6.015 -0.7069 -0.4489 -0.6946
 6947SOL    HW132300   0.504   1.107   6.087 -1.2302  0.8844  0.0197
 6947SOL    HW232301   0.565   1.085   5.962 -0.6907 -1.3917  0.6317
 6948SOL     OW32302   3.971   4.432  15.229  0.0783 -0.1158 -0.5336
 6948SOL    HW132303   3.988   4.400  15.140 -0.7627 -3.1998  0.4293
 6948SOL    HW232304   3.878   4.452  15.216 -0.4357 -3.5504 -2.1785
 6949SOL     OW32305   0.354   1.291   8.834 -0.6018  0.3585  0.5628
 6949SOL    HW132306   0.339   1.374   8.880  0.9086  2.1427 -2.1444
 6949SOL    HW232307   0.431   1.305   8.780 -1.2716 -0.4675 -0.5996
 6950SOL     OW32308   1.851   3.693   5.730  0.1491 -0.5883  0.8145
 6950SOL    HW132309   1.830   3.611   5.774 -0.4546 -0.6500  0.4072
 6950SOL    HW232310   1.760   3.722   5.721  0.0744 -1.0671  0.0157
 6951SOL     OW32311   1.542   2.043   9.858 -0.2804  0.6613 -0.5726
 6951SOL    HW132312   1.449   2.067   9.858  0.2535  2.8045  0.9308
 6951SOL    HW232313   1.533   1.986   9.934 -0.4571 -2.3306 -2.8242
 6952SOL     OW32314   4.254   1.000   3.410 -0.5975  0.2163  0.4497
 6952SOL    HW132315   4.214   0.959   3.486 -2.3221  1.0705  0.0177
 6952SOL    HW232316   4.213   0.942   3.345  0.2312 -0.1650  0.2626
 6953SOL     OW32317   3.047   2.390   8.969  0.2034  0.0509  0.1713
 6953SOL    HW132318   3.111   2.382   9.039 -0.3472 -1.7267  0.4973
 6953SOL    HW232319   2.995   2.451   9.021  1.1225 -0.0608  1.2217
 6954SOL     OW32320   2.754   2.075   7.372 -0.3479  0.3631  0.0173
 6954SOL    HW132321   2.846   2.049   7.368 -0.8353 -1.7617  2.3801
 6954SOL    HW232322   2.733   2.020   7.448 -2.5041  0.5300 -0.4678
 6955SOL     OW32323   0.181   4.148   1.958 -0.1171  0.1755 -0.1115
 6955SOL    HW132324   0.180   4.105   1.872 -1.3152  0.6587 -0.3325
 6955SOL    HW232325   0.163   4.238   1.932  0.3638  0.1746 -0.4616
 6956SOL     OW32326   3.948   1.321   4.023  0.0810  0.2556 -0.1844
 6956SOL    HW132327   3.940   1.265   4.100 -0.4816  1.6975  0.7930
 6956SOL    HW232328   4.039   1.308   3.997  0.3612  3.2338 -0.6879
 6957SOL     OW32329   1.053   0.581   8.336  0.4494 -0.0129  0.0880
 6957SOL    HW132330   1.129   0.574   8.393  1.9360  2.2045 -1.6187
 6957SOL    HW232331   1.009   0.500   8.362  1.4570 -0.2697  0.9914
 6958SOL     OW32332   1.534   3.487   2.506 -0.1813  0.1597  0.1532
 6958SOL    HW132333   1.550   3.398   2.474 -0.7222  0.3148 -0.5458
 6958SOL    HW232334   1.450   3.504   2.462 -1.7219 -1.0073  2.6184
 6959SOL     OW32335   1.379   1.620   0.060  0.8195 -0.6056  0.6675
 6959SOL    HW132336   1.332   1.552   0.013  0.4212 -0.1479  0.4011
 6959SOL    HW232337   1.311   1.677   0.097 -0.8816 -3.3018  1.6476
 6960SOL     OW32338   4.458   1.748   5.285  0.1843 -0.4754 -0.3318
 6960SOL    HW132339   4.402   1.767   5.359  0.3422  2.0132 -0.8643
 6960SOL    HW232340   4.468   1.653   5.294  0.6377 -0.2923  1.0430
 6961SOL     OW32341   2.004   3.898   1.050 -0.5400 -0.3906 -0.3897
 6961SOL    HW132342   2.063   3.927   0.980 -0.9149 -0.3877 -0.7032
 6961SOL    HW232343   2.000   3.964   1.119 -0.3925 -0.6946 -0.0954
 6962SOL     OW32344   2.338   0.686   7.103 -0.5810  0.7254  0.2496
 6962SOL    HW132345   2.331   0.746   7.177 -0.0190 -0.8542  1.5691
 6962SOL    HW232346   2.432   0.688   7.083 -0.7109  1.9436 -0.2453
 6963SOL     OW32347   1.052   3.272   6.440  0.1989 -0.3407  0.0313
 6963SOL    HW132348   1.065   3.347   6.383 -1.0084  0.4983  0.8739
 6963SOL    HW232349   1.023   3.309   6.523  1.5749 -0.1216  0.4085
 6964SOL     OW32350   2.860   3.786   3.892 -0.3129  0.4471 -0.7114
 6964SOL    HW132351   2.841   3.708   3.944  1.6646 -0.1164 -0.8358
 6964SOL    HW232352   2.932   3.824   3.942 -1.6432  2.2061 -0.1176
 6965SOL     OW32353   0.577   1.143   2.803  0.2697  0.0894  0.0635
 6965SOL    HW132354   0.509   1.083   2.832  1.1863 -0.6072  0.7849
 6965SOL    HW232355   0.558   1.214   2.865 -0.8218 -1.3313  1.3442
 6966SOL     OW32356   3.380   3.397   4.492  0.8061 -0.5876 -0.4575
 6966SOL    HW132357   3.344   3.473   4.538 -0.6149 -1.3384 -0.3063
 6966SOL    HW232358   3.301   3.345   4.478 -0.3623  1.6218 -2.2584
 6967SOL     OW32359   1.220   0.012  17.345 -0.1801 -0.0418  0.2984
 6967SOL    HW132360   1.275   0.006  17.267  0.5449 -0.9394  0.8766
 6967SOL    HW232361   1.174   4.649  17.345 -0.8986  0.3428  1.6567
 6968SOL     OW32362   0.881   0.086   6.861 -0.1121  0.1110 -0.4928
 6968SOL    HW132363   0.893   0.145   6.935 -1.0189  0.7286 -0.8462
 6968SOL    HW232364   0.968   0.077   6.821  0.7025  0.9441  1.0902
 6969SOL     OW32365   0.111   1.991   7.162 -0.0473 -0.3284 -0.3638
 6969SOL    HW132366   0.125   2.002   7.068  0.2593 -2.3671 -0.5582
 6969SOL    HW232367   0.106   2.081   7.193  0.2308 -1.4821  3.0743
 6970SOL     OW32368   1.247   1.356   1.397  0.5577 -0.4373  0.1339
 6970SOL    HW132369   1.220   1.290   1.461 -0.1089 -0.2909  0.0009
 6970SOL    HW232370   1.259   1.305   1.317  0.4663  0.6354 -0.5594
 6971SOL     OW32371   3.477   4.487  10.269 -0.5857  0.0843  0.2005
 6971SOL    HW132372   3.508   4.534  10.192  0.8178 -0.8477  0.1912
 6971SOL    HW232373   3.456   4.398  10.240 -0.8523  0.3156 -0.3121
 6972SOL     OW32374   2.174   0.245  10.920  0.0139 -0.3353  0.9031
 6972SOL    HW132375   2.149   0.331  10.953  3.2806  1.2508 -0.7611
 6972SOL    HW232376   2.097   0.212  10.875  0.0265  0.9396 -0.0581
 6973SOL     OW32377   1.059   3.399  10.555 -0.5168 -0.2611  0.5325
 6973SOL    HW132378   0.982   3.343  10.544  1.1359 -1.9788 -2.4339
 6973SOL    HW232379   1.092   3.384  10.466  0.7423 -1.1243  1.1508
 6974SOL     OW32380   2.558   2.005  15.293  0.4354 -0.1533  0.0762
 6974SOL    HW132381   2.577   1.931  15.351 -0.6951 -1.2347 -0.9248
 6974SOL    HW232382   2.464   1.989  15.288  0.4712 -0.2101 -0.4136
 6975SOL     OW32383   0.078   2.328   3.250 -0.2278  0.8596  0.3193
 6975SOL    HW132384   0.073   2.422   3.266  0.1370  0.9134  0.1047
 6975SOL    HW232385   4.707   2.302   3.245 -0.5704  1.8743  1.3809
 6976SOL     OW32386   3.633   2.652   8.382  0.4946  0.7358  0.2364
 6976SOL    HW132387   3.626   2.746   8.398  3.4300  1.0550 -0.3911
 6976SOL    HW232388   3.552   2.627   8.426  1.4484 -2.0535  0.4142
 6977SOL     OW32389   2.108   4.420  10.857 -0.2276 -0.1560  0.2715
 6977SOL    HW132390   2.176   4.469  10.811 -0.8709  0.4632 -0.0174
 6977SOL    HW232391   2.098   4.478  10.932  3.3950  0.9087 -0.0889
 6978SOL     OW32392   1.482   0.357  15.591  0.0186 -0.2123 -0.3198
 6978SOL    HW132393   1.390   0.333  15.579  0.4123 -1.9893  0.2239
 6978SOL    HW232394   1.480   0.451  15.577 -3.9163  0.2905  3.8510
 6979SOL     OW32395   2.309   0.561  17.400 -0.1880  0.2651 -0.5574
 6979SOL    HW132396   2.261   0.637  17.369 -1.7825 -0.7544 -0.5692
 6979SOL    HW232397   2.398   0.585  17.373  0.4968  1.0855  2.4516
 6980SOL     OW32398   0.684   0.878   2.681 -0.1232 -0.5719 -0.4405
 6980SOL    HW132399   0.769   0.857   2.719  0.4776  0.6722 -1.0941
 6980SOL    HW232400   0.641   0.925   2.752 -0.1452  0.4228 -1.1213
 6981SOL     OW32401   3.479   3.687   4.869  0.5726  0.1673 -0.5220
 6981SOL    HW132402   3.462   3.754   4.935  1.2618 -1.4357  1.2830
 6981SOL    HW232403   3.570   3.704   4.844  0.5897  0.1077 -0.4995
 6982SOL     OW32404   4.302   0.029   2.420 -0.2265  0.3567  0.1202
 6982SOL    HW132405   4.385   0.076   2.408 -0.7486  0.6563 -2.2039
 6982SOL    HW232406   4.265   0.061   2.338  0.4857 -0.1090 -0.3837
 6983SOL     OW32407   2.231   1.863   0.034 -0.0901 -0.2760 -0.1769
 6983SOL    HW132408   2.254   1.917  17.646  0.7827 -1.1303 -0.5253
 6983SOL    HW232409   2.137   1.881   0.045  0.5598  1.4155  2.5192
 6984SOL     OW32410   1.891   3.010   0.006 -0.2399  0.3772 -0.2378
 6984SOL    HW132411   1.889   2.915  17.683 -2.2838  0.3722  0.2867
 6984SOL    HW232412   1.986   3.022   0.005 -0.3388  0.9985 -2.2200
 6985SOL     OW32413   0.929   2.710   6.086 -0.0251  0.5192 -0.0385
 6985SOL    HW132414   0.871   2.721   6.011 -0.2907  3.4069  0.5801
 6985SOL    HW232415   1.015   2.720   6.046 -0.4469 -0.3686 -1.1832
 6986SOL     OW32416   1.270   1.421   8.807  0.4805  0.4139 -0.1808
 6986SOL    HW132417   1.331   1.352   8.835 -0.1870  0.4227  1.3128
 6986SOL    HW232418   1.275   1.476   8.886  0.2441 -2.2663  1.6966
 6987SOL     OW32419   2.342   1.958  10.154 -0.0272  0.3656  0.5335
 6987SOL    HW132420   2.358   1.938  10.246  1.2810  0.7473  0.3841
 6987SOL    HW232421   2.265   2.015  10.158 -0.6844 -0.4709 -0.1498
 6988SOL     OW32422   3.393   0.107   5.067  0.2391  0.5690  0.2403
 6988SOL    HW132423   3.358   0.154   4.991  1.1109 -1.9609 -1.7032
 6988SOL    HW232424   3.411   0.191   5.109 -0.8966  1.2419 -0.5816
 6989SOL     OW32425   4.342   1.969  10.277  0.0520  0.3633 -0.5932
 6989SOL    HW132426   4.408   1.925  10.331  0.4111  0.4761 -0.9390
 6989SOL    HW232427   4.292   1.892  10.250  2.1130 -0.7872 -1.2006
 6990SOL     OW32428   1.374   0.821   3.326  0.2634  0.0822 -0.2917
 6990SOL    HW132429   1.364   0.878   3.402  1.7707 -1.4576  1.0453
 6990SOL    HW232430   1.369   0.879   3.251  0.9300  1.5197  0.7769
 6991SOL     OW32431   0.581   1.754   1.196  0.3923 -0.0208  0.0252
 6991SOL    HW132432   0.489   1.737   1.174  0.1124  0.5364  0.7483
 6991SOL    HW232433   0.586   1.706   1.279 -0.2160 -0.6032 -0.2795
 6992SOL     OW32434   1.633   0.342   2.592  0.1208 -0.3434 -0.2442
 6992SOL    HW132435   1.695   0.415   2.582  0.1020 -0.3678 -0.5294
 6992SOL    HW232436   1.673   0.275   2.536  2.3795  1.9198 -1.3741
 6993SOL     OW32437   1.870   3.319   1.552 -0.5097  0.4465 -0.1025
 6993SOL    HW132438   1.877   3.241   1.607  0.9957 -0.1230 -1.1218
 6993SOL    HW232439   1.783   3.357   1.568 -1.1500 -1.9459  2.2345
 6994SOL     OW32440   1.204   3.142  17.536 -0.2048  0.4913 -0.0195
 6994SOL    HW132441   1.198   3.227  17.492  0.3001  1.6873  2.2008
 6994SOL    HW232442   1.278   3.151  17.596 -0.2316 -0.9996  0.2378
 6995SOL     OW32443   3.139   1.895   1.562 -0.4148 -0.6950 -0.0186
 6995SOL    HW132444   3.056   1.879   1.516 -1.1893  1.5184  0.6496
 6995SOL    HW232445   3.188   1.940   1.494 -0.6932  0.8621  0.8284
 6996SOL     OW32446   2.202   0.030  17.037  0.3282  0.8651  0.3936
 6996SOL    HW132447   2.240   4.698  17.107 -2.1704 -2.4122 -0.7482
 6996SOL    HW232448   2.228   0.118  17.065  1.7022  0.9843 -1.2688
 6997SOL     OW32449   1.586   1.566   9.662  0.1911 -0.4757 -0.1992
 6997SOL    HW132450   1.602   1.659   9.681 -0.1625 -0.7129  1.2733
 6997SOL    HW232451   1.661   1.547   9.606  1.2126 -2.9127  2.0005
 6998SOL     OW32452   2.636   2.868  12.476  0.2605  0.0585 -0.0908
 6998SOL    HW132453   2.656   2.790  12.426 -0.3242 -0.7380  0.9150
 6998SOL    HW232454   2.664   2.852  12.566 -1.0811  1.5922  0.6087
 6999SOL     OW32455   2.818   0.528  17.568 -0.4054  0.0750  0.2806
 6999SOL    HW132456   2.868   0.449  17.546  0.8892  1.3250 -1.3215
 6999SOL    HW232457   2.878   0.598  17.542  0.9852 -1.3104 -0.2523
 7000SOL     OW32458   0.556   0.390  13.469  0.1772  0.6103  0.1760
 7000SOL    HW132459   0.467   0.425  13.459  0.3238  0.1309 -2.8785
 7000SOL    HW232460   0.611   0.467  13.455  2.1845 -0.8251  0.1905
 7001SOL     OW32461   3.977   4.719   6.623  0.0613  0.2535  0.0798
 7001SOL    HW132462   4.031   0.072   6.651 -3.2801  1.5444  3.0830
 7001SOL    HW232463   3.906   4.713   6.687  0.0436 -0.8807 -0.0534
 7002SOL     OW32464   0.686   3.928  16.494  0.3140 -0.1108  0.3292
 7002SOL    HW132465   0.654   4.009  16.534 -1.0496 -1.0989  1.2586
 7002SOL    HW232466   0.718   3.877  16.569  0.6720 -1.9187 -1.0438
 7003SOL     OW32467   4.717   0.348   2.787  0.2849  0.3686 -0.8395
 7003SOL    HW132468   4.626   0.331   2.764  0.0511 -0.4332  0.6549
 7003SOL    HW232469   0.040   0.270   2.753 -1.2504 -0.5935 -0.6091
 7004SOL     OW32470   4.383   3.666   4.358 -0.0101  0.0576  0.0566
 7004SOL    HW132471   4.454   3.608   4.383  1.0560  0.5297 -1.9019
 7004SOL    HW232472   4.431   3.748   4.363  0.4736 -0.3494  2.1030
 7005SOL     OW32473   2.240   4.330   7.417 -0.1439 -0.1617  0.4401
 7005SOL    HW132474   2.314   4.273   7.436  0.4818  1.0594  1.6945
 7005SOL    HW232475   2.203   4.297   7.336  1.9267 -0.8091 -0.2481
 7006SOL     OW32476   0.384   0.906   5.414  0.0102  0.1902  0.4291
 7006SOL    HW132477   0.322   0.861   5.357 -0.0434 -0.9410  1.3868
 7006SOL    HW232478   0.465   0.859   5.394 -0.7892 -1.0127  0.0257
 7007SOL     OW32479   2.329   2.077   2.297 -0.4328 -0.4723 -0.1909
 7007SOL    HW132480   2.319   2.171   2.309 -0.5378 -0.4939 -0.1157
 7007SOL    HW232481   2.424   2.065   2.304 -0.5435 -1.9684 -1.1706
 7008SOL     OW32482   0.634   2.803   7.792  0.3227 -0.1704 -0.9003
 7008SOL    HW132483   0.685   2.884   7.800 -0.5410  0.5345 -2.4184
 7008SOL    HW232484   0.546   2.829   7.819  1.2563  1.6002  0.4618
 7009SOL     OW32485   1.189   4.339   1.404 -0.2555 -0.4223 -0.1071
 7009SOL    HW132486   1.212   4.318   1.313 -1.8868 -1.0789 -0.3702
 7009SOL    HW232487   1.248   4.410   1.426  0.3367 -1.3928  1.4200
 7010SOL     OW32488   0.648   3.411  16.169 -0.1233 -0.0654  0.1542
 7010SOL    HW132489   0.649   3.503  16.194 -1.3430 -0.3630  1.3308
 7010SOL    HW232490   0.557   3.392  16.144 -0.9398  4.3446 -0.1754
 7011SOL     OW32491   3.891   3.793   8.058 -0.3743  0.7512 -0.0222
 7011SOL    HW132492   3.891   3.775   8.152  2.4474 -1.7641 -0.4930
 7011SOL    HW232493   3.897   3.701   8.030 -0.2523  0.0871  2.1602
 7012SOL     OW32494   2.125   1.793  12.112  0.5294  0.3812  0.0696
 7012SOL    HW132495   2.134   1.855  12.184 -4.1701  2.0821 -0.7880
 7012SOL    HW232496   2.065   1.726  12.146  0.5203 -0.5330 -1.7240
 7013SOL     OW32497   2.732   1.859   7.562  0.2093 -0.2134  0.0151
 7013SOL    HW132498   2.811   1.816   7.593 -0.0298  0.2997  1.3785
 7013SOL    HW232499   2.701   1.789   7.506  1.4753  0.8891 -2.0544
 7014SOL     OW32500   0.001   1.337  17.294 -0.0821 -0.3117  0.0344
 7014SOL    HW132501   0.062   1.408  17.313 -0.7890 -0.1554  1.6740
 7014SOL    HW232502   0.042   1.283  17.225 -0.5612 -0.4137 -0.1694
 7015SOL     OW32503   1.625   0.987  10.498  0.1557  0.1368 -0.5401
 7015SOL    HW132504   1.707   1.005  10.452  0.2810  1.7680  0.2892
 7015SOL    HW232505   1.575   0.965  10.420  1.9760  0.6441 -1.8382
 7016SOL     OW32506   4.619   0.947   6.543  0.0535 -0.6874 -1.1598
 7016SOL    HW132507   4.653   1.019   6.596  0.7318 -0.3198 -2.0889
 7016SOL    HW232508   4.543   0.926   6.597  1.1546  0.3834  0.8349
 7017SOL     OW32509   0.273   1.947   0.261 -0.0213  0.2123  0.5808
 7017SOL    HW132510   0.360   1.969   0.296  0.2773 -2.7886  1.7254
 7017SOL    HW232511   0.303   1.900   0.184 -0.7232  1.7526 -0.6208
 7018SOL     OW32512   0.383   3.009   3.711  0.4913  0.4820  0.9178
 7018SOL    HW132513   0.469   2.989   3.748  0.9956  0.3395 -0.3226
 7018SOL    HW232514   0.384   3.101   3.684  1.1084  0.0982 -0.3570
 7019SOL     OW32515   0.902   3.150   3.184  0.0719 -0.3716 -0.2983
 7019SOL    HW132516   0.905   3.218   3.252  1.6378  1.1419 -1.8517
 7019SOL    HW232517   0.980   3.097   3.203  3.5634  4.4604 -1.0298
 7020SOL     OW32518   3.471   0.418   8.237  0.4502 -0.6239  0.1568
 7020SOL    HW132519   3.457   0.501   8.192  2.5529 -0.8959 -0.9965
 7020SOL    HW232520   3.390   0.410   8.287  1.0947  2.1627  1.6095
 7021SOL     OW32521   3.279   1.777   6.150 -0.0666  0.3040  0.2929
 7021SOL    HW132522   3.311   1.860   6.186  1.4390 -0.6096  1.0702
 7021SOL    HW232523   3.247   1.807   6.066 -0.1676 -0.2116  0.1502
 7022SOL     OW32524   0.611   0.628   2.627 -0.2987  0.1005 -0.2301
 7022SOL    HW132525   0.652   0.714   2.621 -2.8639  1.6008  3.4530
 7022SOL    HW232526   0.625   0.608   2.720 -2.4686 -0.4957 -0.0437
 7023SOL     OW32527   2.723   0.493  16.987  0.3152 -0.1771  0.3223
 7023SOL    HW132528   2.702   0.456  17.073  1.5578  1.0877  1.1746
 7023SOL    HW232529   2.681   0.424  16.936 -0.7930 -0.1530  1.2181
 7024SOL     OW32530   1.216   4.488   8.371 -0.2710 -0.1436 -0.1585
 7024SOL    HW132531   1.147   4.436   8.330 -0.0240 -1.0771  0.6207
 7024SOL    HW232532   1.176   4.521   8.451 -0.3016  0.5568 -0.4554
 7025SOL     OW32533   0.033   2.689   9.687 -0.1313  0.7369 -0.5230
 7025SOL    HW132534   0.021   2.619   9.623  0.4690  0.6895 -0.5887
 7025SOL    HW232535   0.064   2.760   9.630  3.6275  0.0092  0.6449
 7026SOL     OW32536   4.565   4.289   7.892 -0.0968  0.2953  0.1527
 7026SOL    HW132537   4.558   4.211   7.947  0.8807  0.6125  0.7071
 7026SOL    HW232538   4.552   4.366   7.947 -1.7466 -0.5005  0.8808
 7027SOL     OW32539   4.345   2.916   3.807 -0.0263 -0.1340 -0.1511
 7027SOL    HW132540   4.358   2.834   3.759 -0.9066 -0.4055  0.0628
 7027SOL    HW232541   4.373   2.888   3.894  0.4301 -1.7396 -0.8162
 7028SOL     OW32542   1.758   1.800   7.728  0.7036  0.0162 -0.2978
 7028SOL    HW132543   1.837   1.754   7.698 -0.5901 -1.8279 -0.8619
 7028SOL    HW232544   1.729   1.837   7.645 -1.0765 -1.7866 -0.4816
 7029SOL     OW32545   2.443   1.093  11.746 -0.0098  0.2565 -0.0912
 7029SOL    HW132546   2.466   1.100  11.653 -1.9495 -0.8908 -0.6573
 7029SOL    HW232547   2.348   1.102  11.740  0.1987 -0.0917 -3.7776
 7030SOL     OW32548   1.779   1.492   7.013  0.7068  0.1897  0.1901
 7030SOL    HW132549   1.820   1.482   6.927 -1.4451  0.6323 -0.8981
 7030SOL    HW232550   1.843   1.446   7.067  2.7611  2.4149 -0.3456
 7031SOL     OW32551   1.116   3.552  12.402 -0.0011  0.0096 -0.3754
 7031SOL    HW132552   1.120   3.617  12.332  0.2795  1.2446  0.7786
 7031SOL    HW232553   1.102   3.469  12.358 -0.4441 -0.9648  1.5807
 7032SOL     OW32554   3.533   1.117  16.971 -0.0282 -0.3019  0.3746
 7032SOL    HW132555   3.543   1.144  17.062 -2.1215  1.3374  0.1216
 7032SOL    HW232556   3.464   1.174  16.939  0.8052 -0.0317 -0.9657
 7033SOL     OW32557   2.115   1.047   5.931 -0.1604 -0.0810  0.0428
 7033SOL    HW132558   2.182   1.054   5.999  0.3683 -3.2055 -0.1473
 7033SOL    HW232559   2.053   1.117   5.953 -0.0884 -0.2002  0.6390
 7034SOL     OW32560   0.523   3.488   6.033  0.0732  0.3719 -0.0672
 7034SOL    HW132561   0.566   3.546   6.096 -0.4397 -1.4071  1.9237
 7034SOL    HW232562   0.436   3.525   6.025 -0.7867 -0.6293  4.2921
 7035SOL     OW32563   2.384   4.230   5.379  0.4155  0.0471 -0.1159
 7035SOL    HW132564   2.294   4.261   5.388 -0.2202 -2.4252  2.0333
 7035SOL    HW232565   2.415   4.277   5.302  0.5520 -0.5889 -0.4570
 7036SOL     OW32566   1.692   3.470   3.507  0.0955 -0.2867 -0.4259
 7036SOL    HW132567   1.777   3.508   3.529 -0.9270  1.0514  1.2217
 7036SOL    HW232568   1.716   3.377   3.507  0.8592 -0.0881 -0.8725
 7037SOL     OW32569   1.891   2.087   7.304  0.3797  0.2057  0.0465
 7037SOL    HW132570   1.947   2.077   7.381  0.5021 -0.7547 -0.1733
 7037SOL    HW232571   1.891   1.998   7.268 -1.3259 -0.9354  2.8383
 7038SOL     OW32572   4.090   2.359   9.462  0.1691 -0.4390 -0.0383
 7038SOL    HW132573   3.998   2.365   9.434 -0.2775 -2.1674  1.0499
 7038SOL    HW232574   4.140   2.398   9.390 -0.2846 -2.5153 -1.4793
 7039SOL     OW32575   0.696   0.634  16.117  0.1330 -0.3902 -0.6756
 7039SOL    HW132576   0.791   0.629  16.105  0.2600 -2.7629  1.2211
 7039SOL    HW232577   0.670   0.573  16.048  1.2936 -0.6955 -0.8449
 7040SOL     OW32578   2.974   0.571  11.951 -0.2450  0.3100 -0.1507
 7040SOL    HW132579   2.993   0.627  11.876  0.7356  0.4436  0.1918
 7040SOL    HW232580   3.038   0.500  11.955  0.1705  0.7564  1.1315
 7041SOL     OW32581   0.523   4.250   2.830  0.0795  0.9002  0.3099
 7041SOL    HW132582   0.484   4.309   2.895 -0.0633 -0.6772  1.6490
 7041SOL    HW232583   0.447   4.211   2.786 -0.5375  0.4619  1.7593
 7042SOL     OW32584   2.971   3.090   8.158  0.2197  0.2134 -0.4627
 7042SOL    HW132585   3.035   3.025   8.187  1.2352  1.3442 -0.1957
 7042SOL    HW232586   2.892   3.044   8.130 -0.3481  1.9931 -1.7717
 7043SOL     OW32587   3.056   0.487   3.751 -0.1184  0.5368 -0.4785
 7043SOL    HW132588   2.964   0.490   3.727 -0.6758  0.6962  1.7146
 7043SOL    HW232589   3.071   0.401   3.790  0.1160  0.5880 -0.4530
 7044SOL     OW32590   0.543   3.027   7.476  0.3691 -0.0719  0.5392
 7044SOL    HW132591   0.550   3.043   7.382  0.7739 -1.4708  0.3341
 7044SOL    HW232592   0.618   2.970   7.496 -1.0711 -2.0391  0.3116
 7045SOL     OW32593   2.035   3.405   2.153 -0.0269 -1.1351  0.6601
 7045SOL    HW132594   1.984   3.484   2.168  0.8312 -0.1708 -1.5291
 7045SOL    HW232595   2.001   3.381   2.067 -0.1049  1.2759  0.0281
 7046SOL     OW32596   0.692   2.609   9.337 -0.4659  0.3248  0.1594
 7046SOL    HW132597   0.749   2.608   9.414  1.1346 -4.1749 -1.0503
 7046SOL    HW232598   0.713   2.519   9.311  1.4964  0.4820  1.1937
 7047SOL     OW32599   2.857   2.894   3.137 -0.2255 -0.6122 -0.0194
 7047SOL    HW132600   2.908   2.956   3.084 -1.8030 -0.7361 -1.6867
 7047SOL    HW232601   2.770   2.931   3.125 -0.5209 -1.2109  0.2947
 7048SOL     OW32602   2.592   4.570   8.871 -0.0576 -0.2211  0.0353
 7048SOL    HW132603   2.627   4.626   8.801  3.0903  0.9731  2.5714
 7048SOL    HW232604   2.543   4.636   8.920 -0.8874 -0.5891 -0.3031
 7049SOL     OW32605   2.787   0.426  14.333 -0.5938  0.2197 -0.2830
 7049SOL    HW132606   2.825   0.512  14.352  1.9925 -1.1088  0.4630
 7049SOL    HW232607   2.749   0.407  14.419  0.7412 -1.9224 -0.1782
 7050SOL     OW32608   2.577   4.336  12.378  0.1254  0.2676 -0.1671
 7050SOL    HW132609   2.566   4.372  12.466  0.9915 -0.0225  0.0631
 7050SOL    HW232610   2.665   4.298  12.387  0.4520  0.9101 -0.6283
 7051SOL     OW32611   1.237   1.323   2.285  0.3821  0.5107 -0.3824
 7051SOL    HW132612   1.301   1.393   2.295 -1.7005  2.2474  0.4978
 7051SOL    HW232613   1.294   1.249   2.262 -0.3168  0.5536 -2.2323
 7052SOL     OW32614   2.812   2.862   4.330 -0.4562  0.1526  0.2103
 7052SOL    HW132615   2.861   2.785   4.301  0.2254  0.5085  0.4422
 7052SOL    HW232616   2.828   2.873   4.423 -1.8482 -0.2559  0.5116
 7053SOL     OW32617   1.881   1.804   6.943 -0.1278 -0.1747  0.0576
 7053SOL    HW132618   1.805   1.746   6.954 -0.4571  0.0779 -0.9302
 7053SOL    HW232619   1.886   1.826   7.037  0.0441  1.6747 -0.3810
 7054SOL     OW32620   0.749   1.405   1.295 -0.4857 -0.5223  0.4168
 7054SOL    HW132621   0.674   1.403   1.353 -1.0684  0.1196 -0.3168
 7054SOL    HW232622   0.699   1.394   1.214 -2.4352  0.6266  1.4658
 7055SOL     OW32623   1.278   1.319  17.190 -0.4460  0.1829 -0.0265
 7055SOL    HW132624   1.325   1.356  17.264 -0.0588 -0.4900  0.0612
 7055SOL    HW232625   1.352   1.296  17.134 -0.3905  0.7028 -0.1743
 7056SOL     OW32626   2.320   2.880   5.901 -0.3675 -0.3964 -0.4043
 7056SOL    HW132627   2.352   2.970   5.908  1.1259 -0.9805  0.2828
 7056SOL    HW232628   2.230   2.893   5.874 -0.0688  0.8846 -0.7550
 7057SOL     OW32629   2.831   2.873   4.658  0.1523 -0.2022  0.2393
 7057SOL    HW132630   2.774   2.945   4.632 -0.1216 -0.1019  1.1123
 7057SOL    HW232631   2.771   2.802   4.680 -0.4771 -0.0551 -0.9800
 7058SOL     OW32632   1.636   2.846   7.596  0.0806 -0.8401 -0.0531
 7058SOL    HW132633   1.609   2.767   7.641  0.7251 -1.2104 -0.3177
 7058SOL    HW232634   1.606   2.912   7.658 -0.5891  2.8871 -4.3180
 7059SOL     OW32635   0.761   2.526  13.206 -0.4026  0.4098 -0.3436
 7059SOL    HW132636   0.722   2.452  13.160 -0.8621 -0.7285  1.8855
 7059SOL    HW232637   0.853   2.507  13.189 -0.1173 -0.0062  1.5778
 7060SOL     OW32638   1.034   3.591  10.042 -0.3554 -0.2026  0.0108
 7060SOL    HW132639   1.130   3.586  10.037 -0.2526  1.7488  0.0131
 7060SOL    HW232640   1.003   3.639   9.965  1.0614 -1.1541 -1.1534
 7061SOL     OW32641   0.952   4.357   7.267 -0.1117  0.0638 -0.3716
 7061SOL    HW132642   0.857   4.359   7.259 -0.0884  2.1229 -0.1009
 7061SOL    HW232643   0.970   4.263   7.271  2.0151  0.4762 -0.0500
 7062SOL     OW32644   1.304   3.168  12.320  0.6563  0.0288 -0.0133
 7062SOL    HW132645   1.214   3.200  12.326  0.9663  1.2276 -2.1377
 7062SOL    HW232646   1.286   3.128  12.235  1.1228  2.5481 -1.2837
 7063SOL     OW32647   3.733   0.632   9.169  0.3384 -0.2145 -0.3089
 7063SOL    HW132648   3.712   0.584   9.249  2.6671 -0.6459  0.0329
 7063SOL    HW232649   3.823   0.659   9.185 -0.0466  0.5475  0.6159
 7064SOL     OW32650   4.283   1.014   8.280  0.1139 -0.2407  0.3399
 7064SOL    HW132651   4.258   0.929   8.316 -1.2418 -0.2346 -0.5888
 7064SOL    HW232652   4.197   1.055   8.285 -1.9709 -4.4116 -1.3893
 7065SOL     OW32653   0.383   3.067   2.690 -0.2899  0.1974  0.4815
 7065SOL    HW132654   0.433   3.054   2.609  0.5907 -4.8555  1.8841
 7065SOL    HW232655   0.379   3.163   2.696  0.3047  0.2528  0.0913
 7066SOL     OW32656   1.688   4.400  15.051  0.0615  0.2860 -0.0951
 7066SOL    HW132657   1.647   4.384  15.136 -0.3397 -3.3631 -0.9524
 7066SOL    HW232658   1.699   4.310  15.018  1.9587  0.9799 -1.3347
 7067SOL     OW32659   2.425   1.631  11.691  0.1487  0.1400 -0.0660
 7067SOL    HW132660   2.439   1.708  11.744 -1.3047  0.6119 -0.3640
 7067SOL    HW232661   2.337   1.597  11.711  1.0016 -2.8130 -1.2615
 7068SOL     OW32662   3.262   1.198   9.227 -0.6720  0.3529 -0.1468
 7068SOL    HW132663   3.222   1.118   9.195 -0.0621 -0.7068  1.7069
 7068SOL    HW232664   3.333   1.175   9.287 -0.4769  0.0244 -0.5023
 7069SOL     OW32665   0.035   2.616   5.188 -0.1509 -0.2005 -0.1280
 7069SOL    HW132666   4.685   2.668   5.150  1.0974  0.5315 -1.4698
 7069SOL    HW232667   0.075   2.577   5.110 -1.1858 -0.6821 -0.4299
 7070SOL     OW32668   0.107   3.260  14.008  0.1155  0.5167  0.4174
 7070SOL    HW132669   0.116   3.300  13.922  0.1283  2.6536  1.3944
 7070SOL    HW232670   0.200   3.247  14.029  0.9151  1.5112 -2.6081
 7071SOL     OW32671   1.142   3.654   4.883 -0.2724  0.2113 -0.3382
 7071SOL    HW132672   1.170   3.715   4.814  0.9750  0.1457  0.1146
 7071SOL    HW232673   1.160   3.702   4.964  2.7921  2.1655 -2.2013
 7072SOL     OW32674   0.882   2.559  15.414 -0.8272  0.6255 -0.2838
 7072SOL    HW132675   0.823   2.626  15.449 -0.2852  0.9485  0.0066
 7072SOL    HW232676   0.872   2.496  15.486 -0.0742  1.2764  0.3898
 7073SOL     OW32677   1.297   1.153  16.412  0.0547  0.9687  0.1952
 7073SOL    HW132678   1.209   1.149  16.450 -0.3325  1.5690 -0.6379
 7073SOL    HW232679   1.345   1.103  16.478  0.4387  0.3948 -0.5290
 7074SOL     OW32680   1.378   2.388   8.347  0.3608  0.2117 -0.3249
 7074SOL    HW132681   1.384   2.394   8.251  2.0784 -0.3481 -0.2448
 7074SOL    HW232682   1.340   2.301   8.356  0.7746  0.2437  1.6930
 7075SOL     OW32683   3.651   3.542   3.280 -0.4366 -0.2972  0.2839
 7075SOL    HW132684   3.631   3.625   3.323  0.4989  1.0472 -1.8521
 7075SOL    HW232685   3.660   3.564   3.187 -0.7687 -2.7977 -0.3314
 7076SOL     OW32686   2.189   3.318   5.885  0.3569 -0.2669 -0.1964
 7076SOL    HW132687   2.122   3.282   5.827 -0.7983  0.3675  0.7322
 7076SOL    HW232688   2.171   3.411   5.869 -0.4696 -0.6785 -1.6822
 7077SOL     OW32689   0.745   3.272   2.365  0.2911  0.4334  0.0250
 7077SOL    HW132690   0.722   3.362   2.389  0.5176  0.7989 -1.1230
 7077SOL    HW232691   0.770   3.280   2.273 -0.8550 -1.4549 -0.4485
 7078SOL     OW32692   3.778   2.368  10.316  0.2489  0.0013  0.1248
 7078SOL    HW132693   3.778   2.341  10.224  1.9743  2.2494 -0.5449
 7078SOL    HW232694   3.691   2.353  10.353 -0.0203  1.4536  0.0836
 7079SOL     OW32695   2.799   2.640   9.799 -0.3894 -0.1341  0.1649
 7079SOL    HW132696   2.835   2.564   9.843  0.9076  1.4887  1.9073
 7079SOL    HW232697   2.874   2.674   9.750  1.1733  0.4916  2.9934
 7080SOL     OW32698   2.057   4.157   4.837  0.2410 -0.8785 -0.5595
 7080SOL    HW132699   2.079   4.184   4.927 -1.6923 -0.1108 -0.3328
 7080SOL    HW232700   2.136   4.195   4.798 -0.2475  0.2994 -0.3899
 7081SOL     OW32701   4.329   1.590   2.469  0.0356 -0.0262 -0.5213
 7081SOL    HW132702   4.312   1.681   2.445 -0.2132  0.1665  0.3892
 7081SOL    HW232703   4.248   1.571   2.516  0.3870 -0.1312  0.0367
 7082SOL     OW32704   3.243   3.285   5.840  0.1786  0.5802  0.2964
 7082SOL    HW132705   3.264   3.368   5.884 -2.1185  1.6983 -0.7446
 7082SOL    HW232706   3.321   3.239   5.872  0.0817  0.4697  0.3757
 7083SOL     OW32707   1.902   0.833   8.803  0.0452 -0.5103  0.0347
 7083SOL    HW132708   1.985   0.786   8.815  0.2680 -0.7983 -2.5885
 7083SOL    HW232709   1.843   0.765   8.836 -2.1190  0.9427 -0.8862
 7084SOL     OW32710   2.396   0.935  15.266 -0.2344 -0.4272  0.1938
 7084SOL    HW132711   2.443   0.977  15.194 -2.1940 -0.6915 -1.2149
 7084SOL    HW232712   2.308   0.945  15.231 -0.4017 -0.9244  0.4778
 7085SOL     OW32713   3.174   2.285   3.113 -0.2217  0.0818  0.3863
 7085SOL    HW132714   3.152   2.343   3.041 -1.7308 -1.4795 -0.4147
 7085SOL    HW232715   3.127   2.203   3.095 -0.4736  0.4507 -0.6330
 7086SOL     OW32716   3.785   2.036  15.649  0.3191 -0.4214 -0.7842
 7086SOL    HW132717   3.746   1.999  15.728 -0.4261 -0.4041 -1.1449
 7086SOL    HW232718   3.856   1.974  15.633 -0.6684 -1.0236 -2.7587
 7087SOL     OW32719   1.258   4.584   7.759 -0.0611  0.3627  0.1608
 7087SOL    HW132720   1.207   4.524   7.706  1.3837 -0.0067 -0.8087
 7087SOL    HW232721   1.282   4.524   7.830 -2.4233 -0.7489  0.0169
 7088SOL     OW32722   1.474   3.084   7.342 -0.0464  0.1551  0.0826
 7088SOL    HW132723   1.502   3.047   7.425 -1.8762 -0.4218  0.4390
 7088SOL    HW232724   1.493   3.008   7.287  1.3238  0.9912 -0.5979
 7089SOL     OW32725   0.904   1.507   9.943 -0.2076  0.0200 -0.1915
 7089SOL    HW132726   0.901   1.602   9.930  0.9727 -0.2295 -2.3147
 7089SOL    HW232727   0.896   1.492  10.037 -0.6942 -0.7109 -0.3508
 7090SOL     OW32728   2.762   4.436   2.789  0.6388 -0.0495 -0.5683
 7090SOL    HW132729   2.777   4.348   2.824  1.0722 -0.0095 -0.6574
 7090SOL    HW232730   2.669   4.445   2.768  0.6063  1.2688  0.1229
 7091SOL     OW32731   2.563   2.469  11.009  0.8191 -0.3720 -0.2282
 7091SOL    HW132732   2.500   2.476  10.937  0.0937  1.2357  0.5611
 7091SOL    HW232733   2.583   2.560  11.030  0.9467 -0.6727  0.9328
 7092SOL     OW32734   0.771   2.521   0.635  0.3079 -0.4679 -0.3706
 7092SOL    HW132735   0.703   2.518   0.568 -2.0563  1.5639  1.9380
 7092SOL    HW232736   0.744   2.597   0.686 -0.0243 -0.2030 -0.9542
 7093SOL     OW32737   0.936   1.101   8.475 -0.0032 -0.3282  0.1256
 7093SOL    HW132738   0.947   1.011   8.443  0.6121  0.1246 -0.9012
 7093SOL    HW232739   1.000   1.151   8.424 -0.3661  0.5732  0.5554
 7094SOL     OW32740   2.959   1.267   6.566  0.3128 -0.3974 -0.3062
 7094SOL    HW132741   3.049   1.256   6.534  0.7348  0.5168  0.5479
 7094SOL    HW232742   2.916   1.189   6.533  0.5625 -0.0038 -1.6013
 7095SOL     OW32743   3.682   3.643  15.558  0.1127  0.2363  0.4829
 7095SOL    HW132744   3.622   3.681  15.494 -0.8779 -2.3575 -0.1222
 7095SOL    HW232745   3.714   3.726  15.594 -0.4259  0.2887  0.8475
 7096SOL     OW32746   1.288   3.752  14.906 -0.0578  0.2905  0.0552
 7096SOL    HW132747   1.205   3.751  14.952 -1.5924 -2.4697 -2.7523
 7096SOL    HW232748   1.307   3.661  14.886  2.4973  0.9659 -0.5896
 7097SOL     OW32749   4.613   2.604   9.103  0.4025 -0.2185 -0.2200
 7097SOL    HW132750   4.568   2.595   9.187  1.3806  0.3353  0.3496
 7097SOL    HW232751   4.639   2.695   9.091  1.9872 -0.2664  2.7888
 7098SOL     OW32752   1.913   2.339  17.024  0.1621 -0.3544  0.1802
 7098SOL    HW132753   1.852   2.363  16.954  1.0536 -1.0046 -0.8171
 7098SOL    HW232754   1.851   2.323  17.095  0.6703  0.3743  0.7902
 7099SOL     OW32755   1.827   2.654  15.181  0.2628 -0.2255  0.0277
 7099SOL    HW132756   1.792   2.578  15.135  0.6471 -1.0330  1.0798
 7099SOL    HW232757   1.897   2.616  15.233 -1.2020 -0.7829  1.5849
 7100SOL     OW32758   3.979   1.013   9.348 -0.4360 -0.0900  0.4287
 7100SOL    HW132759   4.009   0.952   9.415 -0.3450 -1.3222 -0.7263
 7100SOL    HW232760   3.977   0.960   9.268  1.1190  0.0258  0.3182
 7101SOL     OW32761   1.388   3.650   0.754 -0.1679 -0.2266 -0.2805
 7101SOL    HW132762   1.429   3.664   0.668  2.1159  2.3893  1.2297
 7101SOL    HW232763   1.317   3.589   0.733  0.3580 -0.8615 -0.1797
 7102SOL     OW32764   4.552   4.533   9.482  0.2675  0.3154  0.1875
 7102SOL    HW132765   4.605   4.613   9.477  0.0441  0.6388  3.3641
 7102SOL    HW232766   4.537   4.529   9.576  0.7914  2.0794  0.3420
 7103SOL     OW32767   3.563   0.560   2.356  0.2043 -0.2663 -0.1635
 7103SOL    HW132768   3.489   0.511   2.319 -1.2363  0.9889  1.0230
 7103SOL    HW232769   3.589   0.497   2.423 -1.2762 -1.4204 -0.6753
 7104SOL     OW32770   3.199   3.870   2.790  0.0021  0.0842 -0.4181
 7104SOL    HW132771   3.119   3.822   2.812  0.4048 -1.1680 -1.6783
 7104SOL    HW232772   3.269   3.805   2.787 -0.9113 -0.8476 -1.7237
 7105SOL     OW32773   2.345   0.624   7.823 -0.1796 -0.1289 -0.2919
 7105SOL    HW132774   2.329   0.628   7.729  2.0465 -4.9245 -0.8695
 7105SOL    HW232775   2.441   0.631   7.823 -0.0757 -1.5484  0.1847
 7106SOL     OW32776   4.477   2.553   6.193  0.1353 -0.0394 -0.4304
 7106SOL    HW132777   4.559   2.572   6.147  0.6466  0.5270  0.7264
 7106SOL    HW232778   4.490   2.467   6.233 -1.6399  0.6453  1.6199
 7107SOL     OW32779   1.463   1.548  16.115 -0.2697  0.5666 -0.1153
 7107SOL    HW132780   1.432   1.468  16.157  1.2368 -0.3423 -0.7675
 7107SOL    HW232781   1.409   1.546  16.036 -1.2235 -0.8127  0.5718
 7108SOL     OW32782   4.689   3.848   8.249 -0.0094 -0.1141 -0.5531
 7108SOL    HW132783   4.641   3.817   8.325  0.7676  1.9109  0.7711
 7108SOL    HW232784   0.059   3.859   8.275  0.1016  0.8812 -1.3582
 7109SOL     OW32785   2.186   1.214  11.648 -0.0284 -0.5887  0.0685
 7109SOL    HW132786   2.175   1.238  11.556 -0.4039  0.6820  0.4425
 7109SOL    HW232787   2.198   1.306  11.672 -1.7002  0.0399 -1.5330
 7110SOL     OW32788   3.323   2.504   4.340 -0.4105  0.0345  0.3013
 7110SOL    HW132789   3.310   2.589   4.383  1.6948  1.2506 -1.4725
 7110SOL    HW232790   3.264   2.522   4.266 -1.1379  0.5236  1.0051
 7111SOL     OW32791   2.261   0.530  12.717  0.1082  0.3790 -0.3365
 7111SOL    HW132792   2.353   0.525  12.743  0.2607 -1.3883 -1.2353
 7111SOL    HW232793   2.236   0.605  12.771  0.4399  1.3455 -1.5432
 7112SOL     OW32794   2.898   2.614   7.382  0.7473 -0.3995 -0.3538
 7112SOL    HW132795   2.803   2.602   7.387  0.9733 -1.6281  1.0250
 7112SOL    HW232796   2.924   2.554   7.453 -0.9374 -0.6537  0.0502
 7113SOL     OW32797   3.688   0.680   4.436  0.1562  0.7600 -0.6624
 7113SOL    HW132798   3.613   0.677   4.377 -0.9787 -3.0807  0.9673
 7113SOL    HW232799   3.749   0.609   4.416 -1.1292  0.0909 -2.2078
 7114SOL     OW32800   4.202   2.513   3.864  0.2212 -0.3653 -0.4256
 7114SOL    HW132801   4.273   2.570   3.833  0.0872  1.4161  2.5404
 7114SOL    HW232802   4.129   2.545   3.811 -1.6921 -1.7617  1.3853
 7115SOL     OW32803   3.046   3.236   3.221  0.2496  0.4072 -0.1835
 7115SOL    HW132804   2.958   3.271   3.234  0.2752  1.1730 -2.0202
 7115SOL    HW232805   3.097   3.279   3.290  0.9282 -0.7955  0.0671
 7116SOL     OW32806   2.893   0.479   3.098 -0.2665 -0.3104 -0.3013
 7116SOL    HW132807   2.833   0.422   3.051 -0.5758 -0.7823  0.6724
 7116SOL    HW232808   2.910   0.543   3.029 -0.2027  0.7194  0.6624
 7117SOL     OW32809   1.402   3.263   4.832  0.3185 -0.2381  0.0526
 7117SOL    HW132810   1.311   3.232   4.820  0.6487 -0.6795 -1.3474
 7117SOL    HW232811   1.428   3.293   4.745  1.7810  0.8394  0.8813
 7118SOL     OW32812   2.072   0.004   7.690  0.4904 -0.4067  0.7405
 7118SOL    HW132813   2.104   4.639   7.664 -1.6831 -0.3952 -1.9760
 7118SOL    HW232814   2.065   0.044   7.603  2.2656  1.3331  1.4134
 7119SOL     OW32815   4.210   4.225  16.876 -0.5687 -0.2552 -0.1971
 7119SOL    HW132816   4.195   4.154  16.939  1.4010 -1.9274 -1.6431
 7119SOL    HW232817   4.117   4.236  16.857  0.1480  4.1999 -1.0538
 7120SOL     OW32818   2.225   4.340   0.399  0.6179  0.2197  0.3113
 7120SOL    HW132819   2.290   4.281   0.361 -0.6488 -0.7825 -0.3083
 7120SOL    HW232820   2.256   4.362   0.487 -1.2888 -3.0898  1.8129
 7121SOL     OW32821   4.536   3.117   4.082 -0.7649  0.5415  0.0289
 7121SOL    HW132822   4.477   3.041   4.078 -0.6453  0.3564  1.6417
 7121SOL    HW232823   4.617   3.070   4.066 -0.5622  0.3796  1.5617
 7122SOL     OW32824   3.717   0.314   5.221 -0.2724  0.5022  0.0350
 7122SOL    HW132825   3.701   0.265   5.140 -3.4839  0.1547  0.9037
 7122SOL    HW232826   3.626   0.338   5.240  0.1516  2.4645 -0.3811
 7123SOL     OW32827   3.193   0.167  11.906  0.4996 -0.0170  0.3144
 7123SOL    HW132828   3.118   0.185  11.962  2.1374  2.0772  1.8291
 7123SOL    HW232829   3.220   0.258  11.900  2.3005 -0.6097 -0.9214
 7124SOL     OW32830   0.057   0.222   7.429 -0.1310 -0.2419 -0.2306
 7124SOL    HW132831   0.063   0.208   7.523  0.2976 -4.5174 -0.8875
 7124SOL    HW232832   0.130   0.283   7.415 -0.2664  0.4153  2.0875
 7125SOL     OW32833   2.283   2.342  15.529 -0.4250 -0.2867 -0.1707
 7125SOL    HW132834   2.330   2.308  15.453  2.5205 -0.5583  1.7982
 7125SOL    HW232835   2.293   2.435  15.511  0.1392  0.1251  2.3778
 7126SOL     OW32836   2.321   4.593   6.162  0.1299  0.3213  0.2390
 7126SOL    HW132837   2.348   4.501   6.152 -0.2218  0.4079 -1.3851
 7126SOL    HW232838   2.376   4.657   6.119 -2.5178  2.5693  0.2033
 7127SOL     OW32839   2.563   0.707   5.466 -0.1143 -0.3391 -0.2094
 7127SOL    HW132840   2.484   0.755   5.441 -0.1911  0.7938  2.2431
 7127SOL    HW232841   2.601   0.767   5.529  0.5754 -1.3074  0.2950
 7128SOL     OW32842   2.536   0.719   5.034 -0.1374  0.0697 -0.2523
 7128SOL    HW132843   2.576   0.672   4.961  0.3128  0.2800 -0.1413
 7128SOL    HW232844   2.554   0.659   5.107  1.1833 -0.4433 -0.9960
 7129SOL     OW32845   2.351   1.475   5.757  0.2620  0.1191 -0.4342
 7129SOL    HW132846   2.265   1.447   5.726  0.5289 -1.7631  0.5146
 7129SOL    HW232847   2.393   1.486   5.672 -1.1387  1.4742 -0.9504
 7130SOL     OW32848   1.603   3.727   5.604 -0.3137 -0.4661  0.0072
 7130SOL    HW132849   1.561   3.788   5.664  0.7553 -2.1429  2.4280
 7130SOL    HW232850   1.530   3.723   5.542  1.3448 -0.5839 -1.9601
 7131SOL     OW32851   2.328   4.497   8.032 -0.4312  0.9269 -0.3023
 7131SOL    HW132852   2.264   4.448   7.980 -0.4897 -2.4721  2.9969
 7131SOL    HW232853   2.287   4.582   8.049  0.2293  1.0302  0.8083
 7132SOL     OW32854   3.826   3.957   5.778  0.2472 -0.1452  0.2718
 7132SOL    HW132855   3.855   4.027   5.719  0.1599 -0.6328 -0.3569
 7132SOL    HW232856   3.890   3.962   5.849 -1.2996 -0.8779  1.7222
 7133SOL     OW32857   2.372   3.901   6.815 -0.1352 -0.2139  0.0176
 7133SOL    HW132858   2.345   3.933   6.729  0.0166  1.0281  0.4419
 7133SOL    HW232859   2.290   3.873   6.857 -1.5993  1.8695 -1.4179
 7134SOL     OW32860   3.564   0.773   5.302 -0.3626  0.0222 -0.2018
 7134SOL    HW132861   3.498   0.808   5.243  0.1968  3.1561  0.9893
 7134SOL    HW232862   3.612   0.855   5.315 -0.4822  0.2042 -0.9151
 7135SOL     OW32863   4.116   4.601   5.102  0.0390  0.1719  0.1811
 7135SOL    HW132864   4.049   4.554   5.052  1.5583 -2.2952  0.5052
 7135SOL    HW232865   4.062   4.679   5.116  0.1289  0.5929 -1.8081
 7136SOL     OW32866   3.338   1.829   4.404 -0.1695 -0.1486  0.0010
 7136SOL    HW132867   3.314   1.884   4.479  0.7023 -0.4607  0.5086
 7136SOL    HW232868   3.380   1.889   4.342  1.0710  0.4226  1.3982
 7137SOL     OW32869   1.608   1.953   4.446  0.1388 -0.3035 -0.4889
 7137SOL    HW132870   1.637   1.901   4.521  1.7867  0.8208 -0.3597
 7137SOL    HW232871   1.520   1.921   4.424 -0.7037  2.2030 -0.7264
 7138SOL     OW32872   1.019   0.900  11.788 -0.6237 -0.3553  0.0948
 7138SOL    HW132873   1.114   0.896  11.802 -0.5254  1.0485 -0.1361
 7138SOL    HW232874   0.985   0.823  11.832  1.1646 -1.3606 -0.2803
 7139SOL     OW32875   3.676   2.745   5.280  0.1523  0.2690  0.2934
 7139SOL    HW132876   3.691   2.830   5.322  0.3600 -0.5584  1.9034
 7139SOL    HW232877   3.703   2.682   5.347 -0.6838 -1.0487 -0.6299
 7140SOL     OW32878   2.885   1.964   0.524  0.3289 -0.2137  0.2192
 7140SOL    HW132879   2.888   1.910   0.603 -0.1109 -0.0266  0.3635
 7140SOL    HW232880   2.956   2.024   0.545  0.4636 -0.2757 -0.0662
 7141SOL     OW32881   2.681   4.551  14.929  0.3054  0.1357  0.7229
 7141SOL    HW132882   2.697   4.457  14.928  1.5278  0.3554 -2.0007
 7141SOL    HW232883   2.690   4.553  14.833  2.2205  0.9434  0.9200
 7142SOL     OW32884   3.365   4.670   5.401 -0.3947 -0.2267 -0.6314
 7142SOL    HW132885   3.456   4.647   5.383  0.1716  1.2774  0.3737
 7142SOL    HW232886   3.386   4.713   5.484  2.9115 -0.8952 -1.1372
 7143SOL     OW32887   3.521   4.067   7.516 -0.2582 -0.1218 -0.1293
 7143SOL    HW132888   3.465   4.129   7.472 -0.5333 -0.5643 -0.4036
 7143SOL    HW232889   3.473   4.052   7.598 -1.0060 -0.8918 -0.7071
 7144SOL     OW32890   0.424   3.285   4.281 -0.3255  0.1329  0.7885
 7144SOL    HW132891   0.456   3.312   4.367  0.7331  0.4638  0.2925
 7144SOL    HW232892   0.377   3.363   4.252 -1.5118  0.2231  2.9134
 7145SOL     OW32893   3.149   2.344   7.229 -0.0659  0.4773 -0.0509
 7145SOL    HW132894   3.185   2.293   7.301 -2.1192  0.2694  0.8117
 7145SOL    HW232895   3.140   2.430   7.268 -0.9599  0.5941 -0.5277
 7146SOL     OW32896   0.942   1.917   4.459 -0.3532  0.2735 -0.6452
 7146SOL    HW132897   1.027   1.957   4.475 -1.1192  2.4399 -1.9188
 7146SOL    HW232898   0.880   1.978   4.499  0.2101  0.6866 -0.4016
 7147SOL     OW32899   4.344   3.551   5.849  0.2158 -0.0899  0.5973
 7147SOL    HW132900   4.277   3.499   5.805  1.6238 -1.4261  0.0404
 7147SOL    HW232901   4.405   3.483   5.879  2.5860  1.1591 -1.4249
 7148SOL     OW32902   4.122   4.139   6.229  0.1217  0.0908 -0.2324
 7148SOL    HW132903   4.148   4.164   6.318  0.1210 -0.7836  0.0162
 7148SOL    HW232904   4.116   4.044   6.243 -1.3061  0.6029  2.7496
 7149SOL     OW32905   3.993   4.097   3.236 -0.1472 -0.1630  0.0181
 7149SOL    HW132906   4.041   4.082   3.318 -0.1381  1.0415  0.2394
 7149SOL    HW232907   4.060   4.131   3.178 -1.7535 -1.8797 -2.8138
 7150SOL     OW32908   1.119   1.879   7.343 -0.4005  0.0210 -0.1375
 7150SOL    HW132909   1.139   1.807   7.404 -0.0230 -1.0885 -1.5819
 7150SOL    HW232910   1.135   1.963   7.386  0.1746  0.1833 -0.6726
 7151SOL     OW32911   2.700   1.018   1.325 -0.0610  0.0631 -0.2347
 7151SOL    HW132912   2.635   1.088   1.322  0.1944  0.4193  2.7859
 7151SOL    HW232913   2.705   1.020   1.421 -3.5479 -0.3448 -0.0503
 7152SOL     OW32914   0.665   1.595  15.644  0.4879 -0.5828 -0.3682
 7152SOL    HW132915   0.759   1.611  15.650  0.1720  1.9165 -2.0044
 7152SOL    HW232916   0.654   1.547  15.561 -0.5060  1.3723 -1.3716
 7153SOL     OW32917   0.095   1.669   1.409 -0.6754  0.5337  0.1029
 7153SOL    HW132918   0.066   1.611   1.480  0.1791  0.6023  0.5098
 7153SOL    HW232919   0.134   1.601   1.354  1.2782  3.8053 -2.5353
 7154SOL     OW32920   2.579   4.478   4.485 -0.0984  0.1528 -0.1297
 7154SOL    HW132921   2.499   4.513   4.446 -0.3780 -0.5515 -0.1905
 7154SOL    HW232922   2.646   4.525   4.437  0.3240 -1.7261 -1.3915
 7155SOL     OW32923   0.336   1.459   2.366 -0.0827  0.0588 -0.5381
 7155SOL    HW132924   0.243   1.450   2.348  0.0326 -1.9119 -0.1550
 7155SOL    HW232925   0.360   1.373   2.333  1.0329  0.0564  0.2613
 7156SOL     OW32926   0.481   2.257  13.789 -0.2351 -0.4234 -0.0924
 7156SOL    HW132927   0.519   2.285  13.872  2.8035  0.6919 -1.8302
 7156SOL    HW232928   0.553   2.292  13.736  0.6255 -0.3468  1.1234
 7157SOL     OW32929   1.449   0.668   2.200  0.0889  0.1056 -0.0669
 7157SOL    HW132930   1.479   0.667   2.291  0.1032 -0.9001 -0.0800
 7157SOL    HW232931   1.451   0.575   2.178 -0.3887 -0.0640  0.6100
 7158SOL     OW32932   2.275   2.738  12.947  0.1875  0.2780 -0.0649
 7158SOL    HW132933   2.247   2.814  12.998  1.4205 -1.1915  2.8035
 7158SOL    HW232934   2.249   2.765  12.859 -0.2700  1.3711  0.4112
 7159SOL     OW32935   2.533   1.202  13.921  0.2091 -0.0225  0.3578
 7159SOL    HW132936   2.528   1.297  13.925 -1.2762 -0.1169  0.5810
 7159SOL    HW232937   2.446   1.168  13.901  1.0745 -1.9476 -0.1244
 7160SOL     OW32938   2.798   4.540   9.472  0.2461 -0.0141 -0.0225
 7160SOL    HW132939   2.839   4.544   9.559 -0.2091 -0.9782  0.2394
 7160SOL    HW232940   2.870   4.546   9.410  0.8776  0.0614  0.7084
 7161SOL     OW32941   3.114   1.737  16.671  0.8136 -0.6028 -0.2652
 7161SOL    HW132942   3.078   1.779  16.593  0.3680  1.8205  1.2317
 7161SOL    HW232943   3.055   1.774  16.737 -1.1538 -2.1740 -1.1332
 7162SOL     OW32944   1.658   1.949   9.092  0.1401 -0.7653 -0.3920
 7162SOL    HW132945   1.709   2.026   9.116 -0.5168  0.1807 -2.0788
 7162SOL    HW232946   1.732   1.887   9.096  0.4198 -0.4387 -0.4677
 7163SOL     OW32947   4.458   0.563  16.128 -0.0807 -0.1539  0.5125
 7163SOL    HW132948   4.530   0.501  16.142 -0.6218 -0.1439  3.4728
 7163SOL    HW232949   4.393   0.493  16.133  0.0303 -0.1694  1.8995
 7164SOL     OW32950   1.060   1.304   3.575  0.0694  0.6784  0.0850
 7164SOL    HW132951   1.032   1.270   3.660  0.6810  0.1751  0.0841
 7164SOL    HW232952   0.983   1.283   3.522  1.3222  1.7985 -2.2077
 7165SOL     OW32953   4.018   3.191  13.487 -0.1339 -0.3380  0.1365
 7165SOL    HW132954   3.972   3.275  13.489 -0.3759 -0.5011  1.9714
 7165SOL    HW232955   4.050   3.191  13.397  1.8671 -2.3957  0.8159
 7166SOL     OW32956   0.847   2.497   7.578  0.7124 -0.3261  0.7451
 7166SOL    HW132957   0.935   2.532   7.568  0.7965 -0.1809  2.0080
 7166SOL    HW232958   0.874   2.410   7.549  0.2622 -0.7716  1.6397
 7167SOL     OW32959   1.473   4.675  14.636 -0.6951  0.7104  0.6234
 7167SOL    HW132960   1.500   4.622  14.711  3.1441  2.5340  0.5009
 7167SOL    HW232961   1.554   4.678  14.586 -0.6201  1.2943  0.7704
 7168SOL     OW32962   3.864   3.193   5.780 -0.1701  0.4454 -0.1523
 7168SOL    HW132963   3.880   3.146   5.698  1.0146 -0.9994  0.9202
 7168SOL    HW232964   3.819   3.273   5.751  0.7192  1.1745  0.4803
 7169SOL     OW32965   0.037   2.583  12.127 -0.1499  0.3729 -0.4147
 7169SOL    HW132966   0.062   2.624  12.209  1.1594 -2.5138  0.6314
 7169SOL    HW232967   4.712   2.656  12.086 -0.6703  0.1124 -0.2953
 7170SOL     OW32968   0.097   0.131   5.603  0.0085  0.2886  0.3367
 7170SOL    HW132969   0.036   0.069   5.563  0.5144  0.1620 -0.2410
 7170SOL    HW232970   0.147   0.149   5.523  0.0791 -0.2637  0.2570
 7171SOL     OW32971   4.268   4.070   8.221 -0.7064  0.3961  0.1772
 7171SOL    HW132972   4.187   4.045   8.177 -1.3889  1.3415  0.8930
 7171SOL    HW232973   4.251   4.160   8.248  0.1106  0.5847  0.0598
 7172SOL     OW32974   3.668   4.176   2.441 -0.6158 -0.0172  0.2806
 7172SOL    HW132975   3.756   4.205   2.417 -0.2127 -1.5069 -0.0207
 7172SOL    HW232976   3.654   4.229   2.520  0.8513  0.2993  0.3428
 7173SOL     OW32977   3.427   2.443   6.756 -0.4569  0.1595  0.7498
 7173SOL    HW132978   3.405   2.512   6.694  2.1860  1.3039  1.1311
 7173SOL    HW232979   3.439   2.511   6.821  1.6917 -1.1552  1.7131
 7174SOL     OW32980   2.696   3.093   5.238  0.9991 -0.0615  0.2184
 7174SOL    HW132981   2.700   3.097   5.334  1.6462  0.7502  0.1621
 7174SOL    HW232982   2.607   3.126   5.228  1.8037  2.3407  0.8066
 7175SOL     OW32983   2.781   3.916  10.975  0.1016  0.1544 -0.0240
 7175SOL    HW132984   2.739   3.832  10.994  0.3082 -0.6949 -3.2175
 7175SOL    HW232985   2.713   3.975  11.006  0.3741 -0.0100  0.8945
 7176SOL     OW32986   3.255   3.020   4.139 -0.0328  0.5806  0.0229
 7176SOL    HW132987   3.312   3.055   4.071 -0.8947 -0.7264 -1.3654
 7176SOL    HW232988   3.170   3.028   4.097 -0.2628  3.3196  1.0267
 7177SOL     OW32989   1.956   4.122   5.843 -0.1492  0.0520 -0.2472
 7177SOL    HW132990   1.965   4.160   5.930 -0.3734  0.6802 -0.4965
 7177SOL    HW232991   1.884   4.170   5.801  1.5908  1.4385 -1.6531
 7178SOL     OW32992   3.530   0.626   0.314  0.5779  0.6081 -0.8294
 7178SOL    HW132993   3.439   0.657   0.303  0.4965  0.8656  0.6618
 7178SOL    HW232994   3.548   0.607   0.222  0.8557  0.7687 -0.8078
 7179SOL     OW32995   1.848   0.544   2.097  0.2718 -0.4822  0.4723
 7179SOL    HW132996   1.887   0.527   2.182 -1.4558 -0.5188  1.2603
 7179SOL    HW232997   1.780   0.605   2.124  0.8853  0.8547 -1.0377
 7180SOL     OW32998   2.099   1.173  10.332 -0.5581 -0.1752 -0.4386
 7180SOL    HW132999   2.018   1.125  10.349  0.1138 -1.8166 -1.9344
 7180SOL    HW233000   2.164   1.111  10.298  0.7012  1.0099 -0.2269
 7181SOL     OW33001   1.786   2.344   8.660  0.3828 -0.6442  0.1085
 7181SOL    HW133002   1.726   2.380   8.594  0.0166 -0.5095  0.5143
 7181SOL    HW233003   1.862   2.326   8.605 -0.0785  1.1579 -1.1305
 7182SOL     OW33004   2.960   1.741   6.922  0.2038 -0.2287 -0.1061
 7182SOL    HW133005   2.869   1.709   6.927  0.6994 -1.6077  0.1226
 7182SOL    HW233006   2.938   1.834   6.936 -0.7354 -0.3025 -1.0631
 7183SOL     OW33007   4.692   4.080   5.684  0.3809  0.1701 -0.1407
 7183SOL    HW133008   4.719   3.999   5.639  0.8485 -0.2306  0.8670
 7183SOL    HW233009   0.018   4.071   5.767 -0.0986  1.5403  0.2758
 7184SOL     OW33010   3.024   0.402   2.252 -0.0651  0.6023 -0.3273
 7184SOL    HW133011   3.004   0.308   2.247 -2.9007  1.0718  2.3390
 7184SOL    HW233012   3.042   0.428   2.161 -2.0162  1.9615 -0.3374
 7185SOL     OW33013   1.129   2.246   3.508 -0.3746  0.3363  0.7239
 7185SOL    HW133014   1.142   2.293   3.590 -2.4371  0.4499  1.0037
 7185SOL    HW233015   1.118   2.160   3.549 -0.7723  0.0683  0.0594
 7186SOL     OW33016   2.198   3.020   2.098  0.1890 -0.1905  0.0532
 7186SOL    HW133017   2.207   3.115   2.093 -3.1540  0.1328 -0.2961
 7186SOL    HW233018   2.260   3.011   2.170  1.3924  2.0357 -0.7059
 7187SOL     OW33019   3.310   3.598   1.491  0.2296 -0.1592  0.0884
 7187SOL    HW133020   3.348   3.514   1.520 -1.5228 -0.7942  0.5814
 7187SOL    HW233021   3.247   3.595   1.564 -1.1051 -0.1920 -1.0729
 7188SOL     OW33022   2.107   3.739   8.324  0.5183 -0.0369 -0.2440
 7188SOL    HW133023   2.107   3.737   8.228 -1.3836  1.2297 -0.2671
 7188SOL    HW233024   2.191   3.779   8.345  1.1839 -0.7912 -1.4385
 7189SOL     OW33025   1.342   0.876   4.549  0.4282  0.3250 -0.2741
 7189SOL    HW133026   1.408   0.807   4.558 -0.0189  0.1204  1.4067
 7189SOL    HW233027   1.404   0.948   4.559 -0.2939  1.2570 -2.5128
 7190SOL     OW33028   2.927   0.170   0.146 -0.7509  0.1526  0.5083
 7190SOL    HW133029   2.982   0.245   0.169  0.9014 -0.9144  0.0183
 7190SOL    HW233030   2.987   0.097   0.162 -0.1038  1.0837  2.3806
 7191SOL     OW33031   1.384   2.043   4.012 -0.2502 -0.1122  0.1098
 7191SOL    HW133032   1.349   2.084   4.090  0.3950  1.2821 -0.3346
 7191SOL    HW233033   1.390   1.953   4.045  0.6846  0.2449  0.9077
 7192SOL     OW33034   1.431   1.537   8.188  0.0776 -0.5034  0.0652
 7192SOL    HW133035   1.477   1.461   8.153 -3.1063 -3.1187  1.5476
 7192SOL    HW233036   1.479   1.558   8.268 -0.0889 -1.6599  0.4795
 7193SOL     OW33037   0.836   2.862   2.346  0.0781  0.6071 -0.0101
 7193SOL    HW133038   0.773   2.792   2.363  0.0817  0.6176  0.0462
 7193SOL    HW233039   0.864   2.887   2.433 -0.6986  1.5548 -0.0365
 7194SOL     OW33040   3.111   1.938   1.847 -0.2329 -0.0406  0.2715
 7194SOL    HW133041   3.103   1.918   1.754  0.2084  1.4734 -0.0919
 7194SOL    HW233042   3.195   1.982   1.853  0.3376 -1.1554  0.6041
 7195SOL     OW33043   3.179   3.307   7.430 -0.1738  0.1498 -0.2117
 7195SOL    HW133044   3.094   3.350   7.427 -0.8694 -1.4259 -3.1709
 7195SOL    HW233045   3.149   3.217   7.414 -2.1553  1.1627 -2.1426
 7196SOL     OW33046   1.682   1.575   2.847  0.0128  0.0123  0.3754
 7196SOL    HW133047   1.631   1.652   2.822  2.0944  0.4995 -2.3134
 7196SOL    HW233048   1.652   1.581   2.938 -1.6515  1.3397 -0.2775
 7197SOL     OW33049   3.265   2.035   1.360  0.0451 -0.1649 -0.3853
 7197SOL    HW133050   3.355   2.064   1.375  0.4095 -0.2411 -2.4529
 7197SOL    HW233051   3.234   2.097   1.294 -2.6630 -1.9395 -0.7823
 7198SOL     OW33052   3.699   0.131   4.734  0.2394 -0.0653 -0.0202
 7198SOL    HW133053   3.649   0.053   4.708  2.9604 -2.1683  1.0090
 7198SOL    HW233054   3.659   0.202   4.684  2.3438  0.1963 -1.3712
 7199SOL     OW33055   3.839   4.666   5.435 -0.1723 -0.0577 -0.0846
 7199SOL    HW133056   3.907   4.612   5.395  0.1980  1.8091 -1.9981
 7199SOL    HW233057   3.758   4.631   5.399 -0.4170  0.8744 -0.4364
 7200SOL     OW33058   4.199   0.806   7.483  0.2572  0.1638  0.9935
 7200SOL    HW133059   4.193   0.761   7.398  1.3393 -0.8721  1.4627
 7200SOL    HW233060   4.190   0.735   7.546  2.3583 -0.4653  0.5904
 7201SOL     OW33061   0.303   4.721   3.977  0.0582 -0.1948 -0.5265
 7201SOL    HW133062   0.244   0.032   3.909  0.4397  2.6413  0.4657
 7201SOL    HW233063   0.235   4.712   4.044  0.6164 -1.5121 -0.1348
 7202SOL     OW33064   2.935   2.615   3.084  0.2108 -0.1030 -0.4390
 7202SOL    HW133065   2.985   2.692   3.056  1.1247 -1.8407 -3.5185
 7202SOL    HW233066   2.897   2.635   3.170 -0.0237 -0.8856 -0.3630
 7203SOL     OW33067   0.015   1.419   5.792 -0.5280 -0.1930 -0.8076
 7203SOL    HW133068   0.051   1.354   5.731  1.5502 -0.0688  0.2743
 7203SOL    HW233069   4.719   1.367   5.870  1.3016 -0.1961 -0.4064
 7204SOL     OW33070   2.308   2.022   1.284 -0.5484  0.8903  0.0139
 7204SOL    HW133071   2.260   1.967   1.346  0.4623 -1.7950 -1.6014
 7204SOL    HW233072   2.368   2.063   1.346 -0.8532 -2.9404  2.8168
 7205SOL     OW33073   1.841   3.637   4.839 -0.1787 -0.2250  0.4298
 7205SOL    HW133074   1.798   3.562   4.880 -0.2960 -1.3144 -1.7073
 7205SOL    HW233075   1.932   3.626   4.864  0.1643 -0.5425 -0.9551
 7206SOL     OW33076   3.725   1.004  11.371 -0.0816 -0.4978  0.2638
 7206SOL    HW133077   3.719   1.044  11.458  0.3281 -1.2105  0.6295
 7206SOL    HW233078   3.692   0.916  11.392 -0.7363 -0.4005 -0.3681
 7207SOL     OW33079   3.394   1.220   8.424 -0.0236  0.0885 -0.4146
 7207SOL    HW133080   3.435   1.301   8.453 -0.5561 -0.0356  0.6861
 7207SOL    HW233081   3.319   1.223   8.483  1.3182 -1.0565  1.3369
 7208SOL     OW33082   3.990   3.015   0.890  0.5366  0.6743 -1.1982
 7208SOL    HW133083   4.052   3.068   0.840  2.6144 -0.0622  0.5991
 7208SOL    HW233084   3.907   3.065   0.887 -0.8157 -1.3035  3.0330
 7209SOL     OW33085   0.197   2.699   6.128  0.9620  0.3534  0.0887
 7209SOL    HW133086   0.204   2.789   6.097  0.4273 -0.7583 -3.2556
 7209SOL    HW233087   0.127   2.659   6.076 -0.1475  0.6645  1.3473
 7210SOL     OW33088   0.971   3.849  12.031  0.4902 -0.0090 -0.1734
 7210SOL    HW133089   0.957   3.922  12.091  1.2485  0.2719 -0.3360
 7210SOL    HW233090   1.043   3.803  12.075 -1.0161  0.0506  2.3124
 7211SOL     OW33091   2.754   1.512   9.603  0.5416 -0.8091  0.5489
 7211SOL    HW133092   2.838   1.525   9.559 -0.7052  3.2459 -0.6462
 7211SOL    HW233093   2.751   1.596   9.648  0.7538 -0.5969  0.1635
 7212SOL     OW33094   3.684   3.238   2.479  0.3874  0.2040  0.6629
 7212SOL    HW133095   3.752   3.228   2.413  0.8221 -0.6432  1.2377
 7212SOL    HW233096   3.674   3.332   2.466  1.7182  0.3722  0.8440
 7213SOL     OW33097   4.462   4.457   7.469 -0.3992 -0.1768 -0.1610
 7213SOL    HW133098   4.532   4.517   7.442 -1.1655  0.4734 -0.6739
 7213SOL    HW233099   4.419   4.511   7.535 -0.9857 -0.6527 -0.1607
 7214SOL     OW33100   1.757   0.131   3.476  0.0409  0.4700 -0.0537
 7214SOL    HW133101   1.725   0.193   3.410  1.0164  1.4249  0.3638
 7214SOL    HW233102   1.704   0.149   3.554  0.5969 -0.5016  0.5427
 7215SOL     OW33103   1.077   3.680   3.738 -0.6125 -0.2935  0.5699
 7215SOL    HW133104   1.149   3.691   3.800  0.0692 -0.7079 -0.1545
 7215SOL    HW233105   1.028   3.614   3.788  0.0523 -2.0163 -1.0332
 7216SOL     OW33106   0.713   0.316   2.451 -0.1698  0.4669  0.4942
 7216SOL    HW133107   0.656   0.391   2.438  0.8926  1.2239  0.2067
 7216SOL    HW233108   0.712   0.304   2.546 -1.7849 -1.8056  0.1820
 7217SOL     OW33109   2.766   3.096  13.897 -0.1680  0.4947  0.1151
 7217SOL    HW133110   2.678   3.130  13.889 -0.5564 -0.4571  0.3100
 7217SOL    HW233111   2.753   3.017  13.845 -2.9306 -0.8688  2.8932
 7218SOL     OW33112   1.134   3.621   4.469  0.1170  0.2368 -0.2866
 7218SOL    HW133113   1.153   3.695   4.527 -0.9440  1.7386 -1.8208
 7218SOL    HW233114   1.096   3.555   4.526  1.4942  1.4429  2.0240
 7219SOL     OW33115   0.653   1.345   7.277  0.4591 -0.5338 -0.5698
 7219SOL    HW133116   0.726   1.296   7.315 -0.6163  0.5497  2.9452
 7219SOL    HW233117   0.594   1.270   7.279  0.5485 -0.5766  0.6290
 7220SOL     OW33118   3.767   3.461   6.275 -0.0675 -0.3732  0.6609
 7220SOL    HW133119   3.750   3.480   6.367 -2.2181  1.4347 -0.1082
 7220SOL    HW233120   3.754   3.366   6.277  0.9074 -0.4970  0.8207
 7221SOL     OW33121   3.967   0.739  10.066  0.4125 -1.0286 -0.0791
 7221SOL    HW133122   4.053   0.698  10.061  0.8383 -0.2972  1.0732
 7221SOL    HW233123   3.974   0.807  10.134  0.1556 -1.5476  0.4652
 7222SOL     OW33124   2.528   4.682  14.256  0.2210  0.0355 -0.7026
 7222SOL    HW133125   2.601   4.667  14.195  1.2612  2.3165 -0.0358
 7222SOL    HW233126   2.470   0.026  14.216  1.6915  1.0571 -1.1925
 7223SOL     OW33127   3.332   2.036   6.203 -0.3811 -0.2875  0.1306
 7223SOL    HW133128   3.331   2.058   6.296  1.6156  1.8292 -0.3628
 7223SOL    HW233129   3.295   2.115   6.165  1.0405  0.3282  0.0315
 7224SOL     OW33130   3.899   1.474   5.046 -0.4557  0.7093 -0.1066
 7224SOL    HW133131   3.856   1.517   4.972  0.0228  1.8243  0.2653
 7224SOL    HW233132   3.990   1.503   5.052 -0.5640  1.0687 -0.2259
 7225SOL     OW33133   1.291   0.407  14.055  0.1950 -0.0104  0.1880
 7225SOL    HW133134   1.216   0.414  14.114 -1.0036 -0.9340 -1.2267
 7225SOL    HW233135   1.259   0.365  13.976  0.8791  0.7934 -0.5107
 7226SOL     OW33136   1.936   3.996  11.942 -0.1533 -0.4181  0.3240
 7226SOL    HW133137   1.910   3.909  11.970 -3.4605  0.1985 -0.8062
 7226SOL    HW233138   1.971   3.972  11.856 -1.0207  2.3161 -0.8046
 7227SOL     OW33139   3.566   2.391   8.160 -0.0304 -0.4875  0.3602
 7227SOL    HW133140   3.600   2.342   8.235  0.2973  0.5722  0.9066
 7227SOL    HW233141   3.587   2.334   8.086 -1.5499  0.4851 -0.7912
 7228SOL     OW33142   0.440   2.198  11.666 -0.1129 -0.4934 -0.3460
 7228SOL    HW133143   0.484   2.182  11.750  1.7098  1.3431 -0.9449
 7228SOL    HW233144   0.369   2.254  11.697  2.0831  2.1069 -0.0188
 7229SOL     OW33145   2.115   1.419   5.630 -0.2163  0.5600 -0.3482
 7229SOL    HW133146   2.021   1.430   5.648  0.1081  1.5842  0.6749
 7229SOL    HW233147   2.119   1.323   5.622 -2.0053  0.3488  1.4622
 7230SOL     OW33148   0.210   2.104  11.211  0.4911 -0.3590 -0.5235
 7230SOL    HW133149   0.213   2.090  11.305 -0.8373  0.0570 -0.4170
 7230SOL    HW233150   0.304   2.093  11.193  0.6732  1.5157 -0.7434
 7231SOL     OW33151   1.369   2.405   8.088 -0.1362  0.7630 -0.2469
 7231SOL    HW133152   1.367   2.479   8.027 -2.7276  0.4773 -0.4951
 7231SOL    HW233153   1.298   2.347   8.060 -0.5235  0.0263  2.2856
 7232SOL     OW33154   2.069   0.198   4.784 -0.6304 -0.6462 -0.1158
 7232SOL    HW133155   2.152   0.167   4.747 -1.8724 -0.0074 -3.3786
 7232SOL    HW233156   2.080   0.293   4.785 -1.4220 -0.5568  0.0145
 7233SOL     OW33157   4.131   1.152   6.356 -0.7247 -0.1620 -0.0721
 7233SOL    HW133158   4.114   1.224   6.296  1.1610 -1.0110 -1.6446
 7233SOL    HW233159   4.218   1.174   6.390 -0.8841 -1.9657  1.4915
 7234SOL     OW33160   0.523   0.951  14.367  0.3689 -0.0067 -0.1912
 7234SOL    HW133161   0.574   0.878  14.401  0.0113 -0.4456 -0.6112
 7234SOL    HW233162   0.593   1.015  14.351 -0.0685  0.5395  0.0692
 7235SOL     OW33163   3.739   4.655  10.641 -0.1997 -0.3310  0.2075
 7235SOL    HW133164   3.735   4.573  10.591 -0.2462 -0.3769  0.2855
 7235SOL    HW233165   3.833   4.656  10.660 -0.1070  0.7662 -0.3298
 7236SOL     OW33166   2.524   1.147   4.203  0.4170 -0.3982  0.4370
 7236SOL    HW133167   2.459   1.216   4.214 -1.7974 -2.6252  1.2921
 7236SOL    HW233168   2.490   1.087   4.269  0.3037  0.3623  1.0674
 7237SOL     OW33169   0.945   3.929   7.149 -0.0002 -0.6414  0.2137
 7237SOL    HW133170   0.889   3.855   7.123 -0.1300 -0.1841 -0.8259
 7237SOL    HW233171   0.984   3.884   7.224  2.1357 -0.6670 -0.8979
 7238SOL     OW33172   4.161   4.512  17.037 -0.1568  0.3326 -0.5404
 7238SOL    HW133173   4.216   4.530  16.961  1.3510  1.2263  0.7392
 7238SOL    HW233174   4.102   4.449  16.997  0.8347 -0.8902 -0.0502
 7239SOL     OW33175   2.926   1.057   2.254  0.6957  0.3242 -0.3845
 7239SOL    HW133176   3.004   1.003   2.251 -0.4692 -1.3659 -0.3106
 7239SOL    HW233177   2.895   1.052   2.163 -3.0635 -0.2634  0.9390
 7240SOL     OW33178   0.557   2.516  15.878  0.0864 -0.5202 -0.7004
 7240SOL    HW133179   0.601   2.543  15.798 -2.4645  0.4980 -1.7759
 7240SOL    HW233180   0.526   2.430  15.850  0.4393 -0.7773 -0.2917
 7241SOL     OW33181   0.474   2.296  11.425 -0.4639  0.0839 -0.4843
 7241SOL    HW133182   0.462   2.280  11.519 -1.3152  1.0597 -0.4300
 7241SOL    HW233183   0.433   2.218  11.388  1.1448 -1.3649  0.7613
 7242SOL     OW33184   1.650   2.681   8.356  0.1635  0.1195 -0.4154
 7242SOL    HW133185   1.634   2.588   8.373  2.2357 -0.3783 -1.2260
 7242SOL    HW233186   1.701   2.707   8.433  2.8265  0.0197 -2.1337
 7243SOL     OW33187   1.879   1.827   4.890  0.4050 -0.4415  0.0879
 7243SOL    HW133188   1.942   1.780   4.835  0.1118  0.7785 -1.2809
 7243SOL    HW233189   1.937   1.877   4.948 -0.2843 -0.5753  0.8871
 7244SOL     OW33190   4.428   0.483  12.430  0.1937 -0.3502 -0.3885
 7244SOL    HW133191   4.392   0.490  12.342 -1.9044 -0.1035  0.4922
 7244SOL    HW233192   4.405   0.572  12.458 -0.9781 -0.6666 -0.3621
 7245SOL     OW33193   2.048   2.272   8.548 -0.5428  0.2429  0.1191
 7245SOL    HW133194   2.122   2.331   8.562  0.6147 -1.1002 -0.3625
 7245SOL    HW233195   2.045   2.216   8.625 -0.2384 -0.8856 -0.6842
 7246SOL     OW33196   0.419   2.723  11.301  1.0482  0.1310 -0.1206
 7246SOL    HW133197   0.505   2.744  11.337  0.4411 -1.8042  2.4962
 7246SOL    HW233198   0.430   2.628  11.291  2.8202  0.3047  0.2302
 7247SOL     OW33199   4.435   2.052   8.454  0.4360  0.3827 -0.1073
 7247SOL    HW133200   4.362   2.021   8.508  0.2372  1.0686  0.0244
 7247SOL    HW233201   4.426   2.015   8.367  0.3986 -0.1979  0.1433
 7248SOL     OW33202   3.130   0.298   6.610 -0.1650  0.1536 -0.5781
 7248SOL    HW133203   3.091   0.211   6.610 -2.0990  1.0314  0.1755
 7248SOL    HW233204   3.139   0.316   6.516 -0.9343  0.0377 -0.6676
 7249SOL     OW33205   2.407   0.154  14.126 -0.2334 -0.1018  0.3326
 7249SOL    HW133206   2.331   0.127  14.177  0.5786 -2.6497  0.1925
 7249SOL    HW233207   2.367   0.164  14.040  1.3070  0.8267 -0.2747
 7250SOL     OW33208   0.352   1.234   9.609 -0.2029 -0.0318 -0.6741
 7250SOL    HW133209   0.331   1.323   9.582 -0.8518  0.5401  1.6731
 7250SOL    HW233210   0.282   1.218   9.672  1.7627  0.3257  1.6171
 7251SOL     OW33211   4.477   0.265   2.665 -0.1460  0.0549 -0.6548
 7251SOL    HW133212   4.395   0.227   2.697  1.7927 -2.6825  1.0819
 7251SOL    HW233213   4.482   0.235   2.574  1.6444  0.0637 -0.5489
 7252SOL     OW33214   0.785   0.195   3.630  0.3619 -0.0855  0.3019
 7252SOL    HW133215   0.772   0.164   3.541  1.0140  0.7335 -0.0745
 7252SOL    HW233216   0.876   0.183   3.657  0.5064 -1.7945 -0.9034
 7253SOL     OW33217   1.880   1.835   5.558  0.3842 -0.7686  0.0486
 7253SOL    HW133218   1.903   1.745   5.537  1.3930 -0.8934  1.6824
 7253SOL    HW233219   1.869   1.838   5.653  1.1719 -0.0212  0.1212
 7254SOL     OW33220   1.332   0.433   7.567 -0.0929 -0.0052  0.1232
 7254SOL    HW133221   1.332   0.356   7.624 -0.5158  0.8909  1.3374
 7254SOL    HW233222   1.247   0.420   7.524 -0.1563 -0.0059  0.2493
 7255SOL     OW33223   3.295   0.862  14.586  0.4624 -0.1614 -0.1568
 7255SOL    HW133224   3.240   0.884  14.511  1.9693  2.5459 -0.4893
 7255SOL    HW233225   3.269   0.771  14.597  1.1436 -0.4376 -0.8400
 7256SOL     OW33226   4.162   1.966   2.605  0.0473  0.3418 -0.8820
 7256SOL    HW133227   4.138   2.058   2.616  2.7537  1.0522 -0.9656
 7256SOL    HW233228   4.086   1.919   2.641  0.4519  0.4771  0.1573
 7257SOL     OW33229   2.805   3.333   5.673 -0.2444  0.2013 -0.3549
 7257SOL    HW133230   2.850   3.417   5.678 -0.2079  0.1576  0.0790
 7257SOL    HW233231   2.718   3.354   5.706  0.0175  1.0076 -0.1826
 7258SOL     OW33232   1.921   0.693   1.155  0.2044  0.5973  0.2066
 7258SOL    HW133233   1.887   0.760   1.096 -0.7291 -1.3144 -1.4141
 7258SOL    HW233234   1.941   0.743   1.234  0.7070 -4.4566  3.2050
 7259SOL     OW33235   3.020   2.591   4.519  0.0955  0.2908  0.3794
 7259SOL    HW133236   3.103   2.636   4.539  0.7152 -0.5413 -0.3357
 7259SOL    HW233237   2.980   2.619   4.601  1.9260  3.6378  0.1168
 7260SOL     OW33238   3.979   2.920   3.599 -0.5680 -0.0411  0.1941
 7260SOL    HW133239   4.054   2.935   3.542  0.3115  1.4565  1.7558
 7260SOL    HW233240   3.978   2.995   3.658 -1.0687  0.2952 -0.2344
 7261SOL     OW33241   2.406   2.711  16.651  0.3860  0.2462  0.2181
 7261SOL    HW133242   2.339   2.779  16.652  1.1817  0.9505  5.2401
 7261SOL    HW233243   2.462   2.721  16.728  2.5670  1.1592 -1.4692
 7262SOL     OW33244   3.403   0.165  15.504 -0.3730 -0.6043 -0.1161
 7262SOL    HW133245   3.454   0.110  15.563 -1.8195 -0.4263  1.2919
 7262SOL    HW233246   3.426   0.109  15.431 -1.9808 -1.4664  0.0602
 7263SOL     OW33247   2.005   3.413  13.306 -0.4892  0.5127 -0.1914
 7263SOL    HW133248   1.968   3.379  13.387 -0.1684 -1.0694 -0.7018
 7263SOL    HW233249   1.922   3.423  13.259  0.7390  1.1734 -2.2228
 7264SOL     OW33250   3.964   0.206   0.180  0.4749 -0.1506  1.3200
 7264SOL    HW133251   4.033   0.180   0.240  0.1979 -1.3331  1.1274
 7264SOL    HW233252   4.007   0.200   0.094 -2.5497  0.4710 -0.2566
 7265SOL     OW33253   3.522   1.644   7.505 -0.3674  0.2658 -0.1155
 7265SOL    HW133254   3.575   1.705   7.454 -0.6238 -0.4413 -1.2176
 7265SOL    HW233255   3.554   1.667   7.593  0.8714  1.3812 -0.8604
 7266SOL     OW33256   3.585   0.403  14.556  0.0542  0.2859 -0.5226
 7266SOL    HW133257   3.523   0.476  14.553  0.9354  1.1392  2.2057
 7266SOL    HW233258   3.545   0.358  14.631  0.1153  1.2557  0.0987
 7267SOL     OW33259   2.329   0.534   8.690 -0.2681  0.0478  0.8622
 7267SOL    HW133260   2.274   0.601   8.729  0.9942  1.1705  0.7270
 7267SOL    HW233261   2.406   0.540   8.746  0.2356 -2.5305  0.4655
 7268SOL     OW33262   1.635   2.119   5.773 -0.0699 -0.0519  0.0460
 7268SOL    HW133263   1.706   2.180   5.753  1.4915 -1.7838  0.3820
 7268SOL    HW233264   1.649   2.089   5.863  0.0324 -2.3623 -0.7337
 7269SOL     OW33265   4.300   3.895   4.148 -0.4763  0.2024  0.1981
 7269SOL    HW133266   4.348   3.840   4.086 -1.0482 -0.0639 -0.0016
 7269SOL    HW233267   4.214   3.906   4.108  0.1368  0.9420 -0.9281
 7270SOL     OW33268   2.870   3.837   7.881 -0.1343 -0.2990  0.2674
 7270SOL    HW133269   2.872   3.799   7.969 -1.7181  2.2174  1.3999
 7270SOL    HW233270   2.798   3.901   7.878  0.3393  0.1800 -0.8710
 7271SOL     OW33271   3.740   0.460  16.191  0.5388  0.0371  0.2193
 7271SOL    HW133272   3.766   0.384  16.242 -0.6843 -0.8233 -0.4375
 7271SOL    HW233273   3.769   0.441  16.102  0.0453 -0.7607  0.2316
 7272SOL     OW33274   1.407   0.568   2.608 -1.0349  0.0991 -0.8612
 7272SOL    HW133275   1.425   0.622   2.530  0.3462  1.3485  0.3374
 7272SOL    HW233276   1.492   0.555   2.648 -1.7658  0.0006  0.6612
 7273SOL     OW33277   4.260   0.959   4.889  0.7847 -0.3310  0.4516
 7273SOL    HW133278   4.171   0.971   4.921 -0.2425 -0.5325 -2.3525
 7273SOL    HW233279   4.318   0.997   4.955 -0.8004  0.3349  1.4400
 7274SOL     OW33280   2.954   2.374   8.437 -0.4123  0.4471  0.6214
 7274SOL    HW133281   3.015   2.447   8.430 -0.4074  0.4918  1.1611
 7274SOL    HW233282   2.988   2.335   8.517 -1.1934  0.9959  1.2264
 7275SOL     OW33283   3.387   3.594   0.561 -0.3588  0.1859  0.7664
 7275SOL    HW133284   3.386   3.523   0.624  2.7519 -0.5242 -0.0147
 7275SOL    HW233285   3.378   3.548   0.477  1.3932  0.6750  0.2997
 7276SOL     OW33286   3.646   2.984   4.619 -0.9194  0.2810 -0.3805
 7276SOL    HW133287   3.705   3.008   4.691 -1.3721 -1.7472  0.6875
 7276SOL    HW233288   3.683   3.025   4.541  2.9301  1.5833  2.0989
 7277SOL     OW33289   2.886   4.263   7.298  0.2240  0.2495 -0.5334
 7277SOL    HW133290   2.915   4.207   7.227 -0.4256  0.8930 -1.2988
 7277SOL    HW233291   2.794   4.278   7.279  0.7651  2.0815 -1.7359
 7278SOL     OW33292   4.200   3.967   8.802  0.1145 -0.6757 -0.7148
 7278SOL    HW133293   4.188   4.001   8.891  1.8463  1.5744 -1.3599
 7278SOL    HW233294   4.291   3.939   8.806  0.1687 -0.4192 -0.1287
 7279SOL     OW33295   2.702   3.135   4.722  0.6026  0.3264  0.0338
 7279SOL    HW133296   2.658   3.120   4.806  2.1189 -1.7857  0.4353
 7279SOL    HW233297   2.635   3.189   4.680  0.4526  0.3518  0.3010
 7280SOL     OW33298   3.933   1.133   7.783 -0.7738  0.4738 -0.3612
 7280SOL    HW133299   3.870   1.127   7.855 -1.2438  1.3462 -0.7003
 7280SOL    HW233300   3.940   1.228   7.791 -0.2875  0.4313 -0.2756
 7281SOL     OW33301   1.720   1.276   4.818  0.1262 -0.5135 -0.0594
 7281SOL    HW133302   1.679   1.338   4.878  0.2894 -0.4023 -0.0635
 7281SOL    HW233303   1.676   1.298   4.736 -0.5417  0.5882  0.5930
 7282SOL     OW33304   0.578   1.920   9.855  0.0462  0.1932 -0.1810
 7282SOL    HW133305   0.644   1.887   9.915  0.5467 -0.5719 -1.1617
 7282SOL    HW233306   0.541   1.834   9.835 -0.8767  0.4084  0.5462
 7283SOL     OW33307   4.538   2.066   1.409 -0.6988  0.6514  0.2042
 7283SOL    HW133308   4.541   1.981   1.453 -2.1584  0.2567 -0.4640
 7283SOL    HW233309   4.462   2.058   1.352 -0.1715  0.3845 -0.4615
 7284SOL     OW33310   1.294   3.113   7.946 -0.5789  0.1623  0.3573
 7284SOL    HW133311   1.360   3.177   7.920 -1.0782  1.1259  1.4646
 7284SOL    HW233312   1.288   3.079   7.856  1.1257 -0.6583  0.5492
 7285SOL     OW33313   0.065   0.344   4.772  0.3795 -0.1753 -0.2064
 7285SOL    HW133314   0.018   0.261   4.783 -1.8403  1.3049  1.4086
 7285SOL    HW233315   0.008   0.409   4.813 -0.9165 -1.9777  0.8394
 7286SOL     OW33316   0.725   3.742   7.116  0.5838  0.2393  0.0957
 7286SOL    HW133317   0.687   3.790   7.043  0.6966 -2.5572 -1.7607
 7286SOL    HW233318   0.763   3.672   7.063  2.1192  2.1012 -1.2969
 7287SOL     OW33319   2.956   4.609  12.110  0.8407  0.1103 -0.1828
 7287SOL    HW133320   3.037   4.560  12.126  0.9495  0.0039 -1.0204
 7287SOL    HW233321   2.900   4.588  12.184 -1.5591  0.5211 -1.8800
 7288SOL     OW33322   3.434   2.308   4.530 -0.4338  0.0692 -0.9273
 7288SOL    HW133323   3.368   2.346   4.588  0.0612 -0.0921 -0.2646
 7288SOL    HW233324   3.415   2.369   4.459  2.2555  3.1306  1.0234
 7289SOL     OW33325   3.594   3.014   8.183  0.2144 -0.2562  0.5257
 7289SOL    HW133326   3.631   2.973   8.261 -1.5067  0.4769  1.7291
 7289SOL    HW233327   3.551   3.094   8.211 -1.0636 -1.0560  0.8364
 7290SOL     OW33328   2.896   3.634  10.332  0.2343 -0.1416 -0.2740
 7290SOL    HW133329   2.912   3.692  10.406 -0.0854 -0.3642 -0.0288
 7290SOL    HW233330   2.857   3.700  10.276  1.9992  0.1384 -1.1661
 7291SOL     OW33331   1.058   3.749   5.154  0.3815 -0.2830 -0.5922
 7291SOL    HW133332   0.986   3.710   5.104 -1.7311  2.3840  0.3646
 7291SOL    HW233333   1.033   3.750   5.246  1.9558  2.0263 -0.1952
 7292SOL     OW33334   1.918   1.573   3.712 -0.0556  0.2472  0.4076
 7292SOL    HW133335   1.947   1.630   3.783 -1.3067 -0.7311  1.7021
 7292SOL    HW233336   1.985   1.576   3.643 -0.2709  1.5195  0.2614
 7293SOL     OW33337   0.753   2.079   8.120  0.9123 -0.2322  0.4890
 7293SOL    HW133338   0.683   2.065   8.056  0.9660 -2.1470  0.8662
 7293SOL    HW233339   0.778   2.165   8.086 -1.5812  0.8272  1.2700
 7294SOL     OW33340   1.378   2.793   8.414 -0.1551  0.4276 -0.3086
 7294SOL    HW133341   1.345   2.716   8.460 -0.0124  0.3804 -0.2843
 7294SOL    HW233342   1.461   2.756   8.382 -0.4199 -0.9818  0.6555
 7295SOL     OW33343   0.721   0.831   6.679  0.1950 -0.3234  0.1321
 7295SOL    HW133344   0.698   0.747   6.639  1.8718 -0.3240 -0.8167
 7295SOL    HW233345   0.637   0.867   6.707  1.5477  1.8350  1.3430
 7296SOL     OW33346   1.252   3.420   6.062  0.3241 -0.2387  0.0101
 7296SOL    HW133347   1.313   3.356   6.099 -0.0138 -0.9770 -0.7102
 7296SOL    HW233348   1.285   3.434   5.973  0.2124 -0.3184 -0.0434
 7297SOL     OW33349   3.358   4.249   6.461  0.7295  0.2167 -0.2217
 7297SOL    HW133350   3.298   4.175   6.454  2.5795 -1.4449  1.4883
 7297SOL    HW233351   3.429   4.239   6.398 -1.2074  1.2526 -2.5486
 7298SOL     OW33352   1.253   4.221   7.423  0.6891  0.0216  0.0440
 7298SOL    HW133353   1.349   4.217   7.423  0.7282  0.8124 -1.1053
 7298SOL    HW233354   1.237   4.315   7.426  2.5573  0.3847 -1.3871
 7299SOL     OW33355   1.640   0.482   5.909  0.0779 -0.4112 -0.2447
 7299SOL    HW133356   1.669   0.481   6.001  2.8782 -0.6362 -1.1364
 7299SOL    HW233357   1.570   0.417   5.909 -2.0034  1.8109 -1.2855
 7300SOL     OW33358   0.466   3.343   6.264 -0.6214  0.4821  0.1102
 7300SOL    HW133359   0.485   3.260   6.221  4.3145  1.2392  0.8792
 7300SOL    HW233360   0.458   3.401   6.188  0.5595  0.6048  0.0721
 7301SOL     OW33361   1.313   0.878  11.419  0.0944 -0.2002 -0.1655
 7301SOL    HW133362   1.247   0.886  11.488  2.2190 -0.6215  1.9434
 7301SOL    HW233363   1.334   0.971  11.416 -0.8476  0.0083 -0.2975
 7302SOL     OW33364   2.593   3.774   9.920  0.4233  0.2011  0.1936
 7302SOL    HW133365   2.564   3.847   9.865  2.9271  1.4839  0.6010
 7302SOL    HW233366   2.511   3.743   9.958 -2.0951  4.0749 -2.0006
 7303SOL     OW33367   1.675   0.473   6.182  0.1893  0.4065  0.0277
 7303SOL    HW133368   1.678   0.560   6.221  0.1197  0.3790  0.0932
 7303SOL    HW233369   1.714   0.414   6.247  0.4636 -0.0603 -0.5598
 7304SOL     OW33370   4.012   2.120   5.682 -0.0332 -0.5350  0.7058
 7304SOL    HW133371   4.078   2.188   5.676 -0.8727  0.1663 -0.6718
 7304SOL    HW233372   4.007   2.096   5.775 -1.9104 -0.9386  0.5094
 7305SOL     OW33373   2.730   1.302   7.531  0.3374  1.0258 -0.0698
 7305SOL    HW133374   2.768   1.312   7.619  2.0951 -1.2007 -0.5996
 7305SOL    HW233375   2.663   1.371   7.533 -0.3966  0.3348 -1.0924
 7306SOL     OW33376   1.067   3.126  14.722  0.5579 -0.1334  0.4493
 7306SOL    HW133377   1.157   3.157  14.733  0.7219 -0.4997  0.1502
 7306SOL    HW233378   1.061   3.106  14.629 -0.4852 -3.2518  1.1614
 7307SOL     OW33379   2.058   0.035   6.156  0.6707 -0.3569  0.1041
 7307SOL    HW133380   2.072   0.120   6.198  0.3649 -0.9932  1.5067
 7307SOL    HW233381   2.145   4.715   6.154  0.9686  0.3137 -0.6821
 7308SOL     OW33382   4.525   3.013   4.842 -0.1727 -0.2954  0.2486
 7308SOL    HW133383   4.607   3.032   4.798  0.9217 -0.1796  2.3383
 7308SOL    HW233384   4.464   3.063   4.788  0.8677  1.4064  0.6489
 7309SOL     OW33385   1.408   4.020   6.345 -0.3419  0.5677  0.1937
 7309SOL    HW133386   1.436   3.979   6.427 -2.4104 -0.1740  0.5435
 7309SOL    HW233387   1.342   4.079   6.381  0.0195 -0.1679  2.0644
 7310SOL     OW33388   2.156   1.868  13.197 -0.2708  0.0601 -0.1935
 7310SOL    HW133389   2.077   1.921  13.204 -1.4847 -1.8669  0.8653
 7310SOL    HW233390   2.142   1.804  13.267  0.7717 -0.7420 -0.7176
 7311SOL     OW33391   1.229   3.818   1.909  0.0798  0.3904 -0.3273
 7311SOL    HW133392   1.250   3.736   1.865  1.1291  1.5340 -1.9336
 7311SOL    HW233393   1.228   3.874   1.832 -1.7244  0.1149 -0.4985
 7312SOL     OW33394   3.584   2.164   2.011  0.1308 -0.0375  0.4316
 7312SOL    HW133395   3.661   2.158   1.955 -0.5405  0.2167 -0.5291
 7312SOL    HW233396   3.583   2.254   2.044  1.3933 -0.4564  1.5791
 7313SOL     OW33397   1.317   0.779  12.406  0.0329  0.1056  0.1972
 7313SOL    HW133398   1.228   0.816  12.408  0.8124  2.0139 -0.1379
 7313SOL    HW233399   1.321   0.709  12.470 -2.2130  0.3401  0.6046
 7314SOL     OW33400   1.784   4.180   4.005  0.0437 -0.4879 -0.1213
 7314SOL    HW133401   1.785   4.275   3.992 -0.5069 -0.4405  0.1612
 7314SOL    HW233402   1.717   4.168   4.072 -0.7136  0.7134 -0.6674
 7315SOL     OW33403   3.646   0.019  11.495  0.5878 -0.2462 -0.2378
 7315SOL    HW133404   3.621   0.110  11.479  0.2523 -0.7445 -2.6105
 7315SOL    HW233405   3.648   4.707  11.405 -0.5990  0.1091 -0.3954
 7316SOL     OW33406   1.009   2.049   5.291 -0.3544 -0.0485  0.4813
 7316SOL    HW133407   1.089   2.092   5.263  0.6475 -2.0954  0.2239
 7316SOL    HW233408   1.036   1.958   5.296  0.9177  0.4717  3.2818
 7317SOL     OW33409   1.718   0.620   7.607 -0.0490 -0.6624  0.5142
 7317SOL    HW133410   1.712   0.704   7.651  0.5525 -0.7914  0.8435
 7317SOL    HW233411   1.772   0.648   7.533  0.9967 -0.8806  1.1812
 7318SOL     OW33412   4.313   1.463   6.987  0.1811  0.7221  0.5155
 7318SOL    HW133413   4.384   1.488   7.045  1.9781  0.1730 -1.4664
 7318SOL    HW233414   4.283   1.380   7.024 -0.1739  0.6474  0.0669
 7319SOL     OW33415   2.011   1.732   2.322 -0.0344  0.3951  0.1146
 7319SOL    HW133416   1.935   1.682   2.352 -0.1022  1.3420  1.5150
 7319SOL    HW233417   2.011   1.739   2.226 -1.6096  1.7691  0.2224
 7320SOL     OW33418   1.079   1.387   4.789  0.4438 -0.2476 -0.6346
 7320SOL    HW133419   1.170   1.392   4.817 -0.3104  2.8141  1.3782
 7320SOL    HW233420   1.096   1.356   4.701  1.9138  0.5627 -0.6300
 7321SOL     OW33421   3.341   2.646  13.774  0.0529 -0.1401  0.0792
 7321SOL    HW133422   3.354   2.584  13.846 -3.6277 -0.8238  0.1631
 7321SOL    HW233423   3.418   2.630  13.721 -0.1829  0.1944 -0.3689
 7322SOL     OW33424   2.508   3.784  16.219 -0.3116 -0.3049 -0.0117
 7322SOL    HW133425   2.440   3.850  16.234 -1.6358 -1.7679  0.3911
 7322SOL    HW233426   2.592   3.829  16.215 -0.5139 -0.0289 -1.2951
 7323SOL     OW33427   2.429   2.621   7.650  0.0899 -0.5455 -0.3931
 7323SOL    HW133428   2.489   2.611   7.576  2.9788  0.4543  1.8138
 7323SOL    HW233429   2.412   2.533   7.685  0.8106  0.1009  1.6218
 7324SOL     OW33430   1.776   3.586   1.397 -0.2246  1.1087 -0.2723
 7324SOL    HW133431   1.723   3.598   1.477  0.2406 -0.0371  0.2081
 7324SOL    HW233432   1.821   3.670   1.392  0.6243  0.6997  0.3635
 7325SOL     OW33433   0.345   1.731   1.654 -0.1760  0.7504 -0.0650
 7325SOL    HW133434   0.260   1.747   1.613  0.1173  0.2872 -0.8645
 7325SOL    HW233435   0.378   1.821   1.658  0.7914  0.4489 -1.1397
 7326SOL     OW33436   4.448   1.109   8.872  0.7109 -0.4173 -0.6317
 7326SOL    HW133437   4.531   1.151   8.849  2.2587 -2.4144  1.3319
 7326SOL    HW233438   4.422   1.066   8.791 -1.1126 -0.1407 -0.1760
 7327SOL     OW33439   2.407   1.301   8.941  0.0376  0.0629  0.4884
 7327SOL    HW133440   2.451   1.247   8.875  0.7620 -0.2460  1.2153
 7327SOL    HW233441   2.332   1.243   8.953 -1.0462  1.7813  2.0829
 7328SOL     OW33442   3.378   0.924   5.532 -0.2400  0.1297 -0.2097
 7328SOL    HW133443   3.411   0.997   5.480 -1.0914  0.8434  0.2372
 7328SOL    HW233444   3.458   0.895   5.575 -0.0745 -1.6351 -1.7152
 7329SOL     OW33445   1.610   2.368  10.026 -0.6333 -0.8773 -0.4506
 7329SOL    HW133446   1.675   2.334  10.088 -1.7084 -1.1740  0.5346
 7329SOL    HW233447   1.632   2.310   9.953  1.3550 -0.1032 -0.4707
 7330SOL     OW33448   3.893   3.794   1.886 -0.2159  0.6038  0.1501
 7330SOL    HW133449   3.913   3.883   1.916 -0.1920  0.3129  0.9990
 7330SOL    HW233450   3.858   3.813   1.799 -0.2706 -1.6297 -0.3094
 7331SOL     OW33451   3.928   4.415   9.636  0.4109 -0.0175  0.1837
 7331SOL    HW133452   3.961   4.325   9.627 -0.2394 -0.1359 -1.0086
 7331SOL    HW233453   3.848   4.409   9.584 -0.0264 -1.5808  1.0393
 7332SOL     OW33454   2.940   4.049  16.996 -0.0289 -0.3945  0.4225
 7332SOL    HW133455   2.878   4.067  16.925  0.5803  1.6153  0.4090
 7332SOL    HW233456   3.023   4.047  16.948 -0.6178 -1.1395 -0.5723
 7333SOL     OW33457   2.458   2.038   9.333  0.1967  0.2811 -0.3110
 7333SOL    HW133458   2.511   1.959   9.325  0.3617  0.3367  0.2124
 7333SOL    HW233459   2.373   2.006   9.365  1.2099 -0.7169  1.3536
 7334SOL     OW33460   0.859   0.479   5.118  0.0090  0.2207  0.6904
 7334SOL    HW133461   0.932   0.519   5.072 -3.3891  2.0504 -3.1715
 7334SOL    HW233462   0.849   0.400   5.064 -1.0620  0.6387  0.2719
 7335SOL     OW33463   3.589   0.843   7.526 -0.0054  0.2951 -0.7747
 7335SOL    HW133464   3.639   0.787   7.586 -1.1760 -0.1531 -0.2121
 7335SOL    HW233465   3.538   0.774   7.483 -0.8286  1.5108 -1.7152
 7336SOL     OW33466   4.348   3.490   9.627 -0.3100 -0.0728  0.2947
 7336SOL    HW133467   4.347   3.397   9.650  0.1593  0.2778  1.7448
 7336SOL    HW233468   4.440   3.504   9.605 -1.0054  1.6776 -1.5160
 7337SOL     OW33469   2.537   2.203   5.951  0.4509  0.3917  0.6740
 7337SOL    HW133470   2.490   2.160   6.022  2.1593 -0.4815  1.2652
 7337SOL    HW233471   2.485   2.281   5.930  0.1020 -0.1404 -0.4428
 7338SOL     OW33472   3.059   4.092   6.283  0.0467 -0.2148  0.3173
 7338SOL    HW133473   3.054   4.124   6.373  0.6472  0.9824 -0.0670
 7338SOL    HW233474   3.137   4.037   6.293 -1.6431 -2.2553  2.1868
 7339SOL     OW33475   2.970   3.767   4.926  0.1640 -0.1030 -0.0727
 7339SOL    HW133476   2.942   3.709   4.854 -0.7191  1.1136 -0.7054
 7339SOL    HW233477   2.951   3.707   4.999  1.0283  0.5032  0.6416
 7340SOL     OW33478   2.028   1.938   4.553  0.0782 -0.7300  0.0824
 7340SOL    HW133479   2.039   1.980   4.468  1.2231 -0.6460  0.2750
 7340SOL    HW233480   1.941   1.967   4.579  0.0468  0.5344 -1.4385
 7341SOL     OW33481   0.737   2.424  11.413  0.4125 -0.0840 -0.4639
 7341SOL    HW133482   0.719   2.517  11.400  2.8800  0.2530 -1.5474
 7341SOL    HW233483   0.649   2.388  11.405  0.2090  0.7147 -1.8829
 7342SOL     OW33484   1.497   2.042   1.795 -0.0688  0.0014 -0.3955
 7342SOL    HW133485   1.531   1.961   1.833 -1.1287 -0.7964 -1.1563
 7342SOL    HW233486   1.507   2.027   1.701  0.2017 -0.3816 -0.3060
 7343SOL     OW33487   3.873   3.430   5.534 -0.0025  0.1720  0.5515
 7343SOL    HW133488   3.863   3.336   5.518  0.7009  0.4302 -1.3797
 7343SOL    HW233489   3.809   3.440   5.605  0.7384 -0.9121  1.3787
 7344SOL     OW33490   1.068   3.681   4.197  0.1817  0.4804  0.1091
 7344SOL    HW133491   1.145   3.727   4.163  0.8455  0.0330  1.0279
 7344SOL    HW233492   1.092   3.657   4.286  1.0501 -0.0039 -0.2555
 7345SOL     OW33493   4.488   2.303   8.735 -0.1065 -0.1282 -0.2286
 7345SOL    HW133494   4.438   2.305   8.653  2.3350 -0.4072 -1.7402
 7345SOL    HW233495   4.521   2.214   8.723  0.9581  0.0671  1.2679
 7346SOL     OW33496   3.433   2.314   7.452  0.5452  0.3164  0.0873
 7346SOL    HW133497   3.463   2.278   7.535  1.0189  0.7097  0.0887
 7346SOL    HW233498   3.364   2.368   7.489 -1.4065 -1.6649 -0.7234
 7347SOL     OW33499   2.858   0.731   2.415  0.2142 -0.9870  0.2181
 7347SOL    HW133500   2.841   0.641   2.388 -1.2958 -0.0693 -1.8139
 7347SOL    HW233501   2.883   0.765   2.329  0.0119 -0.0740  0.5304
 7348SOL     OW33502   1.553   4.460   9.297  0.2169 -0.5229 -0.1875
 7348SOL    HW133503   1.514   4.422   9.218 -1.4110  0.5343  0.1105
 7348SOL    HW233504   1.619   4.394   9.317  1.1034  0.4582  0.1117
 7349SOL     OW33505   0.969   3.434   5.826  0.6944 -0.1266 -0.6812
 7349SOL    HW133506   1.062   3.439   5.847 -0.1049  1.0649  2.5423
 7349SOL    HW233507   0.942   3.524   5.845  0.2281  0.1386 -2.5403
 7350SOL     OW33508   2.553   1.814   1.955 -0.5947 -0.5402  0.3080
 7350SOL    HW133509   2.603   1.747   1.907 -1.2952  0.0316 -1.2255
 7350SOL    HW233510   2.479   1.764   1.990 -1.4596 -1.1143 -2.3402
 7351SOL     OW33511   0.698   0.130  17.522  0.6110 -0.8067 -0.0609
 7351SOL    HW133512   0.715   0.166  17.609  1.3933  2.5054 -1.5758
 7351SOL    HW233513   0.632   0.061  17.526  1.5366 -1.8081 -1.6513
 7352SOL     OW33514   2.177   2.479   1.313 -0.2988  0.0211 -0.2557
 7352SOL    HW133515   2.105   2.464   1.374  1.1687 -1.2830  1.1344
 7352SOL    HW233516   2.175   2.404   1.253  0.8796 -0.2483  0.0322
 7353SOL     OW33517   0.261   1.085   3.092 -0.5875  0.0603  0.4167
 7353SOL    HW133518   0.307   1.137   3.026 -1.3735 -0.8461 -0.8354
 7353SOL    HW233519   0.192   1.049   3.037  0.5525 -1.9834  0.3366
 7354SOL     OW33520   1.861   3.168   9.214 -0.0175  0.5607 -0.0952
 7354SOL    HW133521   1.894   3.149   9.302 -1.4276 -0.7486  0.1457
 7354SOL    HW233522   1.928   3.130   9.158 -0.6817  1.2715 -1.3707
 7355SOL     OW33523   2.091   3.105   2.802 -0.2510  0.0756  0.1444
 7355SOL    HW133524   2.083   3.014   2.832 -0.2532  0.5132  1.4907
 7355SOL    HW233525   2.180   3.105   2.766 -0.6555 -0.6730 -0.8440
 7356SOL     OW33526   0.446   2.392  10.941 -0.6198 -0.3383 -0.2874
 7356SOL    HW133527   0.428   2.469  10.887 -0.3507 -0.0159  0.0760
 7356SOL    HW233528   0.375   2.337  10.909 -1.0741  0.8757 -1.3818
 7357SOL     OW33529   2.729   1.755  17.507  0.4333 -0.3397 -0.8500
 7357SOL    HW133530   2.790   1.829  17.500 -0.1084  0.2187  0.4323
 7357SOL    HW233531   2.748   1.721  17.594 -1.4938 -0.0559 -0.3245
 7358SOL     OW33532   4.335   4.267   3.451  0.7877 -0.7313  0.2965
 7358SOL    HW133533   4.364   4.357   3.464 -2.0555  0.3496 -0.6731
 7358SOL    HW233534   4.424   4.234   3.442  0.8130 -0.7323  0.5370
 7359SOL     OW33535   2.091   1.627   7.270 -0.5458 -0.1857  0.1987
 7359SOL    HW133536   2.181   1.599   7.253  0.0548  0.8040  1.8131
 7359SOL    HW233537   2.050   1.553   7.226 -0.0419  0.0623 -0.6954
 7360SOL     OW33538   2.000   4.433   5.033  0.3274  0.7401 -0.6146
 7360SOL    HW133539   2.043   4.352   5.060 -0.7128  0.5976  0.6215
 7360SOL    HW233540   1.966   4.468   5.115  1.3870  1.8204 -0.6394
 7361SOL     OW33541   2.704   0.570  16.647 -0.0363  0.1586 -0.0551
 7361SOL    HW133542   2.642   0.614  16.705  0.1813  1.0632 -0.5233
 7361SOL    HW233543   2.784   0.611  16.678 -0.2763  0.1702  0.5416
 7362SOL     OW33544   4.646   3.369   4.938  0.1312 -0.0065 -0.3906
 7362SOL    HW133545   4.644   3.461   4.963  0.6968 -0.2547  0.5905
 7362SOL    HW233546   4.620   3.383   4.847  2.2088  2.0276 -0.6670
 7363SOL     OW33547   1.404   2.967  17.177  0.3094  0.3563  0.1238
 7363SOL    HW133548   1.317   2.987  17.212  0.8857 -0.3053  1.9199
 7363SOL    HW233549   1.385   2.883  17.136  0.3185  0.1597  0.5211
 7364SOL     OW33550   3.942   4.124   5.574  0.3879  0.2778 -0.6787
 7364SOL    HW133551   3.953   4.068   5.497 -0.7435 -1.6663  0.5669
 7364SOL    HW233552   4.036   4.133   5.592  0.7936 -1.2757 -1.9820
 7365SOL     OW33553   0.676   4.657   3.318 -0.3289  0.0529  0.1708
 7365SOL    HW133554   0.612   4.631   3.386 -0.8243  0.2406 -0.2248
 7365SOL    HW233555   0.739   4.585   3.324 -1.8029 -1.2426  0.3260
 7366SOL     OW33556   4.558   2.040   1.128 -0.1420  0.2146 -0.4025
 7366SOL    HW133557   4.577   2.084   1.045 -1.7658  1.1292 -0.2917
 7366SOL    HW233558   4.594   2.109   1.184  1.4118  1.3125 -2.7563
 7367SOL     OW33559   1.623   1.526   3.733 -0.3006 -0.6302  0.0752
 7367SOL    HW133560   1.584   1.441   3.713  0.9470 -0.6804 -2.2257
 7367SOL    HW233561   1.708   1.502   3.771 -0.7716 -2.5401 -0.0692
 7368SOL     OW33562   2.731   0.293   2.958 -0.1797 -0.6332  0.5438
 7368SOL    HW133563   2.678   0.358   2.913  1.5963 -1.9986 -3.5678
 7368SOL    HW233564   2.663   0.226   2.969 -1.0270  0.2934  0.9598
 7369SOL     OW33565   3.739   2.038  16.626 -0.0420  0.1702 -0.0498
 7369SOL    HW133566   3.781   2.007  16.706 -0.2289  1.1932  0.4377
 7369SOL    HW233567   3.745   2.133  16.638 -0.8264  0.2219 -0.0454
 7370SOL     OW33568   3.146   2.150  16.157 -0.3281  0.6812 -0.5771
 7370SOL    HW133569   3.063   2.145  16.204  0.4994 -0.0269  0.8162
 7370SOL    HW233570   3.127   2.141  16.064 -0.3188  1.9506 -0.7046
 7371SOL     OW33571   3.755   2.443   5.338  0.6276 -0.0740 -0.1431
 7371SOL    HW133572   3.815   2.403   5.275  1.2967 -0.3936  0.6883
 7371SOL    HW233573   3.788   2.412   5.422  2.9666 -0.2646 -1.1355
 7372SOL     OW33574   1.038   3.839  13.308  0.0540  0.0493 -0.3392
 7372SOL    HW133575   1.111   3.866  13.363 -0.7604  2.1215 -0.2636
 7372SOL    HW233576   1.040   3.912  13.246  1.8700  0.2397 -0.0381
 7373SOL     OW33577   2.534   3.307  16.743 -0.0647 -0.8353  0.1641
 7373SOL    HW133578   2.487   3.373  16.692 -1.3696  0.3388  2.8738
 7373SOL    HW233579   2.545   3.232  16.684 -2.0462 -0.6631 -0.4338
 7374SOL     OW33580   2.489   4.469   2.741 -0.3429  0.3304  0.5396
 7374SOL    HW133581   2.412   4.456   2.686  0.9194 -3.4999 -0.2890
 7374SOL    HW233582   2.443   4.501   2.819 -0.1866  1.9134 -0.0205
 7375SOL     OW33583   2.958   3.274  14.211  0.3300 -0.0711  0.1809
 7375SOL    HW133584   2.971   3.196  14.157 -0.5962 -0.6199  0.7416
 7375SOL    HW233585   2.940   3.329  14.135  2.4446 -1.8940 -1.6308
 7376SOL     OW33586   1.441   3.078   3.902  0.0558 -0.2916 -0.1911
 7376SOL    HW133587   1.488   2.995   3.905 -0.8897 -0.8120  0.5211
 7376SOL    HW233588   1.410   3.066   3.812 -2.4479 -0.1864  0.6491
 7377SOL     OW33589   2.065   2.662   6.542 -0.0357  0.0017 -0.4952
 7377SOL    HW133590   2.102   2.675   6.629  1.9375 -1.4028 -1.1382
 7377SOL    HW233591   2.104   2.582   6.508  0.8194 -0.1186  0.7917
 7378SOL     OW33592   4.439   0.699   6.382 -0.5638 -0.7492  0.3468
 7378SOL    HW133593   4.446   0.684   6.477 -1.9121 -0.7149  0.4507
 7378SOL    HW233594   4.526   0.679   6.349  0.3858  0.3216  2.2063
 7379SOL     OW33595   3.980   1.337   2.337  0.9680  0.0114 -0.9863
 7379SOL    HW133596   4.060   1.388   2.352  0.9582 -0.2890  0.1029
 7379SOL    HW233597   4.001   1.263   2.394 -0.6346  0.9022  0.7501
 7380SOL     OW33598   1.569   4.224  15.561  0.4260  0.0464  0.4854
 7380SOL    HW133599   1.477   4.245  15.543 -0.0386 -0.6466  2.0301
 7380SOL    HW233600   1.554   4.130  15.556 -3.4920  0.8243 -2.6068
 7381SOL     OW33601   3.055   2.195   9.571  0.7397  0.3817  0.5098
 7381SOL    HW133602   3.112   2.177   9.646  0.1025 -0.7790  0.7215
 7381SOL    HW233603   3.026   2.106   9.552  1.6676 -0.2317  1.9614
 7382SOL     OW33604   2.262   0.076  11.228  0.2940 -0.1502  0.4542
 7382SOL    HW133605   2.321   0.109  11.295  1.1138  1.1906 -0.9496
 7382SOL    HW233606   2.178   0.108  11.261 -0.1986  0.2526 -1.1836
 7383SOL     OW33607   3.760   1.124   2.586  0.4132  0.1537  1.1713
 7383SOL    HW133608   3.713   1.134   2.503  0.7658  2.3800  1.2637
 7383SOL    HW233609   3.698   1.119   2.659  0.8053 -0.8104  1.4449
 7384SOL     OW33610   2.538   2.601   6.425 -0.0968 -0.1168  0.4473
 7384SOL    HW133611   2.514   2.545   6.351  1.2607  1.6862 -1.3433
 7384SOL    HW233612   2.518   2.540   6.496  2.1010 -0.8439  0.4332
 7385SOL     OW33613   1.787   0.575   2.588 -0.1276  0.3867  0.1656
 7385SOL    HW133614   1.782   0.617   2.674  0.5168 -0.7385  0.7539
 7385SOL    HW233615   1.880   0.551   2.596  0.1047  1.3009  0.1679
 7386SOL     OW33616   1.701   1.953   4.188  0.2012  0.0716  0.1041
 7386SOL    HW133617   1.672   1.955   4.279  1.7508  0.2060  0.6050
 7386SOL    HW233618   1.686   2.047   4.178 -2.8168 -0.2901  1.3155
 7387SOL     OW33619   4.636   3.703   7.406  0.5493 -0.0364 -0.3264
 7387SOL    HW133620   4.659   3.687   7.498  2.4909  2.0228 -0.4386
 7387SOL    HW233621   4.628   3.799   7.411  1.3019  0.0056  0.1133
 7388SOL     OW33622   4.244   1.918   8.582 -0.5520 -0.4199  0.3407
 7388SOL    HW133623   4.182   1.896   8.651 -0.5387 -1.5146  0.0049
 7388SOL    HW233624   4.304   1.844   8.572  1.3228  1.1617 -0.0579
 7389SOL     OW33625   4.265   2.746   2.609  0.1430  0.0467 -0.1286
 7389SOL    HW133626   4.341   2.776   2.560  0.0157  0.7242  0.0961
 7389SOL    HW233627   4.305   2.754   2.695  0.3547 -1.7036 -0.0582
 7390SOL     OW33628   2.282   2.836   7.650 -0.0679  0.0855 -0.3559
 7390SOL    HW133629   2.206   2.785   7.680 -0.3573 -0.1374 -1.4921
 7390SOL    HW233630   2.351   2.770   7.642  1.3174  1.6695 -1.2617
 7391SOL     OW33631   2.439   4.638   5.239  0.3579  0.2087 -0.4315
 7391SOL    HW133632   2.345   4.652   5.249  0.2712  0.8463 -2.2540
 7391SOL    HW233633   2.475   4.613   5.324 -0.1696 -1.2989 -0.6335
 7392SOL     OW33634   1.482   3.186  17.620 -0.2352 -0.5542 -0.1168
 7392SOL    HW133635   1.486   3.122  17.549  0.4912  1.9768 -2.4046
 7392SOL    HW233636   1.575   3.209  17.611 -0.4278 -0.1101 -1.0259
 7393SOL     OW33637   4.372   1.942   1.711 -0.2753 -0.2345  0.6057
 7393SOL    HW133638   4.442   1.989   1.756 -0.6028  1.6346 -0.8670
 7393SOL    HW233639   4.296   1.989   1.744 -0.1034  0.2889  0.2546
 7394SOL     OW33640   2.984   0.220  12.071 -0.3385  0.8876 -0.1030
 7394SOL    HW133641   2.977   0.179  12.157 -1.8345 -1.2481 -1.2424
 7394SOL    HW233642   2.894   0.236  12.044 -0.7292 -1.8272 -0.3873
 7395SOL     OW33643   3.155   3.390   3.409  0.4804 -0.5531  0.2128
 7395SOL    HW133644   3.123   3.480   3.415  1.0474 -0.2042 -1.8772
 7395SOL    HW233645   3.213   3.398   3.333  0.6789  0.5410  0.4794
 7396SOL     OW33646   4.390   0.315   8.720 -0.2194  0.4443 -0.8362
 7396SOL    HW133647   4.341   0.346   8.645 -0.6079  0.6675 -0.4856
 7396SOL    HW233648   4.323   0.270   8.772  1.7022 -0.1855  1.1497
 7397SOL     OW33649   1.180   0.469   2.393 -0.0719 -0.7553 -0.0801
 7397SOL    HW133650   1.274   0.462   2.376 -0.4501 -0.8248 -2.1139
 7397SOL    HW233651   1.151   0.556   2.369 -3.2310 -1.5059  1.0566
 7398SOL     OW33652   3.544   2.644   5.981 -0.0737 -0.2769 -0.5526
 7398SOL    HW133653   3.561   2.572   6.042 -0.0718  0.8096  0.7478
 7398SOL    HW233654   3.451   2.635   5.964  0.5853 -1.1570 -3.6854
 7399SOL     OW33655   2.139   1.646   2.560 -0.1660 -0.1437 -0.2618
 7399SOL    HW133656   2.214   1.706   2.565 -1.0850  0.9917  0.0465
 7399SOL    HW233657   2.093   1.679   2.483 -0.0895 -0.1400 -0.3065
 7400SOL     OW33658   3.050   0.536  16.640 -0.6350 -0.5725 -0.6643
 7400SOL    HW133659   3.127   0.524  16.584  0.9074 -0.5275  1.4665
 7400SOL    HW233660   3.025   0.625  16.618  0.4876 -0.1355 -0.1414
 7401SOL     OW33661   0.183   1.917   1.412 -0.0735  0.0031  0.5425
 7401SOL    HW133662   0.135   1.834   1.415 -0.4147  0.2262  1.0776
 7401SOL    HW233663   0.166   1.941   1.320  0.0799  0.2346  0.5755
 7402SOL     OW33664   2.189   0.790  17.297  0.3229  0.9736 -0.4859
 7402SOL    HW133665   2.213   0.863  17.240  2.2094 -0.4125 -1.4481
 7402SOL    HW233666   2.185   0.849  17.373  0.1864  0.6399 -0.2356
 7403SOL     OW33667   2.253   4.718   2.497  0.1634 -0.0644 -0.3514
 7403SOL    HW133668   2.288   0.057   2.563 -1.1868  0.2928  0.0314
 7403SOL    HW233669   2.159   0.009   2.504  0.7444  2.2106  3.4783
 7404SOL     OW33670   1.977   1.394  15.328 -0.1125 -0.3442 -0.2257
 7404SOL    HW133671   1.993   1.481  15.290 -0.3523  0.2500  1.0147
 7404SOL    HW233672   1.894   1.396  15.376  0.3345 -0.8563  0.5653
 7405SOL     OW33673   3.219   2.736  16.148 -0.3428 -0.5277  0.1711
 7405SOL    HW133674   3.254   2.692  16.071 -1.6657  1.1560 -1.4097
 7405SOL    HW233675   3.292   2.729  16.210  0.0761 -1.1082 -0.3998
 7406SOL     OW33676   1.770   3.285   6.754  0.1145 -0.3220 -0.0788
 7406SOL    HW133677   1.844   3.295   6.693  0.3556  1.1566  0.4477
 7406SOL    HW233678   1.693   3.276   6.698  0.0399  0.0779 -0.0392
 7407SOL     OW33679   3.536   3.244  13.075  0.5425 -0.0756 -0.5589
 7407SOL    HW133680   3.603   3.204  13.132  1.2097  1.4845 -0.2391
 7407SOL    HW233681   3.538   3.187  12.998  0.5887 -2.3896  1.1410
 7408SOL     OW33682   0.921   0.000   7.820  0.4025  0.0673  0.0059
 7408SOL    HW133683   0.894   4.661   7.889 -0.6990  1.9934  1.2617
 7408SOL    HW233684   1.005   0.039   7.844  1.4215 -2.3256  0.2640
 7409SOL     OW33685   3.391   2.430  17.617 -0.6211  0.4427  0.0818
 7409SOL    HW133686   3.307   2.471  17.598 -0.9943  0.3055  1.4090
 7409SOL    HW233687   3.359   2.376   0.003 -1.1434 -1.2129 -1.3658
 7410SOL     OW33688   0.581   1.923   4.685 -0.0332 -0.2115 -0.1439
 7410SOL    HW133689   0.646   1.964   4.628 -1.6129  1.7518 -0.5271
 7410SOL    HW233690   0.516   1.894   4.621 -0.4427 -1.6466  0.9279
 7411SOL     OW33691   0.200   3.890   4.132  0.0392  0.2698 -0.6377
 7411SOL    HW133692   0.110   3.884   4.165  0.4330 -0.3041  0.3372
 7411SOL    HW233693   0.243   3.924   4.211 -0.8673 -1.2299  0.5124
 7412SOL     OW33694   3.606   3.340  11.034 -0.0550 -0.0670 -0.1439
 7412SOL    HW133695   3.698   3.316  11.021  0.5080  1.9335  0.0564
 7412SOL    HW233696   3.596   3.429  11.001  3.0150  1.3031  2.5710
 7413SOL     OW33697   1.684   2.880  12.714  0.3228 -0.4955 -0.5920
 7413SOL    HW133698   1.630   2.935  12.657 -1.6082 -1.7474  0.0090
 7413SOL    HW233699   1.633   2.870  12.795 -1.2746 -0.1578 -1.5447
 7414SOL     OW33700   0.577   1.504   3.606  0.1189  0.0508  0.0217
 7414SOL    HW133701   0.637   1.429   3.607 -1.3452 -1.1096  1.3055
 7414SOL    HW233702   0.542   1.476   3.521  0.9379 -1.5421  0.2151
 7415SOL     OW33703   3.697   4.470  16.949 -0.1132 -0.4357 -0.5340
 7415SOL    HW133704   3.757   4.526  16.998 -1.4336  1.9280 -1.6175
 7415SOL    HW233705   3.635   4.539  16.926  1.3292  0.8730 -0.4873
 7416SOL     OW33706   0.480   0.523   7.027  0.4620  0.1711  0.4833
 7416SOL    HW133707   0.412   0.577   6.988  1.7376  2.8423  1.9147
 7416SOL    HW233708   0.452   0.434   7.005 -0.8536  0.9472 -0.9628
 7417SOL     OW33709   2.945   0.076   6.021  0.4005 -0.1099  0.4928
 7417SOL    HW133710   2.920   0.073   5.929 -0.7830 -0.6158  0.8294
 7417SOL    HW233711   3.036   0.100   6.008  0.1736  0.6369  0.2880
 7418SOL     OW33712   3.724   0.397   8.332 -0.2841 -0.2449  0.1169
 7418SOL    HW133713   3.714   0.457   8.406  2.0618  0.5640 -0.2152
 7418SOL    HW233714   3.639   0.395   8.288 -0.5789  0.2504  0.6601
 7419SOL     OW33715   3.724   0.608  16.413 -0.2426 -0.0732  0.1722
 7419SOL    HW133716   3.715   0.546  16.341 -1.8224  0.5248 -0.1336
 7419SOL    HW233717   3.672   0.680  16.378  0.5059  0.8829  0.9917
 7420SOL     OW33718   4.630   1.216   3.903  0.3104  0.4142 -0.9467
 7420SOL    HW133719   4.653   1.302   3.939 -2.7982  0.8127  0.1074
 7420SOL    HW233720   4.683   1.159   3.959 -2.3526 -2.3812 -1.2864
 7421SOL     OW33721   3.236   4.610   6.909 -0.6126  0.1592 -0.2255
 7421SOL    HW133722   3.278   4.538   6.861 -2.5648  0.0645 -1.7916
 7421SOL    HW233723   3.146   4.603   6.879 -0.8097  0.8172  0.2202
 7422SOL     OW33724   4.027   1.024   9.872  0.0050 -0.1616  0.1035
 7422SOL    HW133725   3.985   0.985   9.796  0.9283 -0.7349 -0.1185
 7422SOL    HW233726   3.983   1.109   9.876  0.4184 -0.0018  1.0780
 7423SOL     OW33727   1.198   2.462   2.340 -0.0794  0.2982  0.6036
 7423SOL    HW133728   1.137   2.481   2.268  2.3276 -0.3468 -1.5629
 7423SOL    HW233729   1.234   2.381   2.305 -2.5791 -0.5344 -0.0870
 7424SOL     OW33730   4.310   3.073  10.653 -0.5075  0.8200 -0.1203
 7424SOL    HW133731   4.380   3.045  10.593 -1.9671 -0.3346 -1.2743
 7424SOL    HW233732   4.338   3.165  10.658 -0.1996  0.6000  2.1811
 7425SOL     OW33733   3.741   1.456   4.586  0.3000 -0.0618  0.5394
 7425SOL    HW133734   3.828   1.443   4.548 -0.0794  1.1092 -0.7232
 7425SOL    HW233735   3.696   1.487   4.507  0.8858  0.8402  0.5431
 7426SOL     OW33736   3.427   2.140   3.094  0.2841 -0.2401  0.3304
 7426SOL    HW133737   3.395   2.083   3.163 -2.7010  2.0102  0.8081
 7426SOL    HW233738   3.346   2.189   3.081  0.2341 -0.3502  0.2295
 7427SOL     OW33739   4.436   1.511   3.474  0.0911  0.7709 -0.0836
 7427SOL    HW133740   4.447   1.520   3.379 -1.8288 -1.4815 -0.5104
 7427SOL    HW233741   4.505   1.567   3.510  2.8575 -1.9344 -1.2548
 7428SOL     OW33742   2.403   4.217   9.053 -0.1111  0.3668  0.7744
 7428SOL    HW133743   2.442   4.231   8.967 -1.7735  0.7002  0.0699
 7428SOL    HW233744   2.477   4.247   9.105  0.7407 -0.1513 -0.1393
 7429SOL     OW33745   3.338   1.226   8.711  0.7947 -0.5095 -0.7670
 7429SOL    HW133746   3.338   1.316   8.742 -1.9682 -0.8183  0.1023
 7429SOL    HW233747   3.264   1.185   8.756  0.9523 -1.0416 -0.9844
 7430SOL     OW33748   3.523   0.609   7.165  0.0752  0.6782  0.0121
 7430SOL    HW133749   3.469   0.670   7.114  0.1869  0.7013 -0.0787
 7430SOL    HW233750   3.505   0.534   7.109  0.4061  1.0278 -0.5783
 7431SOL     OW33751   4.430   3.332   3.861  0.4167  0.5353 -0.5200
 7431SOL    HW133752   4.468   3.261   3.912 -1.0550 -1.1096 -1.6993
 7431SOL    HW233753   4.512   3.380   3.850  0.4697  0.5335 -0.1207
 7432SOL     OW33754   4.480   3.346   6.134  0.9766 -0.3967  0.5184
 7432SOL    HW133755   4.515   3.369   6.220  1.8065 -0.5857  0.2275
 7432SOL    HW233756   4.398   3.394   6.121  0.1401 -1.5602  1.4481
 7433SOL     OW33757   4.687   4.547   3.181 -0.1600 -0.0551  0.5743
 7433SOL    HW133758   4.636   4.493   3.240 -0.4238 -1.9419 -1.3947
 7433SOL    HW233759   4.625   4.620   3.176 -1.5316 -1.0874  2.6977
 7434SOL     OW33760   1.961   2.559  12.414 -0.2440  0.7945  0.3441
 7434SOL    HW133761   1.970   2.494  12.483  1.0212 -1.1819 -1.6564
 7434SOL    HW233762   2.050   2.580  12.385  0.4831 -0.2342  1.8375
 7435SOL     OW33763   3.382   0.831  15.510 -0.4455 -0.1056 -0.3667
 7435SOL    HW133764   3.392   0.925  15.501 -2.3399 -0.0485 -1.7823
 7435SOL    HW233765   3.346   0.807  15.425  0.4239 -2.7638  0.0102
 7436SOL     OW33766   0.462   3.615   2.788  0.1258 -0.0708 -0.4713
 7436SOL    HW133767   0.549   3.654   2.789 -0.5241  1.3645 -0.1541
 7436SOL    HW233768   0.410   3.682   2.743  0.3047  0.9065  0.7593
 7437SOL     OW33769   4.653   0.916   4.179 -0.2776  0.0388 -0.2006
 7437SOL    HW133770   4.684   1.004   4.157 -0.5307 -0.1477 -1.3019
 7437SOL    HW233771   0.006   0.860   4.153  0.5734  0.4630  1.3419
 7438SOL     OW33772   0.962   3.543  11.108  0.5820  0.4289  0.0271
 7438SOL    HW133773   1.022   3.504  11.172  1.0303 -0.3826 -0.8840
 7438SOL    HW233774   0.977   3.482  11.036 -1.5575  0.5697 -0.5558
 7439SOL     OW33775   0.528   1.045   4.751 -0.0474  0.4909 -0.2542
 7439SOL    HW133776   0.576   1.127   4.761 -0.6388  0.7522  0.4566
 7439SOL    HW233777   0.468   1.066   4.679 -2.6584  0.6334  1.9504
 7440SOL     OW33778   0.004   4.419   4.290 -0.2385 -0.0052 -0.6016
 7440SOL    HW133779   0.048   4.470   4.222 -0.9502  3.0993  1.3245
 7440SOL    HW233780   4.664   4.481   4.328  1.0050  0.8133  0.0626
 7441SOL     OW33781   1.201   3.080   6.788 -0.2771 -0.3165 -0.6720
 7441SOL    HW133782   1.215   3.157   6.734 -0.8371  1.5006  1.7510
 7441SOL    HW233783   1.260   3.016   6.750  0.3180  1.4627 -2.7723
 7442SOL     OW33784   1.140   2.452   4.328 -0.0738 -0.3754 -1.0002
 7442SOL    HW133785   1.088   2.463   4.408  0.4528 -0.3405 -0.6661
 7442SOL    HW233786   1.133   2.536   4.283 -3.0444  0.2464  0.6214
 7443SOL     OW33787   2.270   2.888   3.342  0.4848  0.0306  0.1663
 7443SOL    HW133788   2.311   2.974   3.336  0.5496 -0.1097 -1.3330
 7443SOL    HW233789   2.188   2.897   3.293  0.9645  3.1785 -0.0325
 7444SOL     OW33790   1.857   2.727  17.594  0.1234  0.1567 -0.0363
 7444SOL    HW133791   1.855   2.632  17.610 -0.3263  0.0608 -0.6849
 7444SOL    HW233792   1.932   2.737  17.536  1.6627  0.0699  1.9404
 7445SOL     OW33793   3.425   3.229   6.676  0.0764 -0.2147 -0.1164
 7445SOL    HW133794   3.376   3.147   6.666 -0.4695  0.1162 -0.1282
 7445SOL    HW233795   3.431   3.234   6.771 -1.1326  0.1294 -0.0645
 7446SOL     OW33796   0.536   3.405   7.272 -0.5015  0.0091 -0.3335
 7446SOL    HW133797   0.442   3.400   7.292 -0.7381  3.1696 -0.6299
 7446SOL    HW233798   0.549   3.497   7.250 -1.3243  0.0589 -0.6346
 7447SOL     OW33799   4.180   2.062  16.073 -0.2285  0.3040 -0.0170
 7447SOL    HW133800   4.137   2.041  15.990 -3.5756 -1.9860  2.2815
 7447SOL    HW233801   4.131   2.138  16.102 -0.6973 -0.6526  1.7176
 7448SOL     OW33802   4.236   3.207   7.381 -0.5903 -0.2406 -0.0780
 7448SOL    HW133803   4.201   3.128   7.341  1.0529 -1.3572  0.6886
 7448SOL    HW233804   4.176   3.217   7.455 -0.2857  1.0585 -0.0064
 7449SOL     OW33805   0.060   2.297  15.412 -0.6048  0.7460  0.0615
 7449SOL    HW133806   4.690   2.320  15.432 -1.0992 -0.5182 -0.7288
 7449SOL    HW233807   0.049   2.276  15.319  0.7973 -1.3862  0.4048
 7450SOL     OW33808   0.590   0.452   1.170  0.4993  0.2542 -0.0087
 7450SOL    HW133809   0.662   0.402   1.208 -2.2631 -0.1768  4.6559
 7450SOL    HW233810   0.638   0.499   1.102 -2.6322  0.9875 -1.6939
 7451SOL     OW33811   3.977   0.940   4.959  0.6941  0.0946  0.8942
 7451SOL    HW133812   4.027   0.876   5.010  1.0448  0.2502  0.7463
 7451SOL    HW233813   3.889   0.903   4.955  0.8042  0.0322 -0.8057
 7452SOL     OW33814   0.286   3.392   4.668  0.0369  0.3459 -0.6443
 7452SOL    HW133815   0.275   3.487   4.664  0.5120  0.5196  1.9266
 7452SOL    HW233816   0.377   3.383   4.639  0.4804 -3.4167  1.8208
 7453SOL     OW33817   1.005   3.018   6.351  0.1375  0.1857  0.1564
 7453SOL    HW133818   1.033   3.107   6.372 -2.2289  0.9363  0.1143
 7453SOL    HW233819   1.067   2.963   6.400 -0.8331 -1.4272 -0.4477
 7454SOL     OW33820   2.992   2.105   2.094  0.5125  0.0623  0.4450
 7454SOL    HW133821   3.066   2.060   2.052  0.6460  1.0057 -0.3336
 7454SOL    HW233822   2.914   2.082   2.043  1.0192  0.0188 -0.3096
 7455SOL     OW33823   3.175   1.252   3.392  0.0480 -0.0896 -0.0767
 7455SOL    HW133824   3.183   1.250   3.297  0.7992  0.1378 -0.0240
 7455SOL    HW233825   3.137   1.164   3.398 -1.2375  0.4929  0.3293
 7456SOL     OW33826   2.430   1.861   4.869  0.1178  0.2872 -0.5808
 7456SOL    HW133827   2.371   1.826   4.803  0.5123 -0.5812 -0.4622
 7456SOL    HW233828   2.506   1.819   4.829  0.0236 -0.4352  0.0156
 7457SOL     OW33829   2.609   0.606   8.842  0.1648  0.3292 -0.2848
 7457SOL    HW133830   2.578   0.696   8.854 -1.3702 -0.1666 -0.4301
 7457SOL    HW233831   2.699   0.604   8.875  0.3006  1.3583 -0.6188
 7458SOL     OW33832   0.778   3.326   7.201 -0.4081 -0.3363 -0.1249
 7458SOL    HW133833   0.712   3.364   7.259 -0.6459 -2.2089  0.8356
 7458SOL    HW233834   0.731   3.256   7.155 -3.0223  0.8384  0.7734
 7459SOL     OW33835   2.002   2.608   9.649 -0.0066 -0.5542  0.0448
 7459SOL    HW133836   2.035   2.588   9.562 -1.7164 -0.2772 -0.6621
 7459SOL    HW233837   2.078   2.586   9.703  0.3914 -0.0964 -0.3312
 7460SOL     OW33838   0.124   1.938   8.622  0.6965 -0.3786  0.1813
 7460SOL    HW133839   0.041   1.976   8.651  0.6203 -0.6876  0.3673
 7460SOL    HW233840   0.115   1.904   8.533  1.6032 -1.6726  0.5851
 7461SOL     OW33841   0.137   4.652   7.699 -0.3738 -0.0244  0.6114
 7461SOL    HW133842   0.112   0.022   7.681 -0.4391 -0.3989 -1.1458
 7461SOL    HW233843   0.052   4.615   7.725 -1.7613  2.7332  0.0751
 7462SOL     OW33844   3.258   4.082  11.027  0.6301 -0.4432 -0.4969
 7462SOL    HW133845   3.285   4.095  11.118  0.2176  0.7704 -0.5419
 7462SOL    HW233846   3.163   4.072  11.023  0.6252 -1.2646  2.0114
 7463SOL     OW33847   4.348   4.262   7.320  0.3538 -0.3296 -0.0509
 7463SOL    HW133848   4.372   4.271   7.228  1.1450  5.1940  0.7034
 7463SOL    HW233849   4.391   4.342   7.350 -0.9837  0.9285 -1.4441
 7464SOL     OW33850   2.311   2.451  12.926  0.3417  0.0584 -0.1366
 7464SOL    HW133851   2.337   2.403  13.006 -1.1167 -1.4832 -0.5861
 7464SOL    HW233852   2.301   2.543  12.949 -5.1346 -0.9430  1.4692
 7465SOL     OW33853   2.208   0.281  16.818  0.0019  0.3416  0.6008
 7465SOL    HW133854   2.292   0.304  16.777  0.7260  0.8598  2.3740
 7465SOL    HW233855   2.228   0.323  16.902 -1.0342  1.4067  0.3088
 7466SOL     OW33856   1.873   0.464   0.181  0.2713  0.6042 -0.1168
 7466SOL    HW133857   1.913   0.455   0.267 -1.3998 -0.4498  0.5491
 7466SOL    HW233858   1.893   0.374   0.154 -1.8704 -0.4006  1.6633
 7467SOL     OW33859   1.878   3.573  11.559  0.0868 -0.1200 -0.4384
 7467SOL    HW133860   1.851   3.494  11.513  3.0248 -1.7048  0.5128
 7467SOL    HW233861   1.943   3.542  11.622  1.1720  0.9858 -1.0155
 7468SOL     OW33862   1.251   4.631   5.991  0.2110 -0.6222 -0.2050
 7468SOL    HW133863   1.216   4.594   6.072 -1.1969 -0.9612 -0.9700
 7468SOL    HW233864   1.307   4.559   5.961 -0.0761 -1.2094  0.6440
 7469SOL     OW33865   3.416   3.224   8.771 -0.1220  0.7730  0.4990
 7469SOL    HW133866   3.413   3.299   8.713  1.0498  0.5409  0.1411
 7469SOL    HW233867   3.436   3.270   8.853 -2.2935  0.2976  1.2859
 7470SOL     OW33868   3.196   0.059   7.699 -0.4248 -0.1758  0.1448
 7470SOL    HW133869   3.164   4.714   7.761  0.2578  0.8640  1.6144
 7470SOL    HW233870   3.189   0.010   7.617 -1.7858 -0.0644  0.1894
 7471SOL     OW33871   4.463   2.213   5.535  0.2804 -0.0344 -0.2878
 7471SOL    HW133872   4.519   2.283   5.501 -1.5043  1.2789 -0.5461
 7471SOL    HW233873   4.504   2.203   5.621 -1.2711  1.3225  0.6181
 7472SOL     OW33874   4.377   4.153  11.954 -0.2591 -0.0347 -0.3942
 7472SOL    HW133875   4.452   4.158  11.896 -1.5796 -1.4456 -2.2140
 7472SOL    HW233876   4.415   4.139  12.041 -0.8833  0.0021 -0.1142
 7473SOL     OW33877   2.303   2.187  15.265 -0.2981 -0.0092 -0.7748
 7473SOL    HW133878   2.341   2.112  15.220 -0.4772 -1.3010  1.2374
 7473SOL    HW233879   2.261   2.132  15.331 -1.3458 -0.4905 -1.8452
 7474SOL     OW33880   1.799   2.762   3.683  0.7026  0.1669 -0.1519
 7474SOL    HW133881   1.784   2.708   3.606 -0.8063  1.2563 -0.6112
 7474SOL    HW233882   1.886   2.796   3.659  0.5873  0.3582 -0.2945
 7475SOL     OW33883   1.612   3.416   1.601 -0.3302  0.0754 -0.3817
 7475SOL    HW133884   1.519   3.396   1.596 -0.0365 -1.8759  2.0081
 7475SOL    HW233885   1.626   3.427   1.695 -0.2660 -1.2006 -0.2396
 7476SOL     OW33886   0.446   3.735   6.391 -0.1157 -0.2678  0.0501
 7476SOL    HW133887   0.420   3.647   6.417 -0.4081  0.1054  1.0344
 7476SOL    HW233888   0.478   3.716   6.303  0.7001 -0.6785  0.4337
 7477SOL     OW33889   0.833   4.385   8.324  0.3002 -0.6519  0.0398
 7477SOL    HW133890   0.832   4.394   8.419 -2.4339  0.6578 -0.1070
 7477SOL    HW233891   0.747   4.347   8.307 -1.1520  1.9465  1.5668
 7478SOL     OW33892   1.686   3.593   6.478  0.2944  0.5810  0.1197
 7478SOL    HW133893   1.671   3.598   6.572 -1.3372  0.1938 -0.1163
 7478SOL    HW233894   1.759   3.531   6.479 -1.0392 -0.9562  1.3352
 7479SOL     OW33895   4.417   1.335   4.582 -0.0891  0.2414  0.0187
 7479SOL    HW133896   4.473   1.303   4.653 -0.1946  2.5105  1.1227
 7479SOL    HW233897   4.359   1.261   4.569  0.9787 -0.6568  0.3221
 7480SOL     OW33898   2.125   2.301  15.796 -0.2862  0.0371 -0.5218
 7480SOL    HW133899   2.157   2.305  15.706  2.2855 -0.4152  0.3681
 7480SOL    HW233900   2.144   2.210  15.820  2.6034  0.0699 -2.7692
 7481SOL     OW33901   2.951   0.342  10.025 -0.2184 -0.2549  0.2631
 7481SOL    HW133902   2.953   0.361   9.931 -2.5543 -0.3794  0.2020
 7481SOL    HW233903   3.039   0.375  10.044 -0.1440 -1.4577  1.9913
 7482SOL     OW33904   3.942   0.619   6.976  0.2543 -0.0911  0.6969
 7482SOL    HW133905   3.936   0.529   7.007 -0.5420  0.0661  1.0128
 7482SOL    HW233906   3.874   0.658   7.032 -0.6085  1.7074 -1.5853
 7483SOL     OW33907   1.754   0.391  12.184  0.0404  0.0032  0.2187
 7483SOL    HW133908   1.827   0.391  12.123  0.5923  1.5823  0.8777
 7483SOL    HW233909   1.689   0.330  12.150  1.3666 -0.3336 -1.7237
 7484SOL     OW33910   3.675   4.484  13.062  0.5473  0.3285  0.3287
 7484SOL    HW133911   3.689   4.394  13.032 -1.0125  1.2636 -3.1323
 7484SOL    HW233912   3.660   4.530  12.980 -1.1920  1.8212  1.4741
 7485SOL     OW33913   0.058   2.181  10.331  0.0572 -0.7680 -0.2105
 7485SOL    HW133914   0.105   2.204  10.252 -1.5909 -2.3971 -1.6647
 7485SOL    HW233915   0.123   2.169  10.400 -0.8501 -0.1349  0.7680
 7486SOL     OW33916   1.807   3.926  14.773  0.2932  0.0252  0.0915
 7486SOL    HW133917   1.839   3.888  14.855 -0.5335 -0.4036  0.2196
 7486SOL    HW233918   1.886   3.906  14.722 -1.4309 -3.1423 -1.3527
 7487SOL     OW33919   3.242   0.880   3.973  0.3821  0.4970  0.3079
 7487SOL    HW133920   3.169   0.833   3.933  0.6207 -0.5980  1.1640
 7487SOL    HW233921   3.202   0.967   3.967 -0.7988 -0.1602 -1.4898
 7488SOL     OW33922   3.223   0.184  14.608  0.1057 -0.3039  0.6587
 7488SOL    HW133923   3.158   0.241  14.649  1.2655  0.4015  1.5230
 7488SOL    HW233924   3.268   0.149  14.685  0.1394 -0.2843  0.6477
 7489SOL     OW33925   4.322   0.599   3.278 -0.1830 -0.0895  0.2186
 7489SOL    HW133926   4.302   0.507   3.260 -0.3082  0.0887 -0.5641
 7489SOL    HW233927   4.416   0.600   3.262 -0.3175  0.0556 -0.6138
 7490SOL     OW33928   4.672   1.625   3.524 -0.4379  0.1767 -0.5829
 7490SOL    HW133929   0.000   1.582   3.454 -0.1712 -0.7623  0.1790
 7490SOL    HW233930   0.020   1.673   3.569  0.0144 -1.9478  0.9930
 7491SOL     OW33931   2.500   1.790   4.141  0.3146  0.1022  0.5035
 7491SOL    HW133932   2.471   1.848   4.211 -0.9122 -1.5544  1.3659
 7491SOL    HW233933   2.543   1.715   4.182  2.2035  1.4157  0.9231
 7492SOL     OW33934   1.352   1.799   2.513  0.0477  0.9928 -0.4250
 7492SOL    HW133935   1.284   1.761   2.458  1.0317  3.1818 -3.1398
 7492SOL    HW233936   1.288   1.849   2.564 -1.6168 -0.9238 -0.6289
 7493SOL     OW33937   3.265   0.603   6.195  0.0606  0.1228 -0.0861
 7493SOL    HW133938   3.229   0.567   6.114  3.2747 -2.0510 -0.5492
 7493SOL    HW233939   3.263   0.697   6.174 -0.1462 -0.0912 -1.0158
 7494SOL     OW33940   2.253   1.723   4.022  0.2638  0.0004  0.5146
 7494SOL    HW133941   2.337   1.764   4.042  0.2909  0.5836 -0.7923
 7494SOL    HW233942   2.223   1.705   4.111 -0.3886 -0.5731  0.1770
 7495SOL     OW33943   2.233   1.444   5.367  0.0213 -0.0028  0.0109
 7495SOL    HW133944   2.184   1.457   5.448 -0.6322  0.6510 -0.4975
 7495SOL    HW233945   2.268   1.359   5.396 -1.1407 -0.3506  0.4049
 7496SOL     OW33946   1.302   4.608   1.954 -0.0387  0.1752  0.3795
 7496SOL    HW133947   1.239   4.660   1.904  0.5441  1.2927  0.7923
 7496SOL    HW233948   1.321   4.670   2.025 -0.0274  0.8336 -0.1948
 7497SOL     OW33949   3.000   2.457   0.537 -0.4785 -0.1027  0.4024
 7497SOL    HW133950   2.972   2.366   0.535 -1.6879  0.3418 -2.1005
 7497SOL    HW233951   2.914   2.495   0.521 -1.4480 -1.4052  2.5175
 7498SOL     OW33952   2.134   1.708  10.148 -0.4293 -0.0837  1.2152
 7498SOL    HW133953   2.139   1.620  10.186 -0.4142  0.9012  3.5420
 7498SOL    HW233954   2.123   1.766  10.224 -1.7559  1.3219 -0.0487
 7499SOL     OW33955   2.453   3.156   5.225  0.5763  0.8030  0.0249
 7499SOL    HW133956   2.393   3.166   5.299 -0.3064  2.0293 -0.8688
 7499SOL    HW233957   2.402   3.208   5.163  1.3788  0.4517 -0.9305
 7500SOL     OW33958   3.758   0.077   1.368 -0.1698 -0.3000  0.1788
 7500SOL    HW133959   3.684   0.131   1.339 -1.3130 -1.3431  1.1719
 7500SOL    HW233960   3.726   0.061   1.457  1.2442  0.6999  0.8602
 7501SOL     OW33961   3.450   2.086  16.862  0.2836 -0.1250 -0.5067
 7501SOL    HW133962   3.366   2.040  16.859  0.2238  0.0173 -0.8752
 7501SOL    HW233963   3.507   2.011  16.881 -0.5579 -0.8537 -0.8990
 7502SOL     OW33964   3.666   0.963  12.285 -0.7346 -0.1190  0.5520
 7502SOL    HW133965   3.710   1.045  12.263 -2.7269  0.9216  0.5099
 7502SOL    HW233966   3.573   0.986  12.290  0.3004  4.0182  0.4329
 7503SOL     OW33967   3.061   0.062   5.220  0.3589 -0.0251 -0.3269
 7503SOL    HW133968   3.074   0.043   5.128 -2.0315  2.0386 -1.0993
 7503SOL    HW233969   3.057   4.700   5.268 -2.1130 -1.0918 -2.3598
 7504SOL     OW33970   0.973   0.124  11.524 -0.2493  0.5656 -0.2697
 7504SOL    HW133971   0.938   0.066  11.592 -0.3223  2.9154  1.6942
 7504SOL    HW233972   0.892   0.158  11.488  0.2847  0.2351 -1.7910
 7505SOL     OW33973   2.649   0.131  15.323  0.0886 -0.4046  0.6787
 7505SOL    HW133974   2.742   0.117  15.339  0.0361 -0.2563  1.1218
 7505SOL    HW233975   2.646   0.227  15.320  3.0308 -0.2822  1.8030
 7506SOL     OW33976   2.232   4.181  16.741  0.3765  0.3166  0.5833
 7506SOL    HW133977   2.220   4.086  16.743 -0.2773  0.3320 -2.9728
 7506SOL    HW233978   2.172   4.221  16.804  0.2808  0.1490  0.5977
 7507SOL     OW33979   0.898   2.415  12.263  0.2802  0.2671 -0.0277
 7507SOL    HW133980   0.923   2.349  12.198  0.6056  0.6998 -0.3387
 7507SOL    HW233981   0.891   2.494  12.211 -0.1813 -1.1311 -2.0761
 7508SOL     OW33982   1.678   4.616   4.263  0.0956  0.2840 -0.0577
 7508SOL    HW133983   1.726   4.646   4.340  1.4115  0.4221 -0.9411
 7508SOL    HW233984   1.692   4.522   4.275  0.0000  0.2884  0.0803
 7509SOL     OW33985   1.621   1.074   4.995  0.1557 -0.6312 -0.1783
 7509SOL    HW133986   1.620   1.013   4.921 -0.1568 -3.0552  1.8437
 7509SOL    HW233987   1.658   1.152   4.954  1.9684 -0.7606  1.2091
 7510SOL     OW33988   0.792   0.974   9.355 -0.2824 -0.2433 -0.3576
 7510SOL    HW133989   0.861   1.008   9.411 -1.1176  2.3325 -0.9022
 7510SOL    HW233990   0.728   0.960   9.426  0.4969 -1.7480  0.0394
 7511SOL     OW33991   2.934   0.864   8.303  0.2397 -0.7775  0.3314
 7511SOL    HW133992   2.911   0.822   8.220 -1.4314 -0.2200  0.4964
 7511SOL    HW233993   2.847   0.892   8.331 -0.0858 -2.1848  0.7579
 7512SOL     OW33994   3.899   4.269   2.347  0.0421 -0.0221  0.3300
 7512SOL    HW133995   3.950   4.348   2.362 -1.2573  0.4136  2.2955
 7512SOL    HW233996   3.899   4.263   2.251  1.3491 -1.7644  0.4212
 7513SOL     OW33997   4.550   3.202  15.159 -0.1625  0.2311  0.4253
 7513SOL    HW133998   4.636   3.161  15.153  0.3172  1.3469 -0.3419
 7513SOL    HW233999   4.502   3.127  15.193 -0.8763  0.2688 -0.5086
 7514SOL     OW34000   4.435   3.297  10.387  0.5934 -0.1698  0.5425
 7514SOL    HW134001   4.441   3.391  10.373 -3.1807  0.0295  0.2769
 7514SOL    HW234002   4.440   3.298  10.483  0.4458  1.0377  0.5399
 7515SOL     OW34003   1.892   0.496   2.962  0.6129 -0.3524  0.3802
 7515SOL    HW134004   1.877   0.575   2.910  2.1265 -0.1367  0.2768
 7515SOL    HW234005   1.933   0.541   3.035  0.6918 -0.1666  0.2227
 7516SOL     OW34006   2.322   4.663  16.219 -0.0483 -0.8989  0.1826
 7516SOL    HW134007   2.331   4.622  16.132 -0.2654 -0.7007  0.0684
 7516SOL    HW234008   2.349   4.591  16.276 -0.7455 -1.4251 -0.1546
 7517SOL     OW34009   3.067   3.166   5.680  0.5448  0.3070 -0.0878
 7517SOL    HW134010   3.130   3.186   5.749  2.2952 -1.4699 -1.1768
 7517SOL    HW234011   3.013   3.245   5.691  1.2259  0.6504  0.7950
 7518SOL     OW34012   3.328   1.400   6.895 -0.1487 -0.1353 -0.7267
 7518SOL    HW134013   3.253   1.340   6.885 -0.8281  0.3741  1.2688
 7518SOL    HW234014   3.362   1.379   6.981 -0.7117  3.7750  0.4609
 7519SOL     OW34015   2.422   3.410   4.296 -0.1711 -0.1736 -0.2682
 7519SOL    HW134016   2.370   3.349   4.349 -0.0531  0.3299  0.4206
 7519SOL    HW234017   2.397   3.386   4.206  1.9250 -1.2249 -0.5512
 7520SOL     OW34018   1.882   3.501   4.545  0.0981  0.1233 -0.0316
 7520SOL    HW134019   1.976   3.509   4.559  0.0791  0.2271  0.0456
 7520SOL    HW234020   1.850   3.581   4.588 -0.1426  1.1192 -2.0494
 7521SOL     OW34021   1.749   3.895  10.779 -0.2768 -0.1048 -0.3486
 7521SOL    HW134022   1.684   3.938  10.723  0.4182  0.9160 -0.3857
 7521SOL    HW234023   1.826   3.941  10.745  0.5026 -1.2312 -0.0905
 7522SOL     OW34024   0.518   0.064   9.095 -0.2170 -0.5406  0.1018
 7522SOL    HW134025   0.463   0.065   9.173  2.0011  0.5470  1.6282
 7522SOL    HW234026   0.534   4.691   9.089 -0.1443 -0.4960 -0.4505
 7523SOL     OW34027   2.249   1.916   0.493  0.4795  0.3129 -0.1428
 7523SOL    HW134028   2.160   1.882   0.503  0.7278 -0.3692 -0.2650
 7523SOL    HW234029   2.253   1.954   0.581 -1.4814 -0.6927  0.3765
 7524SOL     OW34030   1.159   1.912   2.697  0.5568 -0.0004 -0.1216
 7524SOL    HW134031   1.065   1.897   2.707  1.1287 -2.9318  0.9441
 7524SOL    HW234032   1.160   2.004   2.722 -2.3324 -0.5349  1.9247
 7525SOL     OW34033   4.155   1.391   3.452 -0.4800  0.1976 -0.3044
 7525SOL    HW134034   4.143   1.330   3.524 -1.6227 -0.0819 -0.7396
 7525SOL    HW234035   4.194   1.329   3.390 -0.8675 -0.2959 -0.0415
 7526SOL     OW34036   4.303   4.087  15.258  0.2789 -0.7998  0.0826
 7526SOL    HW134037   4.296   4.070  15.164  1.6434 -1.8794  0.1832
 7526SOL    HW234038   4.317   4.182  15.255  1.3592 -1.0035 -1.7403
 7527SOL     OW34039   0.996   2.152   1.329 -0.5290 -0.0066  0.1759
 7527SOL    HW134040   0.910   2.169   1.367 -1.0998  1.1805 -1.6337
 7527SOL    HW234041   0.997   2.218   1.260 -2.4088  1.8090  1.8728
 7528SOL     OW34042   0.430   2.088   8.085  0.4501  0.5504 -0.3458
 7528SOL    HW134043   0.450   2.039   8.165  1.6840  0.0438 -0.9701
 7528SOL    HW234044   0.495   2.050   8.027 -1.6986 -0.8332 -1.8297
 7529SOL     OW34045   3.960   4.165   8.458 -0.0084 -0.0121 -0.2519
 7529SOL    HW134046   3.945   4.071   8.452  3.4604 -0.5792  0.5322
 7529SOL    HW234047   3.916   4.191   8.376  0.7971  0.7044 -0.4578
 7530SOL     OW34048   3.107   3.825   2.138 -0.0290  0.2043 -0.2438
 7530SOL    HW134049   3.174   3.880   2.179  2.1593 -1.5341 -1.5005
 7530SOL    HW234050   3.116   3.749   2.195 -4.8772  0.2112  0.5685
 7531SOL     OW34051   4.485   3.227   8.174  0.6299  0.3345  0.1786
 7531SOL    HW134052   4.512   3.285   8.103  1.8776  0.8679  1.0738
 7531SOL    HW234053   4.440   3.163   8.120  1.3830  1.5841 -1.9610
 7532SOL     OW34054   2.323   2.920   2.317 -0.2854 -0.5421 -0.0131
 7532SOL    HW134055   2.360   2.930   2.404  5.3535 -2.0480 -2.1764
 7532SOL    HW234056   2.333   2.826   2.300  0.9899 -0.6362  1.2100
 7533SOL     OW34057   0.945   1.498   3.250  1.1261 -0.0649  0.6861
 7533SOL    HW134058   0.868   1.456   3.211  1.3143 -0.5017  0.7765
 7533SOL    HW234059   1.020   1.478   3.194 -0.6693 -2.7891 -0.7790
 7534SOL     OW34060   2.792   0.772   2.681  0.1172 -0.4662 -0.0681
 7534SOL    HW134061   2.715   0.815   2.643  0.8983 -0.7864 -1.9979
 7534SOL    HW234062   2.818   0.727   2.600  0.0017 -0.5452 -0.0610
 7535SOL     OW34063   0.739   3.792   2.274  0.4108  0.1822  0.5163
 7535SOL    HW134064   0.651   3.777   2.309  0.6293 -0.4208  0.8060
 7535SOL    HW234065   0.779   3.706   2.287  0.9372  0.4218  0.4891
 7536SOL     OW34066   4.088   2.278  15.832 -0.0205 -0.3104 -0.3634
 7536SOL    HW134067   4.105   2.293  15.925  0.3865 -1.5805 -0.2254
 7536SOL    HW234068   4.052   2.190  15.837  1.8861 -1.2926 -4.3874
 7537SOL     OW34069   3.424   3.645   6.543 -0.1877 -0.7712 -0.0241
 7537SOL    HW134070   3.339   3.688   6.530  1.1162  2.2832  1.5593
 7537SOL    HW234071   3.399   3.553   6.536  1.9287 -1.4432  1.3689
 7538SOL     OW34072   1.381   0.548   5.227 -0.6299 -0.2684 -0.4629
 7538SOL    HW134073   1.430   0.526   5.307 -0.4420  0.5396 -0.3505
 7538SOL    HW234074   1.447   0.575   5.163 -0.9559  3.3564  0.6814
 7539SOL     OW34075   3.458   2.262   8.933  0.4868  0.6337  0.0350
 7539SOL    HW134076   3.377   2.296   8.971 -0.4665 -0.3004 -1.1613
 7539SOL    HW234077   3.428   2.172   8.920  1.5991  0.4462 -1.2092
 7540SOL     OW34078   1.509   3.210   2.797  0.4678 -0.5598 -0.0034
 7540SOL    HW134079   1.442   3.233   2.732 -0.2126  2.4082  1.7194
 7540SOL    HW234080   1.581   3.190   2.738  0.0654  1.6258 -1.2400
 7541SOL     OW34081   3.619   1.470   7.744  0.0207  0.1769 -0.3056
 7541SOL    HW134082   3.585   1.510   7.823 -2.7701  2.0946 -2.4728
 7541SOL    HW234083   3.571   1.387   7.743  0.1088  0.1236  0.3058
 7542SOL     OW34084   3.446   1.077   2.740 -0.2371  0.2400  0.4903
 7542SOL    HW134085   3.367   1.102   2.787 -0.6755 -1.4280  0.6389
 7542SOL    HW234086   3.403   1.069   2.654  0.6233  0.3514  0.0471
 7543SOL     OW34087   2.971   2.590   4.819 -0.4396 -0.2593  0.1958
 7543SOL    HW134088   2.937   2.613   4.905 -0.3218 -0.4243  0.2871
 7543SOL    HW234089   2.999   2.675   4.786 -0.2977 -0.9321 -1.4535
 7544SOL     OW34090   0.907   2.114   0.930  0.1548  0.8602  0.2546
 7544SOL    HW134091   0.859   2.134   0.850  0.1690  1.2069  0.3359
 7544SOL    HW234092   0.965   2.048   0.891  0.9540  1.7878 -0.1100
 7545SOL     OW34093   2.424   2.193   8.463  0.4332  0.2500  0.3756
 7545SOL    HW134094   2.506   2.210   8.416  0.2727 -0.8128 -0.2903
 7545SOL    HW234095   2.457   2.149   8.542  0.3659 -0.8535 -0.2018
 7546SOL     OW34096   3.767   1.730   8.843 -0.2656  0.1602  0.2957
 7546SOL    HW134097   3.743   1.751   8.753 -1.5423 -0.4876  0.4835
 7546SOL    HW234098   3.793   1.638   8.836 -0.5907  0.2038 -1.5781
 7547SOL     OW34099   3.111   4.455   9.907  0.8695  0.0558  0.1530
 7547SOL    HW134100   3.145   4.528   9.959 -0.9047 -0.0650  1.4536
 7547SOL    HW234101   3.163   4.382   9.940  0.8123  0.3424  0.8705
 7548SOL     OW34102   2.711   1.947  11.996  0.3001 -0.2679 -0.4962
 7548SOL    HW134103   2.700   1.993  11.913 -0.5353 -0.7897 -0.6782
 7548SOL    HW234104   2.800   1.966  12.026  0.3238  0.9768 -1.3703
 7549SOL     OW34105   2.488   0.717  13.136 -0.3181  0.7386  0.1182
 7549SOL    HW134106   2.399   0.745  13.114 -0.9447 -0.2578  1.3911
 7549SOL    HW234107   2.499   0.630  13.096 -0.0500  2.1929 -2.9314
 7550SOL     OW34108   1.333   1.861   4.490 -0.3482 -0.2202 -0.0862
 7550SOL    HW134109   1.315   1.943   4.535  2.7135  0.2283  0.3297
 7550SOL    HW234110   1.290   1.794   4.541  3.2200 -0.7072  2.2463
 7551SOL     OW34111   1.063   3.832   9.069  0.1352 -0.2871  0.3749
 7551SOL    HW134112   1.070   3.798   9.158  0.0514  1.0854  0.9202
 7551SOL    HW234113   1.149   3.810   9.033 -0.3554 -1.4415 -0.0754
 7552SOL     OW34114   4.158   2.069  12.993  0.3550  0.3247 -0.2210
 7552SOL    HW134115   4.224   2.113  12.938 -2.0287  2.7128 -1.2239
 7552SOL    HW234116   4.124   1.998  12.939 -1.8324  0.5598  0.8442
 7553SOL     OW34117   0.548   1.404   1.456  0.5769  0.0231 -0.4096
 7553SOL    HW134118   0.461   1.418   1.493 -0.3626 -0.5386 -2.4517
 7553SOL    HW234119   0.535   1.313   1.428  2.7929 -0.6593  0.6861
 7554SOL     OW34120   1.009   2.437   8.651 -0.1761 -0.4075  0.2371
 7554SOL    HW134121   0.930   2.462   8.603  0.0437 -0.2491 -0.0459
 7554SOL    HW234122   1.001   2.342   8.654  0.0754 -0.5359 -2.9411
 7555SOL     OW34123   1.505   4.420  10.826 -0.5892 -0.1877 -0.3359
 7555SOL    HW134124   1.524   4.508  10.794  2.4998 -0.3713  1.0208
 7555SOL    HW234125   1.586   4.385  10.862 -0.2000  1.3860  0.3474
 7556SOL     OW34126   1.555   1.495  12.373 -0.1378 -0.0184 -0.0824
 7556SOL    HW134127   1.547   1.402  12.391  0.5977 -0.5546 -2.6320
 7556SOL    HW234128   1.625   1.512  12.436  1.3411 -1.7674 -1.2867
 7557SOL     OW34129   0.777   0.776  13.800  0.5224 -0.6399 -0.0598
 7557SOL    HW134130   0.832   0.853  13.811  0.9514 -0.9232 -0.2344
 7557SOL    HW234131   0.820   0.711  13.856  1.6205 -0.3461 -0.5664
 7558SOL     OW34132   2.212   3.006   4.911  0.0252 -0.2805  0.0772
 7558SOL    HW134133   2.186   2.942   4.845  0.4307 -1.8436  1.4284
 7558SOL    HW234134   2.185   2.971   4.996 -0.9288  0.7845  0.2180
 7559SOL     OW34135   3.321   1.869   0.078  0.0179 -0.2608  0.3807
 7559SOL    HW134136   3.383   1.922   0.028 -0.5766  0.4406  0.3823
 7559SOL    HW234137   3.366   1.855   0.161 -0.1283  0.5089  0.5929
 7560SOL     OW34138   1.251   3.944   7.377  0.3928  0.7254 -0.0473
 7560SOL    HW134139   1.242   4.034   7.406 -1.6542  0.3104  0.6408
 7560SOL    HW234140   1.293   3.899   7.450  2.0313  0.2886 -1.2570
 7561SOL     OW34141   4.057   2.895   5.876  0.1849  0.3787 -0.0904
 7561SOL    HW134142   4.058   2.800   5.879 -2.3555  0.3465 -0.5287
 7561SOL    HW234143   3.979   2.921   5.827  0.0417  0.3196  0.1093
 7562SOL     OW34144   3.632   1.301  12.553  0.0155  0.5118  0.0115
 7562SOL    HW134145   3.596   1.252  12.480 -0.1308 -0.4341  0.7257
 7562SOL    HW234146   3.719   1.321  12.518  0.1359 -0.1246 -0.0410
 7563SOL     OW34147   2.562   0.249  12.908  0.0196 -0.2613  0.0723
 7563SOL    HW134148   2.590   0.158  12.898  1.9988  0.3715 -0.1180
 7563SOL    HW234149   2.467   0.244  12.899 -0.1295  1.7775  0.3581
 7564SOL     OW34150   4.017   4.631  13.446 -0.5171  0.7275  0.3970
 7564SOL    HW134151   3.982   4.573  13.514  1.2806  0.3847  1.0455
 7564SOL    HW234152   3.940   4.640  13.390  1.1247  0.5718 -1.8743
 7565SOL     OW34153   3.805   0.134  11.764 -0.4916  0.2463  0.0829
 7565SOL    HW134154   3.730   0.103  11.714 -1.0808  0.7330  0.6729
 7565SOL    HW234155   3.768   0.210  11.808  1.2772  0.7214  0.7410
 7566SOL     OW34156   4.266   2.054   4.647 -0.3157  0.6008  0.8205
 7566SOL    HW134157   4.317   1.983   4.687  0.6737  1.6596  1.4625
 7566SOL    HW234158   4.188   2.056   4.703  0.1185 -2.1088  1.4917
 7567SOL     OW34159   4.234   0.163   7.081 -0.0186 -0.0776 -0.1119
 7567SOL    HW134160   4.182   0.083   7.069  1.2783 -0.9042 -0.1255
 7567SOL    HW234161   4.315   0.131   7.120  0.3619 -0.2950 -1.0735
 7568SOL     OW34162   3.838   3.913   3.100 -0.1809  0.3995  0.3631
 7568SOL    HW134163   3.872   3.946   3.183  1.3706  1.4726 -0.7081
 7568SOL    HW234164   3.891   3.962   3.037 -0.8420  0.0177 -0.4930
 7569SOL     OW34165   3.994   4.405  13.146  0.1428 -0.1907  0.5028
 7569SOL    HW134166   3.955   4.490  13.126  0.9325  0.0331 -0.0901
 7569SOL    HW234167   4.087   4.419  13.128 -0.3390  1.0379 -1.0210
 7570SOL     OW34168   4.134   2.884  15.873  0.2668 -0.6401  0.5442
 7570SOL    HW134169   4.129   2.970  15.915 -1.9319 -0.8376  0.6706
 7570SOL    HW234170   4.179   2.835  15.942 -0.8795 -1.5375  0.6385
 7571SOL     OW34171   2.775   1.073   4.714  0.3866 -0.1305 -0.0238
 7571SOL    HW134172   2.773   0.984   4.749 -0.5157 -0.1338 -0.0779
 7571SOL    HW234173   2.685   1.094   4.739  0.3612 -0.0438 -0.1871
 7572SOL     OW34174   1.344   3.785   7.596  0.7957 -0.1780  0.5173
 7572SOL    HW134175   1.271   3.740   7.640  0.3601 -1.9078 -1.9588
 7572SOL    HW234176   1.376   3.721   7.532  0.8465 -1.3690  1.7240
 7573SOL     OW34177   4.594   1.529   0.341  0.3856 -0.5154  0.0286
 7573SOL    HW134178   4.669   1.471   0.352  1.3431  0.6958 -0.1370
 7573SOL    HW234179   4.589   1.535   0.436 -0.7129  1.1274 -0.1367
 7574SOL     OW34180   2.224   0.721   2.399  0.2630  0.4913  0.2660
 7574SOL    HW134181   2.317   0.747   2.403  0.8994 -1.3482 -2.6399
 7574SOL    HW234182   2.213   0.661   2.325 -0.7358  1.6209 -0.5126
 7575SOL     OW34183   2.129   3.725   8.043  0.1800 -0.2493  0.1131
 7575SOL    HW134184   2.201   3.789   8.042  0.8977 -1.0654 -1.3847
 7575SOL    HW234185   2.062   3.762   7.985 -1.2523 -0.9238  1.3625
 7576SOL     OW34186   3.496   1.213   3.420  0.3992  0.0735  0.5499
 7576SOL    HW134187   3.412   1.177   3.447  1.0330 -3.2071 -1.7247
 7576SOL    HW234188   3.544   1.217   3.502  1.3997 -0.1263 -0.0219
 7577SOL     OW34189   3.557   4.191  10.502 -0.2817  0.1436  0.2057
 7577SOL    HW134190   3.618   4.122  10.475  2.1880  2.3425  0.2525
 7577SOL    HW234191   3.509   4.198  10.419 -1.1348 -0.7057  0.6286
 7578SOL     OW34192   0.974   2.603   5.269  0.3550 -0.1597  0.4937
 7578SOL    HW134193   1.009   2.645   5.348  1.7038 -0.5253  0.0980
 7578SOL    HW234194   0.886   2.641   5.270 -0.0310 -1.0448  0.5229
 7579SOL     OW34195   2.417   0.532   9.477 -0.0554  0.5978  0.2953
 7579SOL    HW134196   2.463   0.483   9.409 -0.6353  0.5429 -0.0641
 7579SOL    HW234197   2.415   0.622   9.444  0.2134 -0.2564 -2.0640
 7580SOL     OW34198   0.625   0.822   3.714  0.4067 -0.0028 -0.7965
 7580SOL    HW134199   0.634   0.820   3.618 -1.4896 -0.9984 -0.9456
 7580SOL    HW234200   0.531   0.821   3.730  0.1361  3.1931 -2.0231
 7581SOL     OW34201   0.388   3.945   6.682  0.3358 -0.5683  0.0258
 7581SOL    HW134202   0.462   3.997   6.651 -1.5005  0.6742 -2.2405
 7581SOL    HW234203   0.423   3.857   6.693 -0.5678 -0.6132  2.6023
 7582SOL     OW34204   4.385   2.077   6.805 -0.1201 -0.3648 -1.0427
 7582SOL    HW134205   4.344   1.994   6.827  1.0797 -0.7764 -0.3811
 7582SOL    HW234206   4.336   2.097   6.725  0.6901 -2.1921 -2.0072
 7583SOL     OW34207   3.495   2.481   5.171  0.2588  0.0508  0.1266
 7583SOL    HW134208   3.495   2.576   5.184 -0.1251  0.2104 -1.0401
 7583SOL    HW234209   3.576   2.455   5.215  0.7237 -2.6590 -2.3268
 7584SOL     OW34210   1.777   2.774  12.428  0.6222  0.3181 -1.0090
 7584SOL    HW134211   1.758   2.812  12.514  1.2725 -0.0004 -0.7224
 7584SOL    HW234212   1.852   2.718  12.448 -0.6038 -0.1198  2.2573
 7585SOL     OW34213   0.997   3.220   1.156  0.0941  0.5375 -0.0518
 7585SOL    HW134214   0.925   3.165   1.126 -0.6968  1.5439  0.0184
 7585SOL    HW234215   0.952   3.304   1.148 -1.1798 -0.3669 -2.4112
 7586SOL     OW34216   0.075   3.192   5.723  1.0042  0.2343  0.0597
 7586SOL    HW134217   0.002   3.162   5.776  1.4407  1.3013  1.2588
 7586SOL    HW234218   0.020   3.233   5.656  2.1926 -1.0754 -1.7196
 7587SOL     OW34219   2.844   3.354  12.379  0.3487  0.7779  0.0412
 7587SOL    HW134220   2.845   3.295  12.454  2.0147 -0.0136 -0.6049
 7587SOL    HW234221   2.785   3.308  12.319  0.4615  2.0589 -1.0363
 7588SOL     OW34222   2.174   1.866   5.743  0.1170  0.4280  0.1869
 7588SOL    HW134223   2.083   1.844   5.764  0.4473 -2.2056 -1.2701
 7588SOL    HW234224   2.185   1.837   5.653 -0.9144  2.6556 -0.6701
 7589SOL     OW34225   2.046   1.155   7.715  0.2734 -0.1860 -0.1731
 7589SOL    HW134226   2.032   1.243   7.680 -1.5167 -0.6601 -0.6100
 7589SOL    HW234227   1.978   1.144   7.781 -1.7325 -0.9375 -2.3756
 7590SOL     OW34228   1.934   1.106  13.224  0.4682 -0.0580 -0.2414
 7590SOL    HW134229   1.963   1.059  13.146  0.5998 -0.8843  0.3130
 7590SOL    HW234230   1.980   1.054  13.289  1.1691 -0.7555 -1.2994
 7591SOL     OW34231   2.247   1.655   8.392  0.6305  0.4542  0.2637
 7591SOL    HW134232   2.162   1.669   8.352  0.7713  3.3435  1.0126
 7591SOL    HW234233   2.260   1.563   8.369  1.8899  0.3148  1.5195
 7592SOL     OW34234   0.426   4.203   2.012  0.2896  0.3135  0.5590
 7592SOL    HW134235   0.406   4.269   2.079 -1.8025 -0.5583  0.7866
 7592SOL    HW234236   0.336   4.183   1.985  0.1190  0.4902  0.9845
 7593SOL     OW34237   0.110   0.873  13.022 -0.3761 -0.1934  0.1268
 7593SOL    HW134238   0.033   0.838  12.978  1.1731 -0.4932 -2.3158
 7593SOL    HW234239   0.063   0.919  13.092  0.5787 -1.0819  1.3401
 7594SOL     OW34240   0.336   1.051   6.219  0.5439  0.2595 -0.2810
 7594SOL    HW134241   0.293   1.126   6.262  0.6521 -0.8659  1.7742
 7594SOL    HW234242   0.261   0.997   6.193 -1.7757  3.8633 -1.1128
 7595SOL     OW34243   1.915   0.485  10.778  0.7495  0.0960  0.3507
 7595SOL    HW134244   1.970   0.512  10.852  1.5651  0.7164 -0.4726
 7595SOL    HW234245   1.943   0.545  10.708  0.2144  0.7781  0.7269
 7596SOL     OW34246   1.421   3.020   5.733 -0.3257 -0.0812  0.3294
 7596SOL    HW134247   1.451   3.110   5.722 -0.8470 -0.0385 -0.6884
 7596SOL    HW234248   1.328   3.022   5.710 -0.5138 -1.7551  0.9091
 7597SOL     OW34249   2.106   1.175   8.203 -0.4289  0.0075 -0.8258
 7597SOL    HW134250   2.011   1.166   8.211 -0.8058  1.5303 -3.6543
 7597SOL    HW234251   2.129   1.101   8.147 -0.0292 -0.2703 -0.2927
 7598SOL     OW34252   0.783   0.341   8.735 -0.2661  0.5155 -0.3600
 7598SOL    HW134253   0.861   0.327   8.788 -0.1695  0.0539 -0.6246
 7598SOL    HW234254   0.722   0.299   8.797  0.7428 -0.8063 -0.2648
 7599SOL     OW34255   3.738   2.063   5.147 -0.3664 -0.0429 -0.3863
 7599SOL    HW134256   3.697   2.134   5.099 -1.4081  1.0000  2.0582
 7599SOL    HW234257   3.714   2.094   5.235 -0.4078 -1.2362  0.0269
 7600SOL     OW34258   1.320   1.304   4.215 -0.6172  0.6076  0.2597
 7600SOL    HW134259   1.369   1.280   4.136 -1.8431 -1.4869  0.1553
 7600SOL    HW234260   1.316   1.223   4.265 -0.4919 -0.7203 -1.8867
 7601SOL     OW34261   1.012   3.890   2.767  0.0897 -0.1101 -0.0293
 7601SOL    HW134262   1.076   3.821   2.751 -0.2739 -1.1201  2.7153
 7601SOL    HW234263   0.950   3.909   2.696  0.8490  0.4198 -0.5430
 7602SOL     OW34264   0.945   0.769   3.829 -0.5761  0.0683  0.4208
 7602SOL    HW134265   1.007   0.697   3.815  0.8502  1.4821 -0.5399
 7602SOL    HW234266   0.910   0.778   3.740 -0.6126  2.1033  0.6425
 7603SOL     OW34267   2.848   3.195  15.365 -0.0804 -0.0112 -0.1177
 7603SOL    HW134268   2.809   3.200  15.277 -0.2688 -0.8647 -0.0865
 7603SOL    HW234269   2.790   3.143  15.421  0.7547  0.5267  1.2477
 7604SOL     OW34270   3.129   3.973  17.346  0.1579 -0.0649  0.5486
 7604SOL    HW134271   3.150   3.988  17.438 -0.9326  0.2486  0.7569
 7604SOL    HW234272   3.216   3.989  17.309 -0.1897  0.8425  0.1210
 7605SOL     OW34273   0.316   0.282   8.435 -0.2399 -0.1247 -0.3944
 7605SOL    HW134274   0.239   0.337   8.425  1.1521  2.0894  0.9808
 7605SOL    HW234275   0.340   0.283   8.528  0.2797 -0.9179 -0.5156
 7606SOL     OW34276   4.424   1.514   5.848 -0.3592 -0.0330 -0.7013
 7606SOL    HW134277   4.467   1.538   5.766 -0.0401 -1.3435 -0.9125
 7606SOL    HW234278   4.373   1.436   5.827 -1.3561  0.8187 -1.4475
 7607SOL     OW34279   3.249   1.076  13.010  0.4092 -0.0351  0.1099
 7607SOL    HW134280   3.340   1.063  13.036 -0.8014 -2.9756  2.8803
 7607SOL    HW234281   3.250   1.168  12.982 -0.7296 -0.0584 -0.0006
 7608SOL     OW34282   3.785   0.296   5.771  0.0512  0.0379 -0.0290
 7608SOL    HW134283   3.740   0.216   5.745  0.8714  0.1453 -1.7740
 7608SOL    HW234284   3.876   0.268   5.759  0.0714  0.9868 -2.1016
 7609SOL     OW34285   3.282   2.147   0.932 -0.2173  0.4191 -0.0796
 7609SOL    HW134286   3.335   2.067   0.930  2.3895  2.1278  1.2840
 7609SOL    HW234287   3.313   2.209   0.866  2.8721 -1.0421 -0.0137
 7610SOL     OW34288   4.154   0.076   4.600  0.3724 -0.1993  0.6886
 7610SOL    HW134289   4.120   4.714   4.567  1.1706 -0.1878 -0.1616
 7610SOL    HW234290   4.214   0.057   4.672 -0.7666 -1.4594  1.3158
 7611SOL     OW34291   4.253   3.203   5.140 -0.1633 -0.0274  0.6275
 7611SOL    HW134292   4.207   3.280   5.108 -1.1582 -0.3328  1.2978
 7611SOL    HW234293   4.252   3.143   5.066  0.5979  1.8218 -0.8665
 7612SOL     OW34294   2.093   3.593  15.343 -0.0695 -0.0610 -0.1047
 7612SOL    HW134295   2.108   3.645  15.264 -0.2367  1.9211  1.1601
 7612SOL    HW234296   2.152   3.522  15.320  0.6532  0.3673  0.4079
 7613SOL     OW34297   1.953   4.661  17.054 -0.3473  0.3909  0.1398
 7613SOL    HW134298   2.040   4.702  17.054 -1.0743  1.9419  2.8916
 7613SOL    HW234299   1.954   4.623  17.142  2.4441 -2.8951 -1.3448
 7614SOL     OW34300   3.770   4.558  13.295 -0.4106 -0.4763  0.3824
 7614SOL    HW134301   3.751   4.483  13.352  2.4346 -1.4251  0.1153
 7614SOL    HW234302   3.732   4.533  13.210 -0.7235  0.8733  0.1209
 7615SOL     OW34303   2.503   3.728  17.553 -0.6926  0.3345  0.2004
 7615SOL    HW134304   2.576   3.672  17.529  0.4084  1.7229  0.2796
 7615SOL    HW234305   2.443   3.665  17.591 -0.1530  0.4531  1.2285
 7616SOL     OW34306   1.188   3.065  16.239  0.7485 -0.6694  0.1334
 7616SOL    HW134307   1.162   3.062  16.331 -2.7251 -0.9532 -0.8678
 7616SOL    HW234308   1.280   3.041  16.254  0.6144 -1.2168  0.0867
 7617SOL     OW34309   1.019   3.137  11.470 -0.1630  0.5186  0.0038
 7617SOL    HW134310   0.999   3.215  11.418 -1.4507  0.1934  0.0007
 7617SOL    HW234311   1.087   3.176  11.526 -0.7760 -0.9800  1.7580
 7618SOL     OW34312   3.287   1.063   5.268 -0.4287  0.3185 -0.4400
 7618SOL    HW134313   3.319   0.991   5.214 -0.1301 -0.6278  0.9879
 7618SOL    HW234314   3.276   1.018   5.352 -0.6843 -1.0219 -1.1907
 7619SOL     OW34315   4.094   4.021  13.784  0.1295 -0.0508 -0.2607
 7619SOL    HW134316   4.032   4.041  13.855 -1.8953 -1.0823 -1.7690
 7619SOL    HW234317   4.168   3.999  13.840  0.6434  0.3896 -0.7673
 7620SOL     OW34318   2.199   1.013  15.090 -0.1689 -0.1533 -0.4331
 7620SOL    HW134319   2.272   1.012  15.028  0.5173 -1.6016  0.3769
 7620SOL    HW234320   2.134   0.964  15.040 -1.2360  0.3164  0.5004
 7621SOL     OW34321   0.174   2.805   4.344 -0.2161  0.2650  0.0791
 7621SOL    HW134322   0.211   2.744   4.407 -2.2081 -0.8301  0.1673
 7621SOL    HW234323   0.083   2.780   4.356  0.2644 -1.1126  0.8270
 7622SOL     OW34324   3.399   2.389   1.613  0.4839  0.1342 -0.1813
 7622SOL    HW134325   3.306   2.395   1.637  0.7408 -2.1541  1.4315
 7622SOL    HW234326   3.386   2.421   1.524  2.4174 -1.8179 -1.1638
 7623SOL     OW34327   2.532   1.109   4.833 -0.6084 -0.1799 -0.1975
 7623SOL    HW134328   2.439   1.125   4.846 -0.9191 -2.0763 -0.1699
 7623SOL    HW234329   2.547   1.062   4.915 -2.3063  1.8577  1.2843
 7624SOL     OW34330   4.532   0.181  16.607  0.0748  0.3239  0.0999
 7624SOL    HW134331   4.470   0.250  16.586 -0.0732  0.6166  1.5097
 7624SOL    HW234332   4.545   0.141  16.521  2.4953  1.1910  0.0466
 7625SOL     OW34333   0.560   0.080   5.672 -0.4171  0.1296  0.6000
 7625SOL    HW134334   0.489   0.015   5.665  0.1707 -0.5628  1.1488
 7625SOL    HW234335   0.515   0.161   5.649  0.6951  0.1147 -1.7327
 7626SOL     OW34336   0.222   4.007   4.781 -0.2578 -0.0308 -0.0531
 7626SOL    HW134337   0.283   3.949   4.827  0.3666 -0.4940 -1.4754
 7626SOL    HW234338   0.270   4.014   4.699  1.8300 -1.8241  1.0034
 7627SOL     OW34339   4.705   2.216   6.107  0.0772 -0.1559 -0.0265
 7627SOL    HW134340   4.721   2.162   6.030  0.4587 -0.1826  0.0730
 7627SOL    HW234341   0.070   2.252   6.128  0.4379 -0.6319 -0.7018
 7628SOL     OW34342   0.451   4.720   1.044 -0.4340 -0.0096  0.4968
 7628SOL    HW134343   0.469   0.085   1.007 -3.4994 -0.6532 -2.4732
 7628SOL    HW234344   0.356   0.006   1.057 -0.5758 -0.3615 -0.3202
 7629SOL     OW34345   3.233   4.049   3.015 -0.0894 -0.3052 -0.1435
 7629SOL    HW134346   3.257   4.113   2.949 -2.5208  0.9553  0.1858
 7629SOL    HW234347   3.143   4.023   2.996  0.1285 -1.4358  0.3319
 7630SOL     OW34348   4.333   0.125   3.597 -0.3850  0.1378  0.0143
 7630SOL    HW134349   4.273   0.122   3.672 -1.2255  0.9793 -0.6195
 7630SOL    HW234350   4.295   0.050   3.552  0.5499 -1.4496  1.8626
 7631SOL     OW34351   1.249   1.592  14.196  0.0224 -0.0567 -0.2625
 7631SOL    HW134352   1.237   1.580  14.290  0.1265  2.1828  0.0231
 7631SOL    HW234353   1.313   1.664  14.193 -0.8966  0.7527 -0.2072
 7632SOL     OW34354   0.498   1.522   6.434  0.3797  0.1630 -0.1736
 7632SOL    HW134355   0.450   1.459   6.487 -0.6014  1.0658  0.0143
 7632SOL    HW234356   0.589   1.491   6.430  0.2969 -0.3028  1.5688
 7633SOL     OW34357   0.389   2.250   4.454 -0.0268  0.0245  0.2351
 7633SOL    HW134358   0.347   2.181   4.402 -0.2625 -0.1715  0.6876
 7633SOL    HW234359   0.355   2.240   4.543 -2.4545  0.0245 -0.7017
 7634SOL     OW34360   3.412   1.266   7.176 -0.0692  0.1397 -0.0902
 7634SOL    HW134361   3.376   1.323   7.244  4.5345  1.1968  1.4577
 7634SOL    HW234362   3.493   1.248   7.224 -0.3432 -1.1894 -0.1273
 7635SOL     OW34363   0.211   1.461   1.246 -0.1328  0.2556  0.3012
 7635SOL    HW134364   0.296   1.452   1.205 -0.0403  1.5345  0.2120
 7635SOL    HW234365   0.189   1.369   1.258  0.9046 -0.1909 -1.3051
 7636SOL     OW34366   0.816   1.686  16.214  0.1811  0.3783  1.2100
 7636SOL    HW134367   0.813   1.757  16.150  0.8333 -0.9843 -0.3264
 7636SOL    HW234368   0.842   1.733  16.294  1.0741 -0.0336  1.1622
 7637SOL     OW34369   4.117   2.177   9.191  0.0511  0.4474  0.4823
 7637SOL    HW134370   4.037   2.222   9.163  0.0467  0.3597  0.3517
 7637SOL    HW234371   4.080   2.090   9.207  0.5807  0.6076  2.5234
 7638SOL     OW34372   1.699   2.237   9.796  0.1660 -0.3487  0.1066
 7638SOL    HW134373   1.628   2.172   9.795 -0.1697  0.0147  0.1248
 7638SOL    HW234374   1.768   2.183   9.757 -2.0323 -0.4115 -3.7489
 7639SOL     OW34375   4.409   3.900  16.278 -0.0699  0.0888 -0.3776
 7639SOL    HW134376   4.474   3.970  16.289  0.4540 -0.5085  0.2613
 7639SOL    HW234377   4.458   3.833  16.231  0.3042  0.6258 -0.7624
 7640SOL     OW34378   2.126   0.753   7.893 -0.2345 -0.2451 -0.3749
 7640SOL    HW134379   2.069   0.684   7.927  1.2020  0.1595  2.8321
 7640SOL    HW234380   2.213   0.713   7.891  1.4820  3.3999  0.1743
 7641SOL     OW34381   0.985   0.362   5.753 -0.4417  0.3788  0.2892
 7641SOL    HW134382   1.066   0.372   5.702 -0.1692  2.5465  1.1747
 7641SOL    HW234383   0.914   0.364   5.689  0.2563  1.1740 -0.4626
 7642SOL     OW34384   3.806   0.044   6.400  0.3414 -0.3782 -0.2171
 7642SOL    HW134385   3.868   0.011   6.465 -0.5042 -0.5599  0.4987
 7642SOL    HW234386   3.789   0.133   6.432 -2.5743 -0.2893 -1.9500
 7643SOL     OW34387   0.313   0.566  12.432 -0.1347  0.1232  0.1015
 7643SOL    HW134388   0.291   0.612  12.351  1.8374  1.3131  0.2304
 7643SOL    HW234389   0.407   0.554  12.425 -0.0536  1.7272 -1.5919
 7644SOL     OW34390   1.866   3.941   2.207  0.4164  0.1821 -0.4068
 7644SOL    HW134391   1.852   3.849   2.183 -0.1079  0.2193 -0.2501
 7644SOL    HW234392   1.961   3.944   2.201  0.6000 -1.8758  1.4421
 7645SOL     OW34393   1.958   3.222   8.352 -0.1724  0.1775  0.5562
 7645SOL    HW134394   2.022   3.219   8.423  0.5505  2.9013  0.0316
 7645SOL    HW234395   2.024   3.221   8.282  0.3957 -0.9285  1.1069
 7646SOL     OW34396   4.419   1.886   8.877  0.3499 -0.1062 -0.9047
 7646SOL    HW134397   4.384   1.956   8.932  0.1702  0.1692 -1.3602
 7646SOL    HW234398   4.340   1.836   8.856  1.1908 -0.4402 -3.3151
 7647SOL     OW34399   0.141   2.824  14.878 -0.7325 -0.1473  0.2084
 7647SOL    HW134400   0.186   2.849  14.959 -0.4575 -0.6631  0.2130
 7647SOL    HW234401   0.142   2.729  14.873  1.4410 -0.0670 -0.8090
 7648SOL     OW34402   0.388   3.905   1.754 -0.1579 -0.8124 -0.1006
 7648SOL    HW134403   0.376   3.811   1.746 -0.6277 -0.8291  0.8069
 7648SOL    HW234404   0.479   3.902   1.784 -0.5535 -0.9041  1.0673
 7649SOL     OW34405   3.162   3.119   4.618  0.3739  0.5064 -0.0081
 7649SOL    HW134406   3.178   3.130   4.524  1.5110 -3.0597 -0.2507
 7649SOL    HW234407   3.232   3.058   4.641 -1.2551 -2.4739 -2.8889
 7650SOL     OW34408   0.727   2.948   3.587 -0.0697  0.1250  0.5110
 7650SOL    HW134409   0.678   2.935   3.668 -0.0928  0.8140  0.6129
 7650SOL    HW234410   0.706   2.866   3.541 -1.1640 -0.2458  1.6701
 7651SOL     OW34411   2.107   3.683  10.548 -0.3289 -0.5712 -0.2032
 7651SOL    HW134412   2.082   3.591  10.554  0.9856 -0.7462  2.7586
 7651SOL    HW234413   2.026   3.716  10.508  0.9708 -0.4076 -2.6761
 7652SOL     OW34414   4.303   1.721   8.195  0.0420 -0.2830 -0.3463
 7652SOL    HW134415   4.332   1.811   8.182 -0.4790 -0.1252 -0.3847
 7652SOL    HW234416   4.322   1.683   8.109  0.5574  1.1744 -0.8799
 7653SOL     OW34417   1.755   4.095   4.533 -0.5464 -0.5295  0.1606
 7653SOL    HW134418   1.666   4.092   4.497 -1.2394  0.4967  1.7993
 7653SOL    HW234419   1.738   4.061   4.621  0.1741 -1.0198  0.1076
 7654SOL     OW34420   0.478   1.775  13.333 -0.6412  0.5990 -0.6766
 7654SOL    HW134421   0.504   1.828  13.258  0.8314  1.9090  0.7636
 7654SOL    HW234422   0.531   1.814  13.402  0.5083 -1.9873 -0.1106
 7655SOL     OW34423   3.370   0.947   4.901 -0.1326 -0.1420 -0.2714
 7655SOL    HW134424   3.311   0.948   4.826 -1.3082 -2.6409  0.6493
 7655SOL    HW234425   3.407   1.035   4.912 -0.5704  0.2065 -1.5534
 7656SOL     OW34426   3.051   2.464   9.571 -0.3609 -0.2886 -0.6363
 7656SOL    HW134427   3.030   2.476   9.664 -0.9304 -1.5161 -0.5956
 7656SOL    HW234428   3.049   2.368   9.568 -0.1499 -0.2659 -1.5365
 7657SOL     OW34429   0.388   3.959   5.675 -0.2361  0.0551 -0.1833
 7657SOL    HW134430   0.309   3.957   5.729  0.7735  1.3902  1.3507
 7657SOL    HW234431   0.423   3.870   5.680  0.0797  0.2605  1.2317
 7658SOL     OW34432   4.675   3.380   7.076 -0.0284 -0.1645 -0.6530
 7658SOL    HW134433   4.680   3.391   6.981 -2.7900 -0.0199 -0.7767
 7658SOL    HW234434   4.642   3.466   7.104  1.9674  0.3224  0.1984
 7659SOL     OW34435   0.839   1.474  11.169  0.3103 -0.0977  0.2939
 7659SOL    HW134436   0.923   1.476  11.124 -1.0054  0.2690 -2.1269
 7659SOL    HW234437   0.858   1.415  11.242 -0.8947 -0.0765  0.6196
 7660SOL     OW34438   0.322   2.826   5.852 -0.0861 -0.2362 -0.3505
 7660SOL    HW134439   0.255   2.876   5.900  0.1926 -0.3958  0.1988
 7660SOL    HW234440   0.272   2.809   5.771  0.3564  0.2744 -0.7300
 7661SOL     OW34441   4.452   4.210   6.048  0.1181 -0.1383  0.0698
 7661SOL    HW134442   4.429   4.146   6.115  2.2215 -0.1167  0.8120
 7661SOL    HW234443   4.444   4.290   6.101 -2.4782  1.1133 -2.1991
 7662SOL     OW34444   1.174   0.728   0.125  0.6847  0.2252  0.5131
 7662SOL    HW134445   1.148   0.727   0.217  0.4647  0.3090  0.4535
 7662SOL    HW234446   1.247   0.667   0.136 -0.2383 -0.7841  1.1471
 7663SOL     OW34447   4.004   4.097  12.136  0.2973 -0.0027 -0.3071
 7663SOL    HW134448   3.980   4.080  12.044 -2.5487 -1.4120  0.6858
 7663SOL    HW234449   3.979   4.017  12.182 -0.3748  0.7974  0.6888
 7664SOL     OW34450   1.872   3.918   7.444  0.2901 -0.2610 -0.2102
 7664SOL    HW134451   1.906   3.981   7.508 -0.9356  0.5560 -0.3622
 7664SOL    HW234452   1.870   3.970   7.363  1.7381  1.4395  0.8566
 7665SOL     OW34453   3.728   1.133   9.293  0.0555  0.3109 -0.3393
 7665SOL    HW134454   3.812   1.098   9.323 -0.5013 -1.1938 -0.5302
 7665SOL    HW234455   3.679   1.050   9.296  2.8245 -1.2887  0.4998
 7666SOL     OW34456   2.419   3.109   4.261  0.3463  0.3415  0.0160
 7666SOL    HW134457   2.439   3.154   4.179  1.5103 -0.9608 -0.4267
 7666SOL    HW234458   2.490   3.046   4.272  1.2156  1.0655 -1.4237
 7667SOL     OW34459   1.369   0.927   7.337  0.4754 -0.9882 -0.2532
 7667SOL    HW134460   1.448   0.883   7.368  1.5889  0.7474 -0.6233
 7667SOL    HW234461   1.301   0.867   7.371  0.4255  0.0034  1.3599
 7668SOL     OW34462   2.888   1.142   4.066  0.6021  0.9268  0.8373
 7668SOL    HW134463   2.920   1.222   4.107 -0.1978  1.2469  0.8246
 7668SOL    HW234464   2.966   1.118   4.016  0.4418  1.2544  0.4320
 7669SOL     OW34465   4.325   4.175   2.629 -0.9651  0.0641 -0.0987
 7669SOL    HW134466   4.282   4.144   2.549 -1.5696 -0.2508  0.3471
 7669SOL    HW234467   4.295   4.266   2.621 -2.6701 -0.5266 -0.3928
 7670SOL     OW34468   2.945   1.256   8.508  0.1496  0.5030  0.0600
 7670SOL    HW134469   2.986   1.171   8.526  0.5443  0.6449 -0.1837
 7670SOL    HW234470   3.013   1.320   8.488  0.1014  0.6326  0.3084
 7671SOL     OW34471   1.184   2.742   3.064 -0.2765 -0.5041 -0.1872
 7671SOL    HW134472   1.279   2.730   3.065 -0.1197  0.6406 -1.3219
 7671SOL    HW234473   1.164   2.648   3.057 -2.1474 -0.3347  3.0788
 7672SOL     OW34474   2.132   1.956   6.392  0.2650 -0.8084  0.2622
 7672SOL    HW134475   2.217   1.925   6.423 -0.4817 -1.9959  1.1346
 7672SOL    HW234476   2.111   1.877   6.342 -0.1006 -0.5140 -0.0414
 7673SOL     OW34477   2.514   3.194   7.700 -0.4560  0.2755  0.4977
 7673SOL    HW134478   2.563   3.276   7.694  1.4504 -0.9353 -0.3513
 7673SOL    HW234479   2.546   3.143   7.626 -1.2936 -0.0972  0.3992
 7674SOL     OW34480   2.583   0.409   3.675  0.0877 -0.3730  0.0970
 7674SOL    HW134481   2.613   0.443   3.759 -0.6955  0.0046  0.2211
 7674SOL    HW234482   2.657   0.452   3.632 -1.3794  2.5316  0.4960
 7675SOL     OW34483   4.426   0.368   4.619 -0.1138  0.7227 -0.4185
 7675SOL    HW134484   4.452   0.458   4.598 -2.3848  0.8679 -2.5111
 7675SOL    HW234485   4.331   0.373   4.621 -0.1877  0.2090 -2.6271
 7676SOL     OW34486   3.216   1.197  17.318 -0.2223 -0.1782 -0.3218
 7676SOL    HW134487   3.180   1.276  17.277  0.6264 -0.1693 -1.0650
 7676SOL    HW234488   3.282   1.229  17.381 -1.8754  1.7184  0.4514
 7677SOL     OW34489   3.004   2.084  12.890 -0.5757 -0.4863 -0.7595
 7677SOL    HW134490   3.083   2.117  12.933  2.2597 -2.4567 -4.4761
 7677SOL    HW234491   3.033   2.106  12.801 -3.6321  1.3239 -1.3226
 7678SOL     OW34492   2.622   2.051   6.400  0.5899  0.2318 -0.0733
 7678SOL    HW134493   2.684   1.987   6.366 -0.7660 -1.0159 -0.1910
 7678SOL    HW234494   2.657   2.135   6.369 -1.4657  1.6416  1.4381
 7679SOL     OW34495   1.666   4.268  13.990 -0.4694  0.2733  0.7399
 7679SOL    HW134496   1.665   4.186  13.941  0.2847  1.7984 -1.8635
 7679SOL    HW234497   1.574   4.295  13.986 -0.4165  0.3144 -0.1798
 7680SOL     OW34498   1.745   3.486   2.834 -0.2418 -0.2260  0.0748
 7680SOL    HW134499   1.784   3.401   2.854  0.9742  1.1147  3.3084
 7680SOL    HW234500   1.823   3.535   2.807  0.4805 -1.9086 -0.8800
 7681SOL     OW34501   4.287   2.503   8.592 -0.3410 -0.1664 -0.1928
 7681SOL    HW134502   4.200   2.478   8.623  0.1253 -1.7390 -0.1174
 7681SOL    HW234503   4.299   2.445   8.517  0.8470 -0.4602  0.2248
 7682SOL     OW34504   4.302   2.605   4.446  0.7458  0.1626 -0.0660
 7682SOL    HW134505   4.309   2.628   4.353  1.1496 -1.4757 -0.4320
 7682SOL    HW234506   4.364   2.533   4.453  0.1832 -0.4026 -0.8984
 7683SOL     OW34507   3.002   0.842  14.167 -0.2040  0.0244 -0.0146
 7683SOL    HW134508   2.967   0.833  14.079  0.5033 -0.2739 -0.2639
 7683SOL    HW234509   2.971   0.763  14.213 -0.8322  0.1655 -0.1872
 7684SOL     OW34510   3.108   4.207   4.183  0.1580 -0.2822  0.0054
 7684SOL    HW134511   3.173   4.137   4.179 -0.2126 -0.6188 -0.0976
 7684SOL    HW234512   3.064   4.185   4.265  1.3880 -1.0279  0.4526
 7685SOL     OW34513   2.701   4.559   4.743 -0.0238 -0.6266 -0.0978
 7685SOL    HW134514   2.665   4.511   4.669 -0.1146 -1.0251  0.2057
 7685SOL    HW234515   2.688   4.653   4.730  0.5122 -0.4804  0.4195
 7686SOL     OW34516   3.930   3.172   8.300  0.0814 -0.1809 -0.3654
 7686SOL    HW134517   3.879   3.111   8.353 -0.2851  0.3486 -0.1187
 7686SOL    HW234518   3.989   3.207   8.367  0.7294  1.0535 -1.5758
 7687SOL     OW34519   2.959   3.860   6.508 -0.0431 -0.0397 -0.1245
 7687SOL    HW134520   2.975   3.945   6.549 -3.0375  0.4054  0.1662
 7687SOL    HW234521   2.871   3.890   6.483 -0.2960 -0.2379  0.5125
 7688SOL     OW34522   4.663   2.206   6.983 -0.5191  0.2887  0.1365
 7688SOL    HW134523   4.596   2.241   6.924 -1.1940 -0.8541  0.2229
 7688SOL    HW234524   4.643   2.267   7.054 -1.3618 -0.8905  0.9118
 7689SOL     OW34525   0.933   2.503   0.428  0.2073 -0.1842 -0.2271
 7689SOL    HW134526   0.926   2.585   0.379 -1.9136 -0.5293 -0.4935
 7689SOL    HW234527   0.864   2.512   0.495 -1.4425  0.4086 -1.9994
 7690SOL     OW34528   0.382   0.922   3.864  0.1967 -0.2372  0.8909
 7690SOL    HW134529   0.428   0.991   3.913  1.2267 -0.8115  0.7148
 7690SOL    HW234530   0.412   0.839   3.900  0.5767  0.3668  1.9776
 7691SOL     OW34531   1.464   4.523   5.837 -0.3369 -0.2595  0.0695
 7691SOL    HW134532   1.463   4.453   5.902 -0.6138  1.2064  1.6580
 7691SOL    HW234533   1.415   4.488   5.763  1.0098  1.1413 -1.4931
 7692SOL     OW34534   4.430   1.435  13.495 -0.1433 -0.1768  0.2243
 7692SOL    HW134535   4.378   1.398  13.566 -0.1883 -0.7712 -0.1160
 7692SOL    HW234536   4.425   1.529  13.515 -1.6277 -0.0714 -0.5622
 7693SOL     OW34537   2.194   0.621   2.918  0.5182 -0.1937 -0.6459
 7693SOL    HW134538   2.147   0.681   2.976 -0.0223  0.2153 -1.5011
 7693SOL    HW234539   2.263   0.606   2.982 -0.4354  0.0558  0.4454
 7694SOL     OW34540   3.841   0.350   4.505  0.5647 -0.2850 -0.4451
 7694SOL    HW134541   3.869   0.406   4.433 -1.4753  0.3740 -0.7319
 7694SOL    HW234542   3.854   0.262   4.472 -0.7130 -0.0529 -1.5605
 7695SOL     OW34543   0.257   1.667  13.439  0.4412  0.0985  0.0881
 7695SOL    HW134544   0.342   1.691  13.401 -0.2733  0.4234 -1.2791
 7695SOL    HW234545   0.234   1.739  13.497 -0.6656  1.4442 -2.0558
 7696SOL     OW34546   3.830   3.904  15.173  0.5289  0.1380  0.4799
 7696SOL    HW134547   3.820   3.812  15.197 -0.0969 -0.2799 -1.4475
 7696SOL    HW234548   3.828   3.884  15.080  1.2454 -0.9241  0.6844
 7697SOL     OW34549   0.262   2.094   7.546  0.0565  0.2824  0.1727
 7697SOL    HW134550   0.298   2.009   7.520 -1.5204 -0.3268 -0.0370
 7697SOL    HW234551   0.343   2.144   7.539  0.3237 -0.1539  0.1596
 7698SOL     OW34552   0.660   2.637   8.829 -0.0551 -0.5430 -0.5288
 7698SOL    HW134553   0.629   2.721   8.862 -0.9210  0.1298 -3.0694
 7698SOL    HW234554   0.747   2.625   8.868  0.4295 -0.4614 -1.5639
 7699SOL     OW34555   3.803   3.204  16.998  0.9281  0.2955  0.4924
 7699SOL    HW134556   3.844   3.119  16.981 -1.0266 -0.3910 -0.7809
 7699SOL    HW234557   3.793   3.195  17.093 -0.6098 -2.2915  0.0934
 7700SOL     OW34558   1.116   1.002   8.977 -0.4218 -0.3003  0.5235
 7700SOL    HW134559   1.052   0.936   9.005 -0.4779 -1.1055 -1.4944
 7700SOL    HW234560   1.104   1.027   8.886 -1.6672 -0.8249  0.5396
 7701SOL     OW34561   0.169   4.216   7.802  0.0027  0.3348 -0.2612
 7701SOL    HW134562   0.156   4.199   7.896 -3.1886  6.1178  0.3150
 7701SOL    HW234563   0.112   4.291   7.789 -0.7675 -0.2652 -0.3786
 7702SOL     OW34564   3.575   3.605   3.620 -0.2898  0.1509  0.1829
 7702SOL    HW134565   3.625   3.667   3.567  0.4659 -0.7113 -0.1075
 7702SOL    HW234566   3.491   3.646   3.639 -0.4989 -1.2053  2.2490
 7703SOL     OW34567   2.365   4.250   3.158 -0.5284 -0.3663  0.5916
 7703SOL    HW134568   2.355   4.240   3.064 -1.8648  0.4212  0.6472
 7703SOL    HW234569   2.312   4.329   3.173  0.5240  0.9036 -2.4337
 7704SOL     OW34570   3.314   4.241   7.457 -0.4549 -0.1180 -0.2307
 7704SOL    HW134571   3.298   4.294   7.534 -1.2682 -0.2239 -0.3268
 7704SOL    HW234572   3.309   4.310   7.391  0.9246  0.7217  0.5408
 7705SOL     OW34573   0.726   3.864  11.898  0.1921  0.2754 -0.0747
 7705SOL    HW134574   0.705   3.950  11.933 -0.3506 -0.3791  1.2111
 7705SOL    HW234575   0.799   3.839  11.956  0.3481  0.4149 -0.2094
 7706SOL     OW34576   3.941   0.136   6.081  0.7031  0.8622 -0.0426
 7706SOL    HW134577   4.032   0.124   6.109  1.0520  3.1314 -0.1746
 7706SOL    HW234578   3.893   0.109   6.160  0.1852 -1.4024 -1.1276
 7707SOL     OW34579   3.353   0.270   7.679  0.0059  0.4755  0.3794
 7707SOL    HW134580   3.298   0.311   7.612 -0.1878 -1.3188 -0.5522
 7707SOL    HW234581   3.311   0.184   7.677  1.6806 -0.3126 -0.2871
 7708SOL     OW34582   2.752   2.051   4.707  0.1385 -0.5113  0.1247
 7708SOL    HW134583   2.809   2.123   4.680  0.8601 -0.3223  2.1535
 7708SOL    HW234584   2.663   2.087   4.709  0.5707  0.5165  0.7599
 7709SOL     OW34585   3.322   4.118  17.019  0.1376  0.1300 -0.4369
 7709SOL    HW134586   3.289   4.074  17.097  0.3110 -0.2604 -0.5776
 7709SOL    HW234587   3.414   4.090  17.016 -0.2025 -0.9087 -1.6415
 7710SOL     OW34588   2.093   4.664  11.022  0.0666  0.4457  0.5312
 7710SOL    HW134589   2.167   4.711  11.060  1.9146 -2.3841  0.4345
 7710SOL    HW234590   2.032   0.011  10.995  0.0033 -0.2946 -1.1483
 7711SOL     OW34591   1.697   4.282  16.940 -0.6418 -0.2396 -0.4222
 7711SOL    HW134592   1.607   4.290  16.973 -0.8289 -2.5836 -0.3526
 7711SOL    HW234593   1.712   4.189  16.954 -2.5676 -0.2551  1.4957
 7712SOL     OW34594   1.664   1.124   6.936  0.0731  0.0318  0.0468
 7712SOL    HW134595   1.745   1.123   6.886 -0.8016  0.1603 -1.3756
 7712SOL    HW234596   1.613   1.130   6.855 -1.3542 -3.1881  0.6919
 7713SOL     OW34597   1.368   4.492   7.357 -0.1576  0.0469  0.2709
 7713SOL    HW134598   1.337   4.579   7.384 -2.4779 -0.6641 -0.0617
 7713SOL    HW234599   1.451   4.489   7.404 -0.2739  5.1689  0.8082
 7714SOL     OW34600   3.161   1.985   5.276  0.2553  0.5159  0.2959
 7714SOL    HW134601   3.253   1.989   5.249  0.2561 -3.2102 -0.1869
 7714SOL    HW234602   3.181   1.955   5.364  0.3010 -1.4454 -0.3940
 7715SOL     OW34603   4.328   3.489   4.085  0.0973 -0.1337 -0.0063
 7715SOL    HW134604   4.399   3.553   4.079  1.0857 -1.3850 -1.3824
 7715SOL    HW234605   4.331   3.444   4.001  0.0721 -0.5561  0.2219
 7716SOL     OW34606   0.287   2.536   6.817  0.1479  0.3073  0.1531
 7716SOL    HW134607   0.248   2.457   6.856  3.3812 -1.3562 -0.0355
 7716SOL    HW234608   0.302   2.508   6.727  2.6875  1.1355  0.3350
 7717SOL     OW34609   1.468   2.815   7.340  0.0945 -0.5650 -0.0124
 7717SOL    HW134610   1.395   2.754   7.332  0.0552 -0.4551 -0.5142
 7717SOL    HW234611   1.503   2.785   7.424 -0.2700 -1.1408 -0.0708
 7718SOL     OW34612   2.914   0.658  17.038 -0.0625 -0.6739  0.7344
 7718SOL    HW134613   2.849   0.726  17.058  0.0050 -0.4759  0.2905
 7718SOL    HW234614   2.851   0.588  17.020 -0.7557  0.4632 -1.2788
 7719SOL     OW34615   1.301   3.244   2.209 -0.5389  0.3390  0.2610
 7719SOL    HW134616   1.385   3.287   2.195  1.5103 -3.5858  0.5135
 7719SOL    HW234617   1.292   3.258   2.304 -1.6740  3.1683 -0.2835
 7720SOL     OW34618   0.319   2.227   4.715 -0.5066 -0.3709  0.3307
 7720SOL    HW134619   0.390   2.196   4.771 -0.0551  0.1771  0.0542
 7720SOL    HW234620   0.262   2.152   4.697 -1.4527  0.4939 -0.2791
 7721SOL     OW34621   3.036   4.672  11.853  0.5512  0.1872  0.0017
 7721SOL    HW134622   3.006   4.630  11.934 -1.2196  0.7104 -0.3747
 7721SOL    HW234623   3.108   0.001  11.891  2.0788 -1.6643 -0.4725
 7722SOL     OW34624   3.521   4.495   1.564 -0.0904 -0.4630 -0.0617
 7722SOL    HW134625   3.434   4.521   1.534 -1.3089 -0.9149  3.0420
 7722SOL    HW234626   3.506   4.443   1.643  0.9531 -1.6945 -0.6740
 7723SOL     OW34627   3.169   1.873   4.167 -0.8548  0.1652 -0.0798
 7723SOL    HW134628   3.126   1.823   4.097 -0.3223 -0.2945 -0.0772
 7723SOL    HW234629   3.185   1.809   4.236 -1.0288 -1.6811 -1.7658
 7724SOL     OW34630   1.812   3.941   2.462  0.4362 -0.1042 -0.1072
 7724SOL    HW134631   1.789   4.034   2.464 -2.8610 -0.9410  1.3830
 7724SOL    HW234632   1.856   3.938   2.377  1.1457 -2.8834  0.3306
 7725SOL     OW34633   0.936   0.141   0.533  0.0966  0.0981  0.5301
 7725SOL    HW134634   0.894   0.067   0.490 -1.5447  1.4189 -0.1604
 7725SOL    HW234635   0.936   0.215   0.471 -0.8504  1.4882  2.1789
 7726SOL     OW34636   4.059   0.498   9.387 -0.5550 -0.0414  0.1536
 7726SOL    HW134637   4.011   0.425   9.349  0.4148 -0.7994  0.3753
 7726SOL    HW234638   4.005   0.531   9.458  0.0661  1.6343 -0.1486
 7727SOL     OW34639   0.729   1.956   3.046 -0.4074  0.3093  0.4713
 7727SOL    HW134640   0.754   2.037   3.090  2.3183 -0.8005  1.0143
 7727SOL    HW234641   0.648   1.985   3.004 -0.7364  0.4029  1.1598
 7728SOL     OW34642   1.187   0.032  13.730  0.1923 -0.0119 -0.2238
 7728SOL    HW134643   1.151   4.678  13.684 -2.0061  1.4736 -0.9049
 7728SOL    HW234644   1.174   0.017  13.824 -2.6632 -1.2218 -0.8246
 7729SOL     OW34645   2.626   1.711   8.924 -0.1929  0.0110  0.2611
 7729SOL    HW134646   2.642   1.791   8.872 -0.6649  0.1755  0.3762
 7729SOL    HW234647   2.575   1.748   8.996  1.1854  1.0160  0.7241
 7730SOL     OW34648   3.441   3.677   4.578  0.5874 -0.1371  0.4133
 7730SOL    HW134649   3.421   3.676   4.485 -0.2929  0.7689  0.6003
 7730SOL    HW234650   3.519   3.733   4.582 -0.4905  1.2963  1.4228
 7731SOL     OW34651   0.874   2.623   9.042 -0.2798 -0.4347  0.3419
 7731SOL    HW134652   0.946   2.632   8.979  0.0030 -0.8454  0.6103
 7731SOL    HW234653   0.875   2.530   9.065  0.0744  0.0711  2.3351
 7732SOL     OW34654   0.664   2.623  13.431  0.1658 -0.4399 -0.5571
 7732SOL    HW134655   0.717   2.700  13.453  0.0126 -0.3530 -0.4914
 7732SOL    HW234656   0.719   2.589  13.360  1.0285 -0.1237 -0.0407
 7733SOL     OW34657   3.671   4.247  12.921 -0.0622 -0.0483 -0.7348
 7733SOL    HW134658   3.758   4.218  12.949 -0.8729 -0.1720  1.6228
 7733SOL    HW234659   3.679   4.242  12.825  1.9315  0.9094 -0.6013
 7734SOL     OW34660   1.684   4.228   5.306 -0.2027 -0.6806 -0.3951
 7734SOL    HW134661   1.698   4.133   5.306 -2.1052 -0.9594  0.7435
 7734SOL    HW234662   1.685   4.247   5.400 -1.6600  1.6212 -0.8406
 7735SOL     OW34663   4.034   2.668   4.370 -0.3426  0.1131  0.0621
 7735SOL    HW134664   4.122   2.639   4.394  0.2408  0.2565 -1.9474
 7735SOL    HW234665   3.995   2.594   4.322  1.8365 -0.3262 -1.0122
 7736SOL     OW34666   4.166   4.647   3.475 -0.1820 -0.4333 -0.9548
 7736SOL    HW134667   4.191   4.587   3.545 -1.0408  2.1779  1.6036
 7736SOL    HW234668   4.105   4.595   3.422  0.7021 -2.8945  0.4398
 7737SOL     OW34669   1.049   4.414   7.516  0.3259 -0.6389 -0.4397
 7737SOL    HW134670   1.041   4.510   7.517  1.1267 -0.5799 -0.3654
 7737SOL    HW234671   1.016   4.393   7.429 -0.2061  0.9715 -0.6351
 7738SOL     OW34672   4.676   4.039   5.957  0.1236  0.1607 -0.3423
 7738SOL    HW134673   4.585   4.069   5.954  0.0239  0.1328  1.9979
 7738SOL    HW234674   4.666   3.945   5.941 -0.7769  0.2997 -0.5755
 7739SOL     OW34675   2.413   2.015   8.685 -0.8467 -0.9133  0.9621
 7739SOL    HW134676   2.431   1.929   8.647 -2.1499 -0.5728 -0.4425
 7739SOL    HW234677   2.487   2.039   8.740 -2.3003  1.6072  1.8346
 7740SOL     OW34678   3.003   4.404   3.184  0.2787 -0.3715  0.2171
 7740SOL    HW134679   3.041   4.352   3.255 -0.9053 -0.1947  0.9838
 7740SOL    HW234680   3.084   4.418   3.136 -0.4732  1.8784 -0.4015
 7741SOL     OW34681   2.450   2.210   6.869  0.2154 -0.3561  0.2464
 7741SOL    HW134682   2.486   2.165   6.946 -0.2734  0.5804  1.0157
 7741SOL    HW234683   2.506   2.177   6.799 -0.7347 -0.0820 -0.6363
 7742SOL     OW34684   1.943   3.328   6.525 -0.6484  0.3131 -0.3329
 7742SOL    HW134685   1.889   3.306   6.449 -1.6285 -0.1089  0.4769
 7742SOL    HW234686   2.029   3.297   6.498 -0.4226  1.7237 -1.2361
 7743SOL     OW34687   2.577   0.281   5.964  0.5650 -0.8118 -0.1276
 7743SOL    HW134688   2.550   0.198   6.002  0.9652 -0.8936 -0.0298
 7743SOL    HW234689   2.610   0.325   6.042 -0.1068  0.2668 -0.4448
 7744SOL     OW34690   1.097   0.961  12.373 -0.1227 -0.7933 -0.3649
 7744SOL    HW134691   1.007   0.982  12.399  0.5528  0.3502  1.1093
 7744SOL    HW234692   1.069   0.944  12.283 -1.6335 -0.3176  0.0079
 7745SOL     OW34693   1.828   1.376   5.664  0.3128  0.1763  0.0631
 7745SOL    HW134694   1.819   1.287   5.698  1.7780 -0.4321 -1.1417
 7745SOL    HW234695   1.812   1.444   5.729 -0.0014 -0.2849  0.4656
 7746SOL     OW34696   0.061   1.241  13.134  0.3062 -0.3717  0.1055
 7746SOL    HW134697   0.014   1.301  13.077  3.0458  2.3779  0.7529
 7746SOL    HW234698   4.713   1.186  13.171  0.6864 -0.5052  0.6209
 7747SOL     OW34699   1.479   4.698   6.587  0.1899 -0.2119  0.7940
 7747SOL    HW134700   1.501   0.009   6.499 -1.4426  1.3802  0.9640
 7747SOL    HW234701   1.386   4.674   6.584  0.0076  0.6419 -0.4025
 7748SOL     OW34702   1.409   1.901  14.941  0.3948 -0.4920  0.2912
 7748SOL    HW134703   1.446   1.983  14.908 -1.7091  0.3510  0.0203
 7748SOL    HW234704   1.467   1.840  14.896  1.2781  0.0923  0.6343
 7749SOL     OW34705   2.767   0.481   2.361 -0.7072 -0.4774  0.5935
 7749SOL    HW134706   2.756   0.435   2.444  2.5935 -1.0604  0.7122
 7749SOL    HW234707   2.850   0.450   2.325 -2.1577 -2.4671 -1.0482
 7750SOL     OW34708   1.097   2.282  16.673 -0.3590 -0.1678  0.0120
 7750SOL    HW134709   1.027   2.308  16.614 -0.0757 -0.9130 -0.6505
 7750SOL    HW234710   1.099   2.186  16.674  1.1016 -0.1611 -1.8831
 7751SOL     OW34711   2.665   1.794  16.603 -0.4767 -0.7517 -0.8395
 7751SOL    HW134712   2.582   1.781  16.649 -1.2055  0.4439 -1.8445
 7751SOL    HW234713   2.642   1.881  16.571  1.5650  0.1265  0.0446
 7752SOL     OW34714   1.188   4.109   4.413  0.6403  0.0439  0.3708
 7752SOL    HW134715   1.180   4.176   4.345  2.4890 -1.1876 -1.0642
 7752SOL    HW234716   1.130   4.043   4.376  0.4175 -0.6989  2.0323
 7753SOL     OW34717   2.768   3.216   3.297  0.0330 -0.1181  0.6095
 7753SOL    HW134718   2.681   3.240   3.329 -1.0198 -1.6801 -1.1608
 7753SOL    HW234719   2.747   3.132   3.258  2.2996  0.1543 -1.1829
 7754SOL     OW34720   1.734   0.838   3.753  0.8361 -0.2184  0.1551
 7754SOL    HW134721   1.656   0.887   3.779  1.7664  1.4929 -0.2375
 7754SOL    HW234722   1.752   0.786   3.832 -1.6012 -0.8030  0.3141
 7755SOL     OW34723   3.725   4.042  14.626 -0.0197  0.3174 -0.2274
 7755SOL    HW134724   3.704   4.057  14.718 -0.7834 -0.5365 -0.2681
 7755SOL    HW234725   3.669   4.108  14.586 -0.3940 -0.8104 -1.5568
 7756SOL     OW34726   3.384   2.671   3.796 -0.0274  0.1380 -0.2501
 7756SOL    HW134727   3.352   2.586   3.767  0.2083  0.5649 -1.7641
 7756SOL    HW234728   3.447   2.640   3.861  1.1260  2.1236 -0.4342
 7757SOL     OW34729   0.268   2.368   1.680 -0.0658 -0.2866 -0.1384
 7757SOL    HW134730   0.207   2.334   1.746  2.5184 -0.8434  1.9630
 7757SOL    HW234731   0.208   2.433   1.644  0.3090  0.2312  0.1778
 7758SOL     OW34732   4.616   0.853   4.756 -0.4103 -0.1248  0.6010
 7758SOL    HW134733   4.523   0.833   4.753 -0.6306  1.0877 -0.2426
 7758SOL    HW234734   4.627   0.902   4.674  0.4876 -1.7550 -0.2625
 7759SOL     OW34735   4.313   3.582   7.714  0.0816  0.4608  0.2769
 7759SOL    HW134736   4.312   3.666   7.761  0.6958 -0.5577  2.0940
 7759SOL    HW234737   4.247   3.605   7.648 -0.3273  2.4080  1.3658
 7760SOL     OW34738   4.480   2.652   5.385 -0.7673 -0.0923 -0.6373
 7760SOL    HW134739   4.403   2.702   5.411 -1.2698 -1.1535 -0.0885
 7760SOL    HW234740   4.478   2.668   5.290  2.5412  1.3322 -0.4672
 7761SOL     OW34741   0.941   0.081  17.070  0.4830 -0.4792  0.0308
 7761SOL    HW134742   0.980   0.100  16.984 -0.5996 -0.5099 -0.4575
 7761SOL    HW234743   0.879   0.151  17.086  0.8193 -0.0857 -0.3512
 7762SOL     OW34744   3.437   4.618   9.006  0.0317  0.3131  0.2153
 7762SOL    HW134745   3.474   4.621   8.918 -0.6779  0.2322 -0.0926
 7762SOL    HW234746   3.349   4.587   8.984  1.0847 -1.6776 -1.2364
 7763SOL     OW34747   4.664   2.083   3.525  0.0071 -0.3491  0.3053
 7763SOL    HW134748   4.595   2.016   3.524 -1.0966  0.8165 -1.5141
 7763SOL    HW234749   0.024   2.034   3.538  0.3423  0.1008 -0.0840
 7764SOL     OW34750   1.145   4.081   1.545 -0.0306  0.4267 -0.2700
 7764SOL    HW134751   1.142   4.156   1.486  5.0071 -0.6177 -1.7780
 7764SOL    HW234752   1.059   4.038   1.541  0.5838 -0.7717 -0.7135
 7765SOL     OW34753   4.264   3.822   7.553  0.3824  0.4868 -0.2980
 7765SOL    HW134754   4.308   3.905   7.533 -1.0333  1.0999 -0.8699
 7765SOL    HW234755   4.244   3.823   7.646 -1.0186  1.2414 -0.6197
 7766SOL     OW34756   4.213   4.233  12.856  0.5082  0.3367  0.7162
 7766SOL    HW134757   4.243   4.292  12.925  2.2707 -2.0412  1.9887
 7766SOL    HW234758   4.231   4.282  12.777 -3.1940  0.0678 -0.2933
 7767SOL     OW34759   4.434   0.582   3.542  0.3261 -0.0041  0.2767
 7767SOL    HW134760   4.516   0.561   3.499 -0.0877 -0.0369 -0.4910
 7767SOL    HW234761   4.368   0.587   3.473 -0.0270  0.9796  0.6875
 7768SOL     OW34762   0.447   3.693   2.165 -0.1549 -0.1934  0.1468
 7768SOL    HW134763   0.487   3.780   2.164 -1.9079  0.5966 -0.1703
 7768SOL    HW234764   0.398   3.685   2.247  1.1858  1.0677  1.0759
 7769SOL     OW34765   4.713   2.160   8.425  0.2031  0.0179  0.1347
 7769SOL    HW134766   4.627   2.140   8.462  0.7897  0.3889  1.6987
 7769SOL    HW234767   4.715   2.254   8.445 -0.0092  0.4730 -1.9856
 7770SOL     OW34768   0.588   1.101   9.092 -0.3142 -0.3922 -0.2159
 7770SOL    HW134769   0.665   1.157   9.106 -0.6881 -0.7770  3.4128
 7770SOL    HW234770   0.517   1.159   9.119  1.0854  0.2364  2.1968
 7771SOL     OW34771   4.619   4.526   4.731  0.9881  0.2883 -0.4136
 7771SOL    HW134772   4.571   4.601   4.768  0.4840 -0.2042 -0.0795
 7771SOL    HW234773   4.696   4.507   4.784 -0.2896 -1.0527  0.9367
 7772SOL     OW34774   2.025   4.046   6.889  0.0457 -0.0427  0.7435
 7772SOL    HW134775   2.068   4.035   6.804 -1.7937 -0.8111 -0.0707
 7772SOL    HW234776   1.967   3.971   6.901  0.8005 -0.8750 -0.7717
 7773SOL     OW34777   2.662   1.635   5.307  0.0688 -0.3377 -0.0532
 7773SOL    HW134778   2.757   1.630   5.312 -0.1446 -1.7219  2.4499
 7773SOL    HW234779   2.626   1.581   5.378 -0.4390 -0.8957 -0.7429
 7774SOL     OW34780   4.688   4.359   7.622  0.7862 -0.1965  0.5038
 7774SOL    HW134781   4.638   4.438   7.642  1.4648  0.4627 -0.4134
 7774SOL    HW234782   4.640   4.287   7.665  0.7291  1.0300  2.4844
 7775SOL     OW34783   3.427   1.310   3.128 -0.2861  0.0740  0.3352
 7775SOL    HW134784   3.335   1.286   3.135 -0.3615  0.6535  1.2500
 7775SOL    HW234785   3.472   1.229   3.154  0.9123 -0.4570 -3.4415
 7776SOL     OW34786   2.613   0.441   6.875 -0.1093  0.5137 -0.2536
 7776SOL    HW134787   2.661   0.446   6.792 -0.2502  0.2873 -0.3472
 7776SOL    HW234788   2.633   0.522   6.923 -1.6715  0.3239  0.7174
 7777SOL     OW34789   2.787   3.103   5.516  0.1207 -0.3132  0.0139
 7777SOL    HW134790   2.746   3.029   5.560  1.0820 -1.4200 -0.9537
 7777SOL    HW234791   2.806   3.170   5.582 -0.8870  0.9487 -0.9810
 7778SOL     OW34792   1.318   4.482  15.629 -0.6206 -0.1750 -0.9610
 7778SOL    HW134793   1.283   4.399  15.596  1.0186 -0.6786 -1.4218
 7778SOL    HW234794   1.397   4.486  15.576  0.8525  1.3765  1.3792
 7779SOL     OW34795   4.351   0.893   4.646  0.6956  0.2471 -0.1555
 7779SOL    HW134796   4.261   0.869   4.623  0.6796 -0.6511  0.8521
 7779SOL    HW234797   4.330   0.935   4.729  0.4381  0.7538 -0.4780
 7780SOL     OW34798   1.533   3.050   4.917 -0.3429  0.5740  0.0909
 7780SOL    HW134799   1.478   3.126   4.901 -2.8250 -1.4794 -1.2785
 7780SOL    HW234800   1.561   3.032   4.828  0.4812  1.0273  0.2660
 7781SOL     OW34801   2.754   3.815   2.518 -0.4236  0.1585  0.3354
 7781SOL    HW134802   2.764   3.884   2.453 -1.5042  0.9926  1.0673
 7781SOL    HW234803   2.659   3.805   2.526 -0.5941  2.0790  0.6023
 7782SOL     OW34804   0.618   3.860   6.545 -0.1177 -0.1395  0.2132
 7782SOL    HW134805   0.629   3.933   6.484  0.4078 -0.6980 -0.3512
 7782SOL    HW234806   0.564   3.803   6.490 -1.3575  0.1584  1.1291
 7783SOL     OW34807   1.516   0.958  12.416  0.0911  0.5575 -0.0214
 7783SOL    HW134808   1.593   0.903  12.428 -0.5978 -0.4328 -0.0933
 7783SOL    HW234809   1.449   0.889  12.415 -2.1907  2.8170 -1.3232
 7784SOL     OW34810   3.662   3.170   3.969  0.0545 -0.1062  0.1609
 7784SOL    HW134811   3.676   3.265   3.964 -1.3220  0.2333  2.7899
 7784SOL    HW234812   3.744   3.129   3.940 -0.3426 -0.7864  0.0306
 7785SOL     OW34813   0.905   3.911   1.540  0.0621  0.5202 -0.9252
 7785SOL    HW134814   0.809   3.911   1.538  0.0760  0.5265 -1.5823
 7785SOL    HW234815   0.930   3.849   1.472  0.8712  0.5982 -0.6996
 7786SOL     OW34816   0.975   1.366   9.723 -0.0498  0.1902 -0.1819
 7786SOL    HW134817   1.051   1.407   9.681  1.5774 -1.3732  1.2583
 7786SOL    HW234818   0.966   1.432   9.792  0.8232  0.4599 -0.3214
 7787SOL     OW34819   4.468   0.770   4.016  0.2432  0.0814  0.0127
 7787SOL    HW134820   4.401   0.738   4.076  1.8335 -0.0775  1.7070
 7787SOL    HW234821   4.526   0.810   4.081 -0.3564  0.4988  0.2893
 7788SOL     OW34822   1.302   1.806  11.158 -0.0498  0.1699  0.0312
 7788SOL    HW134823   1.209   1.818  11.144 -0.5452 -0.6453  2.7064
 7788SOL    HW234824   1.302   1.784  11.251  1.8837  1.6207  0.3882
 7789SOL     OW34825   4.298   2.927   5.766 -0.6588 -0.6854 -0.4843
 7789SOL    HW134826   4.283   3.019   5.742 -1.1956 -0.8470 -0.7658
 7789SOL    HW234827   4.214   2.907   5.807  0.3903 -1.1979  1.4152
 7790SOL     OW34828   3.509   3.369   8.990  0.2665  0.5856 -0.1516
 7790SOL    HW134829   3.454   3.403   9.061 -1.5451 -0.5787 -0.9886
 7790SOL    HW234830   3.581   3.432   8.986  1.6169 -0.9442  0.1935
 7791SOL     OW34831   3.493   0.291   8.994 -0.3990  0.4796 -0.0910
 7791SOL    HW134832   3.567   0.296   9.054 -1.1093  0.4858  0.7942
 7791SOL    HW234833   3.425   0.310   9.059 -0.9584  0.4221 -0.6636
 7792SOL     OW34834   4.049   1.894  12.788  0.6033 -0.0939  0.1208
 7792SOL    HW134835   3.981   1.955  12.819  0.5441 -0.3259  0.4542
 7792SOL    HW234836   4.012   1.811  12.818  1.1827  0.3208  1.9935
 7793SOL     OW34837   3.125   1.159   3.932 -0.3125 -0.1964 -0.3571
 7793SOL    HW134838   3.108   1.253   3.927 -0.4694 -0.0706  2.3373
 7793SOL    HW234839   3.204   1.166   3.985 -1.5812  2.1913  1.2212
 7794SOL     OW34840   0.304   2.150   1.918 -0.0021  0.3178 -0.4988
 7794SOL    HW134841   0.379   2.204   1.941 -0.7350  0.9035  0.5066
 7794SOL    HW234842   0.353   2.087   1.866  0.6225  0.6623 -0.3200
 7795SOL     OW34843   0.227   2.942   7.198  0.2032  0.3761  0.0476
 7795SOL    HW134844   0.228   3.033   7.169 -2.4068  1.4217  3.1530
 7795SOL    HW234845   0.249   2.953   7.291 -0.3915 -0.3301  0.2739
 7796SOL     OW34846   2.725   0.551   8.454 -0.9469 -0.6124 -0.0724
 7796SOL    HW134847   2.767   0.517   8.375  0.2570 -0.1851  0.3883
 7796SOL    HW234848   2.794   0.540   8.519 -1.4108  1.3088  0.7200
 7797SOL     OW34849   2.734   3.773   5.576  0.6348  0.5009 -0.1327
 7797SOL    HW134850   2.770   3.852   5.536  1.5289 -0.5100 -1.3216
 7797SOL    HW234851   2.814   3.722   5.588  0.2016  0.3137  1.9146
 7798SOL     OW34852   3.050   3.303   8.451 -0.2614 -0.3939 -0.9897
 7798SOL    HW134853   3.111   3.240   8.489 -0.5230 -0.3288 -0.4579
 7798SOL    HW234854   3.045   3.359   8.529 -1.0599 -3.0318  0.8729
 7799SOL     OW34855   2.616   0.116   5.569 -0.1895 -0.6198 -0.0805
 7799SOL    HW134856   2.571   0.165   5.501  0.8617  1.6835  0.8724
 7799SOL    HW234857   2.560   0.038   5.577 -0.2833 -0.5106  0.3539
 7800SOL     OW34858   4.585   1.141   7.471  0.1886  0.4987  0.3224
 7800SOL    HW134859   4.603   1.078   7.401  1.2898 -1.6008  2.4962
 7800SOL    HW234860   4.531   1.080   7.521 -0.4981  1.2273  0.4628
 7801SOL     OW34861   1.286   1.543  14.852 -0.4290  0.2597  0.2792
 7801SOL    HW134862   1.269   1.493  14.771  1.2218 -0.4657  0.3945
 7801SOL    HW234863   1.318   1.471  14.906 -2.5423 -0.1865  0.9699
 7802SOL     OW34864   2.299   3.983  14.049  0.3973 -0.1540 -0.2894
 7802SOL    HW134865   2.385   3.997  14.008  0.1604 -0.4080 -0.8751
 7802SOL    HW234866   2.319   3.925  14.123  0.4681 -1.1159 -1.0597
 7803SOL     OW34867   2.367   4.075   6.393 -0.3509 -0.7603  0.5389
 7803SOL    HW134868   2.396   3.988   6.418 -2.5237 -1.0822  1.9359
 7803SOL    HW234869   2.289   4.089   6.447 -1.5479 -1.6614 -0.9556
 7804SOL     OW34870   3.423   3.869   7.391  1.0733 -0.1499 -0.0444
 7804SOL    HW134871   3.465   3.932   7.450 -0.5400  1.7417 -0.9163
 7804SOL    HW234872   3.408   3.799   7.455 -0.5948  0.8440  0.6842
 7805SOL     OW34873   2.668   3.180  12.271 -0.5354 -0.0395  0.1634
 7805SOL    HW134874   2.595   3.132  12.311 -1.0356  0.7255  0.1581
 7805SOL    HW234875   2.623   3.182  12.187  0.8047  1.1688 -0.5151
 7806SOL     OW34876   0.490   0.554   2.402 -0.2378  0.8163 -0.0372
 7806SOL    HW134877   0.514   0.641   2.369 -0.6976  0.5547 -1.0686
 7806SOL    HW234878   0.517   0.564   2.493 -1.4514  1.8106  0.2265
 7807SOL     OW34879   1.733   0.787  12.431  0.0341  0.5525 -0.0907
 7807SOL    HW134880   1.811   0.837  12.406 -0.0150  1.1773  1.0086
 7807SOL    HW234881   1.759   0.760  12.519  0.4045  0.0585 -0.3522
 7808SOL     OW34882   0.135   2.906   3.731  0.0437 -0.3024  0.2409
 7808SOL    HW134883   0.153   2.823   3.777 -0.3086  0.1573  1.1951
 7808SOL    HW234884   0.227   2.933   3.728  0.7998 -2.8969  0.0687
 7809SOL     OW34885   0.052   0.762   2.717 -0.1693  0.4325  0.4507
 7809SOL    HW134886   0.044   0.847   2.673 -0.9242  0.9629  1.5763
 7809SOL    HW234887   4.680   0.741   2.715  0.4991 -2.3521 -0.9736
 7810SOL     OW34888   1.443   1.715  15.263  0.5599  0.1829  0.1761
 7810SOL    HW134889   1.516   1.767  15.296 -0.3472  2.1408 -0.9273
 7810SOL    HW234890   1.422   1.769  15.187 -0.1223  1.8532  1.5485
 7811SOL     OW34891   1.710   4.313   7.741 -0.1150 -0.6008 -1.3669
 7811SOL    HW134892   1.686   4.239   7.797 -0.3764 -1.3664 -2.4939
 7811SOL    HW234893   1.640   4.379   7.741  0.0805 -0.3933 -3.1214
 7812SOL     OW34894   0.237   1.536   5.964 -0.5230  0.2653 -0.0952
 7812SOL    HW134895   0.263   1.575   6.047  1.8850  1.2821 -1.3333
 7812SOL    HW234896   0.256   1.443   5.980 -0.5144  0.2395 -0.2518
 7813SOL     OW34897   3.526   1.459   8.802 -0.7799  0.0563 -0.0207
 7813SOL    HW134898   3.493   1.446   8.891 -0.2838 -1.9237 -0.1253
 7813SOL    HW234899   3.619   1.470   8.820 -0.3782 -3.0053 -0.2147
 7814SOL     OW34900   0.417   1.425  17.509 -0.2347  0.2405  0.2426
 7814SOL    HW134901   0.433   1.405  17.417  1.3144 -0.0279  0.5781
 7814SOL    HW234902   0.408   1.520  17.502  2.6635  0.4267 -1.0377
 7815SOL     OW34903   4.070   1.085  13.506 -0.1526  0.0596  0.2555
 7815SOL    HW134904   4.116   1.038  13.437  1.9205  2.7857 -0.1944
 7815SOL    HW234905   4.098   1.026  13.576 -0.0519 -3.0073 -2.3905
 7816SOL     OW34906   2.789   4.346   3.472 -0.1378  0.0336  0.0141
 7816SOL    HW134907   2.733   4.398   3.415 -0.2079  1.7106  1.6058
 7816SOL    HW234908   2.864   4.330   3.415 -1.5778 -1.6618 -1.3734
 7817SOL     OW34909   4.477   0.595   8.742 -0.1025  0.1158  0.0080
 7817SOL    HW134910   4.570   0.574   8.733 -0.1295 -0.6845  1.5097
 7817SOL    HW234911   4.433   0.512   8.760 -1.4158  0.8552  0.2356
 7818SOL     OW34912   0.154   2.296   0.900 -0.3715 -0.0061  1.0301
 7818SOL    HW134913   0.202   2.318   0.980 -0.3081  1.0936  0.7030
 7818SOL    HW234914   0.185   2.206   0.889  0.5818  0.4982 -0.5165
 7819SOL     OW34915   4.531   1.432  11.000  0.7240  0.0947 -0.0086
 7819SOL    HW134916   4.608   1.489  10.986  1.0819 -0.4981 -0.4487
 7819SOL    HW234917   4.567   1.363  11.055  4.2282 -0.1881 -2.6316
 7820SOL     OW34918   2.327   0.077   8.636 -0.0328 -0.2987 -0.0896
 7820SOL    HW134919   2.395   0.137   8.604 -1.5899 -0.1432 -3.0872
 7820SOL    HW234920   2.274   0.139   8.687  0.8495  1.9195 -1.8670
 7821SOL     OW34921   0.264   1.015   6.645  0.6737  0.9340 -0.0398
 7821SOL    HW134922   0.309   1.099   6.652 -1.1143  1.8838 -0.0404
 7821SOL    HW234923   0.244   1.028   6.553  1.2175  2.2758  0.0323
 7822SOL     OW34924   3.397   3.434   2.774 -0.6562  0.1206  0.4797
 7822SOL    HW134925   3.377   3.374   2.702 -1.4058  0.2122  0.6100
 7822SOL    HW234926   3.436   3.373   2.838 -0.0405  1.3967  1.3097
 7823SOL     OW34927   3.047   3.823   7.589 -0.0913  0.5017  0.5579
 7823SOL    HW134928   3.054   3.917   7.572  0.8290  0.5882  1.4053
 7823SOL    HW234929   3.140   3.802   7.593 -0.8713 -2.9503 -0.1826
 7824SOL     OW34930   0.174   1.945   3.515  0.3534  0.0101  0.5447
 7824SOL    HW134931   0.156   1.859   3.551 -0.0299  0.8368  2.3319
 7824SOL    HW234932   0.222   1.996   3.581 -2.1182 -1.0233  3.1159
 7825SOL     OW34933   2.635   0.341  17.200  0.5263  0.1518  0.1095
 7825SOL    HW134934   2.569   0.318  17.265  1.5176  0.4305  1.2109
 7825SOL    HW234935   2.630   0.265  17.142  1.5169  0.2570 -0.1059
 7826SOL     OW34936   1.499   1.659  17.379 -0.2986  0.6825  0.2170
 7826SOL    HW134937   1.491   1.564  17.391 -0.0953  0.7021  0.5090
 7826SOL    HW234938   1.410   1.683  17.403 -1.1270 -1.1304 -0.9742
 7827SOL     OW34939   1.205   1.650  17.392 -0.7274  0.0180  0.5973
 7827SOL    HW134940   1.122   1.636  17.347  0.1282  2.5757 -1.7372
 7827SOL    HW234941   1.210   1.573  17.449  0.6329 -1.1741 -1.1449
 7828SOL     OW34942   4.499   0.711   5.568  0.5302 -0.1409 -0.4561
 7828SOL    HW134943   4.481   0.691   5.660 -2.2147  1.4592 -0.6465
 7828SOL    HW234944   4.414   0.747   5.540  0.3925  0.6899  1.0401
 7829SOL     OW34945   3.097   1.160   8.840  0.3040  0.1922 -0.1840
 7829SOL    HW134946   3.010   1.121   8.828 -0.1679  0.4472  2.3960
 7829SOL    HW234947   3.073   1.231   8.899 -2.4709  1.5008 -2.8764
 7830SOL     OW34948   3.372   0.412   6.710 -0.1073  0.3041  0.2386
 7830SOL    HW134949   3.390   0.489   6.657  0.4391  0.8336  1.1848
 7830SOL    HW234950   3.292   0.376   6.673  0.6326  0.2106 -1.2793
 7831SOL     OW34951   2.276   1.547   9.044  0.4857  0.2473  0.0743
 7831SOL    HW134952   2.181   1.539   9.045  0.4716  0.4634  0.3582
 7831SOL    HW234953   2.307   1.462   9.014  0.1027  0.6828 -1.5905
 7832SOL     OW34954   1.547   3.994   3.379 -0.1869 -0.0502 -0.5363
 7832SOL    HW134955   1.536   3.904   3.408 -0.0077  0.4616  1.1102
 7832SOL    HW234956   1.572   3.984   3.287  2.2044 -1.8670  0.3031
 7833SOL     OW34957   1.481   2.320  11.603 -0.2907 -0.0965  0.4317
 7833SOL    HW134958   1.514   2.251  11.545  0.2167 -0.2186  0.8595
 7833SOL    HW234959   1.559   2.350  11.649  0.5794  0.9163 -1.6751
 7834SOL     OW34960   2.434   4.161  12.213  0.3392 -0.0914  0.3319
 7834SOL    HW134961   2.481   4.244  12.212  0.9629 -0.4406  1.5894
 7834SOL    HW234962   2.350   4.183  12.173 -0.6523 -0.8074  2.0550
 7835SOL     OW34963   0.735   3.575   2.934 -0.0881  0.8576 -0.7283
 7835SOL    HW134964   0.696   3.498   2.977 -0.9996  1.8861  0.2671
 7835SOL    HW234965   0.690   3.650   2.972 -0.9567 -2.1992  4.3376
 7836SOL     OW34966   3.608   2.673   5.692  0.5507  0.6943  0.8828
 7836SOL    HW134967   3.612   2.641   5.782 -1.4951 -0.7146  0.4773
 7836SOL    HW234968   3.542   2.739   5.715 -0.0599 -0.1745  1.5898
 7837SOL     OW34969   1.516   1.820   8.121  0.0665 -0.3593 -0.1898
 7837SOL    HW134970   1.451   1.756   8.152  0.0883 -0.9710 -1.4223
 7837SOL    HW234971   1.527   1.773   8.039 -3.1352 -0.7727 -0.3968
 7838SOL     OW34972   4.429   4.061   7.475  0.5070 -0.2601 -0.2245
 7838SOL    HW134973   4.428   4.131   7.410  2.3181 -0.3584 -0.3617
 7838SOL    HW234974   4.519   4.032   7.461 -0.4238 -2.2832 -2.1906
 7839SOL     OW34975   3.968   1.761   4.746 -0.1713  0.2996 -0.7536
 7839SOL    HW134976   3.996   1.853   4.743  0.1996  0.2486  1.2367
 7839SOL    HW234977   4.048   1.710   4.758 -0.4842  0.4990  2.1698
 7840SOL     OW34978   3.329   0.119   2.406  0.2947 -0.4034 -1.0054
 7840SOL    HW134979   3.261   0.064   2.445 -1.2317  1.1287 -1.4815
 7840SOL    HW234980   3.395   0.100   2.472 -0.8430  0.4914  0.4075
 7841SOL     OW34981   1.387   1.258  11.116 -0.5552  0.1691 -0.1771
 7841SOL    HW134982   1.393   1.342  11.071 -1.5741 -0.1184 -0.8664
 7841SOL    HW234983   1.342   1.288  11.195  2.1876  1.4834  0.8673
 7842SOL     OW34984   2.381   2.205   3.729  0.3238 -0.2216  0.4721
 7842SOL    HW134985   2.433   2.140   3.682 -1.8000 -0.9433 -0.8851
 7842SOL    HW234986   2.453   2.255   3.769  2.2938 -3.4747  0.9689
 7843SOL     OW34987   2.653   0.934   9.050 -0.3840  0.3144 -0.0832
 7843SOL    HW134988   2.609   1.019   9.057 -2.0676 -0.3939 -2.2225
 7843SOL    HW234989   2.746   0.957   9.048 -0.5362  0.8128 -1.4465
 7844SOL     OW34990   1.814   3.579   5.492 -0.1274  0.1305 -0.3852
 7844SOL    HW134991   1.877   3.633   5.538  1.5003 -3.3010  1.4517
 7844SOL    HW234992   1.736   3.609   5.538 -0.8247  1.9721 -2.7793
 7845SOL     OW34993   1.453   2.723   3.042 -0.6443  0.1895  0.1910
 7845SOL    HW134994   1.519   2.687   2.982 -0.9838 -0.3039  0.1107
 7845SOL    HW234995   1.485   2.813   3.052 -1.1712  0.3047  0.8269
 7846SOL     OW34996   2.740   2.984   9.716 -0.2869 -0.1982 -0.1395
 7846SOL    HW134997   2.738   3.048   9.787 -2.6367 -0.3138 -0.0941
 7846SOL    HW234998   2.734   2.905   9.769  1.5915  0.5386  1.2005
 7847SOL     OW34999   4.631   3.215   8.457 -0.0414  0.4130  0.0473
 7847SOL    HW135000   4.593   3.218   8.369  1.6913  0.1820 -0.7138
 7847SOL    HW235001   4.604   3.295   8.503 -1.8551  0.4458 -1.0895
 7848SOL     OW35002   1.419   1.238  10.302  0.1611  0.2163  0.0121
 7848SOL    HW135003   1.500   1.279  10.333 -1.1293  1.1881  2.0822
 7848SOL    HW235004   1.357   1.253  10.373  0.6574  0.0982  0.4641
 7849SOL     OW35005   3.273   0.971   4.633 -0.1020  0.0441  0.0886
 7849SOL    HW135006   3.330   0.982   4.557  0.1963 -2.1995 -0.0314
 7849SOL    HW235007   3.194   1.012   4.599  0.8458 -0.8451 -3.1508
 7850SOL     OW35008   2.814   3.516  13.076 -0.8081  0.1437  0.0475
 7850SOL    HW135009   2.844   3.454  13.009 -1.5519 -1.5193  1.2478
 7850SOL    HW235010   2.840   3.600  13.038  0.6243 -1.3565 -2.3176
 7851SOL     OW35011   0.669   0.331   6.399 -0.8891  0.3950 -0.4607
 7851SOL    HW135012   0.669   0.304   6.491 -1.2012 -0.2059 -0.6368
 7851SOL    HW235013   0.754   0.295   6.374 -1.9725 -1.5822 -1.2757
 7852SOL     OW35014   1.626   0.398   6.491  0.2497  0.5112  0.3965
 7852SOL    HW135015   1.701   0.340   6.505 -0.5690 -1.1924 -2.3022
 7852SOL    HW235016   1.552   0.343   6.466  0.7398  0.3550 -0.6904
 7853SOL     OW35017   2.467   2.012   4.423  0.0222  0.5456  0.4112
 7853SOL    HW135018   2.473   1.952   4.497  2.7011 -0.5264 -0.6894
 7853SOL    HW235019   2.384   1.998   4.376 -1.2904 -1.2289  3.2606
 7854SOL     OW35020   0.487   0.038   8.725  0.1356 -0.1242 -0.0512
 7854SOL    HW135021   0.526   0.101   8.786  0.5064 -0.4058  0.0001
 7854SOL    HW235022   0.399   0.074   8.715  0.0224 -0.3388  0.1845
 7855SOL     OW35023   2.241   2.815   8.362 -0.5601  0.0565 -0.1815
 7855SOL    HW135024   2.244   2.796   8.456  0.1224 -1.6098 -0.5519
 7855SOL    HW235025   2.257   2.909   8.373  0.7839  0.0897 -2.3580
 7856SOL     OW35026   4.347   3.579   6.310  0.5414 -0.2636  0.3814
 7856SOL    HW135027   4.277   3.538   6.260  0.5091 -0.1659  0.3483
 7856SOL    HW235028   4.352   3.511   6.378  0.1294  0.3465  1.0270
 7857SOL     OW35029   0.990   3.288   9.095  0.0319  0.5862  0.8631
 7857SOL    HW135030   1.026   3.318   9.012 -1.1737  0.4626  0.2980
 7857SOL    HW235031   1.036   3.205   9.108 -0.7296 -0.0212 -0.3354
 7858SOL     OW35032   2.557   2.660  16.422  0.4559  0.4915 -0.4311
 7858SOL    HW135033   2.623   2.726  16.401 -0.7192  1.1842 -1.9992
 7858SOL    HW235034   2.507   2.697  16.495 -2.0719 -2.9477 -0.4288
 7859SOL     OW35035   0.879   0.243   4.459  0.1359  0.4514 -0.0757
 7859SOL    HW135036   0.918   0.326   4.433  1.9654  0.0153  1.3088
 7859SOL    HW235037   0.879   0.199   4.374  0.4457  2.7740 -1.2845
 7860SOL     OW35038   0.985   4.040  13.157  0.2732  0.0879  0.1566
 7860SOL    HW135039   0.895   4.071  13.153  0.2660 -0.0232 -0.5617
 7860SOL    HW235040   1.013   4.057  13.067  0.1258  1.7506  0.4298
 7861SOL     OW35041   1.540   2.987  14.536  0.5180  0.1942  0.5214
 7861SOL    HW135042   1.533   3.043  14.459 -0.1276  1.0796  1.2277
 7861SOL    HW235043   1.487   3.044  14.591 -0.9802 -2.2706  1.6504
 7862SOL     OW35044   3.033   0.133   4.416  0.3815 -0.3976 -0.6766
 7862SOL    HW135045   3.025   0.066   4.484 -1.9683  0.3694 -0.1997
 7862SOL    HW235046   3.055   0.083   4.338  0.9158 -1.8992  0.4198
 7863SOL     OW35047   3.567   1.704   8.385 -0.5341 -0.6587 -0.1020
 7863SOL    HW135048   3.490   1.722   8.331  1.1329  1.7923 -1.6477
 7863SOL    HW235049   3.626   1.645   8.337 -2.0172 -2.7589  0.6849
 7864SOL     OW35050   0.765   1.249   4.194  0.6763 -0.3156  0.1283
 7864SOL    HW135051   0.812   1.281   4.117 -0.2697 -2.6309 -1.4014
 7864SOL    HW235052   0.695   1.312   4.215  1.8048  0.7795  0.6248
 7865SOL     OW35053   1.300   3.827   4.152 -0.3536  0.3155 -0.0592
 7865SOL    HW135054   1.382   3.842   4.200 -0.7679 -0.4200  0.8671
 7865SOL    HW235055   1.286   3.907   4.100 -0.3511  0.3196 -0.0536
 7866SOL     OW35056   4.342   2.846   6.363  0.1633 -0.4564 -0.0194
 7866SOL    HW135057   4.248   2.865   6.359  0.2247 -0.0192  0.7051
 7866SOL    HW235058   4.349   2.751   6.379  1.0004 -0.5383 -0.8612
 7867SOL     OW35059   3.041   3.117   9.729  0.5787 -0.4354  0.2263
 7867SOL    HW135060   3.100   3.182   9.768  0.9745 -1.0204  0.5966
 7867SOL    HW235061   2.967   3.113   9.790  0.4003  0.5969  0.0861
 7868SOL     OW35062   2.559   0.783  11.478 -0.1981 -0.9549 -0.3529
 7868SOL    HW135063   2.565   0.825  11.392 -3.5219  0.7738  0.2829
 7868SOL    HW235064   2.575   0.856  11.537  1.7385 -0.7805 -1.0684
 7869SOL     OW35065   1.670   1.696   5.025 -1.0376  0.3023  0.0277
 7869SOL    HW135066   1.745   1.739   4.984 -0.3555 -2.0661 -1.2442
 7869SOL    HW235067   1.652   1.759   5.094  0.5655  0.2124  0.5346
 7870SOL     OW35068   0.498   2.864   1.963  0.3856 -0.1042  0.4341
 7870SOL    HW135069   0.464   2.914   2.037 -1.3286  0.6257 -0.8616
 7870SOL    HW235070   0.536   2.786   2.005 -0.6888 -1.1880 -0.6014
 7871SOL     OW35071   4.229   0.303  15.278 -0.4782  0.3268 -0.2355
 7871SOL    HW135072   4.299   0.249  15.315  0.7096  0.7011 -1.9421
 7871SOL    HW235073   4.249   0.389  15.315 -1.5603  0.8494 -0.8633
 7872SOL     OW35074   2.862   4.635   3.244 -0.5541 -0.2506  0.1881
 7872SOL    HW135075   2.933   4.699   3.235 -2.1798  1.7604  1.4726
 7872SOL    HW235076   2.903   4.553   3.218 -1.3770 -0.2309 -1.1763
 7873SOL     OW35077   1.353   1.438   4.803 -0.2204 -0.4121  0.0286
 7873SOL    HW135078   1.422   1.399   4.856 -0.1962  0.5424  0.7037
 7873SOL    HW235079   1.351   1.526   4.839  1.9075 -0.0269 -0.7640
 7874SOL     OW35080   3.118   2.113   5.648 -0.0967 -0.5619  0.3520
 7874SOL    HW135081   3.064   2.154   5.717  0.7583  0.4125  0.4458
 7874SOL    HW235082   3.163   2.193   5.620 -0.0421 -0.9800 -0.7306
 7875SOL     OW35083   0.332   1.178   5.365  0.1345 -0.2476  0.2781
 7875SOL    HW135084   0.354   1.086   5.379 -0.3195 -0.5711 -1.1862
 7875SOL    HW235085   0.291   1.199   5.450 -1.1356  0.3549 -0.4810
 7876SOL     OW35086   3.204   3.620   4.766  0.1905  0.1601  0.0229
 7876SOL    HW135087   3.300   3.629   4.764  0.2777 -0.7362  0.4072
 7876SOL    HW235088   3.180   3.673   4.842 -0.9785 -1.3541  0.6934
 7877SOL     OW35089   1.795   4.523   2.947  0.1158 -0.3297  0.0887
 7877SOL    HW135090   1.708   4.486   2.934 -0.0286  0.7296 -1.8880
 7877SOL    HW235091   1.844   4.456   2.994 -0.7169 -1.7969 -1.1380
 7878SOL     OW35092   4.191   0.638   7.246  0.1777 -0.5190 -0.0229
 7878SOL    HW135093   4.159   0.551   7.221 -1.1325  0.0657 -0.4045
 7878SOL    HW235094   4.277   0.626   7.206 -0.1766  2.0090 -1.5255
 7879SOL     OW35095   0.298   0.930   8.038 -0.1905  0.0034  0.4456
 7879SOL    HW135096   0.240   0.861   8.005 -0.1233  1.3996 -2.6125
 7879SOL    HW235097   0.366   0.919   7.971 -1.6064  0.2026 -1.0421
 7880SOL     OW35098   2.462   2.933   3.811  0.2689 -0.0868  0.3846
 7880SOL    HW135099   2.410   2.946   3.890  1.5404  1.8388  0.8809
 7880SOL    HW235100   2.547   2.964   3.840  1.0013 -1.1638 -0.6060
 7881SOL     OW35101   3.067   1.419   3.841 -0.3773 -0.2539 -0.7270
 7881SOL    HW135102   3.048   1.503   3.797  2.4480  0.6604 -0.2046
 7881SOL    HW235103   3.155   1.440   3.873 -1.1605  1.1782  0.5373
 7882SOL     OW35104   3.150   0.310   4.204 -0.5374 -0.2025 -0.6953
 7882SOL    HW135105   3.138   0.272   4.291  0.2555  2.8130  0.7248
 7882SOL    HW235106   3.061   0.337   4.181 -0.3814  0.5272 -0.4477
 7883SOL     OW35107   2.344   4.255   7.720  0.2834 -0.4685 -0.0211
 7883SOL    HW135108   2.433   4.252   7.755  0.5057  0.6498 -0.4778
 7883SOL    HW235109   2.297   4.223   7.797  2.1794 -0.6650  1.0361
 7884SOL     OW35110   1.248   2.543   1.401 -0.2726 -0.3434 -0.4230
 7884SOL    HW135111   1.262   2.637   1.410 -1.9354 -0.1610  0.2827
 7884SOL    HW235112   1.187   2.529   1.328  0.5901 -2.2777 -0.7608
 7885SOL     OW35113   2.234   3.289   6.145 -0.2225 -0.4029 -0.2663
 7885SOL    HW135114   2.236   3.384   6.135  0.1056 -0.1880  1.9008
 7885SOL    HW235115   2.235   3.267   6.052  0.5540  2.5150 -0.9590
 7886SOL     OW35116   0.059   4.045  15.808  0.1265 -0.0472 -0.1771
 7886SOL    HW135117   0.093   4.060  15.720  0.6029 -1.4349 -0.2389
 7886SOL    HW235118   0.037   3.952  15.806  1.1827 -0.2802 -0.8791
 7887SOL     OW35119   4.163   4.586   0.422  1.1394  0.3587  0.3144
 7887SOL    HW135120   4.226   4.541   0.478  0.1570 -1.5582 -0.1248
 7887SOL    HW235121   4.119   4.514   0.377 -0.8394 -0.2979  3.2996
 7888SOL     OW35122   0.846   1.958   2.357 -0.6159 -0.2983 -0.5159
 7888SOL    HW135123   0.846   2.029   2.422 -0.9093 -0.5769 -0.2085
 7888SOL    HW235124   0.924   1.964   2.302  0.0386  0.4456  0.4969
 7889SOL     OW35125   1.794   2.025   5.964  0.1439  0.1856 -0.4422
 7889SOL    HW135126   1.830   2.021   6.052  2.1569  0.5859 -1.2668
 7889SOL    HW235127   1.824   2.114   5.948  0.0082  0.4056  0.5524
 7890SOL     OW35128   4.438   0.614  13.871 -0.2140 -0.4925 -0.4680
 7890SOL    HW135129   4.409   0.677  13.805 -1.9054 -0.0485  0.7005
 7890SOL    HW235130   4.486   0.677  13.925 -0.7444  1.2235 -1.9921
 7891SOL     OW35131   0.459   0.250   6.257 -0.0178  0.1072 -0.0773
 7891SOL    HW135132   0.534   0.303   6.284  0.2718  0.0906 -0.8516
 7891SOL    HW235133   0.487   0.200   6.180  0.1222 -0.1422  0.1351
 7892SOL     OW35134   2.055   0.371  10.538 -0.6858  0.0682  0.2747
 7892SOL    HW135135   2.129   0.395  10.594  0.3920 -1.0396 -0.6717
 7892SOL    HW235136   2.028   0.297  10.592  1.1883 -0.7006  0.1474
 7893SOL     OW35137   4.563   1.601   4.652 -0.1199  0.2809  0.3283
 7893SOL    HW135138   4.496   1.534   4.642 -1.1290  1.0648  1.7997
 7893SOL    HW235139   4.587   1.630   4.563  0.1286 -1.0868 -0.0391
 7894SOL     OW35140   4.159   3.507  17.601  0.7381 -0.2882 -0.0366
 7894SOL    HW135141   4.224   3.504  17.670 -0.3396 -1.6092  0.9235
 7894SOL    HW235142   4.117   3.592  17.616 -0.9091 -1.1770  0.4176
 7895SOL     OW35143   4.614   1.083  14.462  0.3844  0.0445  0.7610
 7895SOL    HW135144   4.537   1.077  14.518  0.3413  1.0621  0.8026
 7895SOL    HW235145   4.683   1.093  14.528  0.6976  1.1886  0.2610
 7896SOL     OW35146   2.043   4.132   3.668  0.1891  0.3232  0.2164
 7896SOL    HW135147   1.977   4.193   3.634  0.3885  0.0051 -0.7372
 7896SOL    HW235148   2.069   4.084   3.589 -1.7371 -0.9418  0.3473
 7897SOL     OW35149   2.921   0.848  16.002  0.2696 -0.0584  0.3696
 7897SOL    HW135150   2.966   0.903  15.939 -1.6690 -2.4707 -3.1118
 7897SOL    HW235151   2.899   0.912  16.069 -2.1378 -0.8101  0.3117
 7898SOL     OW35152   0.576   2.760   4.240  0.0369 -0.1217 -0.0470
 7898SOL    HW135153   0.651   2.819   4.244 -0.9106  0.9426  1.7547
 7898SOL    HW235154   0.503   2.821   4.240  0.2408  0.1230 -0.0107
 7899SOL     OW35155   0.205   1.368   5.051 -0.1962 -0.0686 -0.3100
 7899SOL    HW135156   0.172   1.278   5.049  0.9006 -0.4632 -0.5984
 7899SOL    HW235157   0.177   1.403   4.966 -1.0825 -0.8946 -0.3620
 7900SOL     OW35158   2.482   3.148   3.987 -0.0884  0.5458  0.4866
 7900SOL    HW135159   2.474   3.216   3.920 -0.8766  1.0494  1.0864
 7900SOL    HW235160   2.394   3.111   3.985 -0.6112  1.6366  2.5812
 7901SOL     OW35161   4.529   1.271   3.415 -0.1172 -0.2180  0.2593
 7901SOL    HW135162   4.515   1.352   3.464 -2.6782 -0.3428 -0.2149
 7901SOL    HW235163   4.451   1.257   3.361 -1.1861 -0.1200  1.7470
 7902SOL     OW35164   3.180   0.995   6.647  0.4748 -0.1589 -0.4736
 7902SOL    HW135165   3.194   1.075   6.597  1.5487  1.8904  3.1194
 7902SOL    HW235166   3.121   0.948   6.588  0.5768 -0.0077 -0.6955
 7903SOL     OW35167   2.276   3.403   7.274  0.3597 -0.2816  0.3496
 7903SOL    HW135168   2.370   3.410   7.260  0.3430 -1.1432 -0.1556
 7903SOL    HW235169   2.241   3.384   7.187  1.2502  1.5691 -0.4180
 7904SOL     OW35170   1.049   0.577  14.300  0.0811 -0.3047  0.1991
 7904SOL    HW135171   1.083   0.623  14.224  0.9551 -1.5565 -0.1674
 7904SOL    HW235172   1.011   0.500  14.259  0.1781 -0.6206  0.7008
 7905SOL     OW35173   3.899   0.476   3.225 -0.2064 -0.2499  0.7126
 7905SOL    HW135174   3.820   0.499   3.274  0.2537  0.8594  0.9301
 7905SOL    HW235175   3.965   0.500   3.290  0.4767  0.2245 -0.1522
 7906SOL     OW35176   1.743   2.549   5.518  0.1351 -0.5251  0.5520
 7906SOL    HW135177   1.801   2.476   5.496 -1.3065 -1.4243 -0.2796
 7906SOL    HW235178   1.675   2.505   5.570  0.7236 -1.4581  0.5238
 7907SOL     OW35179   1.049   2.357   4.898 -0.3996 -0.0397  0.0614
 7907SOL    HW135180   1.032   2.369   4.991 -2.8250 -1.7313 -0.1670
 7907SOL    HW235181   1.145   2.354   4.909 -0.1260  3.9280 -1.3236
 7908SOL     OW35182   1.465   1.132   5.886 -0.1158  0.4670 -0.5843
 7908SOL    HW135183   1.455   1.154   5.794  1.1447  0.3255 -0.7503
 7908SOL    HW235184   1.457   1.215   5.933 -0.3503  0.0303  0.1463
 7909SOL     OW35185   2.512   3.709   6.155  0.8531 -0.0497  0.1182
 7909SOL    HW135186   2.519   3.803   6.142 -0.0029  0.3012  2.1633
 7909SOL    HW235187   2.420   3.715   6.183  0.8023 -2.7025  0.5755
 7910SOL     OW35188   4.060   0.934   6.211 -0.4393 -0.1703 -0.5601
 7910SOL    HW135189   4.136   0.896   6.167 -1.4224  0.4415 -2.7773
 7910SOL    HW235190   4.104   0.995   6.271 -0.3582 -2.1325  1.3696
 7911SOL     OW35191   3.161   1.262   9.543 -0.7209  0.0022  0.1220
 7911SOL    HW135192   3.167   1.357   9.555  0.7684 -0.0781 -0.0423
 7911SOL    HW235193   3.253   1.244   9.526 -0.9117 -0.2686 -0.6259
 7912SOL     OW35194   1.710   2.568   3.483  0.5404 -0.5777 -0.5312
 7912SOL    HW135195   1.632   2.580   3.429  0.6364 -0.5282 -0.6601
 7912SOL    HW235196   1.707   2.472   3.489 -1.1323 -0.4449  0.7976
 7913SOL     OW35197   3.670   3.778   3.865  0.3199  0.1917 -0.2587
 7913SOL    HW135198   3.646   3.703   3.810 -1.7570  2.1580 -2.0252
 7913SOL    HW235199   3.598   3.838   3.847  0.0594 -0.1975 -0.5379
 7914SOL     OW35200   2.560   4.557  12.148 -0.1900 -0.0655  0.2100
 7914SOL    HW135201   2.580   4.511  12.229  0.6579 -0.6700 -0.3352
 7914SOL    HW235202   2.650   4.562  12.116 -0.9625  0.8386 -1.8769
 7915SOL     OW35203   1.198   4.175   6.448  0.0221 -0.1717  0.5677
 7915SOL    HW135204   1.191   4.256   6.498 -0.9637  0.1038 -0.0096
 7915SOL    HW235205   1.117   4.173   6.396  0.8169 -4.5692 -0.4867
 7916SOL     OW35206   3.733   2.994  11.982 -0.3445  0.7469  0.9808
 7916SOL    HW135207   3.703   3.047  11.908  1.0683 -2.6607 -1.9871
 7916SOL    HW235208   3.749   3.068  12.041  0.8377  0.0306  1.5428
 7917SOL     OW35209   0.937   2.219   3.812 -0.6078 -0.0628 -0.2804
 7917SOL    HW135210   0.940   2.291   3.875  0.4393 -0.2738 -0.0882
 7917SOL    HW235211   1.029   2.193   3.818 -0.4638  0.2950 -1.0215
 7918SOL     OW35212   4.008   2.751  10.493 -0.1227 -0.1362  0.8191
 7918SOL    HW135213   4.015   2.721  10.402 -2.5259 -1.9746  1.2234
 7918SOL    HW235214   4.061   2.683  10.534 -0.3954 -1.1514 -0.5056
 7919SOL     OW35215   0.990   3.852  14.700 -0.0506 -0.3409  0.0287
 7919SOL    HW135216   1.083   3.854  14.678 -0.5456  3.0481 -1.5991
 7919SOL    HW235217   0.965   3.762  14.680 -1.1374 -0.4612  1.8928
 7920SOL     OW35218   2.970   1.805   0.278  0.5310 -0.2426  0.2531
 7920SOL    HW135219   2.895   1.818   0.221  0.4878  2.1638  0.8346
 7920SOL    HW235220   2.947   1.839   0.364 -1.1605 -0.3246 -0.1735
 7921SOL     OW35221   2.115   2.450   7.667  0.4443  0.0882  0.2507
 7921SOL    HW135222   2.100   2.409   7.581 -0.8115  0.1962  0.4273
 7921SOL    HW235223   2.186   2.396   7.702  1.3808  1.1528 -0.0355
 7922SOL     OW35224   0.633   3.858   1.905 -0.2889 -0.5031 -0.0997
 7922SOL    HW135225   0.612   3.767   1.928  0.4429 -0.3470  1.1364
 7922SOL    HW235226   0.712   3.845   1.853 -1.1569  0.3636 -1.6326
 7923SOL     OW35227   1.889   1.941  10.877  0.4895  0.6627  0.2173
 7923SOL    HW135228   1.806   1.950  10.923  1.1809  2.9648  0.9689
 7923SOL    HW235229   1.874   1.919  10.785 -1.8168 -0.3329  0.8317
 7924SOL     OW35230   0.710   3.829   7.893 -0.0227 -0.1676 -0.0210
 7924SOL    HW135231   0.794   3.794   7.922 -0.6369 -1.1009  0.6099
 7924SOL    HW235232   0.733   3.897   7.830  2.3718 -1.2327 -0.2732
 7925SOL     OW35233   3.484   3.193   7.622  0.0546  0.4668  0.1572
 7925SOL    HW135234   3.470   3.102   7.595  0.0348  0.7452 -0.7649
 7925SOL    HW235235   3.498   3.217   7.531 -2.5069  0.3102 -0.2790
 7926SOL     OW35236   0.542   4.460  16.947 -0.0382  0.1811  0.4255
 7926SOL    HW135237   0.525   4.456  17.041 -0.9313 -2.2423  0.1802
 7926SOL    HW235238   0.549   4.366  16.931  0.0546  0.1859  0.4402
 7927SOL     OW35239   4.611   4.264   4.621 -0.2717 -0.3014  0.1375
 7927SOL    HW135240   4.568   4.333   4.672  0.0280 -1.4896  2.0291
 7927SOL    HW235241   4.662   4.234   4.697 -1.4663 -0.6825  0.7953
 7928SOL     OW35242   0.884   3.408   0.949 -0.0440  0.4996  0.3104
 7928SOL    HW135243   0.895   3.485   0.893 -0.5309  0.1218 -0.3144
 7928SOL    HW235244   0.829   3.435   1.023 -0.2527  0.1430  0.2878
 7929SOL     OW35245   0.292   1.740  15.852  0.2571  0.4234  0.1478
 7929SOL    HW135246   0.296   1.834  15.867  2.2219  0.6347 -1.6365
 7929SOL    HW235247   0.381   1.706  15.859  0.1114  0.2393  1.0259
 7930SOL     OW35248   3.634   2.981   7.473  0.4309  0.4100 -0.1884
 7930SOL    HW135249   3.719   3.022   7.457  1.2932 -0.7332  1.4447
 7930SOL    HW235250   3.653   2.891   7.497 -1.1407  0.2913  0.5899
 7931SOL     OW35251   0.183   4.060   1.669 -0.2824 -0.5005  0.2683
 7931SOL    HW135252   0.251   4.005   1.706  0.1461 -0.4767 -0.4875
 7931SOL    HW235253   0.243   4.121   1.625  0.5283  0.3923  2.6146
 7932SOL     OW35254   2.419   0.232   9.649 -0.0401 -0.3638 -0.0086
 7932SOL    HW135255   2.447   0.165   9.586  2.3428  0.7831 -0.1929
 7932SOL    HW235256   2.355   0.278   9.595 -0.5229 -1.8521 -0.6849
 7933SOL     OW35257   3.372   4.118   2.025 -0.1395  0.2488  0.0156
 7933SOL    HW135258   3.457   4.109   1.983  0.2152 -1.8497  1.1594
 7933SOL    HW235259   3.403   4.124   2.115  1.1246 -0.3219 -0.3832
 7934SOL     OW35260   4.551   0.405   5.152 -0.0478 -0.0093  0.3122
 7934SOL    HW135261   4.504   0.341   5.098  1.3088 -0.1672 -0.6730
 7934SOL    HW235262   4.605   0.442   5.082  0.6734 -0.9275  0.3907
 7935SOL     OW35263   0.843   2.066   8.873  0.8374 -0.2236  0.1850
 7935SOL    HW135264   0.797   2.149   8.859 -2.6882 -2.3330 -0.6461
 7935SOL    HW235265   0.927   2.094   8.909 -0.6939 -0.2939  3.8637
 7936SOL     OW35266   3.367   0.972   8.306  0.7264  0.0041  0.7617
 7936SOL    HW135267   3.393   1.048   8.358  1.0566 -0.9023  1.9166
 7936SOL    HW235268   3.375   0.898   8.366 -1.5123 -0.3374  0.6295
 7937SOL     OW35269   0.760   4.035   8.143  0.2756 -0.1605 -0.0134
 7937SOL    HW135270   0.855   4.023   8.149  0.2731  0.1812  0.7585
 7937SOL    HW235271   0.723   3.966   8.088 -0.6966  0.9262 -0.7088
 7938SOL     OW35272   4.186   3.632  14.664 -0.3577 -0.2813 -0.3229
 7938SOL    HW135273   4.226   3.678  14.589  1.4219 -0.7131  0.3535
 7938SOL    HW235274   4.236   3.669  14.737  0.9482 -0.6120 -1.0507
 7939SOL     OW35275   4.602   2.971  16.800  0.3539 -0.0194 -0.0174
 7939SOL    HW135276   4.650   2.890  16.787 -1.9848 -1.4284  0.1485
 7939SOL    HW235277   4.589   2.998  16.709  2.7588 -0.4136 -0.4774
 7940SOL     OW35278   1.359   2.416  15.260  0.5082 -0.6536 -0.0463
 7940SOL    HW135279   1.417   2.492  15.265 -1.9918  1.2369  0.2747
 7940SOL    HW235280   1.308   2.417  15.341 -0.1789 -2.3608 -0.4596
 7941SOL     OW35281   2.583   0.408  13.876 -0.2662  0.5867  0.3404
 7941SOL    HW135282   2.660   0.438  13.828  0.2652  2.2235  2.2199
 7941SOL    HW235283   2.617   0.376  13.959  1.0470  0.1341 -0.3563
 7942SOL     OW35284   3.949   3.515   8.011  0.1134  0.3501  0.1768
 7942SOL    HW135285   3.965   3.445   8.074 -0.0436  0.1029 -0.0592
 7942SOL    HW235286   3.896   3.465   7.950  1.1506  0.6701 -1.0000
 7943SOL     OW35287   0.747   3.042   1.370 -0.2645  0.2494  0.4584
 7943SOL    HW135288   0.765   2.957   1.329 -1.1312 -0.1089  0.8191
 7943SOL    HW235289   0.657   3.036   1.401 -0.5029 -3.0702 -0.8819
 7944SOL     OW35290   3.198   3.135   4.365 -0.3149  1.2895 -0.0771
 7944SOL    HW135291   3.116   3.150   4.318 -0.4398  0.7274 -0.0461
 7944SOL    HW235292   3.248   3.091   4.296 -1.5044 -0.0288 -0.1182
 7945SOL     OW35293   4.618   4.192   1.712 -0.4981  0.1901  0.4972
 7945SOL    HW135294   4.569   4.244   1.775  0.6938  1.2789  0.5375
 7945SOL    HW235295   4.706   4.217   1.740  0.4503  2.0041 -3.8991
 7946SOL     OW35296   4.069   2.809  10.830 -0.0143  0.5692 -0.6207
 7946SOL    HW135297   4.163   2.794  10.844 -0.3006 -0.0589  0.6422
 7946SOL    HW235298   4.054   2.821  10.736  0.6384  1.2534 -0.6386
 7947SOL     OW35299   1.476   2.206  15.141  0.2313 -0.0468  0.6067
 7947SOL    HW135300   1.447   2.282  15.191 -0.9251  1.6555 -2.5983
 7947SOL    HW235301   1.471   2.226  15.047  0.0837 -1.3524  0.3348
 7948SOL     OW35302   3.760   2.488   6.645 -0.0443 -0.1005 -1.1360
 7948SOL    HW135303   3.787   2.515   6.733  1.3313 -0.3559 -1.4888
 7948SOL    HW235304   3.824   2.539   6.597  1.7183 -1.7074 -0.4991
 7949SOL     OW35305   3.573   2.000   5.593 -0.1615 -0.1771 -1.0228
 7949SOL    HW135306   3.619   1.972   5.672  0.2982  0.1255 -1.1856
 7949SOL    HW235307   3.492   1.949   5.591 -1.3896  1.7985 -1.6727
 7950SOL     OW35308   3.220   1.190   6.451 -0.3260 -0.0164  0.1060
 7950SOL    HW135309   3.217   1.136   6.372  0.9710 -0.3881  0.2996
 7950SOL    HW235310   3.274   1.261   6.416  0.7308 -1.0820 -0.4297
 7951SOL     OW35311   3.624   0.192   6.740  0.8152  0.0800 -0.3419
 7951SOL    HW135312   3.540   0.201   6.786  0.5166  2.1179 -1.2740
 7951SOL    HW235313   3.608   0.112   6.690  0.5450  1.3227 -2.2674
 7952SOL     OW35314   2.620   1.745  14.993 -0.1680 -0.5433 -0.1002
 7952SOL    HW135315   2.552   1.710  15.051  1.1704 -0.5372  1.4890
 7952SOL    HW235316   2.603   1.838  15.010 -0.8120 -0.1371 -3.0008
 7953SOL     OW35317   2.650   0.767   5.737  0.1419  0.0743 -0.1736
 7953SOL    HW135318   2.702   0.690   5.758 -2.1620 -1.0568  1.3468
 7953SOL    HW235319   2.597   0.762   5.817  2.5364  0.2093  1.4022
 7954SOL     OW35320   2.037   0.299   6.706  0.3034 -0.2294  0.2385
 7954SOL    HW135321   1.971   0.361   6.675  0.2638 -1.0668 -1.3508
 7954SOL    HW235322   1.993   0.260   6.781  1.0919 -0.2088  0.7082
 7955SOL     OW35323   2.135   1.700   4.283 -0.1642  0.1011 -0.5266
 7955SOL    HW135324   2.060   1.734   4.332  0.3858  2.0885 -1.0761
 7955SOL    HW235325   2.110   1.609   4.265  0.1130  0.2029 -1.4028
 7956SOL     OW35326   3.789   2.649  10.098 -0.8532  0.0831  0.1763
 7956SOL    HW135327   3.714   2.677  10.149 -0.8962 -1.3549  0.9027
 7956SOL    HW235328   3.855   2.623  10.162 -0.4580 -2.9169 -1.4213
 7957SOL     OW35329   3.608   0.283   7.688  0.1721  0.3474 -0.1639
 7957SOL    HW135330   3.612   0.231   7.769 -4.7327  0.2624  0.0311
 7957SOL    HW235331   3.515   0.291   7.667 -0.2021  0.7867  1.6257
 7958SOL     OW35332   4.411   0.787  10.031  0.1493  0.0363  0.5601
 7958SOL    HW135333   4.341   0.828  10.081  0.3218  0.5812  0.3563
 7958SOL    HW235334   4.457   0.746  10.104 -1.6947 -0.6008  1.3646
 7959SOL     OW35335   0.597   3.336   3.046 -0.1010 -0.6466  0.4115
 7959SOL    HW135336   0.602   3.241   3.054  1.0925 -0.6840 -0.7576
 7959SOL    HW235337   0.513   3.335   3.000 -1.2872 -1.0324  2.5919
 7960SOL     OW35338   2.239   3.397   2.887  0.5384 -0.3416 -0.5474
 7960SOL    HW135339   2.164   3.421   2.941  1.3516  0.2522  0.3292
 7960SOL    HW235340   2.224   3.461   2.818 -1.7264  0.5626  0.7874
 7961SOL     OW35341   3.425   3.391   8.534  0.2494 -0.5697  0.4481
 7961SOL    HW135342   3.516   3.420   8.528  1.0068 -3.2859 -1.5166
 7961SOL    HW235343   3.375   3.468   8.561  1.2457 -0.1651  1.1497
 7962SOL     OW35344   1.293   2.067  15.390 -0.4739  0.2162  0.2224
 7962SOL    HW135345   1.346   2.076  15.310 -0.0940 -1.9747  0.2344
 7962SOL    HW235346   1.288   2.157  15.422  0.1109  1.0206 -1.9344
 7963SOL     OW35347   1.375   4.426   5.600  0.0364  0.7053 -0.0688
 7963SOL    HW135348   1.388   4.488   5.528  0.7515  1.4461  0.7092
 7963SOL    HW235349   1.291   4.384   5.578  0.0721  1.7905 -2.3017
 7964SOL     OW35350   0.273   1.483   7.202  0.5780  0.2840 -0.0390
 7964SOL    HW135351   0.349   1.521   7.246  0.5688  2.6035 -2.0474
 7964SOL    HW235352   0.241   1.414   7.260  1.5733  0.1257  0.3212
 7965SOL     OW35353   1.352   1.332  16.204 -0.1867  0.0430  0.3521
 7965SOL    HW135354   1.264   1.354  16.233 -0.6647 -1.0782 -0.2512
 7965SOL    HW235355   1.367   1.270  16.276  0.9733  0.4697  0.4829
 7966SOL     OW35356   4.652   3.296   9.225 -0.5468  0.8903  0.0865
 7966SOL    HW135357   4.687   3.212   9.255 -0.5689 -0.0594 -2.5215
 7966SOL    HW235358   4.575   3.274   9.173  1.9134  0.6844 -3.5105
 7967SOL     OW35359   1.637   1.301   2.451  0.1399  0.5036 -0.2718
 7967SOL    HW135360   1.710   1.349   2.489  0.4209  0.3085 -0.5741
 7967SOL    HW235361   1.561   1.359   2.461 -1.3108 -1.3587 -0.3513
 7968SOL     OW35362   1.116   0.322   6.001  0.2576  0.0441  0.6816
 7968SOL    HW135363   1.056   0.342   5.929  0.4516  1.8927  1.0321
 7968SOL    HW235364   1.164   0.405   5.999 -0.2486  0.3449  1.2360
 7969SOL     OW35365   3.168   4.033   8.414  0.1512  0.1533  0.0424
 7969SOL    HW135366   3.146   4.121   8.445  1.3668  0.9172 -1.2831
 7969SOL    HW235367   3.111   4.041   8.338 -0.4435 -1.2813  0.3332
 7970SOL     OW35368   3.528   4.286  14.662  0.1542 -0.5007  0.0319
 7970SOL    HW135369   3.466   4.250  14.725 -0.1939  0.4358  0.2371
 7970SOL    HW235370   3.473   4.364  14.649 -0.5329 -0.7454  1.4243
 7971SOL     OW35371   3.435   4.470   6.084  0.0869  0.6719 -0.0221
 7971SOL    HW135372   3.438   4.447   6.177 -0.8245  0.0976 -0.1316
 7971SOL    HW235373   3.463   4.561   6.082  1.5836  0.1600 -2.4994
 7972SOL     OW35374   3.426   3.204   2.592 -0.5292  0.0352 -0.1626
 7972SOL    HW135375   3.512   3.219   2.552 -0.9665 -0.6055 -1.3362
 7972SOL    HW235376   3.415   3.110   2.579 -0.0061 -0.3325  2.0430
 7973SOL     OW35377   0.916   0.167  16.801 -0.6817  0.1661 -0.5098
 7973SOL    HW135378   0.922   0.254  16.761 -0.5768 -0.0604 -0.9900
 7973SOL    HW235379   0.822   0.154  16.809 -0.6819  0.3073 -0.2794
 7974SOL     OW35380   2.456   3.976   2.611  0.0367 -0.3139 -0.4873
 7974SOL    HW135381   2.477   3.885   2.590 -0.9090 -0.7391  0.3825
 7974SOL    HW235382   2.389   3.992   2.545 -1.7422 -0.1484  1.3478
 7975SOL     OW35383   3.268   0.864   5.988  0.4516  0.3186  0.2552
 7975SOL    HW135384   3.285   0.933   5.924 -0.3440  1.8405  1.6715
 7975SOL    HW235385   3.188   0.837   5.944  1.3462 -1.8681 -0.0239
 7976SOL     OW35386   0.952   0.062  12.473  0.6145 -0.9689  0.1567
 7976SOL    HW135387   0.883   0.112  12.429  2.2898  2.2709  1.2455
 7976SOL    HW235388   0.975   0.015  12.392 -0.8535  0.0020 -0.8204
 7977SOL     OW35389   1.009   4.078   1.942  0.0933  0.1905 -0.0022
 7977SOL    HW135390   0.963   4.132   1.878  0.8022 -1.6173 -2.0508
 7977SOL    HW235391   1.086   4.134   1.947 -0.8077  1.4234 -0.1522
 7978SOL     OW35392   0.048   0.939   6.108 -0.3254  0.3028 -0.2767
 7978SOL    HW135393   4.687   0.892   6.090  0.3837 -0.6460 -1.0896
 7978SOL    HW235394   0.033   0.952   6.201 -1.6730 -0.8670 -0.3276
 7979SOL     OW35395   4.376   4.479   2.361 -0.7182 -0.0871  0.7296
 7979SOL    HW135396   4.362   4.570   2.336 -1.3984 -0.7286 -1.2752
 7979SOL    HW235397   4.437   4.472   2.434  0.3962  0.5763 -0.1478
 7980SOL     OW35398   3.176   2.570   9.337  0.1109  0.6607  0.1330
 7980SOL    HW135399   3.187   2.653   9.383 -2.2657  1.1069 -0.1002
 7980SOL    HW235400   3.168   2.503   9.405 -0.4530  1.0803  0.4826
 7981SOL     OW35401   4.417   4.529   7.922 -0.0020 -0.2215 -0.3494
 7981SOL    HW135402   4.324   4.540   7.902  0.7236  3.9697 -1.3761
 7981SOL    HW235403   4.433   4.566   8.009  0.4715  0.7439 -0.8512
 7982SOL     OW35404   0.843   1.159   2.830 -0.3018  0.0317 -0.3332
 7982SOL    HW135405   0.831   1.154   2.925 -2.2918  0.1750 -0.5808
 7982SOL    HW235406   0.754   1.184   2.806  0.0790  0.7683 -1.0064
 7983SOL     OW35407   2.089   2.581   1.055 -0.7010  0.4410 -0.2588
 7983SOL    HW135408   2.036   2.547   1.127  1.3082 -0.9871  0.5306
 7983SOL    HW235409   2.029   2.550   0.987  1.6857  0.3429 -2.3204
 7984SOL     OW35410   2.460   3.961  11.568 -0.1718 -0.0751  0.1197
 7984SOL    HW135411   2.385   4.013  11.596  0.5248  0.6850  0.6078
 7984SOL    HW235412   2.494   3.923  11.649 -1.5582  0.9710  1.1782
 7985SOL     OW35413   2.650   4.249   3.740 -0.5632 -0.4452 -0.3877
 7985SOL    HW135414   2.696   4.286   3.665  2.4822 -1.4530  1.0099
 7985SOL    HW235415   2.666   4.155   3.734  0.4722 -0.2395 -0.8536
 7986SOL     OW35416   1.486   3.969  15.621  0.2882 -0.1926 -0.5896
 7986SOL    HW135417   1.415   3.996  15.680 -0.6359  0.5719 -2.0487
 7986SOL    HW235418   1.439   3.900  15.574 -1.8837  0.1190  1.1280
 7987SOL     OW35419   1.383   4.170  10.771 -0.6929 -0.2589 -0.2786
 7987SOL    HW135420   1.329   4.236  10.728 -1.9924 -1.2639 -0.1783
 7987SOL    HW235421   1.429   4.231  10.830 -0.3917 -1.9333  1.2164
 7988SOL     OW35422   4.094   3.066   8.891 -0.4581 -0.1381 -0.5461
 7988SOL    HW135423   4.119   3.044   8.980 -0.8597 -0.3763 -0.4912
 7988SOL    HW235424   4.174   3.055   8.840  0.3450  0.1693  0.6505
 7989SOL     OW35425   1.112   1.573  11.502  0.3196 -0.0160 -0.3652
 7989SOL    HW135426   1.073   1.495  11.541 -0.2658 -0.2678 -1.4331
 7989SOL    HW235427   1.131   1.534  11.416 -2.5363  0.5675 -1.2431
 7990SOL     OW35428   2.761   4.242   4.118  0.4864  0.3533  0.4789
 7990SOL    HW135429   2.739   4.171   4.178 -2.0598  1.6157  1.0559
 7990SOL    HW235430   2.681   4.260   4.067  0.3874  3.3356  1.6563
 7991SOL     OW35431   1.382   0.094  16.422 -0.5571  0.3541 -0.2452
 7991SOL    HW135432   1.374   0.182  16.386  0.6550  1.2407  1.6381
 7991SOL    HW235433   1.316   0.049  16.369  0.1227 -3.0125  1.7776
 7992SOL     OW35434   1.906   3.363   7.680  0.1069  0.2707 -0.3464
 7992SOL    HW135435   1.878   3.442   7.634  0.9329 -0.2594 -1.7530
 7992SOL    HW235436   1.925   3.296   7.615 -1.4831 -0.2199 -0.3024
 7993SOL     OW35437   3.384   2.453   6.281  0.5326  0.7187 -0.0889
 7993SOL    HW135438   3.367   2.374   6.334  3.2030 -0.9294 -1.7025
 7993SOL    HW235439   3.295   2.479   6.256 -0.3858 -2.4632 -0.1813
 7994SOL     OW35440   0.641   1.752   5.888 -0.2904 -0.1426  0.0481
 7994SOL    HW135441   0.616   1.696   5.962  0.0004 -0.3189  0.0125
 7994SOL    HW235442   0.558   1.739   5.841 -0.1599 -0.6556 -0.0502
 7995SOL     OW35443   3.478   2.054  16.475  0.3983  0.5263  0.0665
 7995SOL    HW135444   3.523   2.092  16.400 -2.4247 -0.6165 -2.2034
 7995SOL    HW235445   3.553   2.026  16.528 -0.0015  1.6948  1.2558
 7996SOL     OW35446   4.304   3.138   6.987 -0.7300  0.6415 -0.3733
 7996SOL    HW135447   4.307   3.052   6.945 -3.6493  2.2246 -3.7671
 7996SOL    HW235448   4.210   3.156   6.990 -0.5029  1.6814  0.4024
 7997SOL     OW35449   0.196   0.955   7.232 -0.2835  0.2541  0.1647
 7997SOL    HW135450   0.197   0.877   7.289  1.9592  0.2498  0.1217
 7997SOL    HW235451   0.102   0.967   7.226 -0.0534  0.0202 -3.6316
 7998SOL     OW35452   4.646   0.832   3.660  0.1855  0.0507  0.2949
 7998SOL    HW135453   4.704   0.880   3.720  1.3538 -2.0224  0.8387
 7998SOL    HW235454   4.577   0.894   3.637  0.6141  0.9985  1.5669
 7999SOL     OW35455   4.250   2.582   6.358  0.2349 -0.1630 -0.2682
 7999SOL    HW135456   4.279   2.510   6.413 -4.8020 -0.2231  2.3035
 7999SOL    HW235457   4.320   2.586   6.292 -0.1957  2.8838 -0.5314
 8000SOL     OW35458   2.673   3.781   4.313 -0.0728 -0.4464  0.0102
 8000SOL    HW135459   2.631   3.860   4.279  2.6164  1.0641  0.1513
 8000SOL    HW235460   2.760   3.818   4.296 -0.4719  0.0851 -0.8859
 8001SOL     OW35461   2.421   4.019   3.737 -0.3971 -0.3652 -0.4132
 8001SOL    HW135462   2.417   4.102   3.785 -0.7441 -0.4142 -0.3544
 8001SOL    HW235463   2.516   4.007   3.733 -0.7977 -2.7832 -2.2271
 8002SOL     OW35464   2.823   1.387   3.340 -0.1704  0.2887  0.1671
 8002SOL    HW135465   2.825   1.409   3.247 -0.6425  0.0949  0.1089
 8002SOL    HW235466   2.908   1.414   3.375 -0.2567  1.3469 -0.4571
 8003SOL     OW35467   2.346   1.045   8.438 -0.4834  0.8483  0.8566
 8003SOL    HW135468   2.275   1.082   8.385 -0.8472  0.8672  1.3645
 8003SOL    HW235469   2.362   0.960   8.397  0.7451  1.4101  0.1569
 8004SOL     OW35470   4.178   4.204   8.585  0.2542 -0.1260  0.0900
 8004SOL    HW135471   4.094   4.185   8.544 -0.6780  1.2691  1.3947
 8004SOL    HW235472   4.221   4.119   8.576  1.7538  0.9655 -3.1885
 8005SOL     OW35473   1.736   3.954  16.908 -0.2380 -0.0795 -0.2646
 8005SOL    HW135474   1.646   3.946  16.938  0.1002  0.2556  0.8277
 8005SOL    HW235475   1.773   3.874  16.946  0.3510  0.7974  1.0167
 8006SOL     OW35476   3.038   1.211   6.179  0.2636 -0.2310  0.0773
 8006SOL    HW135477   3.083   1.295   6.189 -1.5623  0.9656 -1.6553
 8006SOL    HW235478   3.117   1.167   6.147  0.1439 -0.5508  0.2285
 8007SOL     OW35479   2.089   3.620  12.808  0.1037 -0.3107  0.1810
 8007SOL    HW135480   2.160   3.655  12.754 -1.4839  2.2016 -0.2740
 8007SOL    HW235481   2.030   3.598  12.736 -0.7503 -1.5497  1.2491
 8008SOL     OW35482   1.014   2.890   9.338  0.0102  0.2021  0.0726
 8008SOL    HW135483   0.989   2.878   9.246  1.6709  2.4255 -0.6753
 8008SOL    HW235484   0.998   2.983   9.355 -0.5107 -0.1304  1.4274
 8009SOL     OW35485   2.334   2.407   5.997 -0.1845 -0.2069 -0.1567
 8009SOL    HW135486   2.342   2.477   5.932 -1.0628  0.5878  0.5785
 8009SOL    HW235487   2.257   2.358   5.968 -0.3814  0.4598 -0.7607
 8010SOL     OW35488   1.012   4.158  17.601  0.1757 -0.7022  0.3721
 8010SOL    HW135489   1.034   4.107  17.679 -0.6163 -0.9908  0.4050
 8010SOL    HW235490   1.088   4.216  17.594 -0.0566 -0.4446 -0.0161
 8011SOL     OW35491   2.344   2.788   3.588 -0.1335 -0.8067  0.1539
 8011SOL    HW135492   2.380   2.845   3.656 -0.5523 -0.8717  0.4340
 8011SOL    HW235493   2.329   2.845   3.512  1.4681  1.0747  1.2517
 8012SOL     OW35494   1.953   0.503   6.520  0.1746 -0.2104 -0.1707
 8012SOL    HW135495   1.909   0.528   6.601  0.7767 -0.0168  0.0979
 8012SOL    HW235496   2.014   0.574   6.503  1.6724 -0.8471  2.5202
 8013SOL     OW35497   1.708   1.731  11.219  0.1859  0.0538 -0.1659
 8013SOL    HW135498   1.694   1.733  11.124  1.0570  1.3360 -0.2720
 8013SOL    HW235499   1.627   1.704  11.262 -0.5283 -0.0775 -1.5845
 8014SOL     OW35500   0.963   3.151   0.431 -0.2376 -0.4832  0.1433
 8014SOL    HW135501   0.944   3.096   0.507  1.1386  0.8164  1.4275
 8014SOL    HW235502   1.054   3.121   0.426  1.3934  3.8831  2.9415
 8015SOL     OW35503   0.218   2.914   5.046 -0.2073  0.0794 -0.0798
 8015SOL    HW135504   0.189   3.005   5.048  1.2405  0.5764 -2.4499
 8015SOL    HW235505   0.292   2.909   5.107  0.7808  1.2415 -1.1720
 8016SOL     OW35506   2.240   3.204  14.942  0.1123 -0.1748  0.1904
 8016SOL    HW135507   2.171   3.207  15.009 -1.2633 -2.6333 -1.1123
 8016SOL    HW235508   2.213   3.132  14.885  3.3748 -1.2894  0.0684
 8017SOL     OW35509   4.656   2.118   3.893 -0.4419  0.1277  0.1524
 8017SOL    HW135510   4.637   2.134   3.985 -0.2195 -1.0294  0.3896
 8017SOL    HW235511   0.019   2.076   3.910 -0.3230  0.5083  0.5094
 8018SOL     OW35512   3.672   3.402   5.722  0.2399 -0.1954 -0.0352
 8018SOL    HW135513   3.654   3.414   5.815 -2.9002 -0.0238 -0.6769
 8018SOL    HW235514   3.585   3.403   5.683 -0.2010 -0.3480  0.9411
 8019SOL     OW35515   3.699   1.697   9.438  0.3087  0.1032  0.1127
 8019SOL    HW135516   3.665   1.623   9.490 -1.6430  1.0190  0.1650
 8019SOL    HW235517   3.792   1.683   9.456  0.5409  1.9062  0.3442
 8020SOL     OW35518   2.627   2.064   1.978  0.2210 -0.0156  0.1039
 8020SOL    HW135519   2.607   1.970   1.974  0.5221 -0.0644 -0.2837
 8020SOL    HW235520   2.709   2.075   1.930  1.1786  0.8481  1.9579
 8021SOL     OW35521   0.551   1.075   8.232  0.1643  0.1978 -0.2852
 8021SOL    HW135522   0.610   1.147   8.254  0.6058 -0.9254  2.2130
 8021SOL    HW235523   0.577   1.069   8.140  0.5587  0.3014 -0.1799
 8022SOL     OW35524   4.699   1.903   5.545 -0.0262 -0.7175 -0.0031
 8022SOL    HW135525   4.719   1.969   5.612  3.6600 -1.2093 -0.6176
 8022SOL    HW235526   0.021   1.943   5.469 -1.6655 -0.3923 -0.7606
 8023SOL     OW35527   3.800   3.386   7.789 -0.0306  0.0393 -0.9970
 8023SOL    HW135528   3.779   3.344   7.705 -2.9381  0.0924 -0.3137
 8023SOL    HW235529   3.812   3.303   7.836 -0.3068  0.4255 -0.2359
 8024SOL     OW35530   1.925   4.252  11.411 -0.3844 -0.2168  0.0819
 8024SOL    HW135531   2.004   4.209  11.379  0.8123  1.9572  0.1034
 8024SOL    HW235532   1.941   4.335  11.366  0.2082 -0.1860  0.3469
 8025SOL     OW35533   2.400   3.403  12.176 -0.6492 -0.3956 -0.0283
 8025SOL    HW135534   2.383   3.469  12.243 -1.0914 -0.2348 -0.2994
 8025SOL    HW235535   2.471   3.434  12.120 -0.4876 -0.0567  0.3727
 8026SOL     OW35536   3.383   0.190   2.784  0.4750  0.4460  0.0258
 8026SOL    HW135537   3.307   0.247   2.774 -0.2605 -0.3359  1.2223
 8026SOL    HW235538   3.339   0.105   2.780 -0.2190  0.7946  0.3421
 8027SOL     OW35539   3.001   0.032  10.198 -0.5999 -0.2822 -0.2522
 8027SOL    HW135540   3.060   4.679  10.189  0.5414  0.4201  1.3216
 8027SOL    HW235541   2.977   0.044  10.290  1.0388 -0.3286  0.1813
 8028SOL     OW35542   3.374   3.145   5.416 -0.2683 -0.2113  0.7606
 8028SOL    HW135543   3.282   3.137   5.439 -0.2901 -1.9021  0.1449
 8028SOL    HW235544   3.388   3.233   5.450  1.1509  1.0444 -3.0231
 8029SOL     OW35545   3.344   2.085   1.856  0.6235 -0.3219  0.3771
 8029SOL    HW135546   3.318   2.166   1.900  0.0513  0.9876 -2.3989
 8029SOL    HW235547   3.426   2.086   1.907  1.0795  1.2306 -0.3821
 8030SOL     OW35548   1.671   2.258   2.539 -0.3661 -0.4085  0.4350
 8030SOL    HW135549   1.724   2.218   2.608 -0.4408  0.9891  1.3059
 8030SOL    HW235550   1.609   2.189   2.518 -0.2572  0.0515 -1.4187
 8031SOL     OW35551   2.022   1.776  15.498  0.1457  0.2790  0.3955
 8031SOL    HW135552   2.073   1.758  15.419 -0.9847  0.9717 -0.4999
 8031SOL    HW235553   1.940   1.751  15.456  0.2084  2.2276 -0.8984
 8032SOL     OW35554   4.582   0.451   6.500 -0.1938  0.2510 -0.5793
 8032SOL    HW135555   4.667   0.492   6.516 -0.3989  0.3587  0.1949
 8032SOL    HW235556   4.600   0.415   6.413  2.0112  0.7749 -0.3325
 8033SOL     OW35557   1.683   3.930   0.709 -0.0679  0.1933  0.4614
 8033SOL    HW135558   1.591   3.928   0.734  0.4734  1.9160  2.5959
 8033SOL    HW235559   1.717   3.884   0.785  2.3682  0.3946 -0.4905
 8034SOL     OW35560   0.747   4.213  17.681 -0.0115 -0.3689  0.1256
 8034SOL    HW135561   0.800   4.167  17.616  1.0147  3.3336 -1.6622
 8034SOL    HW235562   0.725   4.289  17.627  3.0227 -0.4429 -1.2437
 8035SOL     OW35563   3.949   2.356   6.041  0.4248  0.1319 -0.1327
 8035SOL    HW135564   3.913   2.364   6.129  1.2750  1.1201  0.1314
 8035SOL    HW235565   3.989   2.442   6.031  1.4214 -0.2773  0.3676
 8036SOL     OW35566   1.380   2.967   6.236  0.2008  0.0947  0.6395
 8036SOL    HW135567   1.322   2.891   6.236 -1.1350  1.1326  1.0635
 8036SOL    HW235568   1.457   2.940   6.287  1.4156  0.6005 -0.9103
 8037SOL     OW35569   1.246   4.061   2.833  0.3175  0.4780 -0.2948
 8037SOL    HW135570   1.294   3.990   2.791  2.7548  1.7847  0.2742
 8037SOL    HW235571   1.158   4.031   2.808  0.5494  0.1579 -0.7311
 8038SOL     OW35572   0.765   1.402   6.949  0.2567 -0.5106  0.9285
 8038SOL    HW135573   0.747   1.414   7.043 -0.0137  0.6004  0.7342
 8038SOL    HW235574   0.771   1.308   6.934  1.1335 -0.1250 -1.0816
 8039SOL     OW35575   2.102   1.713   8.120  0.2912  0.8332  0.7153
 8039SOL    HW135576   2.069   1.800   8.142 -2.9486 -0.9546  2.9506
 8039SOL    HW235577   2.180   1.731   8.068  0.6985 -3.2432 -0.0929
 8040SOL     OW35578   3.425   2.459   8.639 -0.1164  0.0598  0.0867
 8040SOL    HW135579   3.372   2.482   8.715  0.8654 -1.9825  1.4166
 8040SOL    HW235580   3.366   2.389   8.613 -0.9977  0.6696  0.4636
 8041SOL     OW35581   0.455   3.003   6.968  0.2964 -0.0874 -0.3507
 8041SOL    HW135582   0.410   2.925   7.002  2.6974 -0.9261  0.9360
 8041SOL    HW235583   0.379   3.049   6.934 -0.2359  1.4380  2.8991
 8042SOL     OW35584   0.266   1.418   7.629 -0.5609 -0.0397 -0.1162
 8042SOL    HW135585   0.187   1.401   7.681 -1.7239  5.9792  0.1703
 8042SOL    HW235586   0.244   1.376   7.547 -2.2437 -1.1889  0.9195
 8043SOL     OW35587   1.344   1.569   7.107 -0.4291  0.3459  0.4018
 8043SOL    HW135588   1.301   1.654   7.107 -0.2266  0.4473  0.4745
 8043SOL    HW235589   1.433   1.589   7.079 -1.0184  0.0321 -1.6968
 8044SOL     OW35590   0.259   0.720   4.796  0.1428  0.4598  0.0500
 8044SOL    HW135591   0.350   0.748   4.786 -0.4864  2.2592 -0.6191
 8044SOL    HW235592   0.270   0.640   4.847  1.9277 -0.5451 -1.9374
 8045SOL     OW35593   3.528   2.706   3.243  0.4911  0.3566  0.2067
 8045SOL    HW135594   3.623   2.706   3.256  0.6218 -2.3907 -0.7570
 8045SOL    HW235595   3.491   2.693   3.330 -1.3406  1.0422 -0.4751
 8046SOL     OW35596   4.088   2.815   5.340 -0.1209  0.5430  0.3034
 8046SOL    HW135597   4.102   2.728   5.303  2.6170  0.0226  2.4848
 8046SOL    HW235598   4.143   2.807   5.419 -0.3959 -1.1380  0.3131
 8047SOL     OW35599   0.958   0.829   2.812  0.2875 -0.7280  0.2985
 8047SOL    HW135600   1.012   0.755   2.784 -0.1078 -1.8540  2.5221
 8047SOL    HW235601   1.018   0.903   2.803 -0.9562  0.1748 -0.4539
 8048SOL     OW35602   3.440   4.322   8.378 -0.3441 -0.1426 -0.0735
 8048SOL    HW135603   3.486   4.253   8.427  1.1196 -0.1051 -1.3917
 8048SOL    HW235604   3.517   4.364   8.341  0.1778 -0.7786  0.2753
 8049SOL     OW35605   3.577   1.180   9.757  0.1603 -0.3190  0.2359
 8049SOL    HW135606   3.483   1.189   9.745  0.4479  3.0355  0.4291
 8049SOL    HW235607   3.594   1.095   9.718  0.5678  0.1467 -0.6076
 8050SOL     OW35608   2.131   0.826   2.125 -0.4049  0.5768  0.1224
 8050SOL    HW135609   2.132   0.736   2.158 -0.6879  0.1491 -1.0126
 8050SOL    HW235610   2.051   0.863   2.163 -0.3439 -0.3889  1.1727
 8051SOL     OW35611   1.406   3.477  12.510  0.1262 -0.2931 -0.4402
 8051SOL    HW135612   1.317   3.509  12.494 -0.7142 -1.4659  1.9004
 8051SOL    HW235613   1.391   3.411  12.577  0.8044  0.9353  0.9203
 8052SOL     OW35614   4.037   2.181   1.813 -0.0986  0.0948 -0.3674
 8052SOL    HW135615   4.105   2.129   1.856  0.2548  0.0812 -0.9381
 8052SOL    HW235616   4.090   2.212   1.740  0.4137  1.3331  0.5355
 8053SOL     OW35617   1.136   1.649   2.377 -0.3464  0.2110 -0.2061
 8053SOL    HW135618   1.052   1.605   2.362  0.4352 -1.2558 -0.2166
 8053SOL    HW235619   1.196   1.575   2.386 -3.0569 -2.3053 -2.9093
 8054SOL     OW35620   2.913   2.044   8.491  0.4660  0.6837  0.5731
 8054SOL    HW135621   2.930   1.957   8.527 -1.6406 -0.4798 -1.2126
 8054SOL    HW235622   2.893   2.096   8.569  0.0237  2.2589 -0.5821
 8055SOL     OW35623   0.685   1.501   0.994  0.4210 -0.0415  0.1887
 8055SOL    HW135624   0.748   1.563   1.030  0.5890  0.7208 -1.4362
 8055SOL    HW235625   0.735   1.420   0.983  1.2618  0.4292  0.5394
 8056SOL     OW35626   4.542   0.079   4.849 -0.0809  0.7191  0.0472
 8056SOL    HW135627   4.459   0.121   4.870 -0.3793 -0.9934  2.2394
 8056SOL    HW235628   4.568   0.039   4.932 -1.7672  1.2140  0.8153
 8057SOL     OW35629   0.997   1.532   1.966  0.0427 -0.2311 -0.1320
 8057SOL    HW135630   1.028   1.490   2.046 -1.3459  1.6955  1.4369
 8057SOL    HW235631   0.954   1.611   2.000  1.4775  0.9026 -0.8869
 8058SOL     OW35632   0.352   2.915   9.228 -0.1264  0.1055 -0.0602
 8058SOL    HW135633   0.272   2.952   9.264  0.2885 -0.6592  1.6471
 8058SOL    HW235634   0.364   2.840   9.286  0.6959 -0.6574 -1.2372
 8059SOL     OW35635   2.755   3.975   6.905 -0.1072 -0.3092 -0.4588
 8059SOL    HW135636   2.687   4.029   6.945 -1.5212 -1.5070 -1.2563
 8059SOL    HW235637   2.833   4.021   6.937  0.0477 -0.9872  0.1395
 8060SOL     OW35638   3.774   0.093  13.279 -0.3080  0.2936  0.5283
 8060SOL    HW135639   3.855   0.093  13.228 -0.1915 -1.6029  0.7125
 8060SOL    HW235640   3.768   4.720  13.299  0.8235 -0.4439 -2.5888
 8061SOL     OW35641   3.499   1.279   4.649  0.2679 -0.5344 -0.1866
 8061SOL    HW135642   3.427   1.252   4.705  0.6427  0.1523  0.6377
 8061SOL    HW235643   3.539   1.353   4.696  0.5820 -0.9284  0.1731
 8062SOL     OW35644   1.237   0.412   4.442 -0.0027  0.0522 -0.0146
 8062SOL    HW135645   1.158   0.451   4.406 -0.7449 -2.0527 -0.6823
 8062SOL    HW235646   1.221   0.321   4.415 -0.9226  0.6671 -1.4981
 8063SOL     OW35647   4.671   4.545   7.183 -0.1335  0.3723 -0.3488
 8063SOL    HW135648   0.023   4.607   7.191 -0.7235  0.7242  2.3101
 8063SOL    HW235649   4.690   4.465   7.231 -1.7755  0.1103 -0.1267
 8064SOL     OW35650   2.407   1.778   9.102  0.3718  0.1849 -0.2924
 8064SOL    HW135651   2.333   1.835   9.080  0.1558  0.8440  2.1290
 8064SOL    HW235652   2.377   1.690   9.080 -1.4689  0.1176  2.4569
 8065SOL     OW35653   2.279   0.112   2.973 -0.2539 -0.3402  0.1374
 8065SOL    HW135654   2.238   0.199   2.971  1.0975  0.2955 -0.3413
 8065SOL    HW235655   2.197   0.064   2.962 -0.9708  1.1932 -1.3043
 8066SOL     OW35656   3.053   0.173   9.467 -0.3975 -0.7310  0.0893
 8066SOL    HW135657   3.092   0.253   9.502  0.9950 -0.6080 -1.7321
 8066SOL    HW235658   3.115   0.102   9.484  1.9448  1.2477 -0.2103
 8067SOL     OW35659   1.041   2.205   1.950 -0.1091 -0.2685  0.1503
 8067SOL    HW135660   0.999   2.277   1.901 -2.8045 -1.3510  0.8779
 8067SOL    HW235661   1.122   2.199   1.899 -0.8309 -1.8199 -0.7794
 8068SOL     OW35662   3.816   0.119   4.365  0.4144 -0.3328 -0.2704
 8068SOL    HW135663   3.882   0.058   4.333  1.3620 -0.9082  2.7281
 8068SOL    HW235664   3.737   0.080   4.327  0.5353  0.5472 -1.4244
 8069SOL     OW35665   2.306   0.099  13.845 -0.1410  0.7674 -0.2088
 8069SOL    HW135666   2.225   0.103  13.896  0.4664 -1.5269  0.9324
 8069SOL    HW235667   2.271   0.069  13.761 -0.4317  0.5750 -0.0222
 8070SOL     OW35668   0.090   4.460   4.976 -0.5976 -0.3130  0.0345
 8070SOL    HW135669   0.180   4.444   5.005  0.7243  1.4988 -3.0369
 8070SOL    HW235670   0.056   4.379   4.937 -0.0946 -1.6202  2.3144
 8071SOL     OW35671   4.045   0.394   7.507  0.1302  0.2069  0.0485
 8071SOL    HW135672   3.953   0.403   7.531 -0.8615 -2.2761 -2.7840
 8071SOL    HW235673   4.073   0.320   7.561  1.8452  1.2670  0.6100
 8072SOL     OW35674   3.883   0.308   3.032 -0.0219 -0.3723 -0.1577
 8072SOL    HW135675   3.879   0.368   2.957 -0.7326 -2.5924 -1.8938
 8072SOL    HW235676   3.895   0.378   3.097 -1.0742 -0.1106 -0.2354
 8073SOL     OW35677   4.497   2.358   6.814  0.1451  0.5077 -0.0530
 8073SOL    HW135678   4.457   2.272   6.806  0.3856  0.3322  0.6552
 8073SOL    HW235679   4.424   2.404   6.856 -1.2422 -0.8671 -0.9484
 8074SOL     OW35680   2.645   2.267  14.814 -0.5260 -0.1733  0.1729
 8074SOL    HW135681   2.715   2.300  14.871 -3.9591  2.9868  2.5582
 8074SOL    HW235682   2.693   2.298  14.737 -0.3438 -1.1844 -0.1236
 8075SOL     OW35683   0.738   4.238   1.966  0.4523  0.0297  0.4163
 8075SOL    HW135684   0.653   4.225   2.008 -0.7061  2.3979 -1.1770
 8075SOL    HW235685   0.719   4.257   1.875  0.3467  2.0865  0.8744
 8076SOL     OW35686   1.656   0.303  16.921 -0.2838  0.0835  0.1974
 8076SOL    HW135687   1.666   0.336  17.010  0.9414  0.7110 -0.1690
 8076SOL    HW235688   1.710   0.223  16.927 -1.9283 -1.0271  0.0946
 8077SOL     OW35689   4.342   3.430   5.571  0.0667  0.1276 -0.1985
 8077SOL    HW135690   4.258   3.468   5.597  0.5623  1.3224 -0.3447
 8077SOL    HW235691   4.331   3.336   5.561  0.3455 -0.0425  1.1362
 8078SOL     OW35692   3.129   0.356   5.186 -0.0409  0.2693  0.0659
 8078SOL    HW135693   3.067   0.357   5.112  0.1270 -0.5545 -0.0836
 8078SOL    HW235694   3.130   0.263   5.206 -0.7889  0.5210  1.2198
 8079SOL     OW35695   1.296   4.657   6.968  0.4846 -0.8292 -0.4119
 8079SOL    HW135696   1.263   4.631   7.055  2.7965 -0.0681  0.6830
 8079SOL    HW235697   1.248   0.018   6.960  1.2013 -0.1811  1.7448
 8080SOL     OW35698   2.053   1.620   2.815  0.5917  0.2009  0.1059
 8080SOL    HW135699   2.079   1.604   2.725 -1.9027  0.1144 -0.5982
 8080SOL    HW235700   1.984   1.555   2.827 -0.5773  1.5873  1.0030
 8081SOL     OW35701   1.083   1.434   0.872  0.1678  0.1658  0.5660
 8081SOL    HW135702   1.042   1.447   0.957 -0.4774 -1.8846  0.5653
 8081SOL    HW235703   1.103   1.342   0.891 -0.3641 -0.2463 -0.8810
 8082SOL     OW35704   3.826   0.602  13.190 -0.0346 -0.2565 -0.1072
 8082SOL    HW135705   3.766   0.532  13.212 -0.3845  0.4262  1.0871
 8082SOL    HW235706   3.766   0.664  13.148 -0.5085 -1.9839 -1.9877
 8083SOL     OW35707   4.464   4.110   5.528  0.3376  0.0477  0.2737
 8083SOL    HW135708   4.529   4.100   5.598  2.9286  2.3117 -1.8284
 8083SOL    HW235709   4.438   4.202   5.535 -0.4129  0.0633 -2.6833
 8084SOL     OW35710   3.378   0.660   6.899 -0.0275  0.2121 -0.2037
 8084SOL    HW135711   3.411   0.585   6.851 -0.6923 -0.9828  1.2157
 8084SOL    HW235712   3.429   0.738   6.874  0.8077  0.9087  3.6764
 8085SOL     OW35713   1.006   2.639   6.353 -0.4586 -0.1617  0.0169
 8085SOL    HW135714   0.984   2.663   6.263 -1.0753  0.0994  0.2355
 8085SOL    HW235715   0.936   2.579   6.378 -0.1517  0.1709  1.7035
 8086SOL     OW35716   1.345   3.381   1.528 -0.1804  0.5311 -0.7470
 8086SOL    HW135717   1.330   3.289   1.553  0.4633  0.8127  0.7116
 8086SOL    HW235718   1.281   3.400   1.460 -1.3645 -1.5619 -0.2339
 8087SOL     OW35719   2.969   1.793   6.599 -0.0142  0.0442 -0.0451
 8087SOL    HW135720   3.035   1.742   6.550 -0.7543  1.6168 -2.6823
 8087SOL    HW235721   2.999   1.785   6.689  1.0699  1.7504 -0.2519
 8088SOL     OW35722   3.426   4.471   0.686 -0.0936  0.4379  0.1449
 8088SOL    HW135723   3.476   4.535   0.635 -0.2220  0.6151  0.2469
 8088SOL    HW235724   3.462   4.388   0.654  1.7227  0.3190  2.5187
 8089SOL     OW35725   1.055   0.254  12.723  0.0270 -0.1143 -0.0695
 8089SOL    HW135726   1.051   0.159  12.712  0.4539 -0.3874  1.9676
 8089SOL    HW235727   1.022   0.251  12.813  1.6518 -2.9106  0.4354
 8090SOL     OW35728   4.331   0.087   6.698 -0.5884  0.5151  0.0663
 8090SOL    HW135729   4.395   0.107   6.766  1.1418  1.1378 -1.7493
 8090SOL    HW235730   4.284   0.171   6.698 -0.9836  0.2908  0.5175
 8091SOL     OW35731   3.822   1.007   6.145 -0.2275 -0.3523 -0.1696
 8091SOL    HW135732   3.915   0.987   6.143  0.1648  1.3781  1.0093
 8091SOL    HW235733   3.806   1.021   6.238  0.2871  1.1204 -0.2934
 8092SOL     OW35734   3.121   3.211   1.713 -0.0572 -0.1749 -0.3459
 8092SOL    HW135735   3.151   3.248   1.796  1.3656 -1.6907 -0.1932
 8092SOL    HW235736   3.080   3.284   1.668 -0.3788  0.0959  0.3950
 8093SOL     OW35737   2.132   0.349   2.940  0.0833  0.1746  0.0013
 8093SOL    HW135738   2.043   0.370   2.968  0.4478  1.4745  0.2077
 8093SOL    HW235739   2.158   0.439   2.920 -0.2864  0.1030 -0.7842
 8094SOL     OW35740   0.956   1.892   1.251 -0.3482  0.5259  0.1916
 8094SOL    HW135741   0.927   1.859   1.337  0.0656 -0.0582  0.1089
 8094SOL    HW235742   1.015   1.961   1.281 -0.6181  1.5543 -1.6425
 8095SOL     OW35743   3.614   4.144   1.895 -0.4812 -0.2847  0.0930
 8095SOL    HW135744   3.678   4.207   1.862  1.2394 -1.6004  0.9740
 8095SOL    HW235745   3.666   4.073   1.932  0.5776 -0.7538 -2.3052
 8096SOL     OW35746   4.468   2.925   6.617 -0.4514  0.0740  0.1786
 8096SOL    HW135747   4.504   2.837   6.613  1.8983  1.1067 -2.0727
 8096SOL    HW235748   4.446   2.934   6.524  2.9408 -0.9273 -0.7235
 8097SOL     OW35749   1.116   0.100   2.863 -0.2950 -0.2398 -0.1249
 8097SOL    HW135750   1.194   0.056   2.831 -0.7804 -0.7183 -0.6687
 8097SOL    HW235751   1.111   0.176   2.804  0.0104 -1.2576 -1.4744
 8098SOL     OW35752   0.931   3.968   9.951 -0.5758  0.0681  0.5427
 8098SOL    HW135753   0.944   3.881   9.914  1.3559 -0.2902  2.0754
 8098SOL    HW235754   1.012   3.979  10.000  1.2682 -0.7955 -2.3751
 8099SOL     OW35755   4.016   2.132  10.153  0.0692 -0.4230 -0.1393
 8099SOL    HW135756   3.962   2.174  10.086  0.8533 -1.8158 -1.6170
 8099SOL    HW235757   4.107   2.153  10.132  1.1103 -4.3048  0.4904
 8100SOL     OW35758   0.595   0.001  13.508 -0.1972  0.1425  0.1158
 8100SOL    HW135759   0.686   0.030  13.517  0.1622 -0.7181 -0.8689
 8100SOL    HW235760   0.590   4.643  13.562  2.4817 -0.1016 -0.0324
 8101SOL     OW35761   1.248   4.042  11.797 -0.0244  0.2658 -0.0893
 8101SOL    HW135762   1.265   3.949  11.811  1.4435  0.5093 -0.1886
 8101SOL    HW235763   1.316   4.087  11.849  1.6286 -2.8680  0.4299
 8102SOL     OW35764   1.711   1.536  10.865  0.0113 -0.4169  0.0101
 8102SOL    HW135765   1.744   1.562  10.779  0.3403  0.0055  0.2620
 8102SOL    HW235766   1.651   1.610  10.870 -1.3739 -1.4455 -1.5411
 8103SOL     OW35767   4.382   1.297   0.655  0.6859  0.0001  0.4709
 8103SOL    HW135768   4.459   1.247   0.683  0.7733 -0.5951 -0.8269
 8103SOL    HW235769   4.351   1.259   0.572  0.2045  1.2935  0.0674
 8104SOL     OW35770   3.324   2.725   2.333  0.5863  0.1143 -0.1486
 8104SOL    HW135771   3.381   2.652   2.355  0.7834  0.2218 -0.3038
 8104SOL    HW235772   3.280   2.690   2.256  0.6643 -1.4554  0.5155
 8105SOL     OW35773   2.359   0.827   5.326  0.8781 -0.2200  0.0469
 8105SOL    HW135774   2.281   0.858   5.372  0.8268 -0.9634  0.4665
 8105SOL    HW235775   2.328   0.747   5.285 -0.5616  0.3634  0.0078
 8106SOL     OW35776   1.293   0.785   7.053  0.3189  0.0980  1.0372
 8106SOL    HW135777   1.290   0.866   7.103  1.2296 -0.4873  2.0217
 8106SOL    HW235778   1.385   0.766   7.036  0.6569  0.8920  2.0795
 8107SOL     OW35779   2.821   4.481   8.532  0.1335  0.3184  0.0060
 8107SOL    HW135780   2.737   4.523   8.552  0.6405  1.0486  0.5944
 8107SOL    HW235781   2.838   4.498   8.439  3.3784 -0.0907  0.5326
 8108SOL     OW35782   2.695   2.072   4.281 -0.0737  0.6993  0.1952
 8108SOL    HW135783   2.754   1.997   4.288 -1.9016 -0.8119 -0.8330
 8108SOL    HW235784   2.624   2.043   4.338  1.1398 -0.5626  1.0601
 8109SOL     OW35785   3.344   3.856   1.043 -0.3219  0.0626 -0.0242
 8109SOL    HW135786   3.295   3.938   1.055 -2.7638 -1.2591 -1.0185
 8109SOL    HW235787   3.316   3.814   1.124  0.2782  0.6511  0.4829
 8110SOL     OW35788   3.376   2.545   8.917  0.2828 -0.3078 -0.2204
 8110SOL    HW135789   3.317   2.493   8.972  1.5255 -0.5224  0.9139
 8110SOL    HW235790   3.464   2.515   8.938  0.6954  1.1534  0.1629
 8111SOL     OW35791   4.166   4.240   4.945  0.6683 -0.0240  0.0859
 8111SOL    HW135792   4.141   4.307   4.881 -1.7424 -1.2853 -0.3092
 8111SOL    HW235793   4.112   4.163   4.924  0.5226  0.0031  0.3664
 8112SOL     OW35794   2.934   0.636   9.124 -0.3160 -0.2000  0.4188
 8112SOL    HW135795   2.849   0.676   9.144  0.4562  1.4627  0.3574
 8112SOL    HW235796   2.929   0.545   9.154 -0.0554 -1.1516 -2.4599
 8113SOL     OW35797   2.722   3.730   5.218  0.1675  0.0004 -0.7017
 8113SOL    HW135798   2.717   3.721   5.123  1.2106  0.0009 -0.7479
 8113SOL    HW235799   2.692   3.643   5.246 -0.3073  0.5146  0.4260
 8114SOL     OW35800   1.569   4.057   2.075 -0.1240  0.3735 -0.2224
 8114SOL    HW135801   1.623   4.005   2.135 -0.4808 -0.5555 -0.7161
 8114SOL    HW235802   1.596   4.148   2.065 -1.3088  0.8516  1.0662
 8115SOL     OW35803   4.180   1.584   9.234 -0.0808  0.9768 -0.7415
 8115SOL    HW135804   4.223   1.528   9.298  0.9461  0.8520 -1.5494
 8115SOL    HW235805   4.249   1.650   9.226  2.0214 -1.1447  0.1177
 8116SOL     OW35806   3.524   2.015   7.201 -0.1343  0.8027  0.1400
 8116SOL    HW135807   3.602   2.058   7.167  1.5477 -2.1644  0.2131
 8116SOL    HW235808   3.474   2.032   7.122  1.2881 -0.6879 -1.0780
 8117SOL     OW35809   2.760   2.303   4.471  0.6039  0.3392  0.3775
 8117SOL    HW135810   2.766   2.242   4.397  1.0941 -0.5450  1.1564
 8117SOL    HW235811   2.854   2.315   4.484  0.8959 -2.7161  1.0491
 8118SOL     OW35812   1.426   3.277   0.419  0.1542 -0.2301 -0.3798
 8118SOL    HW135813   1.457   3.304   0.333  0.8285  2.3244  0.6571
 8118SOL    HW235814   1.506   3.260   0.468  0.6732 -0.1248 -1.2030
 8119SOL     OW35815   3.416   3.038   3.940  0.4389  0.0621 -0.9428
 8119SOL    HW135816   3.480   3.100   3.974 -1.6761  0.6681  1.9300
 8119SOL    HW235817   3.425   3.061   3.848 -1.8773 -1.4355 -1.5485
 8120SOL     OW35818   2.357   2.228   7.292  0.2779  0.1484  0.4297
 8120SOL    HW135819   2.410   2.272   7.226 -2.4967  0.9076 -1.2818
 8120SOL    HW235820   2.410   2.252   7.368 -0.4121 -0.5588  1.1272
 8121SOL     OW35821   1.965   4.496   9.207 -0.6149  0.6255 -0.1749
 8121SOL    HW135822   1.982   4.588   9.190  2.1937 -0.1689 -1.6479
 8121SOL    HW235823   2.030   4.456   9.149 -1.7754 -2.3824  0.5982
 8122SOL     OW35824   4.274   2.556   7.983 -0.0415 -0.1596 -0.4751
 8122SOL    HW135825   4.298   2.629   8.041  2.5796 -2.3280  1.1494
 8122SOL    HW235826   4.258   2.493   8.053 -1.4476 -1.7835 -2.2714
 8123SOL     OW35827   0.422   3.813   8.751 -0.1304 -0.4748  0.8328
 8123SOL    HW135828   0.364   3.881   8.784 -1.3394 -0.8708 -0.4450
 8123SOL    HW235829   0.466   3.790   8.832 -1.3168 -0.1584  1.5689
 8124SOL     OW35830   4.195   3.841   7.793 -0.4213  0.3335 -0.3650
 8124SOL    HW135831   4.178   3.822   7.885 -0.7607 -2.5964 -1.0282
 8124SOL    HW235832   4.151   3.923   7.772 -0.3132  0.7307  0.9832
 8125SOL     OW35833   2.511   2.578   0.844  0.3830 -0.8339  0.4319
 8125SOL    HW135834   2.452   2.587   0.918 -0.2302  0.9880 -0.2657
 8125SOL    HW235835   2.474   2.641   0.782 -0.6941 -0.5172  1.3986
 8126SOL     OW35836   1.940   1.206   5.209  0.3264 -0.5931  0.0334
 8126SOL    HW135837   1.874   1.224   5.277 -0.2453  0.3655 -0.7606
 8126SOL    HW235838   1.996   1.139   5.248  0.8308  0.6414  1.4439
 8127SOL     OW35839   0.743   2.642  14.434  0.0391 -0.4744 -0.3766
 8127SOL    HW135840   0.800   2.608  14.502  2.1869 -0.7569 -2.3421
 8127SOL    HW235841   0.661   2.599  14.457  0.3311 -0.2785  1.0070
 8128SOL     OW35842   2.458   0.646  14.878  0.6543 -0.6038  0.4869
 8128SOL    HW135843   2.459   0.660  14.972 -0.6414 -0.8598  0.5390
 8128SOL    HW235844   2.548   0.622  14.858  1.4548  3.4791 -0.8413
 8129SOL     OW35845   3.030   2.619   5.625 -0.1248  0.4820  0.0766
 8129SOL    HW135846   3.057   2.708   5.649 -0.1095 -0.3084  2.9735
 8129SOL    HW235847   3.046   2.571   5.706  0.6559 -1.4248 -1.2176
 8130SOL     OW35848   4.191   3.936   9.535  0.3464  0.3690 -0.2741
 8130SOL    HW135849   4.285   3.946   9.552  0.2583 -0.7408  0.9050
 8130SOL    HW235850   4.167   3.849   9.566  2.2329 -0.6004 -1.5364
 8131SOL     OW35851   2.897   3.115   7.254  0.2474 -0.1516  0.1147
 8131SOL    HW135852   2.818   3.167   7.239  1.2379  1.6766  1.2046
 8131SOL    HW235853   2.870   3.056   7.324 -0.4650 -0.9752 -0.8507
 8132SOL     OW35854   2.521   3.981   4.700  0.0381  0.2783 -0.7254
 8132SOL    HW135855   2.468   3.902   4.691 -0.0297  0.4340 -1.6577
 8132SOL    HW235856   2.603   3.959   4.657  2.5276  1.8675  3.1528
 8133SOL     OW35857   3.548   0.412  15.527  0.2385 -0.0684 -0.4864
 8133SOL    HW135858   3.472   0.463  15.500 -0.4461 -0.7611  0.1522
 8133SOL    HW235859   3.523   0.324  15.499 -0.8476  1.2837 -3.7587
 8134SOL     OW35860   2.549   4.712  13.818 -0.2097  0.0032 -0.0379
 8134SOL    HW135861   2.462   0.026  13.838  0.2137  0.8815  0.2525
 8134SOL    HW235862   2.583   4.718  13.907  1.0988 -1.6523 -0.4218
 8135SOL     OW35863   2.593   2.689   8.487 -0.5171 -0.2189  0.1679
 8135SOL    HW135864   2.592   2.731   8.573 -2.9660 -0.8529  0.4484
 8135SOL    HW235865   2.619   2.763   8.433  2.0817 -0.8197  0.6110
 8136SOL     OW35866   4.186   0.944  10.095  0.6616 -0.1450 -0.3623
 8136SOL    HW135867   4.152   0.991  10.019 -3.0804  1.3364  2.2342
 8136SOL    HW235868   4.150   0.983  10.175 -1.2345  1.9120 -2.2380
 8137SOL     OW35869   4.317   1.480   8.322  0.4221  0.1549  0.3187
 8137SOL    HW135870   4.302   1.565   8.280  1.2153  0.8963  1.5122
 8137SOL    HW235871   4.303   1.421   8.249  0.7694 -0.3231  0.6376
 8138SOL     OW35872   3.301   2.557   5.919 -0.5970 -0.3328  0.4127
 8138SOL    HW135873   3.281   2.478   5.968  1.1265 -0.9304  0.1415
 8138SOL    HW235874   3.211   2.591   5.914 -1.3927 -2.6902 -1.0794
 8139SOL     OW35875   3.456   1.009   6.637 -0.7352  0.0986 -0.1384
 8139SOL    HW135876   3.493   0.957   6.708 -2.2261 -1.7925 -0.7295
 8139SOL    HW235877   3.364   0.987   6.654 -1.1225  1.8859  0.0459
 8140SOL     OW35878   2.577   3.107  16.386 -0.0658 -0.0636 -0.1326
 8140SOL    HW135879   2.604   3.105  16.478 -0.2977  1.0268 -0.0353
 8140SOL    HW235880   2.606   3.020  16.358  0.1177 -0.0002 -0.1425
 8141SOL     OW35881   3.304   1.704   2.311 -0.4375  0.3114  0.1734
 8141SOL    HW135882   3.302   1.625   2.364 -0.3242  0.1524 -0.0609
 8141SOL    HW235883   3.398   1.723   2.305 -0.3604  0.0228  0.4548
 8142SOL     OW35884   0.131   2.876  14.514  0.0347 -0.5443 -0.2286
 8142SOL    HW135885   0.206   2.928  14.485 -1.0571  1.8767  1.2794
 8142SOL    HW235886   0.094   2.939  14.576 -0.7051  0.0786 -1.3125
 8143SOL     OW35887   3.454   3.977   2.638  0.4218 -0.3987 -0.1176
 8143SOL    HW135888   3.402   3.898   2.655 -0.5719  0.2297 -0.2647
 8143SOL    HW235889   3.420   4.014   2.557 -0.9196  1.7224  1.4201
 8144SOL     OW35890   0.358   3.675   4.684 -0.4358 -0.0116 -0.3099
 8144SOL    HW135891   0.305   3.679   4.763  1.1055  2.4957  0.6160
 8144SOL    HW235892   0.447   3.661   4.718 -1.1261  2.0164  2.3306
 8145SOL     OW35893   0.769   1.210   9.644  0.2369  0.4552  0.2954
 8145SOL    HW135894   0.817   1.283   9.683  0.2884  1.5108 -1.7226
 8145SOL    HW235895   0.815   1.131   9.673  0.2214  0.3323 -0.0148
 8146SOL     OW35896   2.066   0.752  12.639 -0.0488  0.3758  0.3761
 8146SOL    HW135897   2.104   0.768  12.725 -0.9758  5.6711 -0.2237
 8146SOL    HW235898   1.972   0.734  12.652 -0.0366  0.7220  0.9327
 8147SOL     OW35899   2.914   0.573   9.627 -0.5380  0.5934  0.1384
 8147SOL    HW135900   2.854   0.618   9.568  0.6646  1.2556 -0.5834
 8147SOL    HW235901   2.992   0.629   9.623 -0.3982  0.3135 -1.2070
 8148SOL     OW35902   0.105   2.583  11.140 -0.2371  0.1484  0.3727
 8148SOL    HW135903   0.156   2.539  11.208 -1.0041 -2.4488 -0.7007
 8148SOL    HW235904   0.028   2.526  11.139 -0.2970  0.2300  0.2042
 8149SOL     OW35905   2.123   2.021  15.735 -0.3130  0.9791  0.0116
 8149SOL    HW135906   2.186   1.980  15.795 -1.4686 -2.4039 -1.0445
 8149SOL    HW235907   2.052   1.958  15.748  0.7729  0.0734  1.5875
 8150SOL     OW35908   1.184   1.035   6.550  0.6631  0.1440 -0.4407
 8150SOL    HW135909   1.189   1.120   6.595  0.0847  0.2596 -0.6019
 8150SOL    HW235910   1.229   0.971   6.606  1.1485  0.0064 -0.9839
 8151SOL     OW35911   2.580   0.551   3.350  0.3445  0.3986  0.1866
 8151SOL    HW135912   2.646   0.483   3.349  0.1821  0.2359  0.6610
 8151SOL    HW235913   2.508   0.496   3.379  2.2792 -2.7065 -0.9727
 8152SOL     OW35914   3.488   1.580  16.029 -0.2476 -0.6004 -0.1464
 8152SOL    HW135915   3.466   1.632  16.106  2.1296  1.8705 -1.1280
 8152SOL    HW235916   3.565   1.538  16.069 -0.3899 -0.3313  0.4076
 8153SOL     OW35917   2.906   3.458   6.591 -0.0910  0.8666 -0.4075
 8153SOL    HW135918   2.830   3.501   6.630 -1.1548 -0.9852 -0.4443
 8153SOL    HW235919   2.951   3.411   6.662 -0.8269 -0.5123 -0.8447
 8154SOL     OW35920   3.799   1.115  16.860  0.2759 -0.4407  0.2633
 8154SOL    HW135921   3.721   1.089  16.910  0.2922  1.1086  1.1282
 8154SOL    HW235922   3.817   1.205  16.889 -1.2313  0.4330 -1.5036
 8155SOL     OW35923   4.697   0.438  15.431  0.6786 -0.3761 -0.0372
 8155SOL    HW135924   0.006   0.492  15.504  0.2248  1.2078 -1.0183
 8155SOL    HW235925   4.604   0.421  15.447  0.3993  1.1524 -0.0070
 8156SOL     OW35926   1.638   3.810   4.853  0.1509 -0.3026 -0.5057
 8156SOL    HW135927   1.667   3.901   4.856 -1.7270  0.2334  2.1340
 8156SOL    HW235928   1.720   3.760   4.849 -1.2130 -2.7965  1.8155
 8157SOL     OW35929   0.172   3.944   0.826  0.3613 -0.2574  0.1228
 8157SOL    HW135930   0.151   3.879   0.893  0.1002  1.3832  1.6357
 8157SOL    HW235931   0.088   3.990   0.830  0.1782 -0.7262  1.5827
 8158SOL     OW35932   0.874   2.621   1.408 -0.3028 -0.1170 -0.3705
 8158SOL    HW135933   0.785   2.658   1.406  0.3247  1.3433 -0.9397
 8158SOL    HW235934   0.868   2.556   1.338 -2.1753 -0.7784  0.3878
 8159SOL     OW35935   0.901   1.069  13.014 -0.3055  0.1743 -0.1876
 8159SOL    HW135936   0.982   1.033  13.051  0.4508 -0.0090 -1.9966
 8159SOL    HW235937   0.841   0.997  13.034 -1.5512  0.0809 -4.2362
 8160SOL     OW35938   4.406   0.799  13.189 -0.4016  0.0631 -0.2164
 8160SOL    HW135939   4.313   0.787  13.206  0.0858 -3.5259 -0.1277
 8160SOL    HW235940   4.401   0.852  13.109  0.6181 -2.8360 -2.1897
 8161SOL     OW35941   4.439   3.902   9.622  0.2287 -1.1732 -1.3057
 8161SOL    HW135942   4.460   3.891   9.715  2.3179  0.8438 -1.5445
 8161SOL    HW235943   4.520   3.927   9.578  0.8384 -0.7517  0.0761
 8162SOL     OW35944   4.664   0.305   9.608 -0.1707  0.7619 -0.4837
 8162SOL    HW135945   4.665   0.350   9.692 -1.3387 -0.4576  0.1844
 8162SOL    HW235946   0.000   0.360   9.555  1.5600 -0.1577  0.4435
 8163SOL     OW35947   1.233   3.150   1.603 -0.0995  0.2593  0.4201
 8163SOL    HW135948   1.181   3.136   1.682  1.6200  0.0803  1.5200
 8163SOL    HW235949   1.163   3.144   1.538 -0.8465  0.7991  1.1691
 8164SOL     OW35950   0.103   0.489  12.560 -0.3218  0.3730 -0.1829
 8164SOL    HW135951   0.191   0.519  12.537 -0.4028  0.0768 -0.8748
 8164SOL    HW235952   0.048   0.566  12.578  0.1371  0.0189  2.6992
 8165SOL     OW35953   3.571   1.759   7.752  0.3859  0.3761  0.5122
 8165SOL    HW135954   3.653   1.747   7.799  0.6020 -0.5833 -0.0964
 8165SOL    HW235955   3.548   1.849   7.772 -1.4070  0.2596 -1.0815
 8166SOL     OW35956   3.808   1.961  16.887  0.0057  0.1814  0.2821
 8166SOL    HW135957   3.745   1.930  16.951 -1.7271  0.3695 -1.3275
 8166SOL    HW235958   3.883   1.980  16.944  0.2938 -0.9088  0.2539
 8167SOL     OW35959   0.988   0.520  17.661 -0.1255 -0.0698 -0.3280
 8167SOL    HW135960   0.929   0.595  17.654  1.1953  1.2437  2.4604
 8167SOL    HW235961   1.054   0.551   0.036 -0.1499 -1.3713  0.3638
 8168SOL     OW35962   0.286   1.423  12.986 -0.2602  0.1666 -0.1744
 8168SOL    HW135963   0.272   1.350  13.046  0.8496 -0.9235 -1.2431
 8168SOL    HW235964   0.371   1.409  12.945 -1.5616 -0.8584 -2.5824
 8169SOL     OW35965   3.431   3.567   8.130  0.5276  0.3131 -0.0304
 8169SOL    HW135966   3.378   3.600   8.057  0.0430 -2.9409 -1.1379
 8169SOL    HW235967   3.374   3.524   8.193 -1.1675  3.7412  0.7639
 8170SOL     OW35968   0.714   1.141   7.023  0.2216 -0.3238 -0.3734
 8170SOL    HW135969   0.647   1.107   7.082 -0.7253  0.9628 -0.7193
 8170SOL    HW235970   0.786   1.088   7.056  1.2006 -0.8179 -3.2601
 8171SOL     OW35971   2.849   0.230   9.265 -0.1919  0.0746  0.5571
 8171SOL    HW135972   2.812   0.147   9.234 -0.8584  0.5059  0.1995
 8171SOL    HW235973   2.928   0.202   9.311  1.1453 -0.3147 -1.9249
 8172SOL     OW35974   3.050   0.123  15.007  0.0568  0.0218 -0.2971
 8172SOL    HW135975   3.069   0.039  14.965  0.3250 -2.5484  4.9244
 8172SOL    HW235976   2.964   0.151  14.976 -0.3031 -2.0344 -1.1474
 8173SOL     OW35977   4.432   0.443   5.960 -0.0814 -0.6947 -0.7795
 8173SOL    HW135978   4.406   0.404   5.877  0.2111 -0.5316 -0.9459
 8173SOL    HW235979   4.346   0.478   5.984  1.3629  1.2224  1.6286
 8174SOL     OW35980   4.375   0.752  10.407 -0.0339  0.4826 -0.1784
 8174SOL    HW135981   4.323   0.687  10.359  2.8137 -2.1623  0.2992
 8174SOL    HW235982   4.409   0.703  10.481 -0.1601  2.0405  0.8991
 8175SOL     OW35983   3.541   2.326  14.506 -0.5533  0.5986 -0.0701
 8175SOL    HW135984   3.498   2.410  14.525  0.5976  0.8303  1.4360
 8175SOL    HW235985   3.592   2.310  14.585 -0.3016  2.4767  0.1382
 8176SOL     OW35986   2.012   2.895   3.201 -0.1004  0.0269  0.2180
 8176SOL    HW135987   1.923   2.925   3.181  0.7702  2.7724  0.4560
 8176SOL    HW235988   2.051   2.879   3.115 -2.8662 -1.7836 -0.6830
 8177SOL     OW35989   2.890   1.828  16.779 -0.1801  0.2958  0.2774
 8177SOL    HW135990   2.857   1.903  16.828  0.3741 -1.2564  3.0350
 8177SOL    HW235991   2.816   1.812  16.720  0.9916 -1.8306 -0.6012
 8178SOL     OW35992   2.153   1.609   6.651 -0.0242  0.0111  0.2925
 8178SOL    HW135993   2.207   1.584   6.726  0.2509  3.0012  1.0719
 8178SOL    HW235994   2.136   1.701   6.669  1.7723  0.0406  1.7894
 8179SOL     OW35995   0.220   2.508   2.103 -0.6132  1.0204 -0.4039
 8179SOL    HW135996   0.199   2.592   2.143 -0.1619  1.3871 -0.9320
 8179SOL    HW235997   0.229   2.533   2.011  2.6128 -1.0303 -0.6569
 8180SOL     OW35998   1.789   4.450   3.925 -0.4590 -0.0223  0.6217
 8180SOL    HW135999   1.805   4.463   3.832 -0.1601 -1.9891  0.4120
 8180SOL    HW236000   1.758   4.539   3.946 -0.6529 -0.0816  0.5928
 8181SOL     OW36001   2.987   1.832  16.413  0.1346 -0.7345 -0.1249
 8181SOL    HW136002   2.931   1.832  16.335 -0.8232 -1.6050  0.5700
 8181SOL    HW236003   3.065   1.881  16.388  0.6496 -1.3695  0.2362
 8182SOL     OW36004   3.907   2.021   6.641  0.9730 -0.6114 -0.4619
 8182SOL    HW136005   3.837   1.976   6.593  0.0610 -0.8576  1.1265
 8182SOL    HW236006   3.862   2.105   6.654  0.5062 -1.0621  0.7984
 8183SOL     OW36007   1.771   0.722   3.987  0.1266 -0.0904 -0.8877
 8183SOL    HW136008   1.841   0.658   3.969 -0.7290 -0.8175 -1.6865
 8183SOL    HW236009   1.763   0.718   4.082 -1.1630  0.4611 -0.9788
 8184SOL     OW36010   0.809   1.283   5.914 -0.1607 -0.2308 -0.1428
 8184SOL    HW136011   0.826   1.293   6.008 -1.6745  0.5913  0.0402
 8184SOL    HW236012   0.714   1.277   5.917 -0.2603  1.9879  0.5938
 8185SOL     OW36013   1.196   1.221  16.866  0.0092  0.8414  0.7265
 8185SOL    HW136014   1.145   1.289  16.821 -0.7398 -1.5618 -2.0412
 8185SOL    HW236015   1.280   1.243  16.827 -0.9183  0.4518 -1.5107
 8186SOL     OW36016   1.516   2.944   6.873  0.0686 -0.0097 -0.5193
 8186SOL    HW136017   1.433   2.909   6.840  0.3974  0.5543 -1.9245
 8186SOL    HW236018   1.542   2.881   6.940  0.2490  1.6261  0.9402
 8187SOL     OW36019   0.427   3.615   8.361 -0.2239  0.3419 -0.3362
 8187SOL    HW136020   0.353   3.666   8.328  0.1560  1.6772  0.8953
 8187SOL    HW236021   0.445   3.554   8.289  3.3754 -1.6636  2.2350
 8188SOL     OW36022   4.476   3.810  16.823  0.1562 -0.1780 -0.5304
 8188SOL    HW136023   4.436   3.873  16.884  0.0273 -1.3166  0.5633
 8188SOL    HW236024   4.569   3.817  16.844 -0.1386  1.3644  0.2832
 8189SOL     OW36025   1.775   2.377  15.134  0.1035 -0.0070 -0.2466
 8189SOL    HW136026   1.807   2.303  15.082 -0.1666  0.4390 -1.0593
 8189SOL    HW236027   1.796   2.341  15.220  0.9263 -0.2434 -0.5442
 8190SOL     OW36028   4.454   4.078   9.090 -0.0743 -0.5446 -0.4213
 8190SOL    HW136029   4.477   4.019   9.019 -0.4164 -1.3551  0.1348
 8190SOL    HW236030   4.484   4.034   9.170  1.3675 -0.6471 -1.0133
 8191SOL     OW36031   0.721   2.295   5.541 -0.6419  0.4878  0.2917
 8191SOL    HW136032   0.697   2.264   5.454  0.6446 -0.4059  0.2472
 8191SOL    HW236033   0.801   2.243   5.552  0.4390  1.5236 -2.7522
 8192SOL     OW36034   0.348   4.463   6.269 -0.0852  0.2760  0.5109
 8192SOL    HW136035   0.378   4.543   6.312 -0.0919 -0.1257  1.2623
 8192SOL    HW236036   0.423   4.439   6.214  0.2484 -1.1460  1.6041
 8193SOL     OW36037   1.242   3.001   7.711 -0.0502  0.4563 -0.2492
 8193SOL    HW136038   1.238   3.058   7.634  0.9380  2.8546  1.5041
 8193SOL    HW236039   1.281   2.921   7.674 -1.2909  0.4649 -1.5770
 8194SOL     OW36040   3.650   4.285   7.648 -0.3972 -0.1272  0.1353
 8194SOL    HW136041   3.591   4.218   7.613 -1.4306  0.8576 -0.0522
 8194SOL    HW236042   3.586   4.355   7.666  2.2551  1.3384  3.6946
 8195SOL     OW36043   2.178   3.715  13.360 -0.1795 -0.3931 -0.8324
 8195SOL    HW136044   2.092   3.757  13.364  0.5182  1.0598 -1.3194
 8195SOL    HW236045   2.222   3.774  13.420 -0.7104 -0.2408 -0.5939
 8196SOL     OW36046   2.356   3.800   4.584  0.5061  0.3444 -0.4622
 8196SOL    HW136047   2.280   3.857   4.595  1.2706  0.8965  1.9158
 8196SOL    HW236048   2.364   3.781   4.490 -0.2293 -0.7336 -0.3059
 8197SOL     OW36049   1.224   1.331  10.555  0.4636 -0.4205  0.0608
 8197SOL    HW136050   1.226   1.264  10.624  0.8096  0.0022  0.4628
 8197SOL    HW236051   1.228   1.409  10.610 -0.8262 -0.0372 -0.3887
 8198SOL     OW36052   2.124   1.681  16.592 -0.2790  0.3616  0.4094
 8198SOL    HW136053   2.067   1.707  16.665  0.0768 -0.5552  1.0038
 8198SOL    HW236054   2.192   1.638  16.642  0.8472  2.1614  0.4443
 8199SOL     OW36055   2.743   0.873   7.196  0.0045  0.0032 -0.3251
 8199SOL    HW136056   2.829   0.903   7.166  0.1798  3.0416  3.2136
 8199SOL    HW236057   2.770   0.813   7.266  0.3807 -0.0213 -0.4898
 8200SOL     OW36058   0.962   3.337   2.178 -0.5598 -0.1582 -1.4188
 8200SOL    HW136059   0.998   3.352   2.091  2.5012  0.5918 -0.0012
 8200SOL    HW236060   1.017   3.262   2.203  1.8715  3.2990  3.5484
 8201SOL     OW36061   2.085   2.700   7.767 -0.4171  0.2120 -0.1423
 8201SOL    HW136062   2.101   2.605   7.766 -2.0663 -0.0556 -0.1979
 8201SOL    HW236063   2.004   2.710   7.817  0.9625 -1.5638  2.4757
 8202SOL     OW36064   2.497   3.630   5.898 -0.4022  0.0075 -0.4478
 8202SOL    HW136065   2.513   3.656   5.988 -0.9537 -0.1941 -0.2861
 8202SOL    HW236066   2.430   3.694   5.871  0.4126  0.6401 -0.9638
 8203SOL     OW36067   2.563   4.130   7.073  0.0993  0.1727 -0.2573
 8203SOL    HW136068   2.619   4.208   7.064 -0.7618  0.5549 -2.3169
 8203SOL    HW236069   2.481   4.165   7.108 -0.5449 -2.7170  1.1160
 8204SOL     OW36070   3.425   0.666  13.704 -0.3609  0.4730 -0.0313
 8204SOL    HW136071   3.392   0.720  13.776 -0.4561 -3.0617  2.5783
 8204SOL    HW236072   3.517   0.655  13.729 -0.3965  2.3136  0.8536
 8205SOL     OW36073   2.618   4.436   9.105  0.1069  0.3739  0.2942
 8205SOL    HW136074   2.626   4.474   9.017  0.7766  0.3607  0.3538
 8205SOL    HW236075   2.711   4.423   9.122  0.1272 -0.1911 -0.2223
 8206SOL     OW36076   1.595   2.347   4.443 -0.2034 -0.4618 -0.0203
 8206SOL    HW136077   1.628   2.325   4.530 -0.3512 -0.2072  0.0992
 8206SOL    HW236078   1.517   2.399   4.461 -1.5263 -2.5851  0.3482
 8207SOL     OW36079   1.694   0.002  16.969  0.2303  0.1353 -0.3318
 8207SOL    HW136080   1.679   4.650  16.909  2.6232 -0.1654 -0.5685
 8207SOL    HW236081   1.787   4.720  16.992  0.2881  0.7950 -0.4598
 8208SOL     OW36082   2.181   3.356   8.688 -0.6052  0.5327  0.1550
 8208SOL    HW136083   2.147   3.298   8.756  0.2911  1.2185  1.1981
 8208SOL    HW236084   2.149   3.305   8.614  1.1577 -2.6753  1.6014
 8209SOL     OW36085   4.655   0.899  13.252 -0.8055  0.1649  0.0570
 8209SOL    HW136086   4.619   0.968  13.307 -1.9553 -1.2931  1.1386
 8209SOL    HW236087   4.576   0.858  13.217 -1.6341 -0.8412  3.1052
 8210SOL     OW36088   2.079   0.216   1.433 -0.1281 -0.1035  0.4290
 8210SOL    HW136089   2.003   0.263   1.399 -1.9203 -1.3381  2.7149
 8210SOL    HW236090   2.066   0.130   1.393  0.2775 -0.8806  1.9529
 8211SOL     OW36091   2.903   0.946  14.821  0.8054 -0.6648 -0.0219
 8211SOL    HW136092   2.994   0.934  14.846  0.6560  0.7638  1.1999
 8211SOL    HW236093   2.866   0.939  14.909  0.0752  2.5767 -0.0730
 8212SOL     OW36094   3.616   3.329   3.454 -0.0873 -0.2929 -0.2927
 8212SOL    HW136095   3.563   3.337   3.534  0.4932 -2.0814  0.2809
 8212SOL    HW236096   3.610   3.421   3.429  1.8447 -0.5418 -1.7144
 8213SOL     OW36097   1.625   4.582  13.539 -0.0356  0.4413 -0.7709
 8213SOL    HW136098   1.708   4.601  13.583 -1.1003  1.9246  0.5824
 8213SOL    HW236099   1.658   4.518  13.476 -2.2339 -1.0450 -0.3995
 8214SOL     OW36100   2.121   4.308   5.391 -0.2337 -0.0377  0.3451
 8214SOL    HW136101   2.078   4.226   5.416  0.2271 -0.7051 -1.0467
 8214SOL    HW236102   2.103   4.292   5.298  1.0920  0.9838 -0.0868
 8215SOL     OW36103   2.061   4.386   4.146 -0.1946  0.0003  0.5650
 8215SOL    HW136104   1.983   4.410   4.096 -0.0662 -0.9431 -0.0832
 8215SOL    HW236105   2.028   4.404   4.234  0.7451 -0.4573  1.0087
 8216SOL     OW36106   2.882   3.040  10.248 -0.5070 -0.3646 -0.4330
 8216SOL    HW136107   2.950   3.082  10.300 -1.2841  0.4208 -0.0398
 8216SOL    HW236108   2.807   3.098  10.260 -0.3340 -0.0940 -0.6670
 8217SOL     OW36109   1.347   0.036   4.823  0.3245  0.1326  0.3012
 8217SOL    HW136110   1.305   4.681   4.864 -1.2031  0.3619 -0.8094
 8217SOL    HW236111   1.404   0.055   4.897 -1.4151  2.7202  0.9665
 8218SOL     OW36112   3.910   2.487  17.055  0.4053  0.2690  0.2782
 8218SOL    HW136113   3.818   2.462  17.051  0.4450 -0.2725  2.4532
 8218SOL    HW236114   3.915   2.545  16.980 -0.1165 -0.1557 -0.0836
 8219SOL     OW36115   4.417   2.003   8.181 -0.3858  0.0752 -0.8136
 8219SOL    HW136116   4.508   1.976   8.164 -0.6690  1.0562 -3.8085
 8219SOL    HW236117   4.400   2.065   8.110  1.4248 -0.7658 -1.9975
 8220SOL     OW36118   2.641   3.935   2.915  0.6042  0.5359 -0.4927
 8220SOL    HW136119   2.595   3.951   2.997 -2.5473 -0.7615 -1.9980
 8220SOL    HW236120   2.673   4.025   2.904  0.0288  0.7422 -0.5245
 8221SOL     OW36121   3.778   0.155  15.841 -0.1123 -0.1679  0.7678
 8221SOL    HW136122   3.841   0.202  15.786 -1.4537  0.3564 -0.3184
 8221SOL    HW236123   3.771   0.069  15.799  1.2807  0.3693 -0.5665
 8222SOL     OW36124   0.340   3.277   1.721  0.0837 -0.1435  0.0778
 8222SOL    HW136125   0.307   3.360   1.685  2.3437  1.0495  0.7646
 8222SOL    HW236126   0.435   3.291   1.721  0.4071 -2.4071  1.0136
 8223SOL     OW36127   1.801   3.539  15.294 -0.1780 -0.1837  0.0317
 8223SOL    HW136128   1.722   3.542  15.347 -0.3478 -0.0092 -0.2278
 8223SOL    HW236129   1.874   3.551  15.354  0.5954 -0.8896 -0.7684
 8224SOL     OW36130   2.865   0.039   5.762 -0.2814  0.2982 -0.6481
 8224SOL    HW136131   2.884   0.117   5.710 -0.7176  1.1839  0.5430
 8224SOL    HW236132   2.770   0.038   5.774 -0.0266 -0.8083  1.3590
 8225SOL     OW36133   1.361   0.692   8.064 -0.9662  0.1291  0.0891
 8225SOL    HW136134   1.336   0.610   8.106 -0.9960 -0.0881 -0.3449
 8225SOL    HW236135   1.335   0.677   7.973  2.2534 -0.7937 -0.6618
 8226SOL     OW36136   3.958   1.634  12.858  0.3582  0.9104 -0.7126
 8226SOL    HW136137   3.965   1.541  12.879 -0.6659  1.3770  1.7170
 8226SOL    HW236138   3.875   1.649  12.905 -0.4892  0.6175 -2.1220
 8227SOL     OW36139   1.383   3.177   1.895 -0.2059  0.6789 -0.3316
 8227SOL    HW136140   1.357   3.155   1.806  0.2348  0.9868 -0.5337
 8227SOL    HW236141   1.306   3.219   1.935 -0.8283 -0.3981 -0.4151
 8228SOL     OW36142   0.927   0.124   3.071 -0.5315  0.5039  0.1598
 8228SOL    HW136143   0.986   0.116   3.146  1.0526  1.1717 -1.0222
 8228SOL    HW236144   0.995   0.109   3.006 -0.7162  1.1416 -0.1808
 8229SOL     OW36145   4.689   1.247   5.389 -0.4010 -0.3474  0.2678
 8229SOL    HW136146   4.654   1.169   5.432 -0.9966 -0.2904 -0.1069
 8229SOL    HW236147   0.060   1.237   5.414 -0.1295  1.2285 -0.0878
 8230SOL     OW36148   0.199   4.111   2.448 -0.2602  0.7593  0.0317
 8230SOL    HW136149   0.246   4.068   2.377 -2.2896 -1.1399 -0.1748
 8230SOL    HW236150   0.175   4.193   2.406  0.4858  0.4106 -1.0667
 8231SOL     OW36151   1.500   2.238   2.949  0.0389  0.1327  0.7524
 8231SOL    HW136152   1.463   2.279   2.871  0.5604 -1.0413 -0.1038
 8231SOL    HW236153   1.455   2.303   3.003  0.9719 -0.0871  1.7835
 8232SOL     OW36154   3.769   3.068   2.678 -0.6380  0.1961 -0.5780
 8232SOL    HW136155   3.744   3.122   2.603 -1.7995  2.6590  1.5809
 8232SOL    HW236156   3.714   2.991   2.669 -0.5209  0.0531 -0.0529
 8233SOL     OW36157   3.284   0.747   0.255 -0.1539  0.4732  0.2156
 8233SOL    HW136158   3.216   0.686   0.227  0.4250 -0.2827  0.4448
 8233SOL    HW236159   3.227   0.797   0.313 -1.1991 -1.3192  0.7683
 8234SOL     OW36160   3.241   3.131   2.808  0.1438 -0.4973  0.1210
 8234SOL    HW136161   3.305   3.148   2.877 -1.3571  1.2540  1.0734
 8234SOL    HW236162   3.281   3.165   2.727  0.5583  1.0156  0.9625
 8235SOL     OW36163   4.367   4.021   3.239 -0.0777  0.5253  0.5669
 8235SOL    HW136164   4.314   4.041   3.316 -1.1183  1.0894 -0.3022
 8235SOL    HW236165   4.456   4.036   3.271 -0.1850 -0.0036  1.1173
 8236SOL     OW36166   2.981   1.930   9.610 -0.0687  0.6351  0.5072
 8236SOL    HW136167   2.996   1.837   9.590 -1.6293  0.7444 -1.2118
 8236SOL    HW236168   2.895   1.940   9.569  0.6036 -0.4346 -1.2121
 8237SOL     OW36169   0.406   3.910   8.131  0.4865 -0.1475 -0.4039
 8237SOL    HW136170   0.329   3.906   8.187  0.0366  0.6414 -0.9635
 8237SOL    HW236171   0.449   3.828   8.154  3.8784  1.4144 -1.1430
 8238SOL     OW36172   4.190   0.451   3.978 -0.0600  0.1143 -0.1437
 8238SOL    HW136173   4.264   0.431   3.922 -1.4097 -0.2019 -1.8183
 8238SOL    HW236174   4.222   0.532   4.017 -2.0680  2.3316 -3.1444
 8239SOL     OW36175   0.534   0.169   8.220  0.0075 -0.2566  0.2762
 8239SOL    HW136176   0.469   0.145   8.286 -1.6196 -0.4470 -1.4084
 8239SOL    HW236177   0.595   0.096   8.226 -1.3380 -1.3947  0.2101
 8240SOL     OW36178   2.457   3.491   3.010 -0.2586  0.7536 -0.0266
 8240SOL    HW136179   2.451   3.447   3.095 -1.0975  3.3814  1.2840
 8240SOL    HW236180   2.384   3.449   2.965  2.4880 -1.4957 -2.3870
 8241SOL     OW36181   3.817   0.076   0.461 -0.4741 -0.0910 -0.1862
 8241SOL    HW136182   3.798   0.170   0.453  2.7942  0.4696 -1.6007
 8241SOL    HW236183   3.910   0.070   0.441 -0.7813 -1.3330 -1.2517
 8242SOL     OW36184   1.676   0.260   7.109  0.4082  0.3312  0.4018
 8242SOL    HW136185   1.582   0.254   7.097  1.0368 -1.3970 -3.4392
 8242SOL    HW236186   1.668   0.326   7.179 -1.0870  1.2571 -0.6423
 8243SOL     OW36187   0.940   2.991   4.885 -0.2700 -0.6277  0.3758
 8243SOL    HW136188   0.982   2.916   4.844  0.8483  0.4700 -0.4972
 8243SOL    HW236189   0.869   2.947   4.931  0.7353 -0.8975  1.6524
 8244SOL     OW36190   0.325   0.653  12.168  0.1689  0.0215  0.4749
 8244SOL    HW136191   0.298   0.617  12.083 -0.1790  0.0254  0.5810
 8244SOL    HW236192   0.374   0.726  12.130  0.5073  0.9448  2.7168
 8245SOL     OW36193   1.684   1.571   6.334  0.0680  0.1369 -0.1404
 8245SOL    HW136194   1.666   1.534   6.421  0.4306 -1.0630 -0.5773
 8245SOL    HW236195   1.704   1.491   6.287 -0.9500 -0.1400 -0.0975
 8246SOL     OW36196   2.779   0.892   1.763 -0.6599  0.4445  0.4164
 8246SOL    HW136197   2.763   0.986   1.758 -1.5878  0.3010  0.5955
 8246SOL    HW236198   2.697   0.859   1.725  1.3143 -2.3755 -1.4359
 8247SOL     OW36199   0.061   2.596   3.337  0.3148 -0.1447  0.0359
 8247SOL    HW136200   0.006   2.644   3.276  1.2851  2.6449  1.3380
 8247SOL    HW236201   0.087   2.674   3.386  2.1451 -0.9474  0.3578
 8248SOL     OW36202   3.746   2.063  10.503 -0.2463 -0.0476  0.3843
 8248SOL    HW136203   3.826   2.089  10.457  0.5435 -1.7672  0.7922
 8248SOL    HW236204   3.779   2.067  10.593  2.2412 -2.2460 -0.4413
 8249SOL     OW36205   3.514   2.499   7.269  0.5096  0.5177  0.2323
 8249SOL    HW136206   3.504   2.427   7.331  0.6500 -1.1518 -1.6434
 8249SOL    HW236207   3.433   2.550   7.275  0.3863  0.4357 -0.6918
 8250SOL     OW36208   2.326   3.831   8.504 -0.2954  0.3292 -0.4346
 8250SOL    HW136209   2.276   3.761   8.546 -1.3041  1.1078 -0.3374
 8250SOL    HW236210   2.362   3.873   8.582 -0.9466  2.5120 -1.3152
 8251SOL     OW36211   4.362   3.460   2.782 -0.4324  0.0145  0.0404
 8251SOL    HW136212   4.373   3.553   2.764  1.0340 -0.0214  0.8159
 8251SOL    HW236213   4.430   3.436   2.845  0.1791  1.5828 -0.0500
 8252SOL     OW36214   0.789   1.156   3.093  0.6670 -0.8284  0.0518
 8252SOL    HW136215   0.717   1.093   3.102 -1.0930  1.0153 -1.0157
 8252SOL    HW236216   0.864   1.098   3.104  0.0348 -1.6022  0.3215
 8253SOL     OW36217   4.375   1.615   6.741 -0.5153  0.4813 -0.3952
 8253SOL    HW136218   4.330   1.594   6.823  0.4940 -0.5495 -0.0875
 8253SOL    HW236219   4.402   1.706   6.734  2.3132 -0.2227  1.2105
 8254SOL     OW36220   3.975   2.103   5.941  0.1069  0.1489  0.6900
 8254SOL    HW136221   3.939   2.186   5.973 -0.5103  0.1632 -0.0564
 8254SOL    HW236222   3.998   2.061   6.024 -2.3664 -1.0079  0.7583
 8255SOL     OW36223   0.596   0.294   3.804 -0.0133  0.3665 -0.0868
 8255SOL    HW136224   0.652   0.235   3.753 -0.4992  0.4566 -0.7255
 8255SOL    HW236225   0.583   0.238   3.880 -0.9675 -1.0505 -1.2938
 8256SOL     OW36226   3.543   0.945  14.610 -0.2057  0.1711 -0.0894
 8256SOL    HW136227   3.451   0.921  14.607  0.0144 -0.4229 -2.5550
 8256SOL    HW236228   3.560   0.966  14.518 -0.1698 -1.1599 -0.3796
 8257SOL     OW36229   1.765   1.888   2.450  0.1277 -0.3403 -0.4565
 8257SOL    HW136230   1.780   1.949   2.522  0.4578  0.9696 -1.6264
 8257SOL    HW236231   1.854   1.862   2.429  0.1699 -0.1257 -0.5487
 8258SOL     OW36232   2.338   2.414   2.559 -0.8807  0.0523  0.0550
 8258SOL    HW136233   2.410   2.474   2.578 -1.4816 -0.2260  3.0921
 8258SOL    HW236234   2.373   2.341   2.609  3.0050  1.4040 -0.6883
 8259SOL     OW36235   0.653   1.613   8.024  0.4004 -0.2278  0.2108
 8259SOL    HW136236   0.563   1.580   8.027  1.6189 -3.5157  0.4611
 8259SOL    HW236237   0.674   1.634   7.933  2.2221  0.7175  0.8633
 8260SOL     OW36238   0.942   3.621   0.784  0.0653  0.4050  0.0394
 8260SOL    HW136239   0.994   3.624   0.704  0.7401  1.2985  0.5110
 8260SOL    HW236240   0.971   3.695   0.837  0.3902  1.5611 -1.7492
 8261SOL     OW36241   4.634   2.035   4.170 -0.8039  0.4325  0.5415
 8261SOL    HW136242   4.553   1.985   4.176 -0.6440  0.0147 -0.7429
 8261SOL    HW236243   4.628   2.066   4.260 -1.0500  2.1148 -0.0712
 8262SOL     OW36244   4.349   2.881   9.563 -0.0555 -0.1924  0.2542
 8262SOL    HW136245   4.322   2.967   9.530 -1.6459 -0.1108  1.8076
 8262SOL    HW236246   4.413   2.909   9.629  1.4208  1.6048 -1.9466
 8263SOL     OW36247   2.743   1.185   7.267  0.5342  0.1975  0.3815
 8263SOL    HW136248   2.731   1.209   7.359 -0.4417 -0.1323  0.3422
 8263SOL    HW236249   2.707   1.096   7.268  0.2070  0.3199 -0.4638
 8264SOL     OW36250   2.909   2.785   1.840  0.0873  0.3395 -0.2319
 8264SOL    HW136251   2.840   2.843   1.872  0.0448 -0.0892  0.4497
 8264SOL    HW236252   2.968   2.783   1.915  2.3997  0.7722 -2.0265
 8265SOL     OW36253   4.105   3.525   7.512  0.1165 -0.1294  0.6107
 8265SOL    HW136254   4.021   3.558   7.542  0.0276 -0.4486  0.7113
 8265SOL    HW236255   4.092   3.431   7.525  1.1744 -0.0513  2.3013
 8266SOL     OW36256   0.484   0.727  16.664  0.2100  0.0312 -0.1793
 8266SOL    HW136257   0.534   0.668  16.720 -0.0381  0.0111  0.0187
 8266SOL    HW236258   0.495   0.812  16.708  1.0126 -0.0912 -0.1420
 8267SOL     OW36259   3.524   4.032  17.686  0.1490  0.4967 -0.2761
 8267SOL    HW136260   3.495   3.953  17.640 -0.1194 -0.3224  1.2886
 8267SOL    HW236261   3.592   3.992   0.053 -3.5194 -4.5508  0.6444
 8268SOL     OW36262   4.276   1.526   3.703 -0.5138  0.5616 -0.8097
 8268SOL    HW136263   4.310   1.532   3.613 -1.9042  0.3201 -1.3408
 8268SOL    HW236264   4.229   1.443   3.694  0.6207 -0.2668  1.0875
 8269SOL     OW36265   4.295   4.347   8.352 -0.8557 -0.4226 -0.1885
 8269SOL    HW136266   4.389   4.358   8.366 -0.7739 -2.3227  0.7951
 8269SOL    HW236267   4.269   4.336   8.444  2.2546 -1.3163  0.5620
 8270SOL     OW36268   4.049   3.786   7.354  0.1180 -0.5809 -0.2171
 8270SOL    HW136269   4.127   3.740   7.385  1.2323  1.0759 -0.5388
 8270SOL    HW236270   4.020   3.821   7.439  2.3374 -0.6203  0.5657
 8271SOL     OW36271   2.655   0.630  15.181  0.0969 -0.4498 -1.1589
 8271SOL    HW136272   2.666   0.701  15.118 -1.1368  1.1918  0.4748
 8271SOL    HW236273   2.682   0.559  15.122 -2.3626 -2.9290  0.6972
 8272SOL     OW36274   0.530   4.324   6.127  0.2105  0.4170 -0.2744
 8272SOL    HW136275   0.573   4.364   6.051 -0.2070 -0.5497 -1.0096
 8272SOL    HW236276   0.493   4.243   6.092 -1.0968  0.9298 -0.0944
 8273SOL     OW36277   3.227   0.478   8.991 -0.0410 -0.0203  0.1167
 8273SOL    HW136278   3.138   0.442   8.989 -0.6990  1.5944  0.1378
 8273SOL    HW236279   3.248   0.443   9.077  0.6040 -1.7088 -0.7146
 8274SOL     OW36280   1.285   3.856   8.780  0.1863 -0.5867  0.2014
 8274SOL    HW136281   1.310   3.771   8.816  0.9039  0.1329  1.3643
 8274SOL    HW236282   1.348   3.870   8.710  0.3829  0.7664  0.6592
 8275SOL     OW36283   3.928   4.612   3.282  0.2926 -0.2141 -0.2388
 8275SOL    HW136284   3.872   4.689   3.278 -0.8428 -1.0233  0.0027
 8275SOL    HW236285   3.906   4.572   3.198  0.2024  0.6460 -0.6271
 8276SOL     OW36286   1.627   2.426   8.423 -0.2355  0.4717 -0.1641
 8276SOL    HW136287   1.533   2.408   8.416 -0.0524 -1.1719  1.7592
 8276SOL    HW236288   1.660   2.364   8.358 -0.1439  1.4237 -1.0270
 8277SOL     OW36289   0.187   4.153   8.413 -0.4589 -0.2473 -0.2922
 8277SOL    HW136290   0.234   4.229   8.447  1.8339 -2.3305  1.2201
 8277SOL    HW236291   0.143   4.137   8.496  0.4902 -1.1004  0.0470
 8278SOL     OW36292   2.601   3.706   2.776 -0.1965 -0.1567  0.1201
 8278SOL    HW136293   2.631   3.797   2.780  2.0352 -0.7866 -1.8107
 8278SOL    HW236294   2.544   3.706   2.699 -0.8523  0.6705  0.6126
 8279SOL     OW36295   0.941   4.529   3.769 -0.1913 -0.3117 -0.1450
 8279SOL    HW136296   1.011   4.474   3.805  2.5473  1.4350 -2.7461
 8279SOL    HW236297   0.893   4.466   3.715 -3.1863  0.7001  1.3684
 8280SOL     OW36298   1.148   2.972  11.295  0.5056  0.3968  0.2638
 8280SOL    HW136299   1.104   2.993  11.378 -0.4929  1.2655 -0.4888
 8280SOL    HW236300   1.192   3.053  11.271 -1.6187  1.5936  0.3601
 8281SOL     OW36301   3.369   4.433   7.284 -0.2734 -0.2347  0.2937
 8281SOL    HW136302   3.378   4.518   7.329 -1.0102  1.1644 -2.2370
 8281SOL    HW236303   3.422   4.442   7.205 -0.5667 -0.0288  0.1235
 8282SOL     OW36304   1.156   0.760   6.351  0.0061 -0.1011 -0.2035
 8282SOL    HW136305   1.127   0.729   6.437 -2.0311  1.0519 -0.4673
 8282SOL    HW236306   1.238   0.804   6.373  0.4961 -1.5758  0.9105
 8283SOL     OW36307   0.402   2.292   3.927  0.1649  0.2796  0.4632
 8283SOL    HW136308   0.496   2.295   3.946  0.5211 -1.8809 -0.9410
 8283SOL    HW236309   0.393   2.373   3.878 -0.7164  0.5197  1.0249
 8284SOL     OW36310   1.889   4.375   6.704 -0.0128 -0.6101  0.3159
 8284SOL    HW136311   1.796   4.390   6.686  0.9859  2.5738 -2.1354
 8284SOL    HW236312   1.878   4.311   6.774 -0.9968 -0.3595  0.3876
 8285SOL     OW36313   4.076   1.177   5.979  0.0980  0.1377  0.3915
 8285SOL    HW136314   4.149   1.143   6.031  0.2452 -1.4558 -0.8408
 8285SOL    HW236315   4.031   1.225   6.050  0.2059  0.8973 -0.0570
 8286SOL     OW36316   2.959   2.644   4.258  0.6082 -0.7041 -0.1945
 8286SOL    HW136317   3.043   2.650   4.212  0.7085 -0.8292 -0.0262
 8286SOL    HW236318   2.973   2.605   4.345  3.2535  0.4047 -0.1093
 8287SOL     OW36319   0.769   1.204   4.710 -0.3304 -0.1226 -0.7097
 8287SOL    HW136320   0.811   1.282   4.673 -0.2927 -0.2076 -0.8431
 8287SOL    HW236321   0.807   1.133   4.660 -0.3412 -0.6908  0.0864
 8288SOL     OW36322   4.424   3.981  17.077 -0.2461 -0.0231  0.1430
 8288SOL    HW136323   4.386   3.899  17.107 -2.0603  1.3372  1.5895
 8288SOL    HW236324   4.394   4.050  17.137 -2.7474  0.4608 -1.6688
 8289SOL     OW36325   0.321   3.412   5.065  0.4351 -0.2284 -0.1524
 8289SOL    HW136326   0.280   3.349   5.005 -0.8044 -0.6305  1.1013
 8289SOL    HW236327   0.270   3.489   5.043 -0.6768 -1.3799 -1.5843
 8290SOL     OW36328   2.607   0.161   4.144 -0.2539  0.2052 -0.5862
 8290SOL    HW136329   2.646   0.139   4.060  2.1457  0.2306  0.5083
 8290SOL    HW236330   2.530   0.215   4.124 -1.2445 -0.8642  0.3018
 8291SOL     OW36331   0.320   2.193   3.184  0.8440 -0.4461 -0.3091
 8291SOL    HW136332   0.243   2.249   3.179  1.0820 -0.1443 -0.6928
 8291SOL    HW236333   0.297   2.129   3.116 -3.7788  0.6923  0.1684
 8292SOL     OW36334   3.808   0.363   7.277  0.0466  0.4026  0.0970
 8292SOL    HW136335   3.713   0.350   7.286  0.4727 -1.3891  1.9732
 8292SOL    HW236336   3.834   0.393   7.364  1.6760  1.7104 -0.8551
 8293SOL     OW36337   1.816   0.128   7.353 -0.1342 -0.3373 -0.0140
 8293SOL    HW136338   1.756   0.194   7.319  1.2610  1.1353  0.3396
 8293SOL    HW236339   1.765   0.076   7.415  0.4846 -1.8328 -0.7436
 8294SOL     OW36340   3.405   0.616   6.445 -0.2191  0.6668  0.2132
 8294SOL    HW136341   3.398   0.563   6.366  1.3805  0.9261 -0.1180
 8294SOL    HW236342   3.493   0.651   6.430  0.5726 -2.1740 -1.8130
 8295SOL     OW36343   0.775   3.272   7.982 -0.7083  0.7274 -0.2473
 8295SOL    HW136344   0.686   3.274   8.019 -0.9568 -0.6971 -0.7882
 8295SOL    HW236345   0.826   3.276   8.062 -0.0926 -0.1732 -0.6000
 8296SOL     OW36346   0.704   3.392  15.739  0.1010  0.6125  0.1190
 8296SOL    HW136347   0.628   3.425  15.690  1.0195 -0.2578 -1.8528
 8296SOL    HW236348   0.718   3.471  15.792 -0.5050  0.7874  0.0300
 8297SOL     OW36349   4.611   2.755   8.075  0.2651 -0.1895 -0.1448
 8297SOL    HW136350   4.604   2.850   8.058 -0.4852 -0.1280  0.5004
 8297SOL    HW236351   4.560   2.750   8.156  0.2065 -0.3861 -0.1946
 8298SOL     OW36352   2.879   3.214   7.648  0.1784 -0.4283 -0.3905
 8298SOL    HW136353   2.886   3.236   7.741 -1.3375  0.8547 -0.5613
 8298SOL    HW236354   2.901   3.297   7.606 -0.5178 -0.5824 -1.0545
 8299SOL     OW36355   0.853   2.682   7.268  0.2831  0.3281  0.7278
 8299SOL    HW136356   0.843   2.765   7.222  0.3992 -1.2431 -2.1021
 8299SOL    HW236357   0.842   2.712   7.358  0.3840  2.4994  0.0190
 8300SOL     OW36358   1.692   3.236  14.932  0.3173  0.0834 -0.8560
 8300SOL    HW136359   1.764   3.181  14.901  0.9978  0.7084 -0.3616
 8300SOL    HW236360   1.718   3.264  15.020 -3.0627 -0.1996  0.2506
 8301SOL     OW36361   3.327   2.392   2.801 -0.3241  0.2345 -0.0655
 8301SOL    HW136362   3.310   2.476   2.759  2.0892  0.6190 -0.2632
 8301SOL    HW236363   3.388   2.418   2.870  0.2910 -1.6415  0.1097
 8302SOL     OW36364   3.227   4.421   9.177 -0.0381 -0.9038 -0.1524
 8302SOL    HW136365   3.276   4.472   9.241 -1.2008 -1.1685  0.9602
 8302SOL    HW236366   3.266   4.335   9.188 -0.7607 -1.0404  1.3654
 8303SOL     OW36367   1.557   3.084   7.723  0.0102 -0.2896  0.4420
 8303SOL    HW136368   1.519   3.164   7.686  1.4450  0.1061 -0.1854
 8303SOL    HW236369   1.593   3.110   7.808 -2.0489  0.9738  0.9388
 8304SOL     OW36370   3.960   0.773   5.561  0.5117 -0.3872 -0.2085
 8304SOL    HW136371   3.911   0.848   5.528  0.6197 -0.5306 -0.7042
 8304SOL    HW236372   3.937   0.701   5.503  0.9454 -0.0245 -0.8498
 8305SOL     OW36373   4.262   1.853   2.850  0.2610 -0.2582 -0.0080
 8305SOL    HW136374   4.337   1.794   2.838 -0.4872 -0.7421 -2.2710
 8305SOL    HW236375   4.227   1.864   2.761  0.7873 -1.7113 -0.3967
 8306SOL     OW36376   1.640   1.062   9.433 -0.7600  0.0784  0.3968
 8306SOL    HW136377   1.590   1.062   9.515 -0.9695  0.6387  0.2740
 8306SOL    HW236378   1.582   1.006   9.381  0.1495  1.4753 -2.0852
 8307SOL     OW36379   4.684   2.383  10.008 -0.5575  0.2418 -0.0279
 8307SOL    HW136380   0.010   2.466  10.010 -2.4186  1.2782  0.4869
 8307SOL    HW236381   4.688   2.365   9.914  0.5152 -0.2785  0.1199
 8308SOL     OW36382   1.792   1.074   7.378  0.1551 -0.2154  0.5379
 8308SOL    HW136383   1.761   1.164   7.364 -2.5237 -0.8025  2.6005
 8308SOL    HW236384   1.739   1.027   7.314  1.3699  0.3212 -0.8567
 8309SOL     OW36385   2.407   2.739   5.240 -0.5990  0.0456 -0.0406
 8309SOL    HW136386   2.338   2.710   5.179 -0.5263  1.2521 -0.7010
 8309SOL    HW236387   2.380   2.690   5.317  0.0029 -0.6090 -0.2499
 8310SOL     OW36388   3.419   0.632   1.848  0.1725  0.0147  0.5135
 8310SOL    HW136389   3.356   0.600   1.784  0.9986 -0.5828 -0.0106
 8310SOL    HW236390   3.480   0.558   1.846  0.7504  0.5172 -1.0086
 8311SOL     OW36391   0.132   0.234   7.969 -0.1907 -0.0736  0.2735
 8311SOL    HW136392   0.219   0.258   8.001 -0.6137  0.8833  0.7244
 8311SOL    HW236393   0.085   0.267   8.045  1.1199  1.5470  0.4017
 8312SOL     OW36394   3.078   1.115   4.963  0.1100 -0.5984  0.7566
 8312SOL    HW136395   3.016   1.133   5.033  0.1850  3.9364 -0.3386
 8312SOL    HW236396   3.065   1.021   4.955 -0.1260 -0.4335 -0.9066
 8313SOL     OW36397   1.489   0.185   7.355 -0.0551  0.0362 -0.1018
 8313SOL    HW136398   1.447   0.129   7.290  1.1842 -1.5964  0.4894
 8313SOL    HW236399   1.459   0.141   7.435  1.9651 -1.9705 -0.4364
 8314SOL     OW36400   1.205   0.924  13.061  0.2914  0.1502  0.2152
 8314SOL    HW136401   1.230   1.015  13.054 -0.6721  0.4710  0.8521
 8314SOL    HW236402   1.291   0.885  13.049  0.4363 -0.4358  3.0548
 8315SOL     OW36403   4.684   2.995   6.310 -0.1016  0.1754 -0.1195
 8315SOL    HW136404   4.594   3.011   6.282 -0.4151 -0.7119  0.3579
 8315SOL    HW236405   4.708   3.081   6.343  0.4628 -0.3012  0.7397
 8316SOL     OW36406   1.474   3.791   1.369  0.3152  0.3160 -0.0979
 8316SOL    HW136407   1.529   3.866   1.392 -1.0840  0.8109  1.6307
 8316SOL    HW236408   1.478   3.741   1.451  0.0185  1.1383  0.4143
 8317SOL     OW36409   0.293   0.685  12.915  0.1999  0.1994 -0.6444
 8317SOL    HW136410   0.244   0.632  12.978  3.2937 -1.6660  0.1617
 8317SOL    HW236411   0.270   0.770  12.953 -2.2484 -0.1925 -1.2027
 8318SOL     OW36412   2.082   2.567  11.080 -0.2951 -0.7801 -0.2030
 8318SOL    HW136413   2.091   2.658  11.051 -0.9493 -0.9743 -1.0342
 8318SOL    HW236414   2.136   2.523  11.014 -1.6160 -2.9345  0.1267
 8319SOL     OW36415   3.633   2.321   5.814 -0.8402  0.3552  0.0979
 8319SOL    HW136416   3.655   2.333   5.907  1.1701  1.3883 -0.5192
 8319SOL    HW236417   3.589   2.236   5.809  0.4955 -0.2896 -0.8073
 8320SOL     OW36418   1.977   2.371   1.478 -0.1667  0.2274 -0.4481
 8320SOL    HW136419   1.925   2.291   1.489 -2.1284  1.7760  1.4034
 8320SOL    HW236420   2.001   2.391   1.568 -1.0779  0.5019 -0.2691
 8321SOL     OW36421   2.988   2.078   2.980  0.0495 -0.6769 -0.0938
 8321SOL    HW136422   2.927   2.151   2.984 -1.4792 -1.9340 -0.6414
 8321SOL    HW236423   2.997   2.063   2.886  0.6655 -0.4060 -0.0770
 8322SOL     OW36424   2.509   3.831   9.297 -0.4465  0.0682  0.3599
 8322SOL    HW136425   2.518   3.926   9.295  2.2878 -0.1683  1.7160
 8322SOL    HW236426   2.414   3.821   9.308 -0.5809  1.4874  0.5644
 8323SOL     OW36427   3.634   3.001   5.428  0.0985  0.6716  0.2239
 8323SOL    HW136428   3.576   3.031   5.499  0.2445 -1.0160  1.0435
 8323SOL    HW236429   3.586   3.016   5.346 -0.2837  1.0160  0.5047
 8324SOL     OW36430   0.677   2.697   7.508 -0.3732 -0.6084 -0.1454
 8324SOL    HW136431   0.725   2.617   7.530  1.6786  0.8487  0.5981
 8324SOL    HW236432   0.667   2.727   7.599  0.8167 -1.5379  0.2895
 8325SOL     OW36433   2.298   1.366   7.581 -0.1135 -0.0249  0.2434
 8325SOL    HW136434   2.205   1.384   7.570 -0.3118 -0.6660  0.8947
 8325SOL    HW236435   2.321   1.339   7.491 -2.4737  0.3267 -0.4599
 8326SOL     OW36436   1.707   3.072   5.137  0.0742 -0.3401  0.5025
 8326SOL    HW136437   1.651   3.074   5.059 -2.2363  0.3504  2.1726
 8326SOL    HW236438   1.642   3.035   5.197  0.3206 -0.1457  0.8912
 8327SOL     OW36439   0.954   4.595   2.007 -0.4250 -0.0998  0.1002
 8327SOL    HW136440   0.958   4.663   2.075 -2.0526  0.0679  0.0165
 8327SOL    HW236441   0.918   4.528   2.065  1.0656 -1.8356 -0.9882
 8328SOL     OW36442   2.156   0.856   6.217 -0.1350  0.1133  0.0451
 8328SOL    HW136443   2.178   0.803   6.293 -1.7100 -0.5825  0.0074
 8328SOL    HW236444   2.066   0.827   6.205 -1.3529  4.2660 -1.1476
 8329SOL     OW36445   0.706   2.285   0.290  0.0464  0.4378  0.0694
 8329SOL    HW136446   0.788   2.302   0.242  0.1623 -0.6050 -0.0983
 8329SOL    HW236447   0.703   2.365   0.344 -0.8926  1.2982 -1.2714
 8330SOL     OW36448   1.617   4.139   8.486 -0.0456 -0.1104  0.4910
 8330SOL    HW136449   1.687   4.157   8.548 -0.8076 -2.8930  2.1283
 8330SOL    HW236450   1.561   4.217   8.495  1.2466  0.5976  2.3914
 8331SOL     OW36451   1.704   3.179  14.343  0.0483 -0.0535 -0.0663
 8331SOL    HW136452   1.762   3.224  14.282  4.0244 -2.5998  1.8477
 8331SOL    HW236453   1.636   3.246  14.340  1.7898  1.7964  2.4706
 8332SOL     OW36454   4.216   1.324   4.001 -0.1968 -0.6312  0.0162
 8332SOL    HW136455   4.243   1.345   4.090 -0.9259  1.7310 -0.3198
 8332SOL    HW236456   4.274   1.249   3.987 -1.3330 -1.3014 -1.1378
 8333SOL     OW36457   1.198   1.215  13.082  0.3250 -0.0835  0.4749
 8333SOL    HW136458   1.194   1.243  13.174 -0.9617  0.1335  0.3547
 8333SOL    HW236459   1.290   1.239  13.077 -0.6551  3.1560 -2.3279
 8334SOL     OW36460   2.242   2.475  11.975 -0.7790 -0.5561 -0.3619
 8334SOL    HW136461   2.261   2.426  11.896  0.3399 -2.9605  1.4037
 8334SOL    HW236462   2.264   2.566  11.956  1.3074 -1.1477 -0.6939
 8335SOL     OW36463   1.158   4.476   6.239 -0.0375  0.3105 -0.2002
 8335SOL    HW136464   1.078   4.473   6.187  1.2357 -2.5869 -1.9642
 8335SOL    HW236465   1.124   4.478   6.328 -0.0602  3.8900 -0.2903
 8336SOL     OW36466   2.492   2.417  16.275  0.0109 -0.9845  0.1112
 8336SOL    HW136467   2.539   2.462  16.205  0.5991 -1.8797 -0.0753
 8336SOL    HW236468   2.503   2.480  16.347  1.3749  0.1782 -1.1082
 8337SOL     OW36469   4.117   3.075  10.866 -0.2110  0.2402 -0.3643
 8337SOL    HW136470   4.177   3.082  10.792  0.8787 -0.4147  0.4526
 8337SOL    HW236471   4.081   2.987  10.852 -1.1936  0.7767 -1.2359
 8338SOL     OW36472   3.405   0.883  13.224  0.4828 -0.0376  0.5936
 8338SOL    HW136473   3.310   0.885  13.231  0.3999 -0.6419 -0.2531
 8338SOL    HW236474   3.423   0.888  13.318  0.7847  2.8169  0.3868
 8339SOL     OW36475   0.359   2.761   8.710 -0.5166  0.5449 -0.1835
 8339SOL    HW136476   0.422   2.690   8.720 -0.8502  0.2826  0.0195
 8339SOL    HW236477   0.408   2.834   8.672  1.8968 -1.3628 -0.7283
 8340SOL     OW36478   1.989   0.246   2.409 -0.0089  0.2535  0.0778
 8340SOL    HW136479   1.993   0.328   2.359  1.4343 -0.3935 -0.8841
 8340SOL    HW236480   2.034   0.281   2.486 -0.5871  0.3341  0.3769
 8341SOL     OW36481   1.565   1.248   3.734 -0.0429 -0.0857 -0.1388
 8341SOL    HW136482   1.660   1.259   3.731 -0.0224 -0.9140 -2.5553
 8341SOL    HW236483   1.549   1.201   3.652 -1.7096  0.0267  0.1139
 8342SOL     OW36484   4.225   0.083   5.909  0.3406  0.0475 -0.0513
 8342SOL    HW136485   4.259   0.041   5.830 -0.6822 -0.7886 -0.0453
 8342SOL    HW236486   4.154   0.134   5.871  0.3660  0.8127  0.9229
 8343SOL     OW36487   0.670   2.595   2.904  0.3754  0.4532  0.5149
 8343SOL    HW136488   0.612   2.606   2.829 -0.8828 -1.9116  1.1204
 8343SOL    HW236489   0.621   2.529   2.955  0.0922  0.5762  0.4022
 8344SOL     OW36490   0.042   1.752  10.395 -0.4379 -0.0650 -0.1810
 8344SOL    HW136491   0.087   1.827  10.435 -0.4301  0.1939 -0.6714
 8344SOL    HW236492   0.005   1.713  10.474 -0.7974 -0.9320 -0.7747
 8345SOL     OW36493   2.199   2.321   4.271 -0.1094  0.0862 -0.1726
 8345SOL    HW136494   2.284   2.315   4.315 -0.7966 -1.2436  0.9844
 8345SOL    HW236495   2.203   2.244   4.213  0.1561 -1.4754  1.9153
 8346SOL     OW36496   4.664   3.377   7.996 -0.1119 -0.1207 -0.5100
 8346SOL    HW136497   0.027   3.348   7.959  0.6425  0.7643  0.5000
 8346SOL    HW236498   4.670   3.473   7.988 -0.6184  0.0189  0.8261
 8347SOL     OW36499   0.748   3.000  13.730 -0.0040  0.1373  0.1832
 8347SOL    HW136500   0.777   2.909  13.736  0.4855  0.2936  0.2415
 8347SOL    HW236501   0.696   2.993  13.650 -0.8540  0.0796  0.7432
 8348SOL     OW36502   3.714   0.183   9.946 -0.0848  0.7188  0.2229
 8348SOL    HW136503   3.743   0.092   9.951  0.5117  0.8347 -1.1075
 8348SOL    HW236504   3.779   0.224   9.888 -1.9748  1.5431 -1.3561
 8349SOL     OW36505   2.115   3.725  15.090  0.7098 -0.0567 -0.6646
 8349SOL    HW136506   2.126   3.670  15.013  2.5743 -0.8965  0.2018
 8349SOL    HW236507   2.022   3.748  15.081  0.8886  0.9426  0.0377
 8350SOL     OW36508   3.841   4.454   3.846  0.5661 -0.7211 -0.2536
 8350SOL    HW136509   3.854   4.490   3.934  1.5730 -2.4751  0.3185
 8350SOL    HW236510   3.827   4.537   3.800 -1.3333 -0.8013  0.1675
 8351SOL     OW36511   2.501   0.114   8.024  0.2354  0.0852 -0.4095
 8351SOL    HW136512   2.409   0.110   7.999 -0.2273 -1.1259  1.5368
 8351SOL    HW236513   2.538   0.080   7.943 -0.0492 -0.4908 -0.2951
 8352SOL     OW36514   2.330   1.603   6.862  0.2838  0.1900 -0.3314
 8352SOL    HW136515   2.337   1.649   6.946  2.1714 -0.5292 -0.0964
 8352SOL    HW236516   2.411   1.551   6.866  0.2931  0.1042 -1.7509
 8353SOL     OW36517   0.075   1.586   7.050 -0.2507 -0.7464 -0.3519
 8353SOL    HW136518   0.158   1.553   7.083 -0.4013 -1.4403 -0.6815
 8353SOL    HW236519   0.108   1.614   6.965  1.0385 -1.1022  0.0234
 8354SOL     OW36520   2.791   0.157  13.798  0.2639  0.5028 -0.3490
 8354SOL    HW136521   2.832   0.132  13.715  1.0719 -1.4308  0.6321
 8354SOL    HW236522   2.716   0.098  13.804 -0.7327  1.4847 -3.1278
 8355SOL     OW36523   0.163   3.409   2.258  0.0431 -0.0228  0.1962
 8355SOL    HW136524   0.209   3.385   2.178  0.5967  1.1210  0.1708
 8355SOL    HW236525   0.069   3.412   2.240 -0.4584 -0.0436  2.8241
 8356SOL     OW36526   1.091   0.471   8.729 -0.1647  0.7093  0.0033
 8356SOL    HW136527   1.184   0.488   8.713  0.3177 -1.3549  0.7078
 8356SOL    HW236528   1.089   0.421   8.810  0.1072  0.3054 -0.2407
 8357SOL     OW36529   1.061   1.193   2.131  0.2303  0.4811  0.0573
 8357SOL    HW136530   1.137   1.224   2.180  1.3066 -1.8133 -0.1521
 8357SOL    HW236531   1.101   1.188   2.044  0.3035 -2.5763  0.2644
 8358SOL     OW36532   0.595   1.937  12.257 -0.7358  0.4842  0.0221
 8358SOL    HW136533   0.651   2.014  12.262 -0.9578  0.5841  0.8428
 8358SOL    HW236534   0.591   1.902  12.346  1.2684  1.4059  0.4776
 8359SOL     OW36535   0.145   4.705   4.574 -0.6391 -0.2972 -0.0050
 8359SOL    HW136536   0.102   0.052   4.625 -1.7006  0.4565 -1.8836
 8359SOL    HW236537   0.088   4.715   4.497 -1.6581  1.3645  0.9712
 8360SOL     OW36538   1.366   1.479   5.113  0.3364  0.1060  0.3189
 8360SOL    HW136539   1.327   1.397   5.083  0.9513 -0.3479  0.7717
 8360SOL    HW236540   1.372   1.464   5.207 -0.0009 -2.0105 -0.0134
 8361SOL     OW36541   3.742   0.744   7.093 -0.0342 -0.2054  0.0583
 8361SOL    HW136542   3.673   0.698   7.141 -0.9264  0.2537 -0.7845
 8361SOL    HW236543   3.704   0.830   7.074  0.8706  0.3534  0.7615
 8362SOL     OW36544   0.402   0.882  13.198  0.5415  0.9560 -0.1666
 8362SOL    HW136545   0.405   0.819  13.270  1.1811 -0.4379 -1.4263
 8362SOL    HW236546   0.334   0.942  13.229  0.0269 -0.0151  0.5875
 8363SOL     OW36547   3.449   3.686   5.653 -0.5842  0.1053 -0.1454
 8363SOL    HW136548   3.397   3.754   5.610 -1.1363  1.8488  3.3206
 8363SOL    HW236549   3.539   3.716   5.643 -1.1272  1.0369 -2.2996
 8364SOL     OW36550   2.921   1.700   1.490  0.4505 -0.2298  0.0341
 8364SOL    HW136551   2.940   1.669   1.401  1.2880 -0.6852  0.3723
 8364SOL    HW236552   2.924   1.622   1.545  0.2182  0.0302  0.4147
 8365SOL     OW36553   1.406   2.002   3.004 -0.0256  0.6418  0.1272
 8365SOL    HW136554   1.471   1.998   3.074  1.7793  0.6281 -1.5447
 8365SOL    HW236555   1.427   2.089   2.969  0.3636  0.6950  0.5035
 8366SOL     OW36556   4.536   2.145  10.011 -0.0212 -0.5669 -0.4394
 8366SOL    HW136557   4.586   2.227  10.003  0.6676 -0.9335  0.2175
 8366SOL    HW236558   4.608   2.100  10.054  1.8838  1.5242 -1.4000
 8367SOL     OW36559   1.266   1.543   7.843 -0.0494 -0.5733 -0.4165
 8367SOL    HW136560   1.300   1.504   7.923 -1.3084  1.9966  1.3489
 8367SOL    HW236561   1.321   1.500   7.777 -1.4362 -3.5457  0.3586
 8368SOL     OW36562   3.664   3.735   9.229 -0.0137  0.0162  0.2982
 8368SOL    HW136563   3.652   3.830   9.225  2.2758  0.2295 -1.4942
 8368SOL    HW236564   3.679   3.706   9.139 -0.6755  0.2534  0.1127
 8369SOL     OW36565   3.772   4.443   4.421 -0.3064 -0.0626 -0.7519
 8369SOL    HW136566   3.709   4.477   4.358 -0.9223  0.4363  0.1230
 8369SOL    HW236567   3.741   4.354   4.439 -2.9507  0.7122 -1.5585
 8370SOL     OW36568   2.143   2.936   5.530 -0.3937 -0.5043  0.0212
 8370SOL    HW136569   2.141   2.946   5.625 -1.1464  0.2629 -0.0686
 8370SOL    HW236570   2.064   2.885   5.511 -0.7443 -0.5522  1.6590
 8371SOL     OW36571   0.655   3.668   0.434 -0.6972  0.6697 -0.9377
 8371SOL    HW136572   0.653   3.635   0.524  0.9064 -0.8003 -1.4537
 8371SOL    HW236573   0.697   3.753   0.445  1.0375 -0.3225  0.0242
 8372SOL     OW36574   1.531   4.571  15.503 -0.4110 -0.7117  0.4863
 8372SOL    HW136575   1.600   4.629  15.535 -2.4403  2.2344 -0.3950
 8372SOL    HW236576   1.459   4.633  15.488  0.5088  0.4901  1.0393
 8373SOL     OW36577   0.054   0.432   4.500 -0.7480 -0.0281 -0.4597
 8373SOL    HW136578   0.095   0.374   4.565  0.8854  0.2897 -1.2009
 8373SOL    HW236579   4.693   0.462   4.538 -1.4158 -1.1394 -1.0176
 8374SOL     OW36580   2.349   2.321   1.480 -0.1252  0.1191  0.4559
 8374SOL    HW136581   2.280   2.361   1.427 -1.1021 -0.0938  1.5475
 8374SOL    HW236582   2.354   2.377   1.558  1.1618 -0.5943  0.8960
 8375SOL     OW36583   4.603   2.367   7.674  0.3582  0.1787  0.4467
 8375SOL    HW136584   4.670   2.303   7.700  1.1514  0.6749 -0.3306
 8375SOL    HW236585   4.614   2.442   7.732 -3.4423 -1.0984  2.7637
 8376SOL     OW36586   0.517   2.978   8.090 -0.1428  0.6179  0.0007
 8376SOL    HW136587   0.598   3.011   8.130  1.5245 -2.2978 -1.0074
 8376SOL    HW236588   0.491   2.902   8.143  2.3592  1.4616  2.4785
 8377SOL     OW36589   0.453   1.286   5.154  0.4562 -0.6353  0.2498
 8377SOL    HW136590   0.403   1.262   5.232 -1.2685 -0.6665 -0.8911
 8377SOL    HW236591   0.383   1.328   5.105  1.2099 -0.0203 -0.3051
 8378SOL     OW36592   2.053   2.613   7.049 -0.1352 -0.3655 -0.6725
 8378SOL    HW136593   2.081   2.671   6.978 -0.1417 -2.1046 -2.1149
 8378SOL    HW236594   2.024   2.532   7.006 -0.2291  0.9039 -2.9779
 8379SOL     OW36595   3.567   1.990   3.353  0.6631 -0.2272  0.2376
 8379SOL    HW136596   3.601   1.983   3.264 -0.4507  1.3829 -0.3057
 8379SOL    HW236597   3.646   2.008   3.404  0.9311  0.0745 -0.2902
 8380SOL     OW36598   3.256   0.117   3.281  0.1323  0.1885  0.9317
 8380SOL    HW136599   3.350   0.131   3.271  0.3964 -2.9310 -1.1726
 8380SOL    HW236600   3.253   0.071   3.365  0.8770  0.2001  0.9608
 8381SOL     OW36601   1.276   0.875   2.187  0.3548 -0.0481  0.0603
 8381SOL    HW136602   1.313   0.940   2.128  0.7756 -1.3186 -1.0808
 8381SOL    HW236603   1.327   0.796   2.169  1.9937  0.9865  0.1157
 8382SOL     OW36604   3.427   0.159  12.635 -0.4059 -0.1364 -0.3849
 8382SOL    HW136605   3.452   0.080  12.586  0.3850  0.4051 -0.8521
 8382SOL    HW236606   3.487   0.167  12.710 -0.2588 -0.6704 -0.4418
 8383SOL     OW36607   0.376   1.682  11.827 -0.4109 -0.2993  0.3093
 8383SOL    HW136608   0.418   1.597  11.812 -0.4613  0.3329 -3.4355
 8383SOL    HW236609   0.439   1.746  11.794 -1.5235  0.7789  0.2857
 8384SOL     OW36610   0.402   1.568   8.100  0.4277 -0.0333  0.5240
 8384SOL    HW136611   0.391   1.531   8.187 -0.1369  1.4270  1.0638
 8384SOL    HW236612   0.338   1.639   8.096  1.2735  0.6641 -0.9057
 8385SOL     OW36613   2.401   0.134   6.339  0.3528  0.5241  0.1751
 8385SOL    HW136614   2.363   0.162   6.255 -2.7177  1.3536  1.8598
 8385SOL    HW236615   2.463   0.203   6.359 -0.1534  1.0757 -0.1570
 8386SOL     OW36616   2.608   0.047   6.134 -0.0484 -0.0106  0.3423
 8386SOL    HW136617   2.677   4.715   6.173  1.0276  0.8029 -0.4405
 8386SOL    HW236618   2.538   0.040   6.198  1.1596 -3.6823  1.2602
 8387SOL     OW36619   0.289   2.453   2.901 -0.0529 -0.1104  0.1762
 8387SOL    HW136620   0.382   2.458   2.921  0.2624 -1.2139 -0.9917
 8387SOL    HW236621   0.258   2.432   2.989 -2.1859  1.5648 -0.1761
 8388SOL     OW36622   4.384   0.352   8.029  0.5421  0.2438 -0.3765
 8388SOL    HW136623   4.388   0.448   8.021 -0.1016  0.2670 -0.4495
 8388SOL    HW236624   4.296   0.341   7.992  1.6605 -2.6779 -2.1380
 8389SOL     OW36625   0.924   1.378  13.216  0.3911 -0.0496 -0.4161
 8389SOL    HW136626   0.980   1.370  13.293  1.2234 -3.8675 -1.4199
 8389SOL    HW236627   0.844   1.345  13.257  1.3095  0.2263  1.6004
 8390SOL     OW36628   0.078   0.150   6.844  0.0203  0.1412  0.1472
 8390SOL    HW136629   4.707   0.141   6.868  0.1721 -2.9591 -0.4204
 8390SOL    HW236630   0.101   0.060   6.819  1.6145  0.4646  0.5064
 8391SOL     OW36631   3.264   0.935   8.805 -0.0508  0.8372 -0.9281
 8391SOL    HW136632   3.212   1.013   8.824 -0.2859 -0.0081  1.9608
 8391SOL    HW236633   3.231   0.871   8.869 -0.3039  0.8441 -1.0486
 8392SOL     OW36634   4.271   2.620   4.157  0.2800  0.4142  0.5709
 8392SOL    HW136635   4.318   2.560   4.099 -0.8502 -0.0989  0.1734
 8392SOL    HW236636   4.183   2.594   4.128  0.1385  1.4824  0.0339
 8393SOL     OW36637   4.077   0.320   3.557  0.2108 -0.2172 -0.3765
 8393SOL    HW136638   4.075   0.246   3.617  0.3588 -1.7581 -2.2662
 8393SOL    HW236639   4.169   0.309   3.535  0.4824  4.0076 -1.3189
 8394SOL     OW36640   2.305   4.318   9.759 -0.3550 -0.3081 -0.2218
 8394SOL    HW136641   2.311   4.409   9.731 -1.3689 -0.4425 -0.8737
 8394SOL    HW236642   2.214   4.296   9.742 -0.1349  0.0778 -1.8838
 8395SOL     OW36643   0.752   3.155   1.933 -1.0394 -0.2494  0.0736
 8395SOL    HW136644   0.780   3.089   1.870 -1.1117 -0.5106  0.3156
 8395SOL    HW236645   0.750   3.105   2.015 -1.0430  0.9001  0.7725
 8396SOL     OW36646   1.480   0.875   9.305  0.7168 -0.2972 -0.4800
 8396SOL    HW136647   1.464   0.926   9.226  0.2982  0.7683  0.3013
 8396SOL    HW236648   1.399   0.881   9.356 -0.8500 -1.4449 -2.8278
 8397SOL     OW36649   2.325   0.451   8.135  0.3213 -0.5162 -0.1413
 8397SOL    HW136650   2.256   0.427   8.197  0.8497 -1.6681  0.0059
 8397SOL    HW236651   2.278   0.442   8.052  0.5698  1.0298 -0.4496
 8398SOL     OW36652   2.986   3.973   9.572 -0.1342 -0.0025 -0.2348
 8398SOL    HW136653   2.958   4.042   9.512 -0.6049 -1.7187 -1.9725
 8398SOL    HW236654   2.998   4.022   9.654  0.2761 -1.2223  0.4458
 8399SOL     OW36655   1.635   4.046  13.835  0.0749  0.0845  0.3709
 8399SOL    HW136656   1.622   3.970  13.778  1.2411  0.8818 -0.9708
 8399SOL    HW236657   1.620   3.996  13.915  1.8284  2.0705  1.9553
 8400SOL     OW36658   4.255   4.012  17.319 -0.6588 -0.2995  0.3071
 8400SOL    HW136659   4.211   3.956  17.383 -0.4335  2.2094  2.6760
 8400SOL    HW236660   4.347   3.994  17.338 -0.2584  1.3910 -0.0265
 8401SOL     OW36661   0.274   0.356   3.273  0.2084 -0.4117 -0.4795
 8401SOL    HW136662   0.356   0.330   3.231  0.8329  0.7504  0.0069
 8401SOL    HW236663   0.206   0.359   3.206 -1.4690  1.6705  1.2904
 8402SOL     OW36664   1.220   2.432   9.154 -1.0101  0.4060  0.7472
 8402SOL    HW136665   1.177   2.438   9.069  0.8350  1.3536 -0.1120
 8402SOL    HW236666   1.145   2.454   9.209 -1.7867  2.4279 -1.1361
 8403SOL     OW36667   3.784   0.723   7.675 -1.1228 -0.5650 -0.2588
 8403SOL    HW136668   3.784   0.694   7.766  0.2797 -0.1743 -0.1327
 8403SOL    HW236669   3.873   0.757   7.663 -0.4707 -2.2741 -0.1831
 8404SOL     OW36670   0.728   1.796  10.062  0.2720  0.3593  0.5618
 8404SOL    HW136671   0.673   1.764  10.133  0.4973  0.1041  0.6201
 8404SOL    HW236672   0.788   1.854  10.108  1.7106  0.7164 -1.7622
 8405SOL     OW36673   3.869   4.513   8.831 -0.2694 -0.3191  0.1354
 8405SOL    HW136674   3.866   4.467   8.747  1.0903 -1.6683  0.8148
 8405SOL    HW236675   3.890   4.436   8.884 -0.5438  0.2960  1.1210
 8406SOL     OW36676   2.972   3.815   9.887 -0.1602 -0.1649  0.3041
 8406SOL    HW136677   2.939   3.776   9.806  0.4733  1.1072 -0.5659
 8406SOL    HW236678   2.939   3.772   9.966 -0.8465  0.3115  0.2803
 8407SOL     OW36679   0.488   4.680   6.407 -0.1577  0.7088 -0.0511
 8407SOL    HW136680   0.534   0.017   6.347  0.9509  1.8433  1.8957
 8407SOL    HW236681   0.558   4.644   6.462 -1.1197 -0.0371  0.7028
 8408SOL     OW36682   4.423   0.959   7.619  0.1681 -0.3995 -0.2236
 8408SOL    HW136683   4.341   0.951   7.570 -0.5344  0.8461  0.7566
 8408SOL    HW236684   4.397   0.971   7.710  2.1470  1.1799  0.1369
 8409SOL     OW36685   3.587   2.589  15.934  0.2808  0.4046  0.2554
 8409SOL    HW136686   3.650   2.649  15.892  0.9841 -0.9055 -0.5762
 8409SOL    HW236687   3.539   2.558  15.857 -0.0069 -2.4695  1.6338
 8410SOL     OW36688   4.678   3.730  13.556 -0.1071 -0.3028  0.1306
 8410SOL    HW136689   4.625   3.659  13.592  0.0734 -0.8134 -0.6268
 8410SOL    HW236690   4.688   3.701  13.466 -1.3055  1.9130 -0.7151
 8411SOL     OW36691   3.896   3.560   5.960  0.5250  0.1814  0.2052
 8411SOL    HW136692   3.928   3.617   5.890  0.2391 -1.5642 -1.3514
 8411SOL    HW236693   3.977   3.526   5.997 -0.2246 -1.2255  0.5709
 8412SOL     OW36694   3.232   2.128   4.866  0.6809  0.2351  0.0556
 8412SOL    HW136695   3.289   2.170   4.930 -0.1118  2.6713 -0.8267
 8412SOL    HW236696   3.159   2.189   4.861  2.2454  1.8687 -2.5050
 8413SOL     OW36697   2.088   1.938  11.676 -0.1452 -0.4816 -0.3456
 8413SOL    HW136698   2.100   1.861  11.733 -1.3275 -0.4028  0.0224
 8413SOL    HW236699   2.157   1.939  11.610  1.3202 -0.4017  1.1622
 8414SOL     OW36700   2.038   0.790   1.380 -0.2276 -0.5271  0.0714
 8414SOL    HW136701   2.084   0.799   1.464 -0.3591 -1.1939  0.2132
 8414SOL    HW236702   1.980   0.717   1.398  0.9818 -1.4126  0.3875
 8415SOL     OW36703   0.519   0.486   8.914  0.4032  0.3913 -0.5640
 8415SOL    HW136704   0.555   0.502   8.827 -0.4408 -1.6148 -1.2794
 8415SOL    HW236705   0.484   0.574   8.928  0.8517  0.8939 -2.5514
 8416SOL     OW36706   2.442   2.265   4.068  0.0100 -0.4860  0.2193
 8416SOL    HW136707   2.348   2.268   4.052  0.1938  0.3997 -0.6835
 8416SOL    HW236708   2.464   2.178   4.034 -1.3481 -0.0380 -1.7855
 8417SOL     OW36709   2.201   0.951   5.076 -0.1381 -0.2707 -0.3528
 8417SOL    HW136710   2.191   1.003   5.155 -0.1106 -0.4499 -0.2306
 8417SOL    HW236711   2.115   0.909   5.065  0.1754 -0.6775 -1.3505
 8418SOL     OW36712   0.446   0.649   3.901  0.2060  0.5259 -0.6430
 8418SOL    HW136713   0.454   0.586   3.972 -1.3164 -0.1688 -1.0956
 8418SOL    HW236714   0.361   0.623   3.867  0.1607  0.5301 -0.5354
 8419SOL     OW36715   1.474   0.817   8.832  0.3874  0.7136  0.1794
 8419SOL    HW136716   1.388   0.799   8.794 -0.8435  0.1712  3.1714
 8419SOL    HW236717   1.526   0.752   8.785 -0.1834  0.6777 -0.4011
 8420SOL     OW36718   3.673   0.873   9.337  0.0728  0.3332 -0.3621
 8420SOL    HW136719   3.699   0.815   9.409 -0.7006  0.9739  0.4430
 8420SOL    HW236720   3.656   0.806   9.272 -0.8346  0.0634  0.1548
 8421SOL     OW36721   2.715   4.394   9.787 -1.3627  0.4398 -0.7564
 8421SOL    HW136722   2.787   4.377   9.726 -0.2863  0.5749  0.4741
 8421SOL    HW236723   2.687   4.485   9.779 -0.9390  0.5512 -0.9655
 8422SOL     OW36724   1.960   0.673   5.428 -0.0171 -0.0536 -0.0783
 8422SOL    HW136725   2.033   0.725   5.463  0.6037 -0.4954 -0.6977
 8422SOL    HW236726   1.980   0.658   5.335  1.9538 -0.9058  0.4824
 8423SOL     OW36727   2.728   1.707  12.273 -0.3814 -0.1041 -0.0841
 8423SOL    HW136728   2.759   1.795  12.297 -1.4012 -0.0127  0.8404
 8423SOL    HW236729   2.642   1.711  12.314  1.8095  3.4348  4.1511
 8424SOL     OW36730   1.422   2.993  14.063 -0.1956 -0.0499 -0.4930
 8424SOL    HW136731   1.384   3.074  14.028  0.1660  1.0406  1.6602
 8424SOL    HW236732   1.443   2.951  13.979 -0.9158 -1.0346 -0.1904
 8425SOL     OW36733   1.087   0.289  15.844  0.2447 -0.1241 -0.2065
 8425SOL    HW136734   1.137   0.244  15.912 -0.8500 -1.4966 -0.3241
 8425SOL    HW236735   1.006   0.313  15.890  0.3488 -0.7013  0.2710
 8426SOL     OW36736   4.353   3.815  12.445 -0.1672 -0.1496 -0.9028
 8426SOL    HW136737   4.335   3.733  12.490 -1.8863  0.0126 -1.2713
 8426SOL    HW236738   4.306   3.883  12.492  1.3569 -0.7184  1.4119
 8427SOL     OW36739   1.522   3.347  14.762 -0.0347 -0.1286 -0.0482
 8427SOL    HW136740   1.584   3.305  14.821  0.7079  0.9027 -0.0989
 8427SOL    HW236741   1.575   3.416  14.723 -1.9748  1.0636 -0.5793
 8428SOL     OW36742   0.402   2.213   2.729  0.4019  0.2107  0.2892
 8428SOL    HW136743   0.348   2.156   2.673 -1.2221  0.0580  2.0366
 8428SOL    HW236744   0.334   2.260   2.777  1.5028  1.9051  0.1866
 8429SOL     OW36745   4.161   4.274   6.860  0.5584  0.0104 -1.0137
 8429SOL    HW136746   4.078   4.313   6.835  1.5091  1.0307 -2.5826
 8429SOL    HW236747   4.204   4.270   6.775  0.7556  1.3396 -0.9797
 8430SOL     OW36748   4.122   1.805   6.164 -0.3328  0.2692  0.2606
 8430SOL    HW136749   4.104   1.727   6.217 -0.8658  0.0415 -0.2447
 8430SOL    HW236750   4.191   1.774   6.105 -2.4665 -0.0851 -2.0797
 8431SOL     OW36751   4.621   0.636  12.901 -0.1419  0.4203 -0.1509
 8431SOL    HW136752   4.527   0.620  12.909 -0.0577  0.6411  1.1507
 8431SOL    HW236753   4.627   0.657  12.808 -0.5323  1.2987  0.0256
 8432SOL     OW36754   2.501   1.795   8.274 -0.2360 -0.1917 -0.2931
 8432SOL    HW136755   2.470   1.712   8.309  0.2363  0.1294  0.8838
 8432SOL    HW236756   2.424   1.850   8.292  0.4846  0.4886  0.6660
 8433SOL     OW36757   4.341   0.584   1.833 -0.1740  0.0226 -0.4079
 8433SOL    HW136758   4.322   0.670   1.871 -0.0422 -0.0939 -0.0781
 8433SOL    HW236759   4.336   0.603   1.740 -2.3718  2.3828  0.1714
 8434SOL     OW36760   2.983   2.265  16.393 -0.1827  0.1078  0.2932
 8434SOL    HW136761   2.893   2.265  16.361 -0.2041  1.0529  0.3361
 8434SOL    HW236762   2.977   2.209  16.470 -0.3803 -0.4277 -0.1138
 8435SOL     OW36763   2.574   0.971  11.271  0.0433 -0.5537 -0.2597
 8435SOL    HW136764   2.558   0.973  11.177 -0.5508 -1.3395 -0.1695
 8435SOL    HW236765   2.648   1.032  11.276  0.5201 -0.8712 -3.4429
 8436SOL     OW36766   4.109   0.434   4.589  0.0602  0.5385 -0.2195
 8436SOL    HW136767   4.047   0.481   4.645 -0.0511 -2.1674  1.8842
 8436SOL    HW236768   4.037   0.378   4.559  0.3402  1.7836 -3.2810
 8437SOL     OW36769   3.275   3.208   8.104  0.0478  0.4335 -0.8815
 8437SOL    HW136770   3.340   3.219   8.173 -1.2212  0.1362  0.3558
 8437SOL    HW236771   3.210   3.268   8.141  1.3323  2.7662 -2.3508
 8438SOL     OW36772   3.540   2.468  16.211  0.7655  0.6690 -0.1319
 8438SOL    HW136773   3.491   2.388  16.192  2.3710 -0.9281  2.3435
 8438SOL    HW236774   3.538   2.515  16.128 -1.8069  0.1312 -0.3699
 8439SOL     OW36775   4.329   1.486   0.332  0.3304 -0.3238  0.4602
 8439SOL    HW136776   4.314   1.393   0.350  0.3710  0.2850  3.6057
 8439SOL    HW236777   4.424   1.488   0.318  0.5571 -0.7153  1.9199
 8440SOL     OW36778   3.587   0.124   3.482  0.1360 -0.3873 -0.1095
 8440SOL    HW136779   3.557   0.133   3.392  1.1772 -2.3311 -0.6333
 8440SOL    HW236780   3.523   0.186   3.518  1.5082  1.3513 -0.6915
 8441SOL     OW36781   3.898   2.636   4.668  0.2889 -0.0321 -0.4522
 8441SOL    HW136782   3.904   2.722   4.626  1.3536 -1.3393 -2.9876
 8441SOL    HW236783   3.843   2.592   4.603 -1.0871 -2.1047  2.1391
 8442SOL     OW36784   0.431   2.894   5.253  0.4252  0.5495  0.1117
 8442SOL    HW136785   0.346   2.860   5.281  0.6342 -1.4302 -1.7077
 8442SOL    HW236786   0.422   2.986   5.280  0.8897  0.9454 -1.0947
 8443SOL     OW36787   4.429   3.546   3.305 -0.1824  0.1967  0.2074
 8443SOL    HW136788   4.469   3.480   3.249  1.2087  1.9733 -0.9073
 8443SOL    HW236789   4.500   3.608   3.321 -1.1618  1.6862 -1.1864
 8444SOL     OW36790   0.752   3.483   2.013 -0.2957 -0.0309 -0.0564
 8444SOL    HW136791   0.796   3.418   2.068 -0.6152 -0.6546 -0.5377
 8444SOL    HW236792   0.830   3.536   2.001  0.3538 -0.9985 -0.1380
 8445SOL     OW36793   3.549   1.675  16.467  0.0410 -0.5460  0.0483
 8445SOL    HW136794   3.577   1.615  16.536 -0.8648 -0.9578  0.0509
 8445SOL    HW236795   3.632   1.684  16.420  0.9205  0.4325  1.7853
 8446SOL     OW36796   2.806   1.715   5.725  0.4202 -0.7976  0.2666
 8446SOL    HW136797   2.843   1.801   5.702 -0.7752 -0.9411 -2.1633
 8446SOL    HW236798   2.870   1.689   5.791  0.2856 -0.0131  0.7072
 8447SOL     OW36799   1.306   1.553   6.582  0.5685 -0.0559 -0.1469
 8447SOL    HW136800   1.289   1.567   6.489  0.5382  0.3678 -0.0759
 8447SOL    HW236801   1.240   1.606   6.627 -0.9123 -1.3980 -0.7410
 8448SOL     OW36802   1.537   3.702   3.442  0.0228 -0.2782  0.3683
 8448SOL    HW136803   1.565   3.612   3.458  0.3048  0.1060  1.9865
 8448SOL    HW236804   1.454   3.707   3.490 -0.6685  0.3052 -0.8658
 8449SOL     OW36805   2.808   0.088   7.528  0.1410 -0.5309  0.3220
 8449SOL    HW136806   2.855   0.161   7.489  1.4688 -1.0348  0.9960
 8449SOL    HW236807   2.739   0.139   7.572  1.6782  1.8831 -0.0598
 8450SOL     OW36808   4.520   1.006   9.632 -0.1470 -0.3638 -0.1633
 8450SOL    HW136809   4.469   0.944   9.684 -1.2424 -1.0410 -2.0539
 8450SOL    HW236810   4.480   1.006   9.545 -1.7480 -1.4540  0.5828
 8451SOL     OW36811   1.902   1.463   3.281  0.6651 -0.0012  0.2142
 8451SOL    HW136812   1.993   1.471   3.254  1.1136 -0.0505  1.7155
 8451SOL    HW236813   1.919   1.472   3.375  0.7059  0.1561  0.1933
 8452SOL     OW36814   3.471   4.508   4.435 -0.2029  0.1765 -0.0007
 8452SOL    HW136815   3.445   4.549   4.353  0.8090  0.1612 -0.3330
 8452SOL    HW236816   3.395   4.456   4.460  1.3678 -1.2132  1.9278
 8453SOL     OW36817   3.805   3.536  13.646 -0.1025 -0.2671  0.2352
 8453SOL    HW136818   3.831   3.624  13.672  0.2568 -0.1318 -0.5703
 8453SOL    HW236819   3.714   3.540  13.673 -0.5659  0.4498 -1.3889
 8454SOL     OW36820   4.103   3.362   6.696 -0.2529 -1.0569  0.0907
 8454SOL    HW136821   4.140   3.327   6.778  0.4573 -0.5696 -0.0265
 8454SOL    HW236822   4.091   3.456   6.701 -0.9698 -1.1334 -0.1321
 8455SOL     OW36823   3.849   0.571   4.998  0.5008 -0.3331  0.1160
 8455SOL    HW136824   3.899   0.496   5.029  1.1117  0.0060 -0.0502
 8455SOL    HW236825   3.872   0.638   5.063  2.5240 -1.5074  0.5802
 8456SOL     OW36826   4.375   1.939   9.586 -0.0446 -0.4726  0.5409
 8456SOL    HW136827   4.363   1.997   9.661 -0.9065 -0.5044  0.4226
 8456SOL    HW236828   4.469   1.925   9.597  0.7941  1.8286 -3.4923
 8457SOL     OW36829   3.145   4.571   6.091 -0.0329  0.1219 -0.0101
 8457SOL    HW136830   3.105   4.527   6.016 -0.3767  0.8881 -0.2778
 8457SOL    HW236831   3.228   4.524   6.101  0.6035  0.6728 -2.8221
 8458SOL     OW36832   1.361   4.426  12.852 -0.1515 -0.1312  0.2059
 8458SOL    HW136833   1.351   4.449  12.944  2.6734 -2.2044  0.9881
 8458SOL    HW236834   1.274   4.447  12.816 -1.1628 -1.0896  2.0723
 8459SOL     OW36835   2.785   1.676   6.124 -0.1001  0.3557  0.0742
 8459SOL    HW136836   2.752   1.608   6.065  0.2407 -1.3728  1.8837
 8459SOL    HW236837   2.823   1.631   6.200  2.3735  0.4687 -1.0976
 8460SOL     OW36838   4.420   1.072  13.382  0.1289 -0.0004  0.4753
 8460SOL    HW136839   4.367   1.075  13.302  1.2529 -0.9386 -0.2973
 8460SOL    HW236840   4.471   1.151  13.363 -0.2844  0.0391 -0.4602
 8461SOL     OW36841   1.436   0.921   8.187  0.6303 -0.5035  0.2095
 8461SOL    HW136842   1.389   0.842   8.159 -1.0019  0.7728 -0.6268
 8461SOL    HW236843   1.373   0.987   8.158 -0.1625 -0.1664  2.6682
 8462SOL     OW36844   2.712   3.857   5.861 -0.4232  0.5650 -0.2800
 8462SOL    HW136845   2.632   3.834   5.908 -0.8574  0.8610 -0.8852
 8462SOL    HW236846   2.679   3.862   5.772 -0.9917  0.3772 -0.0822
 8463SOL     OW36847   1.118   4.088   5.453  0.0664 -0.0636 -0.1737
 8463SOL    HW136848   1.080   4.169   5.420  1.2970  0.5151 -0.1854
 8463SOL    HW236849   1.212   4.092   5.433 -0.1064  0.9865 -0.7581
 8464SOL     OW36850   1.794   3.306  15.159 -0.7087 -0.1105  0.2222
 8464SOL    HW136851   1.809   3.395  15.192  1.3300  0.0522 -1.0962
 8464SOL    HW236852   1.755   3.267  15.237 -1.5242  0.4246  0.0697
 8465SOL     OW36853   2.990   0.692  10.234 -0.5103  0.0700  0.1537
 8465SOL    HW136854   3.025   0.620  10.286 -0.6351  0.2869  0.5359
 8465SOL    HW236855   2.946   0.731  10.309 -3.3741  0.3692 -1.6709
 8466SOL     OW36856   0.329   2.937   0.881  0.2194  0.0347 -0.2193
 8466SOL    HW136857   0.279   2.863   0.915 -1.5463  0.5710 -1.6686
 8466SOL    HW236858   0.332   2.900   0.792 -0.4190 -3.3540  1.1699
 8467SOL     OW36859   3.328   4.348   5.004  0.1160 -0.5512 -0.2666
 8467SOL    HW136860   3.346   4.434   5.041 -0.0428 -1.0079  0.8636
 8467SOL    HW236861   3.258   4.322   5.064  0.2363  0.0212  0.1240
 8468SOL     OW36862   1.807   0.884  11.847  0.0414 -0.0821  0.0445
 8468SOL    HW136863   1.754   0.905  11.924 -0.1673  1.4661 -0.5309
 8468SOL    HW236864   1.900   0.887  11.869  0.0052  0.0241  0.1807
 8469SOL     OW36865   1.973   1.735   3.906  0.0910 -0.0212  0.1614
 8469SOL    HW136866   2.065   1.726   3.932 -0.4120 -2.0006  1.2242
 8469SOL    HW236867   1.959   1.829   3.908 -0.5802 -0.1752  1.9851
 8470SOL     OW36868   2.506   4.336   6.222 -0.0947  0.4870 -0.3318
 8470SOL    HW136869   2.484   4.332   6.129  2.4161 -2.8303 -0.7914
 8470SOL    HW236870   2.593   4.296   6.224 -0.9309 -1.3511 -0.0529
 8471SOL     OW36871   1.647   1.709  13.764 -0.1337  0.0221  0.4835
 8471SOL    HW136872   1.612   1.696  13.676  0.1942  1.9726  0.0808
 8471SOL    HW236873   1.696   1.791  13.762  0.4576 -0.3329  0.4149
 8472SOL     OW36874   2.503   2.955   1.511 -0.5410 -0.1439 -1.0292
 8472SOL    HW136875   2.463   2.876   1.474  0.9964 -1.4746  0.1885
 8472SOL    HW236876   2.571   2.973   1.446  1.9723 -1.9487  1.1260
 8473SOL     OW36877   0.721   3.238   3.726  0.2344 -0.6172 -0.1829
 8473SOL    HW136878   0.697   3.215   3.636  2.8306  0.0072 -1.0171
 8473SOL    HW236879   0.784   3.172   3.755 -0.0185 -0.5950  0.4219
 8474SOL     OW36880   2.301   0.271   6.139 -0.4100 -0.2421 -0.0315
 8474SOL    HW136881   2.259   0.349   6.175 -0.4082  0.3890 -1.4286
 8474SOL    HW236882   2.329   0.301   6.053  1.8549 -0.8364  0.5000
 8475SOL     OW36883   0.905   3.089   3.857  0.2508 -0.7239 -0.5518
 8475SOL    HW136884   0.992   3.108   3.892 -0.8507  3.0469  0.1499
 8475SOL    HW236885   0.908   2.995   3.839 -2.2538 -1.0056  0.4610
 8476SOL     OW36886   1.979   1.114   4.942 -0.4907 -0.0598 -0.2095
 8476SOL    HW136887   1.894   1.143   4.909 -1.5357 -1.9144  0.8581
 8476SOL    HW236888   1.973   1.117   5.038  1.1956  0.1685 -0.1051
 8477SOL     OW36889   3.082   4.644  16.227  0.2479 -0.3713 -0.3953
 8477SOL    HW136890   3.099   0.007  16.269  0.5298 -0.6848  0.1140
 8477SOL    HW236891   3.087   4.675  16.136 -0.7452 -2.0848 -1.0448
 8478SOL     OW36892   1.031   4.039   2.211  0.3662 -0.5382  0.1443
 8478SOL    HW136893   1.033   3.944   2.214  0.7695 -0.5085  0.6536
 8478SOL    HW236894   1.039   4.051   2.116  2.0365  1.1499  0.5141
 8479SOL     OW36895   2.423   3.047   8.867 -0.4818 -0.2439  0.2862
 8479SOL    HW136896   2.423   3.089   8.781 -1.1611 -0.0767  0.3704
 8479SOL    HW236897   2.429   3.123   8.925 -0.8462 -0.6476  0.8507
 8480SOL     OW36898   1.827   2.297   1.080 -0.2261  0.8111 -0.1202
 8480SOL    HW136899   1.829   2.357   1.005 -1.1963  0.4404 -0.4473
 8480SOL    HW236900   1.835   2.358   1.153 -3.0633  0.9531  0.0447
 8481SOL     OW36901   1.633   2.239   4.733 -0.9791  0.2604  0.1713
 8481SOL    HW136902   1.616   2.311   4.794  0.0688  2.3246 -1.9756
 8481SOL    HW236903   1.581   2.164   4.764 -0.0066  0.2849  1.8727
 8482SOL     OW36904   1.144   3.298   4.044  0.0355  0.6329  0.4050
 8482SOL    HW136905   1.179   3.256   3.965  1.7372  1.4112  0.7484
 8482SOL    HW236906   1.232   3.302   4.081 -0.6118 -0.3117  2.0588
 8483SOL     OW36907   4.283   4.578   7.640 -0.3342  0.1206 -0.2962
 8483SOL    HW136908   4.201   4.554   7.684 -1.3622 -0.6300 -2.6146
 8483SOL    HW236909   4.250   4.651   7.587 -1.8994 -1.8397 -2.0375
 8484SOL     OW36910   2.430   4.105   7.495  0.4748 -0.1223  0.1288
 8484SOL    HW136911   2.409   4.161   7.569  0.6114 -1.4923  1.1899
 8484SOL    HW236912   2.498   4.046   7.528 -0.1602 -1.4289 -0.8814
 8485SOL     OW36913   4.607   0.957   6.960  0.0035  0.0205  0.0389
 8485SOL    HW136914   4.534   0.918   6.911  1.2153 -0.6773 -1.2224
 8485SOL    HW236915   4.579   1.049   6.965  1.0191  0.2939  0.5603
 8486SOL     OW36916   4.663   0.553   2.995  0.4284 -0.2992  1.0824
 8486SOL    HW136917   4.580   0.505   3.005 -0.9967  1.9351  0.0041
 8486SOL    HW236918   4.684   0.512   2.911 -0.5784  1.2682  0.0811
 8487SOL     OW36919   3.772   0.044   7.328 -0.0890 -0.0416 -0.4644
 8487SOL    HW136920   3.821   4.686   7.353  1.1516  0.3241 -1.6920
 8487SOL    HW236921   3.796   0.111   7.391 -0.4212 -1.6211  1.3315
 8488SOL     OW36922   3.828   3.181  11.033 -0.2587  0.0833  0.1468
 8488SOL    HW136923   3.868   3.111  10.982 -0.4327  0.5548 -0.6331
 8488SOL    HW236924   3.883   3.186  11.111 -0.8052  0.4238  0.5040
 8489SOL     OW36925   3.948   4.527   5.907  0.2467 -0.4413 -0.1854
 8489SOL    HW136926   3.946   4.452   5.966  2.1136 -0.8266 -0.6403
 8489SOL    HW236927   3.864   4.572   5.916  1.4350  1.7139  0.1402
 8490SOL     OW36928   3.671   0.764  12.487  0.6190  0.0482 -0.0537
 8490SOL    HW136929   3.577   0.747  12.481  0.1019  2.6775  0.7855
 8490SOL    HW236930   3.675   0.835  12.423 -1.5349 -0.7461 -1.0983
 8491SOL     OW36931   3.446   0.305   0.934  0.1978 -0.0919  0.0367
 8491SOL    HW136932   3.488   0.313   1.019  1.0507  0.1175 -0.3998
 8491SOL    HW236933   3.499   0.245   0.883 -0.1253 -1.3853  1.2465
 8492SOL     OW36934   2.513   0.238   8.538 -0.2348  0.4454 -0.4829
 8492SOL    HW136935   2.563   0.316   8.513 -0.2783  0.8727  0.7764
 8492SOL    HW236936   2.512   0.201   8.450 -1.3218 -2.0984  0.6318
 8493SOL     OW36937   4.232   1.219   2.904  0.3391  0.4482 -0.0087
 8493SOL    HW136938   4.182   1.242   2.982  0.4627  1.5604 -0.2663
 8493SOL    HW236939   4.169   1.213   2.832  1.2559  1.9233 -0.9235
 8494SOL     OW36940   1.708   0.982   2.433  0.1461  0.7521  0.0016
 8494SOL    HW136941   1.618   0.960   2.459  0.7927 -3.9220 -1.6771
 8494SOL    HW236942   1.698   1.061   2.380 -2.9902 -0.2053 -0.8703
 8495SOL     OW36943   3.624   0.838   5.632 -0.2326  0.3397  0.9264
 8495SOL    HW136944   3.652   0.750   5.605  1.3003  1.2580 -0.4194
 8495SOL    HW236945   3.691   0.857   5.697 -0.8940 -0.8619  1.9752
 8496SOL     OW36946   0.499   3.687   5.724 -0.6458 -0.2792  0.3092
 8496SOL    HW136947   0.533   3.611   5.676 -0.4478  0.3803 -0.5799
 8496SOL    HW236948   0.408   3.666   5.745 -0.3170 -0.6111  1.4339
 8497SOL     OW36949   1.442   1.504   2.318 -0.2652  0.2612  0.1377
 8497SOL    HW136950   1.520   1.507   2.262 -0.7834 -2.6799 -0.7535
 8497SOL    HW236951   1.458   1.574   2.381  0.7369  0.2471 -0.1080
 8498SOL     OW36952   1.584   1.404   7.724 -0.1712  0.3531  0.3915
 8498SOL    HW136953   1.532   1.367   7.796 -1.0187 -0.6027 -0.7193
 8498SOL    HW236954   1.563   1.347   7.650  0.2157 -0.4176  0.8736
 8499SOL     OW36955   3.784   4.367  14.669  0.0679  0.6272  0.8448
 8499SOL    HW136956   3.815   4.286  14.708 -1.0659 -0.5193 -0.6426
 8499SOL    HW236957   3.689   4.359  14.674  0.0429  0.4849  0.1530
 8500SOL     OW36958   4.713   3.646   8.027  0.2103 -0.1902  0.0808
 8500SOL    HW136959   0.042   3.682   8.100  2.0819 -0.2316 -1.2104
 8500SOL    HW236960   4.693   3.720   7.970 -2.4007 -0.5500  0.5308
 8501SOL     OW36961   4.289   2.691  13.018  0.1486  0.2706 -0.4711
 8501SOL    HW136962   4.283   2.695  12.922 -0.3772 -0.0425 -0.4568
 8501SOL    HW236963   4.269   2.782  13.036 -0.4773  0.1496 -0.5389
 8502SOL     OW36964   3.525   0.224   1.356 -0.3897 -0.6942  0.0025
 8502SOL    HW136965   3.519   0.289   1.426  0.2053  0.1681 -0.7483
 8502SOL    HW236966   3.555   0.277   1.281  1.5371 -0.9495  0.5937
 8503SOL     OW36967   4.282   2.815  11.954 -0.1757 -0.3303 -0.0530
 8503SOL    HW136968   4.271   2.889  12.014  1.1795 -0.8328  0.8158
 8503SOL    HW236969   4.203   2.842  11.908 -1.1260 -2.5691  0.2395
 8504SOL     OW36970   2.321   1.627   5.172  0.4170 -0.3652 -0.2304
 8504SOL    HW136971   2.244   1.628   5.115  1.1188 -1.9184 -1.2204
 8504SOL    HW236972   2.288   1.558   5.230 -0.5139 -0.9177 -1.4100
 8505SOL     OW36973   1.735   0.977  11.362 -0.0927  0.0717 -0.1846
 8505SOL    HW136974   1.765   0.940  11.279 -0.3437 -0.4768 -0.0300
 8505SOL    HW236975   1.680   1.046  11.325 -0.4412 -0.2139 -0.1913
 8506SOL     OW36976   4.172   2.535   5.389  0.5167  0.1266  0.5832
 8506SOL    HW136977   4.129   2.544   5.475  0.0582 -0.6866  0.4375
 8506SOL    HW236978   4.262   2.530   5.420  1.2749  2.4750 -1.2976
 8507SOL     OW36979   3.461   1.914   9.432  0.1016  0.3581  0.0602
 8507SOL    HW136980   3.548   1.876   9.423 -0.3830 -0.2032 -2.1876
 8507SOL    HW236981   3.419   1.874   9.356 -1.3611  0.2661  0.9082
 8508SOL     OW36982   0.192   0.851   3.317  0.3328 -0.0520  0.6306
 8508SOL    HW136983   0.275   0.897   3.306  0.2819 -0.1499 -0.1198
 8508SOL    HW236984   0.194   0.793   3.241  1.0669 -0.7455  1.1673
 8509SOL     OW36985   0.717   1.417   5.049 -0.4314  0.3380 -0.1552
 8509SOL    HW136986   0.721   1.399   5.143  0.0666 -0.4719 -0.3350
 8509SOL    HW236987   0.630   1.388   5.019  0.4589 -0.9710 -1.4617
 8510SOL     OW36988   2.584   0.413   7.942  0.2896 -0.0891  0.1270
 8510SOL    HW136989   2.534   0.493   7.960  0.9735  0.4816 -0.5451
 8510SOL    HW236990   2.533   0.341   7.979  1.7461  0.1002  2.5310
 8511SOL     OW36991   2.092   0.418   8.255  0.6592 -0.6213  0.3036
 8511SOL    HW136992   2.024   0.352   8.242  0.7809 -0.7072  0.1129
 8511SOL    HW236993   2.071   0.453   8.342 -2.7276  0.4109 -0.9311
 8512SOL     OW36994   1.628   0.635   3.579  0.1913 -0.3488  0.3506
 8512SOL    HW136995   1.618   0.676   3.493  3.5642  0.2035  0.2105
 8512SOL    HW236996   1.670   0.708   3.625  0.2972 -1.8409  2.6236
 8513SOL     OW36997   3.165   3.307   6.659 -0.2058  0.4786  0.2540
 8513SOL    HW136998   3.136   3.320   6.749  0.2340 -0.8375  0.5791
 8513SOL    HW236999   3.261   3.315   6.657  0.1186 -3.4379  2.1027
 8514SOL     OW37000   2.935   2.196   8.127  0.3043  0.1310  0.0598
 8514SOL    HW137001   2.912   2.289   8.118 -1.1834 -0.2608 -0.1332
 8514SOL    HW237002   2.849   2.168   8.099  1.3166 -0.6077 -2.2643
 8515SOL     OW37003   4.142   0.154   7.621 -0.3928  0.3756 -0.2847
 8515SOL    HW137004   4.137   0.123   7.530  4.5976 -0.3399 -0.3607
 8515SOL    HW237005   4.092   0.088   7.668 -0.2523  0.2803 -0.2704
 8516SOL     OW37006   2.989   3.659   3.394 -0.0184 -0.5171  1.1463
 8516SOL    HW137007   3.008   3.726   3.328  0.0111  0.0159  1.6927
 8516SOL    HW237008   2.922   3.611   3.345 -1.4252  1.8447  0.7241
 8517SOL     OW37009   3.558   1.845   2.982 -0.4580 -0.5808  0.7288
 8517SOL    HW137010   3.488   1.823   3.042  0.5016 -1.3780  1.5539
 8517SOL    HW237011   3.634   1.793   3.009 -0.2015 -0.6473 -0.0992
 8518SOL     OW37012   0.729   3.079  17.133 -0.8105  0.2435  0.0748
 8518SOL    HW137013   0.671   3.073  17.208  0.4702 -1.3854  0.9342
 8518SOL    HW237014   0.656   3.093  17.073  1.1609  0.3232 -2.3299
 8519SOL     OW37015   1.428   2.648   9.354  0.1645  0.9616 -0.2081
 8519SOL    HW137016   1.460   2.566   9.315 -1.4309  1.9316 -3.5308
 8519SOL    HW237017   1.336   2.624   9.361  0.4790  0.1481  1.3806
 8520SOL     OW37018   3.451   2.768   2.820 -0.0737 -0.8735  0.1058
 8520SOL    HW137019   3.420   2.755   2.909  0.3779 -1.3455  0.1946
 8520SOL    HW237020   3.401   2.706   2.768 -0.1923 -0.0465 -0.7669
 8521SOL     OW37021   3.057   4.532   8.726 -0.3775  0.9197  0.3533
 8521SOL    HW137022   3.115   4.589   8.674  1.3291  1.1104  2.4653
 8521SOL    HW237023   2.981   4.517   8.669  0.0972 -1.6237  0.3659
 8522SOL     OW37024   1.014   3.431  12.665  0.5724  0.2583  0.2959
 8522SOL    HW137025   1.088   3.372  12.676  1.0472  0.9529  0.8064
 8522SOL    HW237026   1.042   3.498  12.604  2.9652  0.2348  1.3621
 8523SOL     OW37027   1.261   4.441   8.686  1.0241 -0.3681  0.5092
 8523SOL    HW137028   1.249   4.532   8.660 -0.0476 -0.9426 -1.0145
 8523SOL    HW237029   1.354   4.433   8.705  0.6904 -0.3672  2.1416
 8524SOL     OW37030   1.356   2.839   0.448 -0.7079 -0.2735 -0.0563
 8524SOL    HW137031   1.361   2.816   0.541  0.7159 -0.4912 -0.2002
 8524SOL    HW237032   1.448   2.853   0.428 -0.9142 -0.4912 -1.1297
 8525SOL     OW37033   0.803   1.879  16.030 -0.7848 -0.1229  1.0147
 8525SOL    HW137034   0.817   1.973  16.028 -0.8801 -0.1743 -1.4012
 8525SOL    HW237035   0.713   1.873  15.998  0.0806  1.0279 -1.5868
 8526SOL     OW37036   4.643   0.652   7.351 -0.0785  0.2352 -0.1772
 8526SOL    HW137037   4.682   0.641   7.265  0.7862 -1.3531  0.4198
 8526SOL    HW237038   4.684   0.733   7.380  3.8211 -2.0788  0.8133
 8527SOL     OW37039   1.800   2.548   4.180  0.5296 -0.1136  0.3048
 8527SOL    HW137040   1.864   2.490   4.221  0.6737 -0.1546  0.0239
 8527SOL    HW237041   1.808   2.625   4.237  2.1408 -1.5958  2.0698
 8528SOL     OW37042   0.888   0.001   2.471 -0.6767  0.7502 -1.3078
 8528SOL    HW137043   0.869   4.708   2.379  0.1626 -0.7767 -1.2481
 8528SOL    HW237044   0.927   0.089   2.474 -0.9396  0.7439  2.8553
 8529SOL     OW37045   0.208   3.232   3.213  0.6852  0.4096 -0.5489
 8529SOL    HW137046   0.252   3.249   3.129  1.0252  0.3219 -0.3876
 8529SOL    HW237047   0.197   3.321   3.247  1.7544  0.4310 -0.2681
 8530SOL     OW37048   2.817   3.821   3.531 -0.1764 -0.1386 -0.6287
 8530SOL    HW137049   2.869   3.752   3.490  1.4286  1.1836 -0.8379
 8530SOL    HW237050   2.783   3.877   3.461  0.9743  0.7732 -0.4632
 8531SOL     OW37051   1.909   2.794   5.472 -0.4008 -0.4368 -0.0559
 8531SOL    HW137052   1.935   2.749   5.392  0.9774  0.8261 -0.2971
 8531SOL    HW237053   1.837   2.733   5.491 -0.1055 -0.9396 -0.5534
 8532SOL     OW37054   1.316   3.809  15.515  0.1195 -0.5037 -0.7760
 8532SOL    HW137055   1.247   3.865  15.480  2.4874  1.8614 -1.6917
 8532SOL    HW237056   1.267   3.740  15.561 -0.2191  0.4413  0.2544
 8533SOL     OW37057   4.075   3.376   4.938 -0.0016 -0.2124 -0.5578
 8533SOL    HW137058   4.160   3.403   4.903  0.5457 -0.1436  0.8453
 8533SOL    HW237059   4.049   3.305   4.879  0.5837 -1.4324  0.6572
 8534SOL     OW37060   1.376   3.972   3.733 -0.0529 -0.0791  0.6284
 8534SOL    HW137061   1.416   4.054   3.703  0.3433 -0.6158 -0.2868
 8534SOL    HW237062   1.450   3.912   3.738  1.1113  1.2394 -0.5740
 8535SOL     OW37063   1.938   4.068   4.269 -0.1210  0.4422 -0.1926
 8535SOL    HW137064   1.944   4.139   4.205 -0.7318 -0.4684 -1.2607
 8535SOL    HW237065   1.902   4.117   4.343 -1.7144 -1.0678  0.0373
 8536SOL     OW37066   1.215   3.427  17.471  0.2759 -0.9971 -0.3576
 8536SOL    HW137067   1.192   3.380  17.390 -0.2303 -0.0880 -0.7428
 8536SOL    HW237068   1.217   3.519  17.444 -0.9271 -0.8237  0.1652
 8537SOL     OW37069   1.348   2.499   4.495 -0.2408  0.2614 -0.1520
 8537SOL    HW137070   1.298   2.483   4.415  0.7417  1.4354 -1.0200
 8537SOL    HW237071   1.408   2.566   4.460  0.8879  0.7928  2.7671
 8538SOL     OW37072   0.424   4.320   7.759  0.6480 -0.2014 -0.4011
 8538SOL    HW137073   0.339   4.283   7.735 -0.2142 -0.1442  2.5273
 8538SOL    HW237074   0.434   4.274   7.842 -1.5582  0.5428  0.2765
 8539SOL     OW37075   0.754   0.901  16.064 -0.1182 -0.2437 -0.1821
 8539SOL    HW137076   0.710   0.835  16.010  1.3582 -2.2995  1.1214
 8539SOL    HW237077   0.688   0.970  16.058 -0.1803 -0.1556  1.5261
 8540SOL     OW37078   1.344   3.017   3.663 -0.1633  0.0053 -0.7039
 8540SOL    HW137079   1.421   3.042   3.613 -0.1074  1.2283  0.0002
 8540SOL    HW237080   1.280   3.011   3.592  0.1908 -2.6612 -0.8000
 8541SOL     OW37081   2.491   1.020   5.610 -0.2313  0.2676 -0.9305
 8541SOL    HW137082   2.517   1.092   5.668 -0.4645  0.0012 -0.4970
 8541SOL    HW237083   2.522   0.945   5.661 -0.1292  0.6607 -0.4147
 8542SOL     OW37084   2.487   1.997   0.389 -0.2099  0.4500 -0.0420
 8542SOL    HW137085   2.403   1.961   0.418 -0.4742  0.4529 -0.8166
 8542SOL    HW237086   2.532   1.938   0.449  3.5351  1.6160 -1.7310
 8543SOL     OW37087   1.347   1.210   1.187 -0.0758 -0.2309 -0.1108
 8543SOL    HW137088   1.379   1.288   1.142  0.4317 -1.1274 -1.3031
 8543SOL    HW237089   1.360   1.145   1.118  1.7283 -2.6336  2.4912
 8544SOL     OW37090   0.932   0.016   4.622  0.2950 -0.3848 -0.3225
 8544SOL    HW137091   0.922   0.094   4.567  1.4272  0.2656  0.4003
 8544SOL    HW237092   0.840   4.716   4.638  0.6770 -0.8390  1.2883
 8545SOL     OW37093   1.425   3.759   5.024 -0.0407 -0.4509 -0.3016
 8545SOL    HW137094   1.505   3.784   4.978 -1.1836  0.4188 -1.8125
 8545SOL    HW237095   1.421   3.668   4.993 -1.5418 -0.7093  0.6353
 8546SOL     OW37096   2.987   0.989   7.115 -0.1133  0.0485  0.5494
 8546SOL    HW137097   3.041   1.001   7.037  0.0391 -2.2334  0.3083
 8546SOL    HW237098   3.054   1.022   7.176 -0.2412 -0.0628  0.7502
 8547SOL     OW37099   0.358   1.695   3.386  0.4269  0.0938 -0.4369
 8547SOL    HW137100   0.408   1.717   3.465 -0.7072  0.3150  0.2143
 8547SOL    HW237101   0.345   1.779   3.344  0.1500  0.6291  0.7127
 8548SOL     OW37102   3.538   3.074   5.674 -0.0592  0.1163  0.3405
 8548SOL    HW137103   3.559   3.097   5.765  2.9246 -1.8420  0.1768
 8548SOL    HW237104   3.492   2.996   5.704 -3.2394  2.2075  0.8010
 8549SOL     OW37105   2.491   4.377  17.313  0.6121  0.0063 -0.1260
 8549SOL    HW137106   2.493   4.306  17.377  0.8388 -0.3354 -0.5154
 8549SOL    HW237107   2.579   4.367  17.275  0.7021  3.0867 -0.6823
 8550SOL     OW37108   2.731   0.234  10.143 -0.5155  0.1540 -0.0462
 8550SOL    HW137109   2.760   0.288  10.217  3.2574  0.2918 -1.6448
 8550SOL    HW237110   2.805   0.255  10.086 -0.9808  0.9857 -0.3354
 8551SOL     OW37111   0.884   3.601   8.427 -0.4619  0.7907  0.3204
 8551SOL    HW137112   0.898   3.694   8.408  1.7952  0.7754  1.8656
 8551SOL    HW237113   0.942   3.583   8.501 -0.7504  2.1132  0.8784
 8552SOL     OW37114   4.144   3.940   6.889 -0.1272 -0.6923  0.6370
 8552SOL    HW137115   4.125   3.957   6.982 -0.9399 -1.8784  0.6878
 8552SOL    HW237116   4.193   4.018   6.861  0.4532 -0.6797  1.6636
 8553SOL     OW37117   4.212   0.716   8.306 -0.2615  0.0798  0.0377
 8553SOL    HW137118   4.242   0.724   8.397 -1.7557 -2.6050  0.7560
 8553SOL    HW237119   4.121   0.741   8.325  0.4447  3.1662 -0.5282
 8554SOL     OW37120   3.450   1.476   9.762  0.3390 -0.0188  0.1259
 8554SOL    HW137121   3.499   1.480   9.845 -0.1475  1.3238  0.3472
 8554SOL    HW237122   3.428   1.383   9.765  2.6885 -0.6482 -1.5165
 8555SOL     OW37123   3.667   2.542   8.970  0.3391  0.0694 -0.3296
 8555SOL    HW137124   3.702   2.453   8.973 -2.1034 -1.0359 -3.9860
 8555SOL    HW237125   3.746   2.594   8.961 -0.0915  1.0502  1.5726
 8556SOL     OW37126   3.547   0.707   8.453  0.1260 -0.2348 -0.3482
 8556SOL    HW137127   3.564   0.647   8.526 -1.8977 -1.4355 -0.8886
 8556SOL    HW237128   3.600   0.780   8.487 -1.8600  0.2222  1.7938
 8557SOL     OW37129   2.345   1.567  16.696  0.3598  0.6272  0.0743
 8557SOL    HW137130   2.380   1.489  16.739 -1.0525  0.9591  1.8029
 8557SOL    HW237131   2.358   1.526  16.610 -1.0080 -0.1653  0.2403
 8558SOL     OW37132   0.136   3.802  12.318  0.2761 -0.0844  0.3645
 8558SOL    HW137133   0.106   3.842  12.400  1.3992  0.3039  0.5849
 8558SOL    HW237134   0.076   3.729  12.303  0.7822 -0.1276 -1.5533
 8559SOL     OW37135   0.186   0.329   6.298  0.0972 -0.2654  0.1674
 8559SOL    HW137136   0.201   0.421   6.276  1.5048 -0.6818 -0.6010
 8559SOL    HW237137   0.270   0.290   6.276 -1.1978 -2.1227 -1.4900
 8560SOL     OW37138   3.316   4.577   5.129  0.1550  0.5047  0.6504
 8560SOL    HW137139   3.332   4.657   5.079 -0.2702 -0.0598 -0.3822
 8560SOL    HW237140   3.331   4.612   5.217 -1.7521  2.2895  0.2498
 8561SOL     OW37141   1.309   2.906   4.265  0.0256 -0.1192  0.0631
 8561SOL    HW137142   1.297   2.982   4.208 -0.1635  0.4605  0.8700
 8561SOL    HW237143   1.277   2.951   4.343  0.6564  1.5863 -0.6562
 8562SOL     OW37144   1.994   4.405   4.397  0.1552 -0.2545  0.4507
 8562SOL    HW137145   1.904   4.376   4.379 -0.2861  1.3638  0.0459
 8562SOL    HW237146   1.994   4.383   4.490 -1.2022 -0.6645  0.3598
 8563SOL     OW37147   1.471   4.241   1.588  0.4736 -0.3022 -0.0920
 8563SOL    HW137148   1.417   4.320   1.598  0.9741 -0.1205  1.1677
 8563SOL    HW237149   1.427   4.174   1.641  1.5554  0.2631  1.5055
 8564SOL     OW37150   4.430   4.297  16.026  0.0106  0.1442 -0.7822
 8564SOL    HW137151   4.516   4.256  16.034  0.3126  1.3361  2.1046
 8564SOL    HW237152   4.372   4.223  16.042  0.9769 -0.3656  0.3461
 8565SOL     OW37153   3.134   1.386   5.069 -0.3064  0.2073  0.2709
 8565SOL    HW137154   3.137   1.303   5.021 -1.2689  0.3229  0.0021
 8565SOL    HW237155   3.151   1.355   5.158 -0.8824 -1.0531 -0.0664
 8566SOL     OW37156   4.077   4.518   5.349  0.2891  0.4036  0.1518
 8566SOL    HW137157   4.083   4.422   5.343 -0.5576  0.4060 -0.7707
 8566SOL    HW237158   4.093   4.531   5.255 -1.0014  1.0535  0.0370
 8567SOL     OW37159   4.289   0.627   4.138  0.9261  0.2034 -0.0997
 8567SOL    HW137160   4.299   0.572   4.215 -2.3680  1.1161  0.9972
 8567SOL    HW237161   4.213   0.680   4.163  0.6944  0.7937 -2.0408
 8568SOL     OW37162   1.764   0.176  16.680  0.0117 -0.7228 -0.4901
 8568SOL    HW137163   1.726   0.122  16.611 -1.2020  2.9035 -2.6733
 8568SOL    HW237164   1.851   0.138  16.695  0.1621 -0.5419 -0.9248
 8569SOL     OW37165   2.262   0.023   9.214  0.5694  0.4871 -0.0118
 8569SOL    HW137166   2.243   0.032   9.307 -1.1555 -2.3927 -0.0664
 8569SOL    HW237167   2.297   4.655   9.207 -0.1103  0.0882  1.6360
 8570SOL     OW37168   0.814   4.524   8.026 -0.1623  0.5117 -0.4560
 8570SOL    HW137169   0.786   4.435   8.048  0.5567  0.2513 -0.6067
 8570SOL    HW237170   0.749   4.575   8.075 -1.3291  0.5267 -2.0356
 8571SOL     OW37171   1.938   0.496   3.976 -0.2447  0.2978 -0.0381
 8571SOL    HW137172   1.998   0.527   3.908  0.7579 -0.5489  0.4759
 8571SOL    HW237173   1.910   0.412   3.941  2.7176  0.4401 -2.7400
 8572SOL     OW37174   4.497   0.093   4.553  0.1507  0.1402 -0.0786
 8572SOL    HW137175   4.489   0.068   4.645  0.6251 -0.3756 -0.1780
 8572SOL    HW237176   4.497   0.188   4.564  0.6101  0.1264  0.0396
 8573SOL     OW37177   4.530   4.001   8.614 -0.1400  0.2318 -0.1410
 8573SOL    HW137178   4.496   3.993   8.703 -1.0720 -0.2674 -0.5463
 8573SOL    HW237179   4.446   4.011   8.570 -0.6691 -0.7833  0.6203
 8574SOL     OW37180   3.160   0.498  10.355  0.0448  0.1692 -0.2038
 8574SOL    HW137181   3.243   0.542  10.341  1.2979 -2.0100  0.3366
 8574SOL    HW237182   3.170   0.417  10.305 -1.7774  0.6553 -1.3498
 8575SOL     OW37183   0.810   1.361   2.003  0.0325  0.3880 -0.5961
 8575SOL    HW137184   0.863   1.304   2.059 -0.5770  0.4482  0.0384
 8575SOL    HW237185   0.863   1.440   2.000 -0.5724  0.7613 -1.3486
 8576SOL     OW37186   0.736   3.080   9.192 -0.3787 -0.4478 -0.4988
 8576SOL    HW137187   0.735   2.984   9.186  0.2274 -0.3770 -1.6666
 8576SOL    HW237188   0.816   3.082   9.244  0.3770  2.7148 -1.7800
 8577SOL     OW37189   0.563   2.033  17.108  0.4595  0.2070  0.4159
 8577SOL    HW137190   0.517   2.066  17.032  0.9257 -1.3352 -0.5276
 8577SOL    HW237191   0.497   2.044  17.177 -1.5843  0.9322 -1.6622
 8578SOL     OW37192   0.404   0.169   3.668 -0.0819  0.5928  1.2316
 8578SOL    HW137193   0.323   0.220   3.677 -1.0821 -0.5542 -1.2996
 8578SOL    HW237194   0.467   0.226   3.713 -0.9646  0.7100  2.3063
 8579SOL     OW37195   2.657   2.075  16.549  0.6676  0.5931 -0.5260
 8579SOL    HW137196   2.750   2.077  16.523  0.9670  2.0361  0.6796
 8579SOL    HW237197   2.629   2.104  16.462  1.1245 -1.9519 -1.5140
 8580SOL     OW37198   0.743   2.267  10.246  0.0167 -0.5754  0.3027
 8580SOL    HW137199   0.803   2.338  10.270 -0.2441  0.3283 -1.7481
 8580SOL    HW237200   0.665   2.321  10.232  0.2054 -0.2526  0.5065
 8581SOL     OW37201   1.777   0.402  13.550  0.2920  0.1983  0.1993
 8581SOL    HW137202   1.812   0.431  13.465  1.4760 -1.5036  0.1080
 8581SOL    HW237203   1.784   0.476  13.610  1.2318  0.7259 -0.5675
 8582SOL     OW37204   0.404   2.939   8.502 -0.1357 -0.4373 -0.3153
 8582SOL    HW137205   0.321   2.986   8.514 -0.0135 -0.2935 -0.0443
 8582SOL    HW237206   0.461   2.977   8.569 -0.7299 -3.0488  1.6481
 8583SOL     OW37207   3.958   1.328   4.451  0.7622 -0.0895  0.0239
 8583SOL    HW137208   3.949   1.281   4.368 -1.5145 -0.4421  0.4619
 8583SOL    HW237209   4.010   1.268   4.505  0.5113 -0.0207  0.3435
 8584SOL     OW37210   4.460   0.675  14.186  0.0989  0.1709  1.0579
 8584SOL    HW137211   4.472   0.721  14.103 -0.3261 -1.2242  0.2211
 8584SOL    HW237212   4.508   0.737  14.240  0.5636  0.0815  0.7469
 8585SOL     OW37213   4.663   4.138   4.002 -0.9511  0.0524  0.1177
 8585SOL    HW137214   4.615   4.113   4.081 -1.7817 -1.0692 -0.7450
 8585SOL    HW237215   4.651   4.233   3.999 -0.5687  0.1033  0.1333
 8586SOL     OW37216   3.061   2.129   6.193 -0.6426  0.1029  0.1412
 8586SOL    HW137217   2.973   2.108   6.164 -1.2706  2.1413  0.5912
 8586SOL    HW237218   3.065   2.108   6.287  1.3366 -0.0718  0.0385
 8587SOL     OW37219   1.882   0.110  11.017  0.1714 -0.0424  0.4318
 8587SOL    HW137220   1.823   0.046  11.057 -0.3012  0.2862  0.2592
 8587SOL    HW237221   1.825   0.154  10.955 -1.7818 -2.2003  0.7160
 8588SOL     OW37222   1.247   3.636   5.872 -0.0396 -0.3624 -0.6173
 8588SOL    HW137223   1.307   3.706   5.898  2.1547 -2.3458 -0.4171
 8588SOL    HW237224   1.166   3.667   5.914 -1.2231 -4.1401 -0.1742
 8589SOL     OW37225   1.565   0.704   7.360  0.1279  0.7237  0.0761
 8589SOL    HW137226   1.654   0.728   7.333  0.3669  1.7543  1.7913
 8589SOL    HW237227   1.576   0.609   7.371 -0.9727  0.5489 -0.4254
 8590SOL     OW37228   2.933   3.170   4.263 -0.1270  0.5816 -0.3630
 8590SOL    HW137229   2.861   3.180   4.325 -0.3693  1.0050 -0.7149
 8590SOL    HW237230   2.896   3.105   4.203  1.1471  0.0156 -0.5493
 8591SOL     OW37231   1.090   1.409   5.612  0.1312  0.1975  0.2576
 8591SOL    HW137232   0.999   1.381   5.615  0.4440 -1.0210 -1.5327
 8591SOL    HW237233   1.128   1.385   5.696  0.2029 -1.8075 -0.3510
 8592SOL     OW37234   2.394   1.746  11.408 -0.4024  0.4807  0.2098
 8592SOL    HW137235   2.392   1.699  11.491 -0.4543  1.9786  1.0709
 8592SOL    HW237236   2.320   1.804  11.425 -0.8172 -0.7007  2.5229
 8593SOL     OW37237   1.342   3.888   2.137 -0.2802  0.0852  0.0275
 8593SOL    HW137238   1.418   3.934   2.099  0.7882 -0.7723  1.1158
 8593SOL    HW237239   1.291   3.852   2.065  1.2803  0.5678 -1.3166
 8594SOL     OW37240   2.248   1.887  10.419 -0.0691 -0.8651 -0.2853
 8594SOL    HW137241   2.313   1.927  10.476 -1.0253 -0.8336  0.7878
 8594SOL    HW237242   2.216   1.809  10.464 -0.9050 -0.5783 -0.3875
 8595SOL     OW37243   3.508   1.565   4.138  0.0322  0.5598  0.5272
 8595SOL    HW137244   3.532   1.621   4.213  0.4090 -0.0616  0.8730
 8595SOL    HW237245   3.536   1.619   4.064  1.3025 -0.2299  0.4181
 8596SOL     OW37246   3.950   4.269   8.976 -0.6145 -0.1605  0.3149
 8596SOL    HW137247   4.036   4.228   8.966  0.2112  1.8964 -0.9137
 8596SOL    HW237248   3.959   4.283   9.070  1.7012 -1.4551  0.2719
 8597SOL     OW37249   2.282   0.717  15.499  0.1804  0.1429  0.4640
 8597SOL    HW137250   2.346   0.656  15.461 -0.5610  0.9478 -2.0978
 8597SOL    HW237251   2.309   0.804  15.471 -0.1523 -0.5385 -2.0307
 8598SOL     OW37252   3.253   2.889  17.050 -0.2246  0.1018  0.1362
 8598SOL    HW137253   3.277   2.810  17.098 -1.4059 -0.1488  0.3336
 8598SOL    HW237254   3.342   2.914  17.027 -0.3330  0.3285 -0.0350
 8599SOL     OW37255   0.132   3.866   6.580  0.1416 -0.6295  0.5521
 8599SOL    HW137256   0.202   3.867   6.646  1.9673 -0.0214 -1.3647
 8599SOL    HW237257   0.183   3.896   6.504 -0.6719  0.9957  0.6521
 8600SOL     OW37258   2.651   0.509   4.237 -0.0844  0.6587 -0.4399
 8600SOL    HW137259   2.599   0.589   4.246 -2.0010 -0.6193  0.0207
 8600SOL    HW237260   2.601   0.450   4.180 -0.3341  1.6225 -1.2191
 8601SOL     OW37261   4.446   0.822   2.997  0.2856 -0.2424 -0.5235
 8601SOL    HW137262   4.490   0.738   2.991 -1.5682 -1.2847  0.5449
 8601SOL    HW237263   4.375   0.798   3.057 -0.8289  2.8609 -0.5967
 8602SOL     OW37264   3.122   1.350   4.541 -0.0252 -0.4328 -0.1118
 8602SOL    HW137265   3.195   1.359   4.603 -1.4076 -0.5160  1.5256
 8602SOL    HW237266   3.061   1.405   4.590 -0.3604  1.2656 -2.4429
 8603SOL     OW37267   2.603   4.446   3.920  0.0672  0.4384 -0.7107
 8603SOL    HW137268   2.683   4.494   3.941 -0.2597  0.3360  0.7357
 8603SOL    HW237269   2.631   4.371   3.867  2.5904  0.4964  0.5481
 8604SOL     OW37270   1.865   2.235   3.641 -0.4198  0.2738  0.3855
 8604SOL    HW137271   1.861   2.146   3.675  0.1396  0.1934  0.2547
 8604SOL    HW237272   1.958   2.259   3.650 -0.1800  0.2932 -2.1556
 8605SOL     OW37273   0.154   0.919  17.551  0.3763  0.0361  0.3758
 8605SOL    HW137274   0.207   0.970  17.490 -0.5381  1.2474  0.5807
 8605SOL    HW237275   0.061   0.939  17.534  0.0817 -1.4318  0.2630
 8606SOL     OW37276   0.878   2.965   7.525 -0.4554 -0.8669  0.0886
 8606SOL    HW137277   0.867   3.005   7.611  0.8539  1.1785 -0.7023
 8606SOL    HW237278   0.870   3.036   7.461  0.4065  0.3562  1.3467
 8607SOL     OW37279   2.161   3.633  13.071 -0.2493 -0.1975  0.2272
 8607SOL    HW137280   2.151   3.624  12.976 -0.7376  2.7171  0.0053
 8607SOL    HW237281   2.075   3.674  13.081 -0.5037 -0.3470 -1.3539
 8608SOL     OW37282   4.012   3.693   0.116 -0.0541  0.2703 -0.0019
 8608SOL    HW137283   4.075   3.714   0.186 -1.8116 -0.1740  1.7062
 8608SOL    HW237284   4.043   3.752   0.047 -0.7186 -0.2254 -0.7259
 8609SOL     OW37285   4.404   3.216   0.823  0.0041 -0.1579 -0.2090
 8609SOL    HW137286   4.449   3.202   0.739  2.8707  1.3207  1.0603
 8609SOL    HW237287   4.460   3.169   0.885 -0.5171  1.4144  1.4415
 8610SOL     OW37288   0.515   0.020   7.709  0.2045  0.2418 -0.0617
 8610SOL    HW137289   0.575   4.708   7.642  1.0742  1.1332  0.2732
 8610SOL    HW237290   0.568   0.077   7.764 -0.1554  0.5659 -0.0508
 8611SOL     OW37291   1.963   2.008   5.341 -0.0800  0.2136  0.3047
 8611SOL    HW137292   1.933   1.963   5.420  1.0975 -0.7991  0.1790
 8611SOL    HW237293   2.022   1.937   5.315 -1.7797 -1.1458  0.2407
 8612SOL     OW37294   0.059   3.417   8.257 -0.6253  0.3091 -0.2610
 8612SOL    HW137295   4.715   3.419   8.328 -1.6731 -0.8445 -1.1733
 8612SOL    HW237296   0.004   3.395   8.182  0.4811  0.9104 -1.2447
 8613SOL     OW37297   4.281   3.624   8.584  0.1365 -0.3827 -0.4036
 8613SOL    HW137298   4.316   3.544   8.546  0.3852  0.6310 -2.2929
 8613SOL    HW237299   4.353   3.639   8.646 -0.4660 -2.1068  0.7165
 8614SOL     OW37300   2.203   3.435   8.053  0.7279 -0.2903  0.1137
 8614SOL    HW137301   2.175   3.425   7.962 -0.6317 -1.6538  0.6841
 8614SOL    HW237302   2.212   3.531   8.052 -4.3808  0.1671 -4.0010
 8615SOL     OW37303   2.239   0.952   6.504  0.1388  1.4435 -0.0303
 8615SOL    HW137304   2.328   0.983   6.523  0.6104  0.3618 -0.4404
 8615SOL    HW237305   2.193   1.034   6.519  1.5952  2.3015 -0.2653
 8616SOL     OW37306   3.251   1.428   7.973 -0.1975 -0.2569  0.1817
 8616SOL    HW137307   3.218   1.516   7.993  0.3318 -0.1863  0.7242
 8616SOL    HW237308   3.341   1.441   8.003 -0.0393 -0.0835 -0.3489
 8617SOL     OW37309   2.518   0.640   8.120  0.7105  0.3547 -0.1267
 8617SOL    HW137310   2.442   0.583   8.124 -0.0361  1.4708  1.5393
 8617SOL    HW237311   2.566   0.605   8.194  0.4124 -0.6283 -0.4080
 8618SOL     OW37312   2.737   4.650   1.853 -0.7121 -0.2153 -0.5293
 8618SOL    HW137313   2.725   0.021   1.878  0.7247 -0.4510  1.0379
 8618SOL    HW237314   2.823   4.634   1.893 -1.0411 -0.8065 -0.0745
 8619SOL     OW37315   4.118   1.890   4.063 -0.1926  0.4117 -0.9727
 8619SOL    HW137316   4.193   1.907   4.006  1.6922 -1.3506  0.9435
 8619SOL    HW237317   4.124   1.795   4.073 -0.3943  0.5397  0.4039
 8620SOL     OW37318   3.383   3.230   0.257 -0.3761 -0.7342  0.0416
 8620SOL    HW137319   3.474   3.248   0.282  0.0926  0.5740 -2.6769
 8620SOL    HW237320   3.372   3.136   0.240  1.0015 -0.8536 -0.2481
 8621SOL     OW37321   1.526   3.955  17.515  0.5522 -0.1832  0.4469
 8621SOL    HW137322   1.473   3.951  17.594  0.2354  3.7516  0.4259
 8621SOL    HW237323   1.565   4.042  17.515 -0.8902  0.4386  1.6651
 8622SOL     OW37324   2.507   4.646   3.754  0.5203  0.2692  0.0724
 8622SOL    HW137325   2.485   4.588   3.828  2.3084 -0.0845  0.3493
 8622SOL    HW237326   2.496   0.012   3.791 -2.3019  0.0453 -0.2857
 8623SOL     OW37327   2.488   2.433   6.637 -0.4092 -1.0504  0.5623
 8623SOL    HW137328   2.434   2.429   6.717 -1.1858 -0.6589  0.0614
 8623SOL    HW237329   2.565   2.381   6.657  0.1660 -0.6326 -0.5617
 8624SOL     OW37330   3.147   1.290   7.465 -0.1912  0.2333 -0.6486
 8624SOL    HW137331   3.111   1.270   7.379 -1.3878  2.0123 -0.5633
 8624SOL    HW237332   3.090   1.365   7.483  1.9330  2.0639 -1.5420
 8625SOL     OW37333   3.854   4.478   2.801 -0.1209  0.1717 -0.0846
 8625SOL    HW137334   3.856   4.525   2.884 -0.2216  0.7165 -0.3890
 8625SOL    HW237335   3.822   4.547   2.743 -1.2408  0.4312  0.8442
 8626SOL     OW37336   4.017   0.240   3.971 -0.4329  0.0222  0.7039
 8626SOL    HW137337   3.940   0.286   4.003 -0.0563  2.0315 -1.2486
 8626SOL    HW237338   4.092   0.297   3.988  0.7017 -1.0460 -0.7014
 8627SOL     OW37339   2.587   4.336   5.937 -0.0127  0.6374 -0.0014
 8627SOL    HW137340   2.580   4.243   5.915  1.9358  0.2857  0.9014
 8627SOL    HW237341   2.500   4.363   5.908  0.1044 -1.1361 -1.9821
 8628SOL     OW37342   2.046   4.006   8.567 -0.1823 -0.2236 -0.0153
 8628SOL    HW137343   2.133   3.967   8.575 -0.7152 -0.9990  1.9656
 8628SOL    HW237344   2.008   3.974   8.649  2.1312 -2.6547  0.0721
 8629SOL     OW37345   2.623   0.921  14.568  0.3914 -0.2741 -0.0176
 8629SOL    HW137346   2.583   0.868  14.499  1.3475  1.4133 -1.8672
 8629SOL    HW237347   2.551   0.953  14.622  0.7487 -1.9481  1.4546
 8630SOL     OW37348   2.871   3.560   7.199 -0.2668 -0.1068  0.1248
 8630SOL    HW137349   2.793   3.570   7.253 -1.4664  0.8854 -1.7896
 8630SOL    HW237350   2.847   3.607   7.119  1.4774  3.8556  1.8820
 8631SOL     OW37351   1.282   3.693   3.905 -0.1656 -0.5322  0.0002
 8631SOL    HW137352   1.363   3.651   3.876  0.8812  1.3370  0.1527
 8631SOL    HW237353   1.296   3.705   3.999 -0.1337  1.4160 -0.2395
 8632SOL     OW37354   0.472   4.444   4.166 -0.6488  0.4437  0.3227
 8632SOL    HW137355   0.409   4.375   4.146  3.2442 -2.6940 -1.1869
 8632SOL    HW237356   0.438   4.483   4.247 -0.5004 -1.7849  1.4352
 8633SOL     OW37357   1.688   3.072   8.393 -0.1142 -0.2567  0.4397
 8633SOL    HW137358   1.694   2.977   8.398 -1.1230 -0.1203  3.7838
 8633SOL    HW237359   1.773   3.114   8.409 -0.1367 -0.1865  0.3748
 8634SOL     OW37360   0.104   2.207   7.733  0.1501  0.0938 -0.2087
 8634SOL    HW137361   0.165   2.162   7.675  1.6237 -0.4057  1.7299
 8634SOL    HW237362   0.162   2.257   7.790  0.3185 -0.3996  0.0540
 8635SOL     OW37363   3.812   0.413  15.935  0.6519 -0.5741  0.0988
 8635SOL    HW137364   3.804   0.336  15.879  0.6234 -2.0642  2.1350
 8635SOL    HW237365   3.762   0.478  15.885 -1.3498 -2.3208 -0.1967
 8636SOL     OW37366   2.030   3.679   2.393 -0.2512  0.3044 -0.0041
 8636SOL    HW137367   2.123   3.696   2.404 -0.1353 -0.7186  0.5032
 8636SOL    HW237368   2.000   3.663   2.482  0.8472 -1.4570  0.0472
 8637SOL     OW37369   0.535   3.346   4.571  0.2893  0.3663  0.2796
 8637SOL    HW137370   0.565   3.258   4.594 -0.6434 -0.1268 -0.3809
 8637SOL    HW237371   0.620   3.386   4.550 -0.0442 -0.6038 -2.9519
 8638SOL     OW37372   0.637   1.618   1.836 -0.5088 -0.0511 -0.2505
 8638SOL    HW137373   0.607   1.709   1.830  0.2338  0.1008 -1.5744
 8638SOL    HW237374   0.644   1.612   1.932 -1.0627 -2.4026 -0.3551
 8639SOL     OW37375   2.528   3.183  13.801 -0.3886  0.2003 -0.0120
 8639SOL    HW137376   2.509   3.121  13.730  0.3595 -0.7749  0.6425
 8639SOL    HW237377   2.535   3.264  13.751 -2.4172  2.7333  3.8059
 8640SOL     OW37378   3.925   2.572  14.537 -0.0373 -0.9745  0.6448
 8640SOL    HW137379   4.000   2.513  14.545  0.0350 -0.5361  3.1235
 8640SOL    HW237380   3.967   2.658  14.542 -1.1966 -0.2491 -2.1268
 8641SOL     OW37381   2.783   3.751   7.612  0.7715  0.5247  0.1558
 8641SOL    HW137382   2.775   3.717   7.701  2.3576  2.4138  1.0342
 8641SOL    HW237383   2.866   3.798   7.614  1.9048 -1.5165  0.7701
 8642SOL     OW37384   0.530   2.996   0.364  0.1814 -0.2082 -0.3462
 8642SOL    HW137385   0.548   2.956   0.279 -0.2549  0.9356 -0.9672
 8642SOL    HW237386   0.537   3.089   0.344  0.0387 -0.4890 -1.6735
 8643SOL     OW37387   1.267   3.407  14.520  0.3139  0.5295 -0.0572
 8643SOL    HW137388   1.276   3.450  14.605  0.9525  0.8082 -0.2623
 8643SOL    HW237389   1.185   3.443  14.487 -0.2575 -2.0509 -1.4503
 8644SOL     OW37390   0.207   1.029   7.661  0.2726 -0.6504  0.4647
 8644SOL    HW137391   0.248   1.038   7.747 -1.1829  3.2951  0.7452
 8644SOL    HW237392   0.271   1.084   7.616 -1.6279  0.3018 -1.0884
 8645SOL     OW37393   2.967   4.651   3.528 -0.1945 -0.5409  0.7362
 8645SOL    HW137394   3.054   4.646   3.488 -1.0933 -2.3457 -0.9620
 8645SOL    HW237395   2.908   4.589   3.484  0.1362 -0.9053  0.8108
 8646SOL     OW37396   2.535   3.607   5.506  0.1746  0.0586 -0.6076
 8646SOL    HW137397   2.574   3.564   5.430 -0.8296 -1.9306 -0.0188
 8646SOL    HW237398   2.614   3.650   5.539  0.7731 -0.9295 -0.7427
 8647SOL     OW37399   4.095   1.960  15.850 -0.3391 -0.0786  0.2665
 8647SOL    HW137400   4.174   1.963  15.796 -0.4382 -1.1874  0.0652
 8647SOL    HW237401   4.062   1.871  15.842 -0.8932  0.1431  0.0378
 8648SOL     OW37402   3.519   1.505   8.004  0.2666 -0.1152 -0.0867
 8648SOL    HW137403   3.498   1.598   8.012 -0.9705 -0.4761  0.9515
 8648SOL    HW237404   3.611   1.504   8.030  0.1776  0.0142  0.2323
 8649SOL     OW37405   0.526   4.629  16.699 -0.1308 -0.0237 -0.5551
 8649SOL    HW137406   0.542   4.715  16.736 -0.8447 -0.6222  1.1663
 8649SOL    HW237407   0.512   4.573  16.776  1.6077 -1.3162 -1.1947
 8650SOL     OW37408   3.717   3.812   8.590  0.0864 -0.1416  0.1976
 8650SOL    HW137409   3.693   3.902   8.570 -0.4441 -0.3929 -0.2889
 8650SOL    HW237410   3.809   3.834   8.604  0.6337 -0.9574 -2.2431
 8651SOL     OW37411   2.786   4.238   6.521 -0.1446  0.0482  0.0790
 8651SOL    HW137412   2.692   4.242   6.540  0.3918  0.2363  2.6078
 8651SOL    HW237413   2.808   4.328   6.500 -1.1452  0.3189  0.1877
 8652SOL     OW37414   1.758   2.607  16.938 -0.3363  0.2908 -0.4441
 8652SOL    HW137415   1.849   2.637  16.933 -0.3696  0.6537  0.9302
 8652SOL    HW237416   1.717   2.675  16.991 -0.4421  0.4165 -0.6891
 8653SOL     OW37417   4.344   0.810   9.753 -0.0088  0.3301 -0.0878
 8653SOL    HW137418   4.395   0.736   9.720  0.2792 -0.5832  2.3790
 8653SOL    HW237419   4.336   0.780   9.844 -2.7342 -1.3761 -0.8929
 8654SOL     OW37420   2.548   4.202   9.854 -0.3045 -0.2439 -0.1709
 8654SOL    HW137421   2.472   4.243   9.812 -0.4759  0.2858  0.6678
 8654SOL    HW237422   2.618   4.266   9.853 -0.9381  0.4604  0.2817
 8655SOL     OW37423   1.283   4.596   2.395  0.3074 -0.1645 -0.1862
 8655SOL    HW137424   1.204   4.542   2.392  0.2373 -0.0826  0.1781
 8655SOL    HW237425   1.271   4.645   2.314  2.2353  0.6323  0.0173
 8656SOL     OW37426   1.777   2.940   7.389  0.6516 -0.7048  0.0570
 8656SOL    HW137427   1.794   2.860   7.339  2.1399  1.4838 -2.9315
 8656SOL    HW237428   1.735   2.903   7.466 -2.4996 -1.0239 -1.8319
 8657SOL     OW37429   1.479   2.320   9.467  0.4247 -0.3501  0.4636
 8657SOL    HW137430   1.541   2.247   9.464  0.9593  0.1340 -0.1116
 8657SOL    HW237431   1.397   2.273   9.486  0.5856 -1.4677 -1.5539
 8658SOL     OW37432   3.673   3.950  17.182  0.3021 -0.2082 -0.4063
 8658SOL    HW137433   3.681   3.892  17.106 -1.1642 -1.9267  0.7544
 8658SOL    HW237434   3.656   4.035  17.142 -2.1680 -0.2412  0.5728
 8659SOL     OW37435   0.993   3.785  10.957 -0.3347  0.1744  0.5799
 8659SOL    HW137436   0.906   3.821  10.940  0.4203  0.4528 -2.5318
 8659SOL    HW237437   0.969   3.709  11.010  2.6137 -0.6730  0.7134
 8660SOL     OW37438   0.453   0.638   7.771  0.2296 -0.5038 -0.0756
 8660SOL    HW137439   0.444   0.558   7.719 -2.9418 -1.5115  2.0538
 8660SOL    HW237440   0.427   0.701   7.704 -0.1591 -0.2091  0.3548
 8661SOL     OW37441   3.857   1.472  11.498  0.0405 -0.1394  0.2876
 8661SOL    HW137442   3.805   1.404  11.455 -0.4967  0.8786 -0.6643
 8661SOL    HW237443   3.932   1.478  11.438 -1.4525  0.3427 -1.5123
 8662SOL     OW37444   3.025   0.867   5.817  0.6188  1.0399  0.2350
 8662SOL    HW137445   2.977   0.919   5.753 -0.0032  1.3649  0.9592
 8662SOL    HW237446   3.068   0.810   5.753 -2.5848  0.5571 -1.4714
 8663SOL     OW37447   0.236   0.774   3.062 -0.4109 -0.0966 -0.2537
 8663SOL    HW137448   0.227   0.860   3.022 -2.2945  0.2297  0.8880
 8663SOL    HW237449   0.236   0.722   2.981  0.2379  1.8736 -1.4993
 8664SOL     OW37450   4.458   0.116   9.603 -0.9250 -0.0303 -0.0073
 8664SOL    HW137451   4.467   0.115   9.508 -0.0015 -0.5781  0.0836
 8664SOL    HW237452   4.537   0.164   9.629 -0.7682  0.3325 -1.1715
 8665SOL     OW37453   4.038   4.659   0.643  0.3342 -0.3441 -0.7414
 8665SOL    HW137454   4.077   4.618   0.566  0.9497 -1.2177  0.0332
 8665SOL    HW237455   3.994   4.588   0.689 -2.5767  1.2877 -0.9953
 8666SOL     OW37456   1.403   0.670  13.921 -0.3176 -0.2816  0.9006
 8666SOL    HW137457   1.479   0.625  13.885  0.1043  1.5516 -0.4682
 8666SOL    HW237458   1.344   0.598  13.944 -2.2395  1.2322  0.6894
 8667SOL     OW37459   3.161   3.103  12.478  0.5273  0.0857 -0.1924
 8667SOL    HW137460   3.163   3.092  12.383 -3.6280 -0.2853 -0.2462
 8667SOL    HW237461   3.245   3.146  12.497 -0.2419  1.5947 -0.2317
 8668SOL     OW37462   3.605   3.323   5.197  0.0137  0.0417  0.3809
 8668SOL    HW137463   3.679   3.377   5.171  1.9698 -1.6718  2.3806
 8668SOL    HW237464   3.529   3.359   5.150  0.4112 -2.2308 -1.9969
 8669SOL     OW37465   3.888   0.166   1.120  0.6254  0.1040 -0.1443
 8669SOL    HW137466   3.953   0.099   1.097  0.8190  0.5153 -0.7761
 8669SOL    HW237467   3.860   0.146   1.209  2.5512  1.5893  0.8133
 8670SOL     OW37468   1.954   4.563   4.813  0.2938 -0.4464 -0.3438
 8670SOL    HW137469   1.988   4.517   4.889  1.4204 -3.7499 -2.8271
 8670SOL    HW237470   1.863   4.563   4.844  0.2758  0.2704 -0.3862
 8671SOL     OW37471   0.329   1.837   7.443 -0.3168 -0.5557  0.0147
 8671SOL    HW137472   0.255   1.805   7.392 -2.0956  2.8447  0.4321
 8671SOL    HW237473   0.373   1.754   7.464  2.0507  0.2800 -1.6784
 8672SOL     OW37474   2.542   4.567   6.515  0.0080 -0.6204  0.1092
 8672SOL    HW137475   2.481   4.540   6.583 -0.2235 -0.5150 -0.0561
 8672SOL    HW237476   2.483   4.601   6.448  0.7956  1.6823  0.5754
 8673SOL     OW37477   3.342   0.533   9.758 -0.0787 -0.1991 -0.0905
 8673SOL    HW137478   3.435   0.547   9.776  0.2133  0.2466 -1.9615
 8673SOL    HW237479   3.310   0.617   9.789 -0.9157 -1.5720  2.8187
 8674SOL     OW37480   0.597   3.786   8.543  0.1342 -0.0910 -0.3263
 8674SOL    HW137481   0.554   3.711   8.501  0.9883 -0.9416  0.3038
 8674SOL    HW237482   0.542   3.790   8.621  0.9565 -1.8215  0.3526
 8675SOL     OW37483   3.628   0.347  11.812 -0.2289  0.1183  0.4148
 8675SOL    HW137484   3.616   0.409  11.884 -0.0946  0.3450  0.2427
 8675SOL    HW237485   3.649   0.411  11.744 -3.1440  1.9028  1.1797
 8676SOL     OW37486   3.166   1.259   3.109 -0.0141 -0.3589  0.0353
 8676SOL    HW137487   3.100   1.308   3.061  0.8357  0.4100 -0.3334
 8676SOL    HW237488   3.210   1.219   3.034  0.3892  1.6805 -0.8125
 8677SOL     OW37489   3.316   1.789   9.213  0.1248  0.3834  0.5486
 8677SOL    HW137490   3.305   1.776   9.118  2.1803 -0.6249  0.4265
 8677SOL    HW237491   3.246   1.741   9.257 -0.3714  0.1213 -0.5290
 8678SOL     OW37492   0.981   0.917  15.849  0.0847 -0.5639  0.3955
 8678SOL    HW137493   1.002   0.953  15.935 -1.7085 -0.6640  0.8792
 8678SOL    HW237494   0.937   0.994  15.811  1.0627 -0.8458 -1.3219
 8679SOL     OW37495   0.305   4.353   8.522  0.0983 -0.8156  0.7021
 8679SOL    HW137496   0.358   4.410   8.578  1.1222  0.4471 -1.5507
 8679SOL    HW237497   0.240   4.415   8.489  0.1988 -1.4341 -0.6382
 8680SOL     OW37498   3.175   1.657   8.057  0.1266 -0.5760 -0.3365
 8680SOL    HW137499   3.126   1.617   8.128 -0.1362  0.6062  0.1477
 8680SOL    HW237500   3.115   1.724   8.025 -0.4768  0.0926  2.2298
 8681SOL     OW37501   0.745   0.500   7.161  0.0313 -0.6224 -0.0912
 8681SOL    HW137502   0.657   0.493   7.124 -0.1197 -1.3724  0.4183
 8681SOL    HW237503   0.739   0.455   7.246  1.3562 -2.2606 -0.8828
 8682SOL     OW37504   3.323   4.051   4.157 -0.5123 -0.4929  0.2276
 8682SOL    HW137505   3.370   3.968   4.150  1.2324  0.3136  2.5938
 8682SOL    HW237506   3.379   4.109   4.207 -0.5143  2.0514 -2.6874
 8683SOL     OW37507   4.292   2.027   1.240  0.8620 -0.4744 -0.5547
 8683SOL    HW137508   4.361   2.041   1.174  1.9361 -2.1878  0.2028
 8683SOL    HW237509   4.239   2.106   1.224  1.0581  0.3362  2.7389
 8684SOL     OW37510   0.226   2.750  17.199  0.1135  0.5815  0.0911
 8684SOL    HW137511   0.156   2.787  17.144 -1.0538  0.8232  1.7464
 8684SOL    HW237512   0.296   2.814  17.189  2.3337 -1.4970  2.6357
 8685SOL     OW37513   1.823   0.540   8.723  0.2486 -0.4016  0.2495
 8685SOL    HW137514   1.847   0.449   8.739  0.8823  0.0897  2.1905
 8685SOL    HW237515   1.798   0.565   8.813  0.2786  2.8833 -0.6469
 8686SOL     OW37516   3.647   0.787  15.543  0.0145 -0.3722  0.2391
 8686SOL    HW137517   3.557   0.817  15.552  0.8984  1.5206  2.7654
 8686SOL    HW237518   3.682   0.823  15.462  1.3193  1.1477  1.4667
 8687SOL     OW37519   2.604   2.037   3.645 -0.2591  0.0927 -0.0348
 8687SOL    HW137520   2.578   1.962   3.590 -2.4920  0.8563 -0.0196
 8687SOL    HW237521   2.698   2.022   3.651 -0.4094 -1.0619 -0.4142
 8688SOL     OW37522   3.101   1.524   3.407  0.3452 -0.5587  0.4806
 8688SOL    HW137523   3.142   1.438   3.400 -1.2390 -1.3687  1.1145
 8688SOL    HW237524   3.127   1.564   3.324  1.6430 -0.7705  0.7877
 8689SOL     OW37525   4.628   2.335  12.000 -0.0375  0.0015  0.6639
 8689SOL    HW137526   4.622   2.413  12.055  0.3558 -1.0542  2.1750
 8689SOL    HW237527   4.662   2.364  11.915  1.1465  0.4127  1.2825
 8690SOL     OW37528   1.340   3.168  14.666  0.3296  0.1803 -0.1626
 8690SOL    HW137529   1.299   3.234  14.610  1.4810  0.7956 -0.2988
 8690SOL    HW237530   1.409   3.218  14.710  0.1479 -0.9463  1.3818
 8691SOL     OW37531   2.220   1.757   5.475 -0.4642  0.1723 -0.3183
 8691SOL    HW137532   2.288   1.771   5.409  0.0897 -2.9419 -0.3989
 8691SOL    HW237533   2.155   1.704   5.429 -0.1919  0.3050 -0.8577
 8692SOL     OW37534   4.247   0.009   9.788  0.2401  0.1253  0.1015
 8692SOL    HW137535   4.316   0.031   9.725 -0.0532  2.0987  0.4608
 8692SOL    HW237536   4.209   4.655   9.743 -0.6424  0.4701  0.2670
 8693SOL     OW37537   3.234   2.591  10.065  0.3216  0.0759  0.4576
 8693SOL    HW137538   3.192   2.649  10.130  2.7590  0.6886  1.4643
 8693SOL    HW237539   3.211   2.640   9.986 -0.5452  2.3144  2.0922
 8694SOL     OW37540   4.414   2.018   3.064  0.0842 -0.5301  0.2740
 8694SOL    HW137541   4.350   1.978   3.004 -0.4427  2.9347 -1.4893
 8694SOL    HW237542   4.485   2.054   3.011  0.1111 -0.9037  0.0566
 8695SOL     OW37543   0.542   0.479   3.083 -0.3406  0.1215  0.2227
 8695SOL    HW137544   0.609   0.470   3.152 -0.9005  0.6051  0.8324
 8695SOL    HW237545   0.598   0.490   3.007 -0.3878 -1.0335  0.0210
 8696SOL     OW37546   3.107   2.376   7.848 -0.8889  0.0723  0.4003
 8696SOL    HW137547   3.136   2.349   7.935 -1.1600  1.1109  0.8222
 8696SOL    HW237548   3.042   2.310   7.823  0.3018 -1.7760  2.2564
 8697SOL     OW37549   3.882   2.370  10.640  0.1733  0.0967 -0.2821
 8697SOL    HW137550   3.959   2.314  10.626 -0.0633 -1.2113  3.4940
 8697SOL    HW237551   3.853   2.361  10.549  0.8716 -0.3763 -0.4616
 8698SOL     OW37552   0.319   4.702   7.906 -0.1574 -0.3686 -0.0167
 8698SOL    HW137553   0.250   4.696   7.840 -2.0265 -0.6112  1.9582
 8698SOL    HW237554   0.400   4.701   7.855  0.2567 -0.5019  0.6431
 8699SOL     OW37555   4.483   1.438   5.323  0.1078 -0.0036 -0.7109
 8699SOL    HW137556   4.577   1.417   5.322 -0.1988 -1.4604  0.7104
 8699SOL    HW237557   4.469   1.425   5.417 -3.1629 -4.3495 -1.8371
 8700SOL     OW37558   2.669   4.390   7.206 -0.0607  0.4601 -0.0494
 8700SOL    HW137559   2.735   4.444   7.164  0.5677 -0.1245  0.1854
 8700SOL    HW237560   2.584   4.431   7.193  0.5271  1.1269 -1.7134
 8701SOL     OW37561   1.311   2.205   2.261 -0.5595  0.4632 -0.5726
 8701SOL    HW137562   1.365   2.165   2.329 -1.1066 -0.3221 -0.6025
 8701SOL    HW237563   1.366   2.190   2.184  0.1007  1.1935 -0.2439
 8702SOL     OW37564   3.723   4.251   6.768 -0.7404  0.0904 -0.1820
 8702SOL    HW137565   3.750   4.178   6.712  0.2898 -1.0017  1.7191
 8702SOL    HW237566   3.786   4.232   6.838  0.0717 -0.6912 -1.1112
 8703SOL     OW37567   2.488   2.288   4.561  0.1367  1.0699  0.3401
 8703SOL    HW137568   2.577   2.319   4.546  0.0311  1.7325  1.0925
 8703SOL    HW237569   2.503   2.208   4.510 -2.2666  0.7645  0.0762
 8704SOL     OW37570   3.497   2.658   0.740 -0.4572  0.0739  0.2390
 8704SOL    HW137571   3.409   2.642   0.707 -0.0268 -1.3513 -0.2012
 8704SOL    HW237572   3.509   2.749   0.711  2.7131 -0.0229  1.2378
 8705SOL     OW37573   0.950   3.001   0.845 -0.2239  0.6854 -0.0713
 8705SOL    HW137574   1.031   2.981   0.891 -0.9886 -1.6815  0.2168
 8705SOL    HW237575   0.969   3.092   0.821 -0.6696  0.5088 -1.0983
 8706SOL     OW37576   1.634   4.408   2.446 -0.2652  0.2427 -0.3618
 8706SOL    HW137577   1.718   4.366   2.465 -0.9161 -0.9002  0.0002
 8706SOL    HW237578   1.579   4.353   2.502  1.4873  0.3004  1.4112
 8707SOL     OW37579   3.042   2.322   4.462  0.1002  0.3774 -0.5836
 8707SOL    HW137580   3.103   2.362   4.523 -0.5265 -1.3326  1.1716
 8707SOL    HW237581   3.040   2.379   4.385  3.9389  0.0440 -0.8946
 8708SOL     OW37582   2.876   0.901   0.285  0.2190  0.3301 -0.0492
 8708SOL    HW137583   2.854   0.808   0.285  0.1601  0.3422  0.4692
 8708SOL    HW237584   2.838   0.931   0.203  0.3687  0.0314 -0.2233
 8709SOL     OW37585   1.350   4.099   2.330 -0.0379  0.0138 -0.2598
 8709SOL    HW137586   1.350   4.045   2.251  1.9899 -1.2257  0.5741
 8709SOL    HW237587   1.355   4.186   2.291 -1.4075  1.5629  3.0018
 8710SOL     OW37588   0.646   1.663  11.166  0.6299  0.1939 -0.2350
 8710SOL    HW137589   0.630   1.672  11.072 -0.3154 -0.3220 -0.1181
 8710SOL    HW237590   0.698   1.584  11.159  0.1591 -0.2431  1.1517
 8711SOL     OW37591   4.489   0.464  11.906  0.4940  0.1756 -0.9188
 8711SOL    HW137592   4.442   0.423  11.833 -0.9311  1.1708 -0.5582
 8711SOL    HW237593   4.517   0.540  11.855 -2.1196  1.6907 -0.1015
 8712SOL     OW37594   2.077   1.529  12.475 -0.1186  0.2359 -0.2581
 8712SOL    HW137595   2.172   1.517  12.487 -0.7934 -2.8627  2.0409
 8712SOL    HW237596   2.066   1.614  12.516 -1.0211  0.5007 -1.0625
 8713SOL     OW37597   2.893   4.480  10.060 -0.5812 -0.4379 -0.3527
 8713SOL    HW137598   2.853   4.475   9.973  0.4788  0.9279 -0.9158
 8713SOL    HW237599   2.984   4.480  10.032  0.1249  0.3395  1.9633
 8714SOL     OW37600   1.660   4.671   3.976  0.2970  0.9942  0.8064
 8714SOL    HW137601   1.579   4.714   3.950  1.4582  2.1910 -0.8294
 8714SOL    HW237602   1.650   4.676   4.071  0.9355 -0.4813  0.9514
 8715SOL     OW37603   1.563   3.422  16.602 -0.0046 -0.3107  0.1100
 8715SOL    HW137604   1.482   3.378  16.575 -1.3153  2.3839 -0.2753
 8715SOL    HW237605   1.538   3.514  16.605  1.9755  0.2089  0.1798
 8716SOL     OW37606   3.321   0.655   1.582 -0.1120  0.4417  0.0866
 8716SOL    HW137607   3.306   0.672   1.490 -0.1970 -0.7481 -0.1219
 8716SOL    HW237608   3.233   0.681   1.609 -0.2512 -1.2313  1.2684
 8717SOL     OW37609   3.703   4.654   7.077 -0.6836  0.2016 -0.3335
 8717SOL    HW137610   3.708   4.665   7.172  1.1365 -1.2637 -0.2690
 8717SOL    HW237611   3.608   4.647   7.064 -0.9428  0.7891  1.2055
 8718SOL     OW37612   2.052   2.662  16.965 -0.2925  0.0291  0.1352
 8718SOL    HW137613   2.067   2.749  16.929  0.7635 -0.4364 -0.5510
 8718SOL    HW237614   2.064   2.672  17.060 -0.9056  1.5382  0.0460
 8719SOL     OW37615   3.760   0.960  13.188 -0.2368 -0.2063 -0.2346
 8719SOL    HW137616   3.747   1.010  13.268 -0.4827  1.1330 -1.1119
 8719SOL    HW237617   3.747   0.867  13.204  0.0926 -0.2021  0.0662
 8720SOL     OW37618   2.736   1.789   3.958 -0.3131 -0.4236  0.3582
 8720SOL    HW137619   2.656   1.796   4.011 -1.2583 -2.5956 -0.7692
 8720SOL    HW237620   2.695   1.764   3.875 -0.6489  1.0194  0.1035
 8721SOL     OW37621   3.280   4.336   8.173 -0.2191  0.5231 -0.3298
 8721SOL    HW137622   3.328   4.328   8.255 -1.2733  2.0029  0.4183
 8721SOL    HW237623   3.308   4.249   8.143 -1.2535  0.0074  0.2143
 8722SOL     OW37624   0.711   4.356   4.091 -0.8906 -0.2839  0.0373
 8722SOL    HW137625   0.629   4.387   4.129 -0.6686 -1.5619  1.6013
 8722SOL    HW237626   0.737   4.436   4.047 -1.6167  0.0098  0.1454
 8723SOL     OW37627   2.520   1.826   3.451 -0.2026  0.3626  0.1201
 8723SOL    HW137628   2.522   1.835   3.355  1.4697  0.2726  0.1474
 8723SOL    HW237629   2.490   1.736   3.465 -1.9277  1.0170  0.5663
 8724SOL     OW37630   0.804   1.899  11.216  0.1919 -0.1902  0.2236
 8724SOL    HW137631   0.776   1.875  11.304  0.6886 -1.4012  0.0566
 8724SOL    HW237632   0.723   1.895  11.166 -0.4257 -0.2153  1.2282
 8725SOL     OW37633   2.789   2.281   9.188 -0.6165  0.3973 -0.0629
 8725SOL    HW137634   2.879   2.291   9.220 -0.2143 -1.2030 -0.6678
 8725SOL    HW237635   2.803   2.215   9.120 -0.4629  0.6906 -0.3166
 8726SOL     OW37636   2.867   3.081   9.501  0.0243  0.2175 -0.5003
 8726SOL    HW137637   2.929   3.079   9.574 -1.1116 -2.1779  0.3633
 8726SOL    HW237638   2.785   3.067   9.547 -0.9309  2.4324 -1.5443
 8727SOL     OW37639   2.326   0.432   6.851 -0.3655 -0.2758  0.1564
 8727SOL    HW137640   2.327   0.395   6.763 -0.0881  0.1536 -0.0211
 8727SOL    HW237641   2.418   0.435   6.874 -0.3122 -0.7581 -0.0113
 8728SOL     OW37642   1.297   2.115   9.838 -0.0483  0.0996  0.1640
 8728SOL    HW137643   1.269   2.175   9.907 -0.3572 -0.4724  0.5286
 8728SOL    HW237644   1.230   2.047   9.833 -1.5827  1.5615  1.0011
 8729SOL     OW37645   1.049   1.301   7.145 -0.5788 -0.5506  0.0642
 8729SOL    HW137646   0.978   1.259   7.193 -0.5201  1.5879  2.0102
 8729SOL    HW237647   1.121   1.255   7.188  0.1802  0.3623 -0.2163
 8730SOL     OW37648   1.566   0.900   4.819  0.1539 -0.4988 -0.1744
 8730SOL    HW137649   1.610   0.863   4.743  0.8651 -1.4343  0.7029
 8730SOL    HW237650   1.483   0.852   4.819 -0.0726 -0.1151  0.5820
 8731SOL     OW37651   4.454   3.440   7.518 -0.0554  0.1275 -0.1115
 8731SOL    HW137652   4.445   3.524   7.473 -0.2095 -0.2191 -0.7196
 8731SOL    HW237653   4.404   3.457   7.597 -1.1070  0.3832 -0.8371
 8732SOL     OW37654   1.368   3.794  11.811 -0.0511  0.0128  0.2506
 8732SOL    HW137655   1.317   3.714  11.819  1.6842 -1.1605 -0.4732
 8732SOL    HW237656   1.435   3.779  11.877 -0.1300 -0.1475  0.2946
 8733SOL     OW37657   3.778   1.064   0.279  0.3862 -0.1212  0.0244
 8733SOL    HW137658   3.745   0.980   0.310  0.4951  0.3249  1.3276
 8733SOL    HW237659   3.839   1.087   0.349 -0.7696 -0.1779  1.0535
 8734SOL     OW37660   0.853   3.663   9.587 -0.5244 -0.1163 -0.3483
 8734SOL    HW137661   0.832   3.622   9.503 -2.2940 -0.0852  0.0802
 8734SOL    HW237662   0.807   3.747   9.581 -1.1313 -0.3051  1.5067
 8735SOL     OW37663   2.371   2.359   7.727  0.2831  0.5736 -0.5209
 8735SOL    HW137664   2.398   2.275   7.690 -0.5013  1.1772 -2.4873
 8735SOL    HW237665   2.426   2.348   7.805  0.0980  1.5229 -0.2592
 8736SOL     OW37666   0.331   1.625   5.089  0.0210 -0.0726 -0.6819
 8736SOL    HW137667   0.275   1.697   5.119 -0.5377 -1.7408  2.2831
 8736SOL    HW237668   0.284   1.546   5.114 -0.3425  0.0426 -1.0074
 8737SOL     OW37669   2.225   1.838   9.353  0.1483  0.5065  0.1907
 8737SOL    HW137670   2.288   1.806   9.288  0.5825 -0.4185  1.0563
 8737SOL    HW237671   2.241   1.793   9.436 -1.9915  0.6235  0.6741
 8738SOL     OW37672   3.360   2.447  11.139  0.1061  0.2999 -0.0547
 8738SOL    HW137673   3.349   2.474  11.048  0.6416 -0.1620 -0.2540
 8738SOL    HW237674   3.450   2.470  11.164 -0.0386 -1.4373  2.0770
 8739SOL     OW37675   0.856   1.812   4.226 -0.1360 -0.3627 -0.3870
 8739SOL    HW137676   0.894   1.872   4.290 -0.8136 -0.7881  0.4229
 8739SOL    HW237677   0.822   1.875   4.163  0.3328 -0.6159 -0.8827
 8740SOL     OW37678   3.607   0.860   2.740  0.1364 -0.0567 -0.0899
 8740SOL    HW137679   3.601   0.824   2.651  0.5769 -3.1148  1.0932
 8740SOL    HW237680   3.550   0.935   2.723 -2.4404 -1.8762  0.3424
 8741SOL     OW37681   1.771   2.805  14.950  0.0649 -0.1835  0.0034
 8741SOL    HW137682   1.678   2.821  14.965  0.3221 -1.3449  2.8737
 8741SOL    HW237683   1.801   2.749  15.021 -0.0033 -0.8140 -0.4608
 8742SOL     OW37684   2.223   3.235   3.791 -0.0933  0.0957 -0.0659
 8742SOL    HW137685   2.136   3.193   3.790  0.2775 -0.6665 -0.5140
 8742SOL    HW237686   2.244   3.201   3.704  0.7706 -0.9406  0.5513
 8743SOL     OW37687   3.816   4.489   7.916  0.7152  0.6265 -0.4035
 8743SOL    HW137688   3.761   4.426   7.962  0.9133 -0.0604 -1.1194
 8743SOL    HW237689   3.810   4.562   7.978 -0.1944  0.2362 -0.0351
 8744SOL     OW37690   1.263   3.034   8.467 -0.6223  0.4686 -0.6163
 8744SOL    HW137691   1.307   2.953   8.443  2.1253  0.8430  3.0582
 8744SOL    HW237692   1.316   3.094   8.415  2.7463 -0.7741  1.3928
 8745SOL     OW37693   4.271   3.970  14.683 -0.0110  0.0469  0.2394
 8745SOL    HW137694   4.177   3.987  14.697  0.3831  0.9541  1.7186
 8745SOL    HW237695   4.297   4.062  14.672  1.2848 -0.4667 -0.8920
 8746SOL     OW37696   4.034   2.617   3.698  0.1943  0.0095 -0.5833
 8746SOL    HW137697   3.945   2.630   3.667  0.0600 -0.6288 -0.4548
 8746SOL    HW237698   4.092   2.639   3.624 -0.1356  1.7924 -0.3280
 8747SOL     OW37699   2.587   4.042   5.157 -0.8213 -0.3763 -0.6794
 8747SOL    HW137700   2.612   3.950   5.167  1.0104  0.2004  0.1748
 8747SOL    HW237701   2.493   4.039   5.172 -0.9850 -2.5809 -2.1522
 8748SOL     OW37702   2.247   1.999   2.656 -0.0734  0.0432 -0.4512
 8748SOL    HW137703   2.310   2.070   2.669 -1.1182  0.9555 -0.2793
 8748SOL    HW237704   2.306   1.927   2.634 -0.1654  0.1590 -1.0581
 8749SOL     OW37705   0.855   1.081   2.257 -0.0320 -0.4298  0.6403
 8749SOL    HW137706   0.779   1.092   2.199  0.1437  1.0513  0.6879
 8749SOL    HW237707   0.935   1.114   2.216 -0.1494 -1.3591 -0.3372
 8750SOL     OW37708   2.569   3.283  17.008  0.0925 -0.0964 -0.2495
 8750SOL    HW137709   2.633   3.213  17.019  0.1906  0.3143  1.8132
 8750SOL    HW237710   2.566   3.298  16.914  0.6221 -3.0549 -0.7418
 8751SOL     OW37711   2.350   0.398   5.868 -0.3150  0.3533 -0.0150
 8751SOL    HW137712   2.439   0.363   5.861 -0.9979 -1.2529 -0.8477
 8751SOL    HW237713   2.309   0.328   5.816  3.6511 -1.0049 -1.3270
 8752SOL     OW37714   1.929   2.308   4.265  0.1428 -0.1380 -0.4563
 8752SOL    HW137715   2.022   2.317   4.286  0.5040 -0.5059 -1.8952
 8752SOL    HW237716   1.900   2.273   4.349 -0.3864 -0.3963 -0.7469
 8753SOL     OW37717   0.458   4.154  13.976 -0.5587  0.2873 -0.1959
 8753SOL    HW137718   0.402   4.174  13.901  1.3667  0.2821 -1.6412
 8753SOL    HW237719   0.417   4.197  14.052  1.6247  2.0479  0.0024
 8754SOL     OW37720   1.879   2.379   3.250 -0.1838  0.0671  0.3168
 8754SOL    HW137721   1.883   2.469   3.283  4.4531  0.3421 -1.0057
 8754SOL    HW237722   1.802   2.343   3.295  0.1631 -2.9234 -1.5055
 8755SOL     OW37723   3.714   3.700   5.144  0.2292 -0.4542  0.3076
 8755SOL    HW137724   3.748   3.614   5.118 -0.2651 -0.8746  1.0369
 8755SOL    HW237725   3.620   3.686   5.136  0.0554  0.5711  0.5980
 8756SOL     OW37726   3.685   0.694  12.856 -0.1747 -0.1215  0.5042
 8756SOL    HW137727   3.667   0.784  12.884 -1.4722 -0.0831 -0.4521
 8756SOL    HW237728   3.634   0.642  12.918  2.0884 -1.6440  1.0865
 8757SOL     OW37729   0.148   2.844  11.212 -0.3781 -0.5555 -0.7869
 8757SOL    HW137730   0.108   2.779  11.154 -0.0368 -0.6154 -0.9589
 8757SOL    HW237731   0.217   2.791  11.253 -0.0664 -0.8203 -1.6541
 8758SOL     OW37732   0.230   1.085  13.269  0.4995  0.1062 -0.4587
 8758SOL    HW137733   0.269   1.169  13.295  1.6337  0.3846 -2.9986
 8758SOL    HW237734   0.158   1.120  13.216  1.1474 -0.2293 -1.5674
 8759SOL     OW37735   0.531   2.678   7.277 -0.2433 -0.1181 -0.2542
 8759SOL    HW137736   0.536   2.770   7.251  0.5104 -0.2241 -0.5014
 8759SOL    HW237737   0.583   2.682   7.357 -2.9572 -0.0794  1.5046
 8760SOL     OW37738   1.576   1.591   8.385  0.5933  0.0345  0.3936
 8760SOL    HW137739   1.596   1.524   8.451  1.4515 -0.5366 -0.4551
 8760SOL    HW237740   1.643   1.659   8.396  1.4681 -0.7632 -0.0057
 8761SOL     OW37741   0.398   3.809   7.112  0.1463 -0.2440 -0.0035
 8761SOL    HW137742   0.428   3.826   7.202 -2.7273  1.1181  0.7090
 8761SOL    HW237743   0.310   3.773   7.122 -0.6301  1.5681 -0.4503
 8762SOL     OW37744   0.263   3.762   8.545  0.5218 -0.2975 -0.5320
 8762SOL    HW137745   0.303   3.792   8.626  0.9890 -1.9921 -0.1408
 8762SOL    HW237746   0.262   3.666   8.549 -0.9663 -0.2961 -0.8199
 8763SOL     OW37747   3.865   0.620  14.997 -0.4948  0.0782 -0.7708
 8763SOL    HW137748   3.923   0.567  15.052  0.1143  1.4083 -0.1280
 8763SOL    HW237749   3.918   0.700  14.997 -0.1734 -0.1381 -1.4799
 8764SOL     OW37750   1.993   0.821  11.399 -0.0164 -0.1903 -0.0821
 8764SOL    HW137751   2.017   0.855  11.485 -1.1350 -2.5236  1.1298
 8764SOL    HW237752   2.001   0.904  11.351 -1.2405 -0.6767 -1.1134
 8765SOL     OW37753   0.927   1.458   8.479  0.4375  0.4925 -0.4799
 8765SOL    HW137754   0.845   1.455   8.527  0.7611  0.5863  0.0735
 8765SOL    HW237755   0.996   1.480   8.541 -1.6100  2.2787  1.1485
 8766SOL     OW37756   3.518   3.103   3.679  0.2196  0.4468  0.0463
 8766SOL    HW137757   3.560   3.179   3.718  1.2613  0.2175 -0.6303
 8766SOL    HW237758   3.446   3.143   3.630 -0.9804 -0.2017  1.2933
 8767SOL     OW37759   2.408   2.537   3.434 -0.4942 -0.5943 -0.5006
 8767SOL    HW137760   2.343   2.481   3.392 -0.5542  0.8988 -2.4166
 8767SOL    HW237761   2.362   2.607   3.480  0.1068 -1.0068  0.7338
 8768SOL     OW37762   1.003   1.568   7.776 -0.4998 -0.5855  0.5225
 8768SOL    HW137763   1.088   1.553   7.817 -0.1672 -0.0231  0.0457
 8768SOL    HW237764   0.963   1.632   7.835  0.9351  0.2213  0.6174
 8769SOL     OW37765   0.082   3.154   2.650  0.6912 -0.1786 -0.5271
 8769SOL    HW137766   0.086   3.135   2.743  0.1590  0.3348 -0.4056
 8769SOL    HW237767   0.088   3.249   2.654 -0.5726 -0.2397  2.4784
 8770SOL     OW37768   2.186   4.359   3.473 -0.1914 -0.1931  0.1293
 8770SOL    HW137769   2.159   4.285   3.419  0.2900  0.9360 -1.6506
 8770SOL    HW237770   2.101   4.394   3.499 -1.0020  0.5643 -3.5971
 8771SOL     OW37771   4.536   2.545   7.467  0.1186 -0.0221 -0.0468
 8771SOL    HW137772   4.560   2.454   7.487 -1.5363 -0.1533  1.3837
 8771SOL    HW237773   4.467   2.523   7.405  0.4761 -0.3186 -0.3418
 8772SOL     OW37774   1.823   2.614   0.187 -0.0201  0.0621 -0.0224
 8772SOL    HW137775   1.795   2.702   0.163  2.0420  0.1262 -2.2256
 8772SOL    HW237776   1.917   2.629   0.193  0.5404 -2.5840 -2.3657
 8773SOL     OW37777   2.589   1.163   8.267  0.1626  0.8658 -0.4405
 8773SOL    HW137778   2.500   1.190   8.292  0.2020  0.7476 -0.1719
 8773SOL    HW237779   2.592   1.071   8.295  0.5451  1.3429  1.0759
 8774SOL     OW37780   3.165   4.535   0.632 -0.6006 -0.1575  0.0900
 8774SOL    HW137781   3.257   4.509   0.637 -0.4301 -0.3010 -4.1721
 8774SOL    HW237782   3.145   4.544   0.725  2.2313 -0.1465  0.6850
 8775SOL     OW37783   0.998   0.754   9.272 -0.0678  0.4665 -0.0555
 8775SOL    HW137784   0.968   0.709   9.351  0.9266  2.1218  1.2438
 8775SOL    HW237785   0.922   0.806   9.247 -0.8544 -0.1502  1.0618
 8776SOL     OW37786   0.952   3.134   9.387 -0.0865  0.4364  0.5125
 8776SOL    HW137787   1.042   3.165   9.392  0.1888 -0.5825  1.8603
 8776SOL    HW237788   0.905   3.217   9.380  0.0618  0.4636 -0.0939
 8777SOL     OW37789   2.357   2.017  11.553  0.0255  0.5367 -0.6624
 8777SOL    HW137790   2.419   2.038  11.483  0.2077  2.8747  0.1824
 8777SOL    HW237791   2.298   2.090  11.535 -0.7403  0.5220  1.7675
 8778SOL     OW37792   3.229   3.654  10.056  0.2441  0.4223  0.5285
 8778SOL    HW137793   3.231   3.696   9.971 -2.5461 -1.4455 -0.4669
 8778SOL    HW237794   3.137   3.626  10.062  0.3610  0.2482  1.6290
 8779SOL     OW37795   0.221   3.041   7.684  0.2635 -0.6830  0.6446
 8779SOL    HW137796   0.295   3.103   7.679  0.4915 -0.8673  1.6773
 8779SOL    HW237797   0.190   3.040   7.775  0.0726  1.3780  0.6118
 8780SOL     OW37798   2.306   2.442  16.535  0.1189  0.2757 -0.0094
 8780SOL    HW137799   2.265   2.387  16.603  1.1093  1.7486  1.7839
 8780SOL    HW237800   2.342   2.519  16.579 -0.1260 -1.4482  3.2208
 8781SOL     OW37801   4.159   1.403   9.652  0.6388 -0.4014  0.2116
 8781SOL    HW137802   4.139   1.334   9.589 -1.4520  0.4655 -0.0755
 8781SOL    HW237803   4.132   1.483   9.608 -0.9849 -1.3749 -0.5601
 8782SOL     OW37804   3.393   2.912   9.969  0.6463 -0.3285  0.0868
 8782SOL    HW137805   3.359   2.979  10.028 -2.3456 -1.2783 -0.5392
 8782SOL    HW237806   3.313   2.863   9.949  1.1556 -0.6021 -1.3268
 8783SOL     OW37807   1.594   1.679   7.034 -0.4442 -0.2329 -0.1062
 8783SOL    HW137808   1.643   1.598   7.045  1.7555  1.0052 -0.8072
 8783SOL    HW237809   1.615   1.730   7.112  0.7835 -1.6838  0.5002
 8784SOL     OW37810   1.081   3.483   6.271  0.4947 -0.4059  0.1264
 8784SOL    HW137811   1.011   3.447   6.216  1.5828 -1.6483 -0.4596
 8784SOL    HW237812   1.149   3.479   6.204 -0.7104  1.1548 -1.1902
 8785SOL     OW37813   0.981   1.588   5.968 -0.7934 -0.1228 -0.2350
 8785SOL    HW137814   0.926   1.655   5.927 -0.1954  1.0400  0.9065
 8785SOL    HW237815   0.956   1.611   6.057  3.4855  0.3178  0.8510
 8786SOL     OW37816   2.275   0.065  12.110 -0.1392 -0.1617  0.0976
 8786SOL    HW137817   2.238   0.143  12.069 -1.7517 -1.3981 -0.7753
 8786SOL    HW237818   2.250   0.069  12.202 -0.3377  0.5695  0.0147
 8787SOL     OW37819   0.016   2.272   2.633 -0.3226  0.6123 -0.0211
 8787SOL    HW137820   4.718   2.355   2.675  0.1794  0.2640  0.8991
 8787SOL    HW237821   4.653   2.225   2.629  0.2672 -0.3656 -1.1882
 8788SOL     OW37822   1.248   3.108   1.157  0.0752  0.2743  0.0462
 8788SOL    HW137823   1.166   3.155   1.171 -1.1303 -1.2775 -1.9171
 8788SOL    HW237824   1.314   3.177   1.149  0.3805 -0.0253  0.0041
 8789SOL     OW37825   2.318   3.908  16.712 -0.4179 -0.2740 -0.3205
 8789SOL    HW137826   2.255   3.841  16.740 -0.0267 -0.2324  0.6829
 8789SOL    HW237827   2.349   3.861  16.635 -0.5032  1.0355 -1.1501
 8790SOL     OW37828   0.070   0.377   5.949  0.2515  0.2832  0.1441
 8790SOL    HW137829   0.114   0.321   6.012 -0.0307 -0.9927 -0.8065
 8790SOL    HW237830   0.040   0.308   5.891  2.5200  0.3894 -1.1317
 8791SOL     OW37831   2.076   2.012   4.063 -0.5135 -0.1744  0.3230
 8791SOL    HW137832   1.999   2.067   4.049 -0.1396  0.7940  2.1103
 8791SOL    HW237833   2.107   1.982   3.977 -2.4602  0.0354 -0.4539
 8792SOL     OW37834   1.227   1.626  10.636 -0.3230 -0.3587  0.2657
 8792SOL    HW137835   1.315   1.618  10.600 -1.8192 -0.2930 -3.4167
 8792SOL    HW237836   1.222   1.710  10.682 -0.2370  1.0101 -2.2472
 8793SOL     OW37837   3.874   4.332  13.658 -0.4621 -0.4311 -0.3496
 8793SOL    HW137838   3.873   4.415  13.707 -1.3097  0.1746 -1.4043
 8793SOL    HW237839   3.821   4.352  13.580  0.2250  0.2672 -0.6391
 8794SOL     OW37840   3.821   1.395  13.066 -0.0220 -0.0060 -0.6707
 8794SOL    HW137841   3.810   1.339  12.989 -0.6223  2.0961 -2.1002
 8794SOL    HW237842   3.729   1.421  13.077 -0.3679 -1.1658 -0.7910
 8795SOL     OW37843   2.253   4.607   8.457  0.1070 -0.3717  0.0841
 8795SOL    HW137844   2.270   4.674   8.391 -0.8341  1.7234  1.9702
 8795SOL    HW237845   2.249   4.660   8.536 -2.3640 -0.1322 -0.2063
 8796SOL     OW37846   2.888   3.528   4.311 -0.3617 -0.0715  0.3738
 8796SOL    HW137847   2.879   3.461   4.379 -1.7313 -1.0640 -0.7901
 8796SOL    HW237848   2.841   3.602   4.349  0.5133  0.0848  1.1427
 8797SOL     OW37849   0.767   0.743   8.546  0.0761 -0.4555  0.0065
 8797SOL    HW137850   0.712   0.812   8.582  1.0148  0.3362 -0.0527
 8797SOL    HW237851   0.848   0.770   8.590 -0.4523  1.1055  0.0229
 8798SOL     OW37852   3.726   3.179   4.414 -0.4149 -0.9562 -0.1748
 8798SOL    HW137853   3.638   3.184   4.378 -0.7457 -0.0456  0.7543
 8798SOL    HW237854   3.759   3.100   4.371 -0.8115 -1.0836 -0.2413
 8799SOL     OW37855   3.006   1.161  14.254  0.0347  0.2674 -0.0658
 8799SOL    HW137856   3.076   1.159  14.319 -1.5782  1.8103  1.7444
 8799SOL    HW237857   2.997   1.067  14.237  0.6631 -0.0816  1.5394
 8800SOL     OW37858   0.041   0.719   8.466 -0.0035  0.7582  0.0414
 8800SOL    HW137859   0.109   0.733   8.401  0.3288  0.1503  0.2570
 8800SOL    HW237860   4.685   0.775   8.454  0.2356  1.0845  0.0240
 8801SOL     OW37861   2.517   2.894  11.079 -0.6743  0.0654  0.0457
 8801SOL    HW137862   2.422   2.907  11.068 -0.8622 -1.2176  0.1553
 8801SOL    HW237863   2.555   2.972  11.038 -3.7676  1.5580 -0.0159
 8802SOL     OW37864   1.760   0.019   7.602 -0.1326 -0.2498  0.4481
 8802SOL    HW137865   1.710   0.098   7.624  0.5526  0.4746 -0.5868
 8802SOL    HW237866   1.831   0.022   7.667  1.1989  1.9767 -1.0995
 8803SOL     OW37867   3.632   3.509   4.313  0.0399  0.1594  0.2263
 8803SOL    HW137868   3.583   3.427   4.323  1.6449 -0.8483 -0.0806
 8803SOL    HW237869   3.670   3.505   4.226  0.7786 -1.4125  0.6162
 8804SOL     OW37870   2.279   1.851   5.997  0.0222  0.1597 -0.3101
 8804SOL    HW137871   2.249   1.846   5.906 -1.1508 -0.9056  0.1427
 8804SOL    HW237872   2.362   1.804   5.986  0.4265  1.2916 -2.2547
 8805SOL     OW37873   1.464   2.578  10.188  0.2191  0.3567  0.1864
 8805SOL    HW137874   1.536   2.527  10.149  1.2727  1.6567  0.4585
 8805SOL    HW237875   1.514   2.659  10.187 -0.9704  1.0974  2.6266
 8806SOL     OW37876   0.678   2.464   3.336 -0.2310  0.4211 -0.0559
 8806SOL    HW137877   0.635   2.379   3.325  0.1271  0.3953 -1.2168
 8806SOL    HW237878   0.721   2.436   3.417 -0.6760 -1.3393 -0.4249
 8807SOL     OW37879   4.588   2.427   3.853 -0.0349 -0.1072  0.3235
 8807SOL    HW137880   4.567   2.390   3.767  0.7992  1.5721 -0.5959
 8807SOL    HW237881   4.683   2.429   3.865 -0.2309 -2.1495  2.3212
 8808SOL     OW37882   2.723   0.945   4.330  0.3394 -0.2880 -0.1797
 8808SOL    HW137883   2.810   0.975   4.356  1.0304 -2.2346 -0.1843
 8808SOL    HW237884   2.666   1.016   4.359 -0.2924 -0.8022 -0.1612
 8809SOL     OW37885   2.391   0.857  16.995 -0.3477  0.1290  0.1755
 8809SOL    HW137886   2.299   0.856  16.968 -0.7518 -0.6302  1.5631
 8809SOL    HW237887   2.391   0.913  17.072 -1.9933  1.5691 -0.8771
 8810SOL     OW37888   4.088   0.193   8.040 -0.2033  0.0101 -0.7359
 8810SOL    HW137889   4.143   0.132   8.089 -0.2689  1.3949  1.0416
 8810SOL    HW237890   4.073   0.269   8.096  2.5565 -1.2901  1.7802
 8811SOL     OW37891   3.723   0.438   9.599  0.2419 -0.0781 -0.1397
 8811SOL    HW137892   3.767   0.359   9.632  0.6544  0.8371  1.4605
 8811SOL    HW237893   3.641   0.407   9.560  0.5353  2.8882 -3.1002
 8812SOL     OW37894   4.453   0.746   9.259  0.7365  0.2797 -0.2714
 8812SOL    HW137895   4.465   0.666   9.311 -0.0912 -1.2838 -2.5411
 8812SOL    HW237896   4.375   0.717   9.213 -0.2346  0.5744  1.1933
 8813SOL     OW37897   1.593   4.688   9.067 -0.2323 -0.2672 -0.3631
 8813SOL    HW137898   1.579   4.700   9.161 -1.3352  0.3493 -0.6067
 8813SOL    HW237899   1.503   4.670   9.039 -0.3629 -0.0683 -0.0674
 8814SOL     OW37900   4.683   1.258   1.098 -0.0039  0.5431  0.0434
 8814SOL    HW137901   4.697   1.164   1.109 -2.3159  0.3737  1.3880
 8814SOL    HW237902   0.047   1.293   1.071 -0.3643  1.8001  0.5444
 8815SOL     OW37903   3.467   0.039  10.097  0.0823 -0.1181  0.7573
 8815SOL    HW137904   3.497   0.061  10.185  0.9320 -0.6518  0.5973
 8815SOL    HW237905   3.546   0.009  10.052  0.3799  2.5961 -0.4931
 8816SOL     OW37906   0.218   4.221  14.084  0.0673  0.0689 -0.0152
 8816SOL    HW137907   0.174   4.145  14.047 -3.1285  1.8118  0.2320
 8816SOL    HW237908   0.243   4.183  14.168 -1.0672  0.4790  0.5038
 8817SOL     OW37909   3.807   3.268   7.537  0.1167  0.4011 -0.4085
 8817SOL    HW137910   3.787   3.325   7.463 -0.0067  0.8683 -0.0143
 8817SOL    HW237911   3.803   3.184   7.491 -0.2103  0.2392 -0.0853
 8818SOL     OW37912   0.215   1.406   3.790  0.0464  0.0604 -0.0774
 8818SOL    HW137913   0.289   1.456   3.825  1.0962  0.0491 -2.3229
 8818SOL    HW237914   0.266   1.336   3.750 -1.7204 -0.0402 -2.1447
 8819SOL     OW37915   4.361   1.922   3.920  0.2878  0.5626 -0.2044
 8819SOL    HW137916   4.388   2.006   3.884 -1.2493 -0.0774 -2.8880
 8819SOL    HW237917   4.447   1.881   3.910  0.1108 -0.3077  1.8475
 8820SOL     OW37918   4.363   2.870   4.064  0.4048 -0.2279 -0.0274
 8820SOL    HW137919   4.284   2.820   4.085 -1.9199  2.9737 -1.0805
 8820SOL    HW237920   4.432   2.809   4.090 -0.9057 -1.7662 -0.1727
 8821SOL     OW37921   4.081   3.764  15.219  0.1363 -0.6549  0.1148
 8821SOL    HW137922   4.043   3.772  15.306  1.2582 -1.4030  0.6648
 8821SOL    HW237923   4.074   3.851  15.179 -0.4771  0.0059  1.6530
 8822SOL     OW37924   3.085   2.552   3.790 -0.2476  0.3962 -0.4795
 8822SOL    HW137925   3.026   2.497   3.841  0.7463  0.8693  1.1933
 8822SOL    HW237926   3.157   2.493   3.766 -1.6241 -0.2859 -2.9436
 8823SOL     OW37927   3.670   3.756   2.791  0.6801  0.0324  0.7533
 8823SOL    HW137928   3.683   3.847   2.816  1.3843  0.1723 -0.1514
 8823SOL    HW237929   3.741   3.752   2.727 -0.1863 -2.1951 -0.0755
 8824SOL     OW37930   0.479   0.677   8.427 -0.0274 -0.0545 -0.4422
 8824SOL    HW137931   0.499   0.591   8.391 -0.4246 -0.2139 -0.2727
 8824SOL    HW237932   0.523   0.665   8.511 -0.8361  2.2003  0.3209
 8825SOL     OW37933   2.728   4.331  17.158 -0.3637 -0.2358  0.1093
 8825SOL    HW137934   2.664   4.262  17.142  0.0832 -0.4700 -0.6368
 8825SOL    HW237935   2.808   4.280  17.157 -0.9469 -1.1467 -0.0200
 8826SOL     OW37936   2.697   2.625   3.820  0.5869 -0.3710 -0.4588
 8826SOL    HW137937   2.616   2.579   3.841  0.7409 -0.0495  0.8325
 8826SOL    HW237938   2.765   2.568   3.856 -0.3489 -0.3966  1.2481
 8827SOL     OW37939   0.454   2.738   1.037  0.1535  0.4316 -0.2978
 8827SOL    HW137940   0.511   2.790   0.980  1.3745  0.4373  0.9349
 8827SOL    HW237941   0.444   2.659   0.984 -3.9822  0.4494  0.4674
 8828SOL     OW37942   2.913   4.297  15.660  0.2754  0.4061 -0.0632
 8828SOL    HW137943   2.988   4.323  15.714  0.2068  0.2698  0.0981
 8828SOL    HW237944   2.952   4.241  15.592 -1.2065 -0.0552 -0.5195
 8829SOL     OW37945   3.000   3.119   8.957 -0.1005 -0.0187 -0.7434
 8829SOL    HW137946   3.088   3.145   8.982  0.3817 -1.3762 -1.0750
 8829SOL    HW237947   3.008   3.027   8.935  2.9781 -0.7112  3.3850
 8830SOL     OW37948   1.465   3.649   8.165 -0.4719 -0.1243 -0.4970
 8830SOL    HW137949   1.409   3.658   8.242  1.0785  1.3722  0.4764
 8830SOL    HW237950   1.527   3.722   8.174  1.0058 -1.4265 -0.1439
 8831SOL     OW37951   1.545   0.703   7.014 -0.4136 -0.3663  0.4818
 8831SOL    HW137952   1.599   0.644   6.962 -1.4901  0.9772 -2.1345
 8831SOL    HW237953   1.564   0.675   7.104  1.2396 -0.3217  0.1405
 8832SOL     OW37954   1.115   4.039   2.462 -0.4660  0.1695  0.1589
 8832SOL    HW137955   1.204   4.063   2.434 -0.9848  0.7826 -0.9570
 8832SOL    HW237956   1.070   4.071   2.384 -1.9579 -2.0675  0.1108
 8833SOL     OW37957   1.777   2.123   6.902 -0.0908  0.6711  0.3423
 8833SOL    HW137958   1.821   2.057   6.848 -0.3461 -0.0648  1.0444
 8833SOL    HW237959   1.798   2.207   6.860 -1.0982 -0.5904 -2.6374
 8834SOL     OW37960   1.426   2.885   2.173 -0.2532  0.0599 -0.6017
 8834SOL    HW137961   1.405   2.916   2.261 -0.3606 -2.0267  0.0948
 8834SOL    HW237962   1.399   2.794   2.184 -0.8407  0.3136  0.1060
 8835SOL     OW37963   3.602   4.499  15.889  0.6088 -0.0407 -0.1862
 8835SOL    HW137964   3.583   4.406  15.879 -1.8479  0.5779 -1.3446
 8835SOL    HW237965   3.563   4.522  15.974 -0.4852  1.4558 -1.0808
 8836SOL     OW37966   3.658   3.944   6.734  0.0186  0.2640  0.2774
 8836SOL    HW137967   3.722   3.904   6.794  0.0253  0.5725  0.4719
 8836SOL    HW237968   3.717   3.992   6.675  0.4324 -0.9832 -0.3444
 8837SOL     OW37969   3.601   4.547   5.295  0.0763 -0.3710  0.5105
 8837SOL    HW137970   3.605   4.451   5.297  1.6305 -0.3087  0.0283
 8837SOL    HW237971   3.588   4.569   5.203 -2.7273  0.8745  1.2052
 8838SOL     OW37972   2.714   4.721   9.997 -0.4162  0.4661 -0.0842
 8838SOL    HW137973   2.770   4.683  10.065 -0.3607 -0.0897 -0.4401
 8838SOL    HW237974   2.697   0.081  10.046 -1.9125 -0.0620  0.2919
 8839SOL     OW37975   0.548   2.874   0.605 -0.0431  0.1596  0.2188
 8839SOL    HW137976   0.478   2.930   0.638  0.8145  1.7789 -0.7472
 8839SOL    HW237977   0.537   2.895   0.513  0.9057 -0.0594  0.0592
 8840SOL     OW37978   1.969   1.399   8.905  0.4192 -0.6187 -0.4877
 8840SOL    HW137979   1.952   1.426   8.815  4.7634  0.2984 -1.0427
 8840SOL    HW237980   2.062   1.382   8.892  0.1427 -1.9879 -0.5924
 8841SOL     OW37981   0.421   2.412   1.385 -0.2747  0.8760 -0.4341
 8841SOL    HW137982   0.407   2.506   1.401 -2.9326  0.2101  1.1975
 8841SOL    HW237983   0.502   2.400   1.434 -0.8845  1.6746  0.7709
 8842SOL     OW37984   0.050   2.741   4.915  0.0550 -0.3990 -0.3431
 8842SOL    HW137985   0.110   2.796   4.966 -1.8774  0.1452  1.3574
 8842SOL    HW237986   0.042   2.798   4.838  0.6838  1.1285  0.7131
 8843SOL     OW37987   0.122   2.050   7.975  0.1395 -0.1729  0.2236
 8843SOL    HW137988   0.128   2.104   8.053  2.2557 -1.0070  0.6390
 8843SOL    HW237989   0.161   2.100   7.904  0.6359 -3.7635 -2.0555
 8844SOL     OW37990   3.974   0.131   4.812 -0.3142  0.7072  0.0528
 8844SOL    HW137991   4.009   0.130   4.723  1.2820  1.9788  0.6745
 8844SOL    HW237992   3.883   0.153   4.792 -0.9483 -2.0700 -0.1187
 8845SOL     OW37993   0.406   3.978   2.956  1.1998  0.5667  0.5244
 8845SOL    HW137994   0.356   4.054   2.987  1.5197  1.0981 -0.2702
 8845SOL    HW237995   0.426   4.014   2.870  4.0127  0.4165  1.1168
 8846SOL     OW37996   4.508   1.332   1.300  0.0618  0.3412 -0.5528
 8846SOL    HW137997   4.509   1.426   1.316  0.2364  0.7285 -2.7879
 8846SOL    HW237998   4.565   1.321   1.224  1.0457  2.7587 -0.1641
 8847SOL     OW37999   3.310   4.046  15.472  0.2078 -0.6893  0.2284
 8847SOL    HW138000   3.278   3.957  15.456 -2.0792  0.7875 -3.2872
 8847SOL    HW238001   3.239   4.085  15.523 -0.7689 -1.0888 -0.8440
 8848SOL     OW38002   2.234   1.468   3.898  0.5773 -0.4751  0.5471
 8848SOL    HW138003   2.250   1.378   3.927  0.9299 -0.4582  0.4068
 8848SOL    HW238004   2.311   1.507   3.940  2.9355 -2.0288 -2.3230
 8849SOL     OW38005   2.523   3.128   0.727  0.3902 -0.0200  0.5658
 8849SOL    HW138006   2.445   3.176   0.697  0.9092  0.5589  0.1588
 8849SOL    HW238007   2.559   3.080   0.652  0.6401  1.0200  0.0254
 8850SOL     OW38008   1.536   2.282   6.132  0.1207 -0.1072 -0.0473
 8850SOL    HW138009   1.550   2.205   6.188  1.3579  0.9511  1.1194
 8850SOL    HW238010   1.615   2.336   6.135  0.3612 -0.4376 -0.4970
 8851SOL     OW38011   3.794   4.685   3.647 -0.2535  0.3324 -0.9276
 8851SOL    HW138012   3.726   4.712   3.584  0.5855 -0.4929 -2.1819
 8851SOL    HW238013   3.815   0.055   3.668  0.9284 -0.4563  1.2535
 8852SOL     OW38014   0.067   3.915   7.954 -0.2765 -0.2677 -0.0644
 8852SOL    HW138015   0.065   3.942   8.045 -0.5368 -0.6734  0.0479
 8852SOL    HW238016   4.696   3.926   7.934  0.0668  0.3070 -1.3384
 8853SOL     OW38017   0.642   4.669   2.598  0.0769 -0.0331 -0.3880
 8853SOL    HW138018   0.631   4.654   2.692  0.2478 -1.9500 -0.6617
 8853SOL    HW238019   0.733   4.695   2.586 -0.4769  0.9715 -2.5875
 8854SOL     OW38020   0.803   4.038  10.417 -0.5073  0.1550 -0.2373
 8854SOL    HW138021   0.873   3.996  10.466  0.8161 -0.0205 -2.3004
 8854SOL    HW238022   0.741   3.971  10.388  3.4000 -2.0025 -3.4436
 8855SOL     OW38023   2.038   1.154   7.302 -0.2967 -0.2522 -0.1003
 8855SOL    HW138024   1.962   1.131   7.355 -0.5299  0.3837 -0.1486
 8855SOL    HW238025   2.049   1.076   7.248 -2.1936 -0.4312 -0.2298
 8856SOL     OW38026   2.182   1.383   8.382  0.5272 -0.4198  0.2509
 8856SOL    HW138027   2.223   1.307   8.342 -0.1650 -1.2371  1.0954
 8856SOL    HW238028   2.089   1.367   8.366  0.2011 -0.0093  1.7150
 8857SOL     OW38029   1.545   3.640   4.656 -0.3353  0.5468 -0.5092
 8857SOL    HW138030   1.579   3.686   4.733  2.6105  0.2686 -1.6515
 8857SOL    HW238031   1.535   3.715   4.598 -0.2363 -0.8702 -2.3496
 8858SOL     OW38032   0.845   1.004  14.724  0.3695  0.2879  0.5341
 8858SOL    HW138033   0.924   1.050  14.751  1.0674 -0.2757 -0.5685
 8858SOL    HW238034   0.796   1.077  14.686 -0.6032 -0.3907  0.4834
 8859SOL     OW38035   0.377   0.756   6.470 -0.2967  0.4118  0.0860
 8859SOL    HW138036   0.415   0.736   6.384 -2.2929 -1.3638 -0.4028
 8859SOL    HW238037   0.389   0.674   6.517  1.0646  1.1868  1.0805
 8860SOL     OW38038   4.621   1.221  10.784 -0.1271  0.2687  0.3890
 8860SOL    HW138039   4.651   1.188  10.869 -0.6560  0.3878  0.6195
 8860SOL    HW238040   4.548   1.279  10.804  0.2007  0.8550 -0.1352
 8861SOL     OW38041   1.655   3.745   1.613 -0.3896 -0.3388 -0.1402
 8861SOL    HW138042   1.674   3.839   1.621  2.2161 -0.8727  0.1133
 8861SOL    HW238043   1.628   3.724   1.702  0.9341 -0.8534  0.1443
 8862SOL     OW38044   1.056   2.012   8.095 -1.1716  0.6368 -0.2058
 8862SOL    HW138045   1.068   1.956   8.018 -0.5467 -0.8360  0.9605
 8862SOL    HW238046   1.056   1.952   8.169  1.7537 -0.9049 -1.4185
 8863SOL     OW38047   2.862   4.119   4.925  0.0533  0.6002  0.1711
 8863SOL    HW138048   2.909   4.120   5.008 -0.7102  1.4591  0.6015
 8863SOL    HW238049   2.790   4.179   4.944 -1.6678 -1.0242 -1.1542
 8864SOL     OW38050   2.714   1.317   3.567  0.0485  0.3359  0.4374
 8864SOL    HW138051   2.760   1.351   3.490  1.3958  0.9726  1.5140
 8864SOL    HW238052   2.784   1.288   3.625 -0.1384 -1.3377 -0.1562
 8865SOL     OW38053   2.290   3.428   3.258  0.2524  0.4109  0.0586
 8865SOL    HW138054   2.295   3.512   3.303 -1.1089  0.4837  0.0769
 8865SOL    HW238055   2.207   3.426   3.210  1.7826  1.2765 -2.6404
 8866SOL     OW38056   0.581   1.614   6.105  0.0262 -0.3136 -0.3691
 8866SOL    HW138057   0.485   1.623   6.111  0.2649  2.3875 -0.6588
 8866SOL    HW238058   0.588   1.528   6.146  1.0460  0.7074  1.6271
 8867SOL     OW38059   2.859   2.927   5.096 -0.0769 -0.0792 -0.2506
 8867SOL    HW138060   2.946   2.962   5.116  0.2602 -2.0513  1.6976
 8867SOL    HW238061   2.805   2.995   5.137  0.4884  0.3666 -0.2334
 8868SOL     OW38062   3.775   1.686  16.059 -0.0846  0.1442 -0.3300
 8868SOL    HW138063   3.748   1.766  16.015 -0.6007 -0.9873 -2.0857
 8868SOL    HW238064   3.775   1.620  15.989  0.0325 -1.0931  0.8468
 8869SOL     OW38065   3.776   2.506  14.121 -0.0857 -0.0699  0.0379
 8869SOL    HW138066   3.769   2.479  14.212 -3.1143  0.0548 -0.1427
 8869SOL    HW238067   3.739   2.593  14.137  1.2936  0.3831  0.7835
 8870SOL     OW38068   0.143   2.731   4.614  0.2383  0.1828 -0.8175
 8870SOL    HW138069   0.064   2.677   4.613 -0.9263  1.8795 -0.9960
 8870SOL    HW238070   0.211   2.665   4.622 -0.7958 -0.8324 -0.3789
 8871SOL     OW38071   2.550   2.819   8.714 -0.5212 -0.1169  0.1002
 8871SOL    HW138072   2.606   2.816   8.792 -1.6260 -3.1597  0.7612
 8871SOL    HW238073   2.552   2.908   8.679 -2.8120 -0.4767 -0.9209
 8872SOL     OW38074   1.759   0.068   5.137  0.0996  0.0644 -0.2343
 8872SOL    HW138075   1.828   0.026   5.085 -0.8595  1.9049 -3.0185
 8872SOL    HW238076   1.792   0.051   5.225  1.0857 -0.6229 -0.7388
 8873SOL     OW38077   1.892   1.829   7.218  0.2628  0.0318 -0.3492
 8873SOL    HW138078   1.865   1.798   7.304 -0.8030  0.4891 -0.5151
 8873SOL    HW238079   1.967   1.770   7.205  0.0124 -0.1899 -0.7901
 8874SOL     OW38080   0.965   4.578   5.201  0.1829 -0.5445 -0.7667
 8874SOL    HW138081   0.941   4.534   5.120  0.1967  1.0364 -1.6232
 8874SOL    HW238082   0.901   4.649   5.209  1.3600  0.5839 -1.3777
 8875SOL     OW38083   4.484   2.985   9.787 -0.4045 -0.0605 -0.2448
 8875SOL    HW138084   4.529   3.024   9.861  0.8058 -1.4558 -0.2433
 8875SOL    HW238085   4.483   2.894   9.818 -1.2895  0.7511  2.1413
 8876SOL     OW38086   2.952   2.256   5.838  0.4475 -0.3794  0.2337
 8876SOL    HW138087   2.871   2.264   5.889  0.6192  2.1243  0.1208
 8876SOL    HW238088   2.953   2.342   5.796 -0.5256 -1.6093 -2.3542
 8877SOL     OW38089   4.679   3.245   7.443 -0.2963 -0.0942  0.2920
 8877SOL    HW138090   0.046   3.255   7.407 -1.2517  1.0364 -1.7631
 8877SOL    HW238091   4.694   3.301   7.519 -0.3893 -2.1432  1.8158
 8878SOL     OW38092   3.046   2.339   4.863  0.6896 -0.2695 -0.2191
 8878SOL    HW138093   2.973   2.308   4.918 -1.0167  0.7545 -1.8979
 8878SOL    HW238094   3.009   2.425   4.845  2.6034  0.3574 -1.1273
 8879SOL     OW38095   2.078   2.356  16.115 -0.0063  1.0282 -0.0211
 8879SOL    HW138096   2.020   2.429  16.095  1.2750  2.2332  0.5859
 8879SOL    HW238097   2.091   2.312  16.031  0.7541  0.0790  0.5966
 8880SOL     OW38098   3.404   2.680  16.334  0.9308 -0.3322  0.3540
 8880SOL    HW138099   3.409   2.666  16.428  1.1060 -0.3108  0.3483
 8880SOL    HW238100   3.442   2.600  16.298 -0.5511 -0.3951 -1.0624
 8881SOL     OW38101   0.985   0.452   4.307  0.1527  0.2242 -0.1547
 8881SOL    HW138102   0.991   0.434   4.214  1.3373  1.4192 -0.3074
 8881SOL    HW238103   0.989   0.548   4.307 -1.4741  0.2991  3.0367
 8882SOL     OW38104   4.478   4.370   1.857 -0.2237 -0.6940 -0.4195
 8882SOL    HW138105   4.496   4.429   1.784  0.1033  1.3641  1.2984
 8882SOL    HW238106   4.444   4.435   1.919  0.7986 -0.9071  0.3775
 8883SOL     OW38107   2.399   3.137   5.927 -0.1522 -0.1874 -0.1842
 8883SOL    HW138108   2.345   3.197   5.876  0.3512  0.5209  0.1207
 8883SOL    HW238109   2.481   3.185   5.936 -0.1674 -0.0832 -0.5957
 8884SOL     OW38110   4.347   1.799   7.132  0.1336  0.2235 -0.1412
 8884SOL    HW138111   4.271   1.746   7.108  0.3104  0.0095 -0.2241
 8884SOL    HW238112   4.420   1.738   7.125 -0.4692 -0.4895 -0.1136
 8885SOL     OW38113   1.366   4.436   6.719  0.4004  0.0452  0.0592
 8885SOL    HW138114   1.355   4.357   6.772  2.0781 -1.2517 -1.5195
 8885SOL    HW238115   1.366   4.505   6.785 -2.1065 -0.0349  0.1412
 8886SOL     OW38116   4.202   0.151   0.919 -0.4656 -0.1028  0.2378
 8886SOL    HW138117   4.129   0.164   0.858  0.1726  0.0029 -0.4958
 8886SOL    HW238118   4.224   0.061   0.894  0.1029 -0.3289  1.5997
 8887SOL     OW38119   0.627   2.708   1.349 -0.2628  0.5214 -0.0135
 8887SOL    HW138120   0.643   2.756   1.268 -0.4443  0.3866 -0.1291
 8887SOL    HW238121   0.532   2.696   1.342 -0.2939  0.4952  0.4349
 8888SOL     OW38122   1.268   1.288   6.648  0.6003  0.2683  0.0055
 8888SOL    HW138123   1.245   1.309   6.739  0.8684  2.8190 -0.4964
 8888SOL    HW238124   1.277   1.379   6.619  1.5064  0.2979  0.3809
 8889SOL     OW38125   1.157   1.179   7.927 -0.5059  0.6129 -0.0426
 8889SOL    HW138126   1.083   1.152   7.982 -1.4866 -0.0147 -1.6499
 8889SOL    HW238127   1.107   1.192   7.847 -0.3184 -1.8242 -0.5762
 8890SOL     OW38128   0.660   2.992   0.937  0.2199  0.2385 -0.0902
 8890SOL    HW138129   0.607   3.027   0.865 -1.6308  1.7916  2.0392
 8890SOL    HW238130   0.743   3.031   0.910  0.6286 -0.8442 -0.3723
 8891SOL     OW38131   0.636   2.528   6.716  0.0175  0.6080  0.1261
 8891SOL    HW138132   0.600   2.589   6.652 -1.4397 -0.1743  0.1979
 8891SOL    HW238133   0.637   2.578   6.798 -0.2463 -1.2585  1.2439
 8892SOL     OW38134   0.196   0.984   8.509 -0.0001 -0.0554  0.3258
 8892SOL    HW138135   0.197   0.976   8.413 -0.1741  1.4122  0.2078
 8892SOL    HW238136   0.292   0.986   8.514  0.0723 -1.2213 -0.4917
 8893SOL     OW38137   3.827   0.177   2.770 -0.4256 -0.1151 -0.1590
 8893SOL    HW138138   3.766   0.164   2.843 -0.5181 -0.0580 -0.2269
 8893SOL    HW238139   3.833   0.273   2.776  0.4471 -0.1633 -0.2793
 8894SOL     OW38140   0.205   4.676   9.074 -0.6765 -0.4999  0.3813
 8894SOL    HW138141   0.227   4.683   9.167  0.8368 -2.2107  0.1509
 8894SOL    HW238142   0.241   4.588   9.064 -0.6707 -0.4391 -0.1368
 8895SOL     OW38143   1.984   1.712  16.822  0.0992  0.4258  0.1892
 8895SOL    HW138144   1.983   1.807  16.834 -1.1511  0.5960 -1.2090
 8895SOL    HW238145   1.921   1.678  16.886 -1.2413 -0.7937 -1.7978
 8896SOL     OW38146   1.698   1.588   3.135 -0.4221 -0.6362 -0.2630
 8896SOL    HW138147   1.785   1.594   3.175 -0.8297  1.5185  0.3110
 8896SOL    HW238148   1.650   1.584   3.218  0.2811 -0.3037  0.1587
 8897SOL     OW38149   3.661   2.584   7.046  0.3814  0.2889 -0.0203
 8897SOL    HW138150   3.631   2.531   7.121 -1.5894  0.8353 -0.4093
 8897SOL    HW238151   3.693   2.516   6.987 -1.7266  0.3491 -1.2192
 8898SOL     OW38152   3.459   2.458   3.052 -0.0891 -0.0902 -0.2217
 8898SOL    HW138153   3.488   2.537   3.098 -1.5862  0.2430  0.1364
 8898SOL    HW238154   3.447   2.393   3.122 -1.0863 -0.0129 -0.3194
 8899SOL     OW38155   3.416   4.210   9.618  0.6159 -0.2911  0.5657
 8899SOL    HW138156   3.399   4.303   9.601 -2.1908 -0.9771 -0.3697
 8899SOL    HW238157   3.475   4.215   9.694  0.1584 -0.4629  0.9366
 8900SOL     OW38158   1.494   4.109   8.842 -0.0037  0.0463 -0.2582
 8900SOL    HW138159   1.418   4.063   8.805 -1.3423 -0.2963  2.9149
 8900SOL    HW238160   1.566   4.047   8.831  0.5291  0.9268 -1.7348
 8901SOL     OW38161   1.712   2.607   1.458 -0.3002 -0.3431  0.1288
 8901SOL    HW138162   1.672   2.547   1.521 -1.1501  0.7934  0.6674
 8901SOL    HW238163   1.738   2.684   1.509 -1.8785  0.9122 -0.9917
 8902SOL     OW38164   1.648   3.720   2.367 -0.1191  0.4653  0.2772
 8902SOL    HW138165   1.611   3.667   2.438 -0.3653  0.9594  0.5182
 8902SOL    HW238166   1.683   3.795   2.416  0.8302  0.6909 -0.7486
 8903SOL     OW38167   2.667   2.331   1.823  0.0288 -0.2333 -0.6249
 8903SOL    HW138168   2.727   2.308   1.752 -0.6503 -3.0261 -0.3010
 8903SOL    HW238169   2.722   2.379   1.885  0.2824 -0.4983 -0.6439
 8904SOL     OW38170   1.903   1.111   8.992 -0.0652  0.2840  0.0071
 8904SOL    HW138171   1.854   1.173   8.938  0.5388  0.5301 -0.2624
 8904SOL    HW238172   1.928   1.165   9.068  1.9253  0.0584 -0.4750
 8905SOL     OW38173   1.615   3.804   6.793  0.4158  0.3763  0.5836
 8905SOL    HW138174   1.606   3.885   6.843  1.6698 -0.7305  2.5755
 8905SOL    HW238175   1.700   3.777   6.825  0.0842 -1.4087 -0.0751
 8906SOL     OW38176   1.376   2.480   6.275 -0.1902 -0.7275 -0.3572
 8906SOL    HW138177   1.384   2.399   6.225  1.5071 -1.9533  1.9280
 8906SOL    HW238178   1.446   2.474   6.340 -1.7068 -2.1195  1.1398
 8907SOL     OW38179   4.712   4.394   5.761  0.3174  0.3266  0.2120
 8907SOL    HW138180   4.620   4.382   5.784  0.2109  0.4973 -0.1224
 8907SOL    HW238181   4.707   4.426   5.671  0.8275  1.5733  0.6182
 8908SOL     OW38182   1.977   4.277   6.979  0.4807 -0.7733  0.4832
 8908SOL    HW138183   2.006   4.190   6.953  1.8527  0.6374 -2.8660
 8908SOL    HW238184   1.996   4.270   7.072 -0.1346 -0.3695  0.6416
 8909SOL     OW38185   4.082   3.090   4.461  0.1615  0.0829 -0.0412
 8909SOL    HW138186   4.046   3.179   4.463  0.7315  0.3413 -1.1288
 8909SOL    HW238187   4.105   3.084   4.368 -0.1895 -0.5956 -0.0862
 8910SOL     OW38188   0.540   0.129   4.845  0.6300 -0.1027  0.3996
 8910SOL    HW138189   0.491   0.103   4.767 -0.4138  1.4645  0.5344
 8910SOL    HW238190   0.569   0.041   4.870 -0.8603 -0.1876  1.7870
 8911SOL     OW38191   2.071   3.324   6.860 -0.0881 -0.2021 -0.2826
 8911SOL    HW138192   2.021   3.291   6.935  0.6596 -1.8533 -0.5140
 8911SOL    HW238193   2.125   3.249   6.833  0.3338  0.7011 -1.9713
 8912SOL     OW38194   0.282   1.542   5.645  0.3591 -0.1526  0.0389
 8912SOL    HW138195   0.223   1.483   5.597 -1.4960  0.6658  1.3170
 8912SOL    HW238196   0.296   1.499   5.729 -0.3851  1.6761  1.0938
 8913SOL     OW38197   2.663   2.910   6.222 -0.8153 -0.4947 -0.2984
 8913SOL    HW138198   2.757   2.895   6.211 -0.8650  0.6159 -2.2527
 8913SOL    HW238199   2.659   3.005   6.235 -1.1082 -0.8057  1.9752
 8914SOL     OW38200   4.440   3.880  12.208 -0.5645  0.2349  0.2021
 8914SOL    HW138201   4.471   3.968  12.227  0.5617  0.7600 -4.1236
 8914SOL    HW238202   4.413   3.848  12.295  1.1106  1.7118  1.2671
 8915SOL     OW38203   4.646   0.595   3.883  0.3762  0.8241 -0.0639
 8915SOL    HW138204   4.587   0.656   3.927 -1.2452 -1.8132  1.4117
 8915SOL    HW238205   4.685   0.664   3.830  0.0738  1.3781  0.4288
 8916SOL     OW38206   3.691   1.301   2.807 -0.7124 -0.5645  0.0030
 8916SOL    HW138207   3.670   1.260   2.890 -1.9067 -0.9584 -0.4962
 8916SOL    HW238208   3.626   1.371   2.818 -0.7784 -1.1346  3.0747
 8917SOL     OW38209   3.221   3.558   5.044  0.2529 -0.2765  0.0283
 8917SOL    HW138210   3.131   3.589   5.038  0.0243 -0.6194  1.5214
 8917SOL    HW238211   3.215   3.464   5.024 -1.5758  0.3126 -2.1025
 8918SOL     OW38212   1.744   1.191   3.986 -0.1252 -0.3028  0.3495
 8918SOL    HW138213   1.828   1.194   4.031  0.4608  0.2374 -0.7925
 8918SOL    HW238214   1.777   1.229   3.905 -0.1372 -0.1713  0.4049
 8919SOL     OW38215   3.791   2.755   7.590 -0.1981  0.1926 -0.3136
 8919SOL    HW138216   3.798   2.671   7.635 -1.1165  0.8638  1.0914
 8919SOL    HW238217   3.775   2.726   7.501  1.3078 -0.7792 -0.2621
 8920SOL     OW38218   0.407   2.002   1.631 -0.0801 -0.0255  0.3676
 8920SOL    HW138219   0.378   2.038   1.548  0.1045 -0.7921 -0.0310
 8920SOL    HW238220   0.480   2.059   1.652  1.4486 -0.6536 -3.2793
 8921SOL     OW38221   2.235   3.765   4.061  0.7380 -0.4717  0.3060
 8921SOL    HW138222   2.144   3.740   4.048  0.3296  0.3355  1.6063
 8921SOL    HW238223   2.277   3.734   3.981  1.4633 -1.4913  1.0875
 8922SOL     OW38224   0.857   4.719  13.675 -0.0554  0.1724 -0.6045
 8922SOL    HW138225   0.944   0.034  13.657  0.8025 -1.8906 -0.6756
 8922SOL    HW238226   0.801   0.057  13.625 -0.9514 -0.6515 -0.5853
 8923SOL     OW38227   1.124   0.322   5.391  0.0396  0.5199 -0.8089
 8923SOL    HW138228   1.138   0.403   5.441  0.9991  0.1233 -0.4207
 8923SOL    HW238229   1.037   0.296   5.421  1.5577 -2.3044  1.1066
 8924SOL     OW38230   1.563   4.176   3.669 -0.1478  0.0932  0.6841
 8924SOL    HW138231   1.639   4.132   3.631 -0.6847 -1.0881  0.9793
 8924SOL    HW238232   1.555   4.244   3.602  0.5733 -0.2725  0.2258
 8925SOL     OW38233   1.679   4.432  15.722  0.2703  0.2793  0.2478
 8925SOL    HW138234   1.674   4.340  15.698  1.8811  0.1883  0.2722
 8925SOL    HW238235   1.630   4.474  15.651  0.8585 -0.5804 -0.6586
 8926SOL     OW38236   3.722   3.975   3.618 -0.0091  0.3605  0.0953
 8926SOL    HW138237   3.713   4.060   3.575  1.8531  0.3629 -0.2844
 8926SOL    HW238238   3.638   3.963   3.662 -0.6149  0.5584 -1.0104
 8927SOL     OW38239   0.287   1.311   4.145  0.0741  0.1622 -0.2286
 8927SOL    HW138240   0.330   1.350   4.069 -0.0593  0.0736 -0.3510
 8927SOL    HW238241   0.353   1.316   4.213  0.2503 -1.1758 -0.2922
 8928SOL     OW38242   0.156   3.574   7.359 -0.3157  0.2420  0.4327
 8928SOL    HW138243   0.200   3.619   7.432 -0.3813 -0.8462  1.1399
 8928SOL    HW238244   0.068   3.614   7.359 -0.8028 -0.8350  0.9679
 8929SOL     OW38245   4.181   0.698   2.204  0.0690 -0.4968  0.0819
 8929SOL    HW138246   4.262   0.697   2.255 -0.4793 -0.1132  0.9620
 8929SOL    HW238247   4.193   0.606   2.180 -1.7067 -0.5256 -0.6729
 8930SOL     OW38248   0.407   0.211   5.106  0.5637 -0.3520 -0.2619
 8930SOL    HW138249   0.472   0.167   5.052  1.8621  1.0899  0.1123
 8930SOL    HW238250   0.442   0.300   5.093  0.4849 -0.4600 -1.2066
 8931SOL     OW38251   3.354   3.391  10.107  0.0629  0.0656 -0.2791
 8931SOL    HW138252   3.337   3.479  10.075 -0.6660 -0.7544 -2.1664
 8931SOL    HW238253   3.268   3.357  10.132 -0.2354  0.4248 -0.8131
 8932SOL     OW38254   2.190   4.035  11.629 -0.3370  0.2175  0.2505
 8932SOL    HW138255   2.143   4.109  11.666  0.2050 -0.6447  2.6605
 8932SOL    HW238256   2.197   4.059  11.537 -0.2576  0.0190  0.2041
 8933SOL     OW38257   0.444   0.797   5.132 -0.2824  0.0057  0.1439
 8933SOL    HW138258   0.397   0.868   5.090 -1.2397 -0.2195  0.8479
 8933SOL    HW238259   0.529   0.841   5.134 -0.5982  0.5632  1.6673
 8934SOL     OW38260   0.358   3.228   6.761  0.1426  0.3945  0.2015
 8934SOL    HW138261   0.353   3.301   6.823  1.2459 -0.2763  1.0774
 8934SOL    HW238262   0.447   3.244   6.731 -0.2498 -1.0966 -1.7395
 8935SOL     OW38263   0.508   4.333  14.180  0.3326  0.3438 -0.5190
 8935SOL    HW138264   0.471   4.370  14.260 -1.3074  1.4538 -1.7784
 8935SOL    HW238265   0.602   4.346  14.191  0.5989 -2.3035  0.4587
 8936SOL     OW38266   2.551   1.864   7.742 -0.4421  0.2797 -0.6735
 8936SOL    HW138267   2.599   1.859   7.825  0.6444 -1.7909 -1.4127
 8936SOL    HW238268   2.620   1.866   7.675 -0.3278 -0.2230 -0.5783
 8937SOL     OW38269   3.876   0.914   2.813  0.2062 -0.5784 -0.3002
 8937SOL    HW138270   3.782   0.894   2.810  0.1685  0.1610 -4.0538
 8937SOL    HW238271   3.903   0.824   2.831  0.3544 -0.7175 -1.1964
 8938SOL     OW38272   2.549   0.123   3.002  0.7315  0.1382 -1.0325
 8938SOL    HW138273   2.568   0.029   3.001 -1.3218 -0.2542 -2.4517
 8938SOL    HW238274   2.454   0.129   3.001  0.6537 -0.8698 -0.3308
 8939SOL     OW38275   2.985   3.912  14.930 -0.0237 -0.6618  0.3917
 8939SOL    HW138276   3.000   3.818  14.917  1.5614 -0.1592 -1.3769
 8939SOL    HW238277   3.058   3.955  14.887 -1.3521  1.2655  0.0943
 8940SOL     OW38278   1.127   3.488   5.427 -0.2802 -0.1666 -1.2619
 8940SOL    HW138279   1.206   3.472   5.375 -2.0057  0.0038 -3.8883
 8940SOL    HW238280   1.107   3.579   5.408 -0.0389  0.0459 -0.5168
 8941SOL     OW38281   1.442   0.506   2.896  0.2206  0.0119 -0.3020
 8941SOL    HW138282   1.509   0.438   2.891  0.4653  0.3072 -1.0294
 8941SOL    HW238283   1.383   0.485   2.824  0.6429 -1.0962 -0.3106
 8942SOL     OW38284   4.042   3.163   6.982  0.5992  0.5823  0.3042
 8942SOL    HW138285   3.992   3.087   7.012  0.0560  2.1573  3.4278
 8942SOL    HW238286   3.977   3.211   6.931  2.3379  0.8192 -1.6765
 8943SOL     OW38287   2.172   4.330   6.737  0.5787  0.5344  0.2774
 8943SOL    HW138288   2.078   4.334   6.720  0.7062 -0.3560 -0.5816
 8943SOL    HW238289   2.185   4.321   6.832  1.9802 -2.0705 -0.1660
 8944SOL     OW38290   2.698   4.635  16.273  0.3131 -0.4703 -0.0891
 8944SOL    HW138291   2.793   4.643  16.276  0.3494 -0.4977 -0.9860
 8944SOL    HW238292   2.671   4.667  16.359 -0.9748 -3.3759  0.5641
 8945SOL     OW38293   1.274   4.354   5.130 -0.2058 -0.4473 -0.2580
 8945SOL    HW138294   1.274   4.387   5.040  0.1624  2.1447  0.7000
 8945SOL    HW238295   1.304   4.265   5.110  2.0372  0.3099 -0.1810
 8946SOL     OW38296   2.984   4.090   4.664 -0.1250 -0.0993 -0.0433
 8946SOL    HW138297   2.931   4.136   4.730  2.1500  1.3486  0.7777
 8946SOL    HW238298   3.052   4.053   4.720  0.9888 -3.1744 -3.4082
 8947SOL     OW38299   1.337   4.238  10.034  0.0913 -0.1774 -0.2422
 8947SOL    HW138300   1.350   4.177  10.106 -2.4403  2.1863  2.2408
 8947SOL    HW238301   1.269   4.194   9.982 -1.5708  0.7431  1.1440
 8948SOL     OW38302   1.798   0.202   9.295  0.0319 -0.2609 -0.0389
 8948SOL    HW138303   1.836   0.247   9.371 -1.1158  1.0383 -0.2223
 8948SOL    HW238304   1.761   0.130   9.347  1.3456  0.0404  1.2954
 8949SOL     OW38305   4.101   0.127  10.551  0.0914  0.2475  1.0357
 8949SOL    HW138306   4.052   0.094  10.476 -1.0065  0.2399  1.7550
 8949SOL    HW238307   4.085   0.056  10.614 -2.4082 -1.5179 -1.6021
 8950SOL     OW38308   3.396   3.752   9.062  0.3743 -0.6319  0.1785
 8950SOL    HW138309   3.474   3.746   9.008 -0.8303 -2.7610 -1.3336
 8950SOL    HW238310   3.328   3.733   8.998 -0.7168  1.5807  0.6602
 8951SOL     OW38311   0.052   2.056   1.621 -0.1688  0.1343  0.4600
 8951SOL    HW138312   0.076   2.141   1.584  1.4386  0.4217  2.2095
 8951SOL    HW238313   0.095   2.004   1.553  1.6714  1.5096  0.5804
 8952SOL     OW38314   2.465   1.770   4.578  1.3706 -0.1398  0.1345
 8952SOL    HW138315   2.464   1.674   4.574  1.9794 -0.1277 -0.4365
 8952SOL    HW238316   2.560   1.763   4.565  1.6280  1.7513  1.0232
 8953SOL     OW38317   1.590   2.173   4.234  0.7914 -0.0845 -0.1502
 8953SOL    HW138318   1.508   2.132   4.262  0.0818  3.3036  2.7823
 8953SOL    HW238319   1.600   2.238   4.304  0.2684 -0.5963  0.4070
 8954SOL     OW38320   2.649   2.667   1.098 -0.1193  0.1555 -0.0140
 8954SOL    HW138321   2.718   2.655   1.163 -0.9423  1.1811  1.0403
 8954SOL    HW238322   2.589   2.592   1.098 -1.3877  1.1937  1.4071
 8955SOL     OW38323   3.001   2.029   6.956  0.0994  0.3898 -0.0174
 8955SOL    HW138324   3.067   2.007   7.021  0.2743 -0.8250 -0.6070
 8955SOL    HW238325   2.982   2.122   6.967  1.8462  0.8719 -1.0128
 8956SOL     OW38326   4.021   1.162  12.978  0.1255  0.1722 -0.0634
 8956SOL    HW138327   4.084   1.112  12.926  0.5799  0.3179  0.3560
 8956SOL    HW238328   3.968   1.197  12.906 -0.1400  1.4121  0.7395
 8957SOL     OW38329   0.541   4.575   3.568 -0.6057 -0.0859  0.0508
 8957SOL    HW138330   0.565   4.614   3.652  1.9469 -0.7651 -0.3699
 8957SOL    HW238331   0.446   4.585   3.560 -0.4940  0.0274 -1.1301
 8958SOL     OW38332   4.565   0.308   7.226 -0.4007 -0.5584  0.3073
 8958SOL    HW138333   4.631   0.294   7.294 -0.2971 -1.9260 -0.0716
 8958SOL    HW238334   4.608   0.363   7.159  1.1749 -1.8734  0.2357
 8959SOL     OW38335   0.930   4.117   0.371  0.1487 -0.5836 -0.2578
 8959SOL    HW138336   0.963   4.203   0.344  1.2752 -0.9195  0.0400
 8959SOL    HW238337   0.858   4.106   0.309 -0.3229  2.1438 -0.1885
 8960SOL     OW38338   3.668   2.424   0.265  0.4628  0.1463 -0.2136
 8960SOL    HW138339   3.738   2.450   0.206  2.8188  0.7611  2.8667
 8960SOL    HW238340   3.722   2.421   0.344 -0.8774 -1.0530  0.6815
 8961SOL     OW38341   2.510   3.079  11.461 -0.0383 -0.4142 -0.5239
 8961SOL    HW138342   2.594   3.034  11.475 -0.0133 -0.3468 -0.4562
 8961SOL    HW238343   2.446   3.007  11.459 -0.6289  0.0800  0.7189
 8962SOL     OW38344   2.554   0.697   2.827  0.1336  0.0511  0.0975
 8962SOL    HW138345   2.624   0.739   2.777  0.0608 -0.2216 -0.2337
 8962SOL    HW238346   2.479   0.752   2.806 -0.6587  0.0345  2.8811
 8963SOL     OW38347   1.240   1.732   5.121 -0.4620 -0.0207  0.1663
 8963SOL    HW138348   1.317   1.675   5.122  0.9446  1.8801 -0.3160
 8963SOL    HW238349   1.222   1.754   5.213  0.0479 -1.3544  0.5944
 8964SOL     OW38350   2.047   0.972  11.635 -0.4954  0.5324  0.0739
 8964SOL    HW138351   2.049   0.940  11.725  0.0582  1.2682  0.3204
 8964SOL    HW238352   2.100   1.050  11.650  0.2393  0.2291 -0.8932
 8965SOL     OW38353   0.353   2.580   8.987 -0.1252  0.3685 -0.2558
 8965SOL    HW138354   0.338   2.579   9.082  1.4861 -0.8373 -0.0043
 8965SOL    HW238355   0.429   2.636   8.973  1.7479 -1.8516  0.9330
 8966SOL     OW38356   0.309   2.527   4.683 -0.2012 -0.0454  0.0080
 8966SOL    HW138357   0.322   2.543   4.776  1.0469 -0.5782 -0.0794
 8966SOL    HW238358   0.284   2.435   4.678  1.1112 -0.4257  0.3914
 8967SOL     OW38359   4.319   3.068   2.816  0.1620 -0.2693  1.0673
 8967SOL    HW138360   4.406   3.045   2.783  1.5030  2.5564  2.6273
 8967SOL    HW238361   4.293   2.981   2.845 -2.3311  0.7031  1.7421
 8968SOL     OW38362   3.814   0.413  15.410 -0.3961 -0.3003  0.2986
 8968SOL    HW138363   3.831   0.337  15.465 -0.9187  1.6643  3.2091
 8968SOL    HW238364   3.724   0.431  15.438 -0.8499 -0.1929 -1.2713
 8969SOL     OW38365   0.912   4.149   9.757  0.3659 -0.1353  0.3459
 8969SOL    HW138366   0.848   4.199   9.806  0.3436  0.2266 -0.0458
 8969SOL    HW238367   0.926   4.070   9.809  1.8337  0.8483  1.4414
 8970SOL     OW38368   4.241   2.416  12.112  0.0998 -0.3832 -0.6135
 8970SOL    HW138369   4.280   2.345  12.060  1.1943 -0.4774  0.3229
 8970SOL    HW238370   4.294   2.488  12.078 -0.0314 -0.1112 -0.2379
 8971SOL     OW38371   4.431   0.029   5.712  0.3078 -0.3457 -0.5425
 8971SOL    HW138372   4.516   0.056   5.747  0.7960  0.8226 -2.6652
 8971SOL    HW238373   4.402   0.073   5.633 -1.3566 -0.9089 -0.2571
 8972SOL     OW38374   2.780   2.885   3.909 -0.1449  0.5745 -0.0105
 8972SOL    HW138375   2.728   2.813   3.874 -1.0616  1.9908 -1.5742
 8972SOL    HW238376   2.786   2.868   4.003 -0.1120 -2.7078 -0.6078
 8973SOL     OW38377   0.421   2.721   6.956 -0.1207 -0.2142 -0.0736
 8973SOL    HW138378   0.482   2.717   6.883 -0.0834 -0.7645 -0.0138
 8973SOL    HW238379   0.369   2.643   6.939 -0.8941  0.1087  0.7985
 8974SOL     OW38380   0.321   4.694   6.964 -0.3738 -0.6347  0.4619
 8974SOL    HW138381   0.377   0.050   6.965 -0.5087 -0.5382  0.4891
 8974SOL    HW238382   0.255   4.708   7.032 -1.3770 -0.0030 -0.6591
 8975SOL     OW38383   1.479   1.267  10.025  0.3063  0.2123 -0.0227
 8975SOL    HW138384   1.461   1.272  10.119  1.3345  2.1831  0.0519
 8975SOL    HW238385   1.396   1.307   9.998 -0.9934 -1.3546  1.5948
 8976SOL     OW38386   0.730   0.178   6.629 -0.4431  0.2146 -0.5530
 8976SOL    HW138387   0.743   0.101   6.574  0.8165  1.1236 -1.5386
 8976SOL    HW238388   0.764   0.139   6.709  0.5604  2.0581 -0.0840
 8977SOL     OW38389   3.763   2.299   5.571  0.6512 -0.3179  0.3231
 8977SOL    HW138390   3.713   2.332   5.645 -2.0967 -2.9763 -0.3223
 8977SOL    HW238391   3.811   2.227   5.612 -0.3023 -0.4320  1.2584
 8978SOL     OW38392   1.177   1.949   1.030 -0.0610 -0.1723 -0.4048
 8978SOL    HW138393   1.110   1.882   1.043 -2.0530  1.4576 -2.3896
 8978SOL    HW238394   1.256   1.926   1.080  0.7663 -1.5462 -2.3108
 8979SOL     OW38395   0.932   3.500   1.232  0.7177  0.1538 -0.4923
 8979SOL    HW138396   0.885   3.499   1.315  0.2174  0.3315 -0.7682
 8979SOL    HW238397   0.881   3.565   1.183  3.4920  2.7707  0.0611
 8980SOL     OW38398   1.965   0.851   8.197 -0.5753  0.1545 -0.2141
 8980SOL    HW138399   1.873   0.857   8.171 -0.3217  2.1744 -0.6252
 8980SOL    HW238400   1.999   0.779   8.143  0.0006  1.1150 -1.1227
 8981SOL     OW38401   2.020   1.634   9.179 -0.1022  0.1678 -0.0916
 8981SOL    HW138402   2.066   1.672   9.254  2.2477  0.8025 -1.8764
 8981SOL    HW238403   2.041   1.542   9.196  0.7422  0.2949 -0.4799
 8982SOL     OW38404   2.303   2.361   2.302 -0.3604 -0.6988 -0.7039
 8982SOL    HW138405   2.333   2.363   2.393 -2.8654 -0.5043  0.0956
 8982SOL    HW238406   2.212   2.388   2.307 -0.3378 -1.1297  1.8578
 8983SOL     OW38407   0.538   1.747   0.913  0.1208 -0.5901  0.3649
 8983SOL    HW138408   0.449   1.765   0.942 -0.1801 -1.6961  0.1023
 8983SOL    HW238409   0.559   1.668   0.963 -3.1436 -1.4637  0.3190
 8984SOL     OW38410   4.598   1.090   0.777 -0.0555  0.1771  0.1472
 8984SOL    HW138411   4.651   1.157   0.820  1.3141 -0.8816  0.0895
 8984SOL    HW238412   4.649   1.017   0.812 -0.8653 -0.8803 -0.8988
 8985SOL     OW38413   0.404   3.622   5.403  0.0830 -0.2405  0.5097
 8985SOL    HW138414   0.429   3.555   5.340 -0.0211 -1.1766  1.4557
 8985SOL    HW238415   0.480   3.626   5.460 -0.1256  0.2808  0.7498
 8986SOL     OW38416   2.749   3.206  13.572 -0.3478  0.4265 -0.2187
 8986SOL    HW138417   2.762   3.114  13.591 -0.4711  1.1549  3.2626
 8986SOL    HW238418   2.697   3.193  13.492 -0.6395  1.0962 -0.1369
 8987SOL     OW38419   0.141   2.914   2.466  0.4285  0.5796  0.5924
 8987SOL    HW138420   0.090   2.990   2.439 -0.3237 -0.0158  0.3239
 8987SOL    HW238421   0.177   2.949   2.547 -0.7041  0.3762  1.1808
 8988SOL     OW38422   2.775   2.444   5.932  0.5048 -0.0802 -0.0750
 8988SOL    HW138423   2.704   2.455   5.868  0.5922 -1.6033 -0.4376
 8988SOL    HW238424   2.736   2.492   6.005 -0.4448 -0.1125 -0.5612
 8989SOL     OW38425   4.165   0.233  17.196 -0.2045 -1.4218 -0.2753
 8989SOL    HW138426   4.207   0.311  17.231 -0.9656 -1.0467 -0.1960
 8989SOL    HW238427   4.190   0.238  17.104 -0.2863  0.7525 -0.1770
 8990SOL     OW38428   2.561   1.790   9.436  0.4132  0.1908  0.3147
 8990SOL    HW138429   2.620   1.727   9.394 -0.5932 -0.3127 -0.3425
 8990SOL    HW238430   2.515   1.746   9.507  1.4822 -1.5295 -0.0603
 8991SOL     OW38431   1.871   2.458   2.971 -0.6829 -0.2168  0.5900
 8991SOL    HW138432   1.776   2.446   2.973 -0.7954  0.7117  0.8417
 8991SOL    HW238433   1.899   2.416   3.052 -0.5333 -0.4942  0.3931
 8992SOL     OW38434   1.805   0.212   8.350 -0.5763  0.0049  0.1255
 8992SOL    HW138435   1.767   0.206   8.438  0.8276 -0.1417  0.7231
 8992SOL    HW238436   1.815   0.306   8.335 -1.9680 -0.0594 -1.2021
 8993SOL     OW38437   0.864   3.555   3.520 -0.2333  0.1803 -0.0244
 8993SOL    HW138438   0.798   3.607   3.565  0.0833  1.3299 -0.9067
 8993SOL    HW238439   0.933   3.552   3.586 -0.9295  0.3143  0.7098
 8994SOL     OW38440   4.346   4.407   3.020  0.3283  0.4014 -0.8364
 8994SOL    HW138441   4.321   4.484   2.969  1.5449  1.0861 -0.3917
 8994SOL    HW238442   4.406   4.373   2.954 -0.9092 -1.5363 -0.9822
 8995SOL     OW38443   0.186   3.930   6.876 -0.5987  0.4695 -0.3311
 8995SOL    HW138444   0.198   3.864   6.945 -0.5309 -1.7473 -2.4525
 8995SOL    HW238445   0.273   3.950   6.842 -0.4706 -0.4553 -0.5575
 8996SOL     OW38446   0.066   0.975   2.940  0.5065 -0.5069 -0.0589
 8996SOL    HW138447   0.013   1.048   2.909  0.4108 -1.1899 -1.5286
 8996SOL    HW238448   0.031   0.898   2.895 -2.7683  1.8192 -1.5094
 8997SOL     OW38449   2.608   0.418   9.297  0.2141  0.2349 -0.0043
 8997SOL    HW138450   2.700   0.397   9.283 -0.4999 -1.4462 -2.3341
 8997SOL    HW238451   2.577   0.327   9.294 -2.0370  0.9791  0.1472
 8998SOL     OW38452   0.102   2.135   5.188  0.3391 -0.2938  0.5886
 8998SOL    HW138453   0.055   2.054   5.205  0.4993 -0.4686  0.1757
 8998SOL    HW238454   0.042   2.170   5.123 -1.0572 -0.9387  1.5301
 8999SOL     OW38455   1.279   3.354   0.040  0.1544 -0.5143 -0.1239
 8999SOL    HW138456   1.348   3.304  17.683  0.3629 -0.7350  0.4566
 8999SOL    HW238457   1.250   3.408  17.654 -2.8974 -0.6489  0.9476
 9000SOL     OW38458   0.273   3.320   1.273 -0.1171 -0.4071 -0.3365
 9000SOL    HW138459   0.259   3.234   1.311 -0.2492  0.1206  0.8177
 9000SOL    HW238460   0.301   3.305   1.183  1.2812  2.0317 -0.3130
 9001SOL     OW38461   1.493   0.198   9.190 -0.0461 -0.0127  0.1612
 9001SOL    HW138462   1.578   0.178   9.229  0.4080 -2.2381 -1.9640
 9001SOL    HW238463   1.483   0.292   9.203 -1.4043 -0.3985  1.9304
 9002SOL     OW38464   0.009   2.092   6.467  0.1638 -0.0827 -0.1516
 9002SOL    HW138465   0.085   2.044   6.500 -0.3945 -0.8315  0.0277
 9002SOL    HW238466   0.029   2.182   6.494  4.0608 -0.4758 -1.7533
 9003SOL     OW38467   2.736   3.578   7.822  0.2019  0.0587  0.3356
 9003SOL    HW138468   2.831   3.569   7.828  0.2634  0.3417 -0.1944
 9003SOL    HW238469   2.714   3.516   7.892  0.2787 -0.6160 -0.2404
 9004SOL     OW38470   0.969   1.372  15.794 -0.5692  0.1099  0.0188
 9004SOL    HW138471   0.963   1.461  15.757 -2.4980 -0.1280 -0.2266
 9004SOL    HW238472   1.063   1.355  15.807 -0.5257  0.2988 -0.0448
 9005SOL     OW38473   3.798   4.654   2.597  0.3891 -0.4803  0.1175
 9005SOL    HW138474   3.869   4.668   2.535 -0.3344  1.0246 -0.3645
 9005SOL    HW238475   3.806   0.016   2.643  0.6006  1.0044 -2.6368
 9006SOL     OW38476   2.651   3.207   6.272  0.2445  0.0525 -0.0855
 9006SOL    HW138477   2.602   3.289   6.282  1.7691  0.6841  2.1140
 9006SOL    HW238478   2.739   3.229   6.303 -0.7700  1.2039  1.9260
 9007SOL     OW38479   2.423   3.759   5.073  0.1392 -0.1414 -0.1473
 9007SOL    HW138480   2.377   3.823   5.019  1.4809  1.0779  0.1495
 9007SOL    HW238481   2.499   3.756   5.016 -0.8473  0.3533 -1.4789
 9008SOL     OW38482   4.609   0.986  17.414 -0.9341  0.3795  0.4309
 9008SOL    HW138483   4.528   1.013  17.459 -0.5986  2.4237 -0.1967
 9008SOL    HW238484   4.575   0.978  17.325  0.9694  0.7253 -0.3074
 9009SOL     OW38485   2.943   0.522   3.370 -0.3589 -0.2961 -0.3278
 9009SOL    HW138486   2.908   0.498   3.284 -1.2406  0.2308 -0.1082
 9009SOL    HW238487   3.002   0.589   3.336 -1.8107  1.0352 -0.2315
 9010SOL     OW38488   2.817   4.108   7.612  0.2874 -0.5538 -0.5926
 9010SOL    HW138489   2.814   4.200   7.640 -0.9271 -1.4854  2.3515
 9010SOL    HW238490   2.910   4.084   7.619  0.6243  0.3682 -1.8470
 9011SOL     OW38491   3.291   2.885   3.689  0.2019  0.3666 -0.4523
 9011SOL    HW138492   3.320   2.814   3.746  1.6343  0.2578 -1.3054
 9011SOL    HW238493   3.378   2.910   3.655  0.1969 -1.7703 -2.0361
 9012SOL     OW38494   3.949   2.812   6.150  0.1228  0.4836 -0.4815
 9012SOL    HW138495   3.882   2.815   6.081  0.0966 -4.3822 -0.6698
 9012SOL    HW238496   3.984   2.901   6.150  2.8783 -0.6112  0.6585
 9013SOL     OW38497   0.434   1.965   5.527  0.2071  0.4175  0.1285
 9013SOL    HW138498   0.446   2.055   5.558 -0.8483 -0.6335  3.5463
 9013SOL    HW238499   0.378   1.976   5.450 -0.4066 -0.5476  0.4412
 9014SOL     OW38500   3.161   4.486  13.174  0.5866  0.0348 -0.1485
 9014SOL    HW138501   3.172   4.393  13.154  1.9475  0.6444 -2.2526
 9014SOL    HW238502   3.237   4.502  13.229 -0.1705  1.3149  0.5237
 9015SOL     OW38503   1.338   2.889  14.310  0.6843 -0.0537  0.1749
 9015SOL    HW138504   1.309   2.961  14.365  1.7100  1.4379 -1.2254
 9015SOL    HW238505   1.354   2.938  14.229 -1.3849  0.0107 -0.1895
 9016SOL     OW38506   1.048   2.180   2.239  0.0515 -0.1823  0.9655
 9016SOL    HW138507   1.135   2.181   2.278  0.1920 -0.9523  0.6736
 9016SOL    HW238508   1.068   2.194   2.147 -1.0685 -0.6435  0.6481
 9017SOL     OW38509   1.939   0.508   4.229 -0.6883  0.7865 -0.2796
 9017SOL    HW138510   1.929   0.502   4.134 -1.4124  0.8828 -0.2098
 9017SOL    HW238511   1.911   0.422   4.260  0.3508  0.8874  0.9916
 9018SOL     OW38512   3.367   3.972   7.728 -0.2713 -0.1296 -0.2342
 9018SOL    HW138513   3.285   3.975   7.777 -2.4045 -1.6741 -3.6872
 9018SOL    HW238514   3.387   3.886   7.689 -0.5239 -1.4617  2.5464
 9019SOL     OW38515   1.794   0.087  10.095 -0.2294  0.6688  0.1399
 9019SOL    HW138516   1.784   0.148  10.169  2.1858 -0.1492  1.1539
 9019SOL    HW238517   1.812   0.150  10.025 -1.8773  1.3270  0.2900
 9020SOL     OW38518   0.375   1.273   9.156  0.3617 -0.3514  0.5603
 9020SOL    HW138519   0.303   1.282   9.094  0.7247  2.3079  0.5224
 9020SOL    HW238520   0.327   1.225   9.223  0.4135  1.4356  1.8789
 9021SOL     OW38521   1.570   3.527  11.448 -0.8785 -0.3950 -0.0739
 9021SOL    HW138522   1.494   3.478  11.476 -0.5108 -1.1000 -0.3109
 9021SOL    HW238523   1.573   3.589  11.520  0.6078 -0.4769 -0.0674
 9022SOL     OW38524   4.481   4.438   0.956  0.0381 -0.2457 -0.1234
 9022SOL    HW138525   4.422   4.369   0.986 -1.1300  0.8896  0.2061
 9022SOL    HW238526   4.531   4.401   0.883  2.7775  0.5842  1.3350
 9023SOL     OW38527   2.085   1.483   8.662 -0.6229  0.2715 -0.1609
 9023SOL    HW138528   2.155   1.438   8.614 -0.7522  1.4307 -1.4253
 9023SOL    HW238529   2.011   1.469   8.602  0.8070 -0.3366 -1.7941
 9024SOL     OW38530   2.143   4.308   7.938  0.1580 -0.1603 -0.4607
 9024SOL    HW138531   2.094   4.228   7.955  1.2359 -1.1879 -2.2165
 9024SOL    HW238532   2.067   4.367   7.936 -0.0424 -0.3913  0.4595
 9025SOL     OW38533   2.441   3.264   2.308 -0.3719 -0.3711  0.2291
 9025SOL    HW138534   2.357   3.308   2.325 -1.2011  0.2590 -5.6259
 9025SOL    HW238535   2.493   3.286   2.385  0.9296 -1.5048 -0.3347
 9026SOL     OW38536   3.417   1.409  12.712 -0.0190  0.3806 -0.4402
 9026SOL    HW138537   3.415   1.446  12.624 -1.8991  0.3082 -0.4297
 9026SOL    HW238538   3.497   1.358  12.699  0.0019  0.2004  0.3936
 9027SOL     OW38539   0.012   3.154   5.097  0.4465 -0.1797  0.8245
 9027SOL    HW138540   4.719   3.211   5.021  3.1665 -0.8024 -0.1373
 9027SOL    HW238541   4.659   3.094   5.105 -0.3240  0.5409 -0.7947
 9028SOL     OW38542   0.554   1.125  12.838 -0.0196  0.1362 -0.1591
 9028SOL    HW138543   0.554   1.213  12.876 -0.0422 -0.1972  0.6024
 9028SOL    HW238544   0.479   1.093  12.887 -0.0796 -0.3369 -0.5590
 9029SOL     OW38545   0.791   1.823   8.183 -0.2939  0.1446  0.9802
 9029SOL    HW138546   0.713   1.775   8.154 -0.7363  0.9659  0.7979
 9029SOL    HW238547   0.758   1.913   8.177  0.0652  0.2093  0.0232
 9030SOL     OW38548   3.883   3.088   3.831 -0.1894  0.5749  0.0911
 9030SOL    HW138549   3.887   3.157   3.765  0.9963 -1.0819 -1.5802
 9030SOL    HW238550   3.950   3.111   3.894  1.9380 -1.3710 -1.4259
 9031SOL     OW38551   3.049   0.410   5.912  0.1461 -0.6277  0.7185
 9031SOL    HW138552   3.037   0.362   5.994  0.7970 -0.2601  1.0283
 9031SOL    HW238553   3.034   0.337   5.852  1.6845  0.5323 -1.1088
 9032SOL     OW38554   3.318   4.011   6.316  0.3757  0.3943 -0.1619
 9032SOL    HW138555   3.383   4.006   6.246  0.8908 -1.4211  0.4641
 9032SOL    HW238556   3.357   3.970   6.393 -1.6380 -0.4271  0.4169
 9033SOL     OW38557   4.012   4.048   2.918  0.6497  0.6504 -0.6193
 9033SOL    HW138558   4.009   4.016   2.828 -1.1593 -0.4099 -0.1885
 9033SOL    HW238559   4.099   4.085   2.932  0.6814 -0.3542  1.8840
 9034SOL     OW38560   1.208   1.249   1.919  0.2878  0.6614  0.3153
 9034SOL    HW138561   1.192   1.318   1.854  0.8689  1.4433  1.0031
 9034SOL    HW238562   1.245   1.188   1.855  0.1180  0.1500  0.7076
 9035SOL     OW38563   4.193   1.224   2.053 -0.3108 -0.3970  0.2520
 9035SOL    HW138564   4.156   1.234   1.966 -0.9715  2.0692  0.8269
 9035SOL    HW238565   4.116   1.207   2.107 -0.7056 -1.6854 -0.7165
 9036SOL     OW38566   0.786   4.600   8.828  0.1821  0.3077  0.0297
 9036SOL    HW138567   0.724   4.528   8.837 -0.0584  0.2610 -1.8949
 9036SOL    HW238568   0.841   4.608   8.906  0.8303  3.1091 -0.7066
 9037SOL     OW38569   1.659   3.634  15.051 -0.3409 -0.5672  0.3380
 9037SOL    HW138570   1.711   3.634  15.131 -1.7789 -0.1376  1.2884
 9037SOL    HW238571   1.568   3.621  15.077  0.0792 -3.1739  0.5276
 9038SOL     OW38572   2.470   3.287  14.839 -0.2041  0.6067  0.1635
 9038SOL    HW138573   2.529   3.255  14.907  0.6491 -1.6585 -1.6226
 9038SOL    HW238574   2.384   3.253  14.865 -1.2212  1.7211 -1.7488
 9039SOL     OW38575   4.699   1.698   2.456 -0.0279 -0.7808 -0.4352
 9039SOL    HW138576   4.683   1.648   2.376  0.5206 -0.3294 -0.8356
 9039SOL    HW238577   4.647   1.776   2.436  1.6206  0.1755 -1.0477
 9040SOL     OW38578   4.190   0.551   5.957 -0.6589  0.1175  0.1641
 9040SOL    HW138579   4.136   0.506   6.022 -1.5931  1.4384  0.3123
 9040SOL    HW238580   4.123   0.560   5.889 -2.0862 -0.6748  1.4878
 9041SOL     OW38581   4.391   2.526   3.145 -0.7370  0.0831 -0.4343
 9041SOL    HW138582   4.475   2.539   3.102 -1.4589 -1.4295 -2.3087
 9041SOL    HW238583   4.406   2.578   3.224 -3.1940 -0.6534  0.5272
 9042SOL     OW38584   1.126   0.156   4.028  0.0856  0.0325  0.0086
 9042SOL    HW138585   1.137   0.157   4.123 -1.2420 -0.6240  0.1691
 9042SOL    HW238586   1.163   0.239   3.998 -0.5038  0.5542  0.7119
 9043SOL     OW38587   2.872   1.697   5.104 -0.2597  0.4105  0.2256
 9043SOL    HW138588   2.900   1.645   5.180 -1.8709 -1.7142 -0.6562
 9043SOL    HW238589   2.872   1.788   5.133 -2.9320 -0.4993  3.1286
 9044SOL     OW38590   0.060   1.371   0.422 -0.0175  0.6394 -0.0568
 9044SOL    HW138591   0.009   1.297   0.455  0.4717  0.8446  1.1628
 9044SOL    HW238592   0.151   1.342   0.430  0.1782  1.1725 -0.4314
 9045SOL     OW38593   1.844   2.473   0.589 -0.2732 -0.3014  0.5630
 9045SOL    HW138594   1.917   2.412   0.599 -0.0405 -0.3515 -1.4337
 9045SOL    HW238595   1.802   2.440   0.510  1.8262 -1.6324  0.0111
 9046SOL     OW38596   1.311   4.031   1.758 -0.0297 -0.0109 -0.0946
 9046SOL    HW138597   1.276   4.109   1.799  1.0351 -0.1249  1.0425
 9046SOL    HW238598   1.242   4.030   1.691  0.2552 -0.1138 -0.3901
 9047SOL     OW38599   2.405   4.558   3.519 -0.2021  0.1924 -0.0254
 9047SOL    HW138600   2.360   4.474   3.530  0.3256  0.0086  0.6961
 9047SOL    HW238601   2.434   4.576   3.608 -1.9207  2.5889  0.0462
 9048SOL     OW38602   4.296   3.005   8.474  0.1459  0.3001 -0.0229
 9048SOL    HW138603   4.219   2.948   8.482  0.8356 -0.5577  0.5664
 9048SOL    HW238604   4.268   3.096   8.479 -2.3906 -0.4759  0.1726
 9049SOL     OW38605   1.911   1.798   9.919  0.4659 -0.3220 -0.5377
 9049SOL    HW138606   1.938   1.710   9.945 -0.1364 -0.8850 -1.8143
 9049SOL    HW238607   1.905   1.799   9.823  4.2242  0.3471 -0.7546
 9050SOL     OW38608   3.449   0.692   8.198 -0.0473  0.0719  0.5067
 9050SOL    HW138609   3.476   0.697   8.289  1.5737  3.6617 -0.1699
 9050SOL    HW238610   3.444   0.785   8.176  0.4814 -0.3659 -1.4958
 9051SOL     OW38611   1.172   2.112   7.460  0.0836  0.1798  0.2778
 9051SOL    HW138612   1.211   2.084   7.543 -2.8641  1.0288  1.9598
 9051SOL    HW238613   1.225   2.187   7.432 -0.0094  0.7849  1.6902
 9052SOL     OW38614   4.603   2.431   5.853 -0.1047  0.5193 -0.0105
 9052SOL    HW138615   4.551   2.352   5.840 -0.3535  0.7134 -0.1795
 9052SOL    HW238616   4.679   2.404   5.802 -0.5288 -0.9803  0.1509
 9053SOL     OW38617   2.105   2.392   6.190  0.1315  0.4090  0.0123
 9053SOL    HW138618   2.171   2.448   6.149  0.1138  0.2389 -0.2503
 9053SOL    HW238619   2.155   2.362   6.266  0.4910 -0.1048 -0.4209
 9054SOL     OW38620   1.206   1.598  15.638 -0.3570 -0.2910 -0.2646
 9054SOL    HW138621   1.271   1.661  15.607 -0.4292  0.0649  0.3096
 9054SOL    HW238622   1.215   1.525  15.576 -0.3649  0.2135 -0.8669
 9055SOL     OW38623   3.058   2.822   7.321 -0.4192 -0.2685  0.3570
 9055SOL    HW138624   3.049   2.892   7.385 -0.4726  0.1417 -0.0962
 9055SOL    HW238625   3.001   2.755   7.359 -1.4435  0.3094 -0.1696
 9056SOL     OW38626   1.367   1.619   6.142  0.3231  0.4137  0.4288
 9056SOL    HW138627   1.312   1.682   6.096 -0.9554 -0.8646  0.1801
 9056SOL    HW238628   1.303   1.567   6.192 -0.3413 -0.2366 -1.0837
 9057SOL     OW38629   1.825   2.110  14.544  0.7212  0.3797 -0.3044
 9057SOL    HW138630   1.884   2.080  14.474  1.0842  0.6688 -0.1204
 9057SOL    HW238631   1.835   2.051  14.618 -0.4866  0.5279 -0.0212
 9058SOL     OW38632   0.729   2.845   5.019  0.4798  0.0148  0.0114
 9058SOL    HW138633   0.722   2.885   5.105  1.1421  0.6255 -0.2186
 9058SOL    HW238634   0.763   2.760   5.047  1.1179  0.1120 -0.4584
 9059SOL     OW38635   2.083   0.547   8.503  0.5397 -0.1732  0.4565
 9059SOL    HW138636   2.021   0.582   8.568  1.1400  0.4637  0.6927
 9059SOL    HW238637   2.145   0.619   8.496  0.3792 -0.2009 -1.0860
 9060SOL     OW38638   4.632   2.296   7.326  0.0100  0.2526  0.1056
 9060SOL    HW138639   4.720   2.316   7.293  1.2045  0.3609  3.4126
 9060SOL    HW238640   4.649   2.212   7.368 -0.1835 -1.0957 -2.4596
 9061SOL     OW38641   1.331   2.270  12.834 -0.0714  0.7464 -0.6602
 9061SOL    HW138642   1.400   2.278  12.900 -0.7447  0.9962  0.0061
 9061SOL    HW238643   1.362   2.320  12.759  1.5396 -1.9049 -1.7477
 9062SOL     OW38644   0.639   2.878   3.835 -0.1987  0.0175  0.4158
 9062SOL    HW138645   0.584   2.813   3.879  1.7435  0.4748  3.5592
 9062SOL    HW238646   0.696   2.907   3.907  0.0804  0.8636 -0.1463
 9063SOL     OW38647   0.391   1.415  10.382  0.6968 -0.6892 -0.0784
 9063SOL    HW138648   0.319   1.381  10.329  0.3018  0.3828 -0.2169
 9063SOL    HW238649   0.450   1.344  10.356  4.2157  2.5948 -1.0704
 9064SOL     OW38650   4.263   4.456  16.782  0.1273  0.4334  0.3093
 9064SOL    HW138651   4.240   4.368  16.812  0.8999  0.7464  1.8189
 9064SOL    HW238652   4.325   4.430  16.713 -0.7150 -0.3480 -0.1537
 9065SOL     OW38653   0.628   0.920   8.683 -0.5572  0.0313 -0.0683
 9065SOL    HW138654   0.697   0.978   8.715 -2.4951  2.1309  0.3329
 9065SOL    HW238655   0.548   0.947   8.728 -2.1727 -2.3594 -1.4729
 9066SOL     OW38656   1.838   3.805   4.262  0.3360  0.3850 -0.0107
 9066SOL    HW138657   1.860   3.899   4.263  0.2567  0.3742  2.3656
 9066SOL    HW238658   1.864   3.776   4.175 -0.7665 -0.9833  0.1103
 9067SOL     OW38659   1.545   1.000   1.484  0.2539  0.0516  0.2137
 9067SOL    HW138660   1.594   0.929   1.525  0.2264  0.6652  1.2938
 9067SOL    HW238661   1.463   0.998   1.532  0.7313 -0.8659  0.9917
 9068SOL     OW38662   4.651   1.904   8.095  0.1785 -0.3785 -0.0745
 9068SOL    HW138663   4.626   1.820   8.056 -0.9654 -0.0902  0.0415
 9068SOL    HW238664   4.678   1.947   8.014 -1.1043  0.6868  0.0491
 9069SOL     OW38665   1.790   4.161   5.040  0.0654 -0.6775 -0.5458
 9069SOL    HW138666   1.767   4.191   5.128 -0.8141  1.0425 -1.3512
 9069SOL    HW238667   1.851   4.090   5.061  1.8700  1.2162  0.5727
 9070SOL     OW38668   0.500   2.040   2.942 -0.0898  0.2563 -0.4605
 9070SOL    HW138669   0.449   1.961   2.925 -0.1661  0.0415  0.7319
 9070SOL    HW238670   0.465   2.109   2.885  0.1597  0.3426 -0.5106
 9071SOL     OW38671   4.399   3.740   9.085 -0.7526 -0.2523  0.5387
 9071SOL    HW138672   4.440   3.795   9.152 -0.2206  3.0751 -2.5516
 9071SOL    HW238673   4.313   3.746   9.127 -1.2893  0.1835 -0.6229
 9072SOL     OW38674   3.097   2.932   3.904 -0.2308 -0.4329  0.2690
 9072SOL    HW138675   3.005   2.913   3.891 -0.3449 -1.2415  2.2100
 9072SOL    HW238676   3.130   2.917   3.816  0.9444 -0.2786  0.6817
 9073SOL     OW38677   2.865   1.228   5.965 -0.0285 -0.4987  0.1078
 9073SOL    HW138678   2.823   1.143   5.970 -2.1773  0.7061  2.6685
 9073SOL    HW238679   2.942   1.213   6.020 -0.4007  2.3049  1.4164
 9074SOL     OW38680   3.885   2.948  14.619  0.5838 -0.2075 -0.5170
 9074SOL    HW138681   3.917   3.036  14.603  1.5371 -0.5595 -0.5733
 9074SOL    HW238682   3.939   2.909  14.688 -1.4789 -0.8276  0.7246
 9075SOL     OW38683   4.613   3.025   7.990  0.3930  0.3319 -0.0336
 9075SOL    HW138684   4.706   3.047   7.996  0.5577 -0.2757 -0.5144
 9075SOL    HW238685   4.584   3.116   7.980  0.0226  0.2698  0.4484
 9076SOL     OW38686   2.426   4.604   5.523 -0.6536 -0.0895  0.2931
 9076SOL    HW138687   2.486   4.537   5.553 -2.5636 -0.8008  2.5638
 9076SOL    HW238688   2.346   4.552   5.532 -1.7701  1.1507 -2.3038
 9077SOL     OW38689   1.068   1.157  14.770  0.3150  0.0607 -0.0097
 9077SOL    HW138690   1.079   1.207  14.689  0.4191 -0.2251 -0.1701
 9077SOL    HW238691   1.159   1.171  14.797  0.6861 -1.8423 -0.2850
 9078SOL     OW38692   1.154   4.404   9.273 -0.3268 -0.0506  0.2426
 9078SOL    HW138693   1.121   4.412   9.183 -2.9556  3.2849  1.5035
 9078SOL    HW238694   1.200   4.321   9.266 -0.9611 -0.3883  0.1222
 9079SOL     OW38695   1.080   4.659   5.445 -0.4817 -0.0490 -0.3348
 9079SOL    HW138696   1.071   4.598   5.372  0.2788  0.2523 -0.6873
 9079SOL    HW238697   1.147   4.721   5.415  0.1769  0.3989  2.0363
 9080SOL     OW38698   1.438   2.992   0.781  0.4065 -0.1023 -0.6555
 9080SOL    HW138699   1.385   3.055   0.732 -1.6115  0.6606  2.4888
 9080SOL    HW238700   1.498   3.051   0.828 -0.2832  1.1747 -1.3903
 9081SOL     OW38701   0.402   2.570   9.260 -0.4403  0.1923 -0.0892
 9081SOL    HW138702   0.367   2.520   9.333 -1.8297  1.5465  0.1890
 9081SOL    HW238703   0.493   2.567   9.289 -0.6103 -0.8277  0.3327
 9082SOL     OW38704   0.501   3.123   4.083 -0.5925 -0.3464 -0.1756
 9082SOL    HW138705   0.497   3.189   4.152 -1.5143  0.5230 -1.0773
 9082SOL    HW238706   0.420   3.073   4.090 -1.4143  0.6406 -2.8250
 9083SOL     OW38707   4.692   1.732   5.022 -0.2293 -0.3737  0.5336
 9083SOL    HW138708   0.012   1.789   4.958 -1.1939 -0.5673 -0.2667
 9083SOL    HW238709   4.719   1.642   5.002  2.1657  0.2558  1.0125
 9084SOL     OW38710   2.982   2.138   7.704  0.3383  0.2804  0.3034
 9084SOL    HW138711   3.066   2.092   7.695  0.5282  0.7281 -0.2415
 9084SOL    HW238712   2.910   2.076   7.701 -0.4320  1.1770  0.4549
 9085SOL     OW38713   2.240   1.397  10.423 -0.6433 -0.4482 -0.1347
 9085SOL    HW138714   2.204   1.313  10.395  0.8079 -1.5181  1.2032
 9085SOL    HW238715   2.265   1.431  10.337  2.7313 -0.4085  0.8383
 9086SOL     OW38716   3.406   3.826  17.574  0.1829 -0.2863 -0.3431
 9086SOL    HW138717   3.413   3.802  17.481  0.1615 -0.4343 -0.3065
 9086SOL    HW238718   3.393   3.738  17.607  0.6474 -0.3086 -0.2301
 9087SOL     OW38719   1.014   2.342  11.086  0.3734  0.1619  0.1346
 9087SOL    HW138720   0.927   2.347  11.046  0.6694  1.2356 -0.3761
 9087SOL    HW238721   1.058   2.399  11.023 -1.5122  0.0237 -1.2928
 9088SOL     OW38722   2.779   4.535  12.327 -0.4680 -0.3978 -0.2311
 9088SOL    HW138723   2.759   4.444  12.349 -0.3972 -0.1914  0.6637
 9088SOL    HW238724   2.814   4.567  12.410 -2.5199  0.0413  0.4583
 9089SOL     OW38725   1.252   2.330   3.969 -0.0646 -0.0425  0.0490
 9089SOL    HW138726   1.176   2.316   4.025  1.7655 -0.3281  2.4668
 9089SOL    HW238727   1.242   2.262   3.903 -0.5472 -0.3000  0.3842
 9090SOL     OW38728   3.319   1.207   9.796  0.4417 -0.2049  0.4117
 9090SOL    HW138729   3.317   1.112   9.802 -0.6158 -0.1869  0.3106
 9090SOL    HW238730   3.225   1.222   9.799  0.4392 -0.0860 -0.2001
 9091SOL     OW38731   4.721   3.879   5.529 -0.2562  0.1860 -0.2727
 9091SOL    HW138732   0.046   3.797   5.545 -1.0146 -0.2642 -0.3623
 9091SOL    HW238733   4.708   3.858   5.436 -2.7849 -0.7001  0.2860
 9092SOL     OW38734   0.387   3.263   3.612 -0.7199 -0.0820 -0.6623
 9092SOL    HW138735   0.434   3.250   3.530 -2.3719 -0.5247 -1.5172
 9092SOL    HW238736   0.419   3.352   3.629  1.4757 -1.0337  0.1961
 9093SOL     OW38737   4.385   0.310   4.924 -0.6071  0.4342  0.2597
 9093SOL    HW138738   4.383   0.322   4.829  1.6904  0.7089  0.2610
 9093SOL    HW238739   4.298   0.332   4.958 -0.4927  0.5016  0.5095
 9094SOL     OW38740   1.868   2.301   5.891 -0.0610 -0.1696 -0.4578
 9094SOL    HW138741   1.869   2.395   5.909 -0.5497 -0.1094 -0.7521
 9094SOL    HW238742   1.953   2.294   5.847 -0.4086 -1.2971 -0.9759
 9095SOL     OW38743   4.025   3.144  13.220  0.6176  1.0004 -0.5024
 9095SOL    HW138744   4.083   3.214  13.189  2.4747 -0.4306 -0.2756
 9095SOL    HW238745   4.098   3.083  13.208 -0.5248  0.6364 -5.5592
 9096SOL     OW38746   2.162   3.227   5.181 -0.0258  0.7671 -0.5518
 9096SOL    HW138747   2.067   3.224   5.183  0.0716  0.1563  2.2445
 9096SOL    HW238748   2.172   3.310   5.134 -1.6138  2.6410  2.4341
 9097SOL     OW38749   2.684   1.638   9.221 -0.3504 -0.4464 -0.4274
 9097SOL    HW138750   2.672   1.544   9.234  0.4473 -0.5653 -0.5373
 9097SOL    HW238751   2.598   1.671   9.195 -0.3454  0.2595  0.4585
 9098SOL     OW38752   4.040   0.332   6.473 -0.2212  0.2215  0.0422
 9098SOL    HW138753   4.053   0.424   6.451 -0.7134  0.6848  1.7211
 9098SOL    HW238754   4.046   0.325   6.568 -0.8983  0.1504  0.0742
 9099SOL     OW38755   1.308   2.685   4.734  0.4718 -0.2109 -0.4468
 9099SOL    HW138756   1.332   2.625   4.664 -1.3341 -0.9234 -0.4588
 9099SOL    HW238757   1.388   2.668   4.785 -1.1248  2.7782  3.0337
 9100SOL     OW38758   3.421   3.874  10.171  0.3786  0.1775  0.2337
 9100SOL    HW138759   3.372   3.891  10.090  0.6683 -2.1250 -0.4416
 9100SOL    HW238760   3.402   3.781  10.187  0.4043  0.1402  0.0583
 9101SOL     OW38761   4.017   2.974   2.792  0.0712 -0.2802 -0.2944
 9101SOL    HW138762   4.013   2.891   2.745  1.8003  0.0475 -1.0274
 9101SOL    HW238763   3.989   3.029   2.719 -0.7177  1.0140  0.9644
 9102SOL     OW38764   1.544   1.818   2.790 -0.9352  0.0014 -0.0534
 9102SOL    HW138765   1.606   1.875   2.746 -1.1403  0.4876  0.2805
 9102SOL    HW238766   1.511   1.874   2.861 -0.9858 -0.4766  0.3029
 9103SOL     OW38767   0.479   4.223   2.469 -0.4175  0.0661 -0.3370
 9103SOL    HW138768   0.460   4.313   2.494 -0.0261  0.4455 -1.4364
 9103SOL    HW238769   0.485   4.232   2.374 -1.4366 -0.1395 -0.4229
 9104SOL     OW38770   3.143   4.331   7.936 -0.2280  0.9846  0.3443
 9104SOL    HW138771   3.080   4.260   7.939 -1.3410  1.8974 -1.2902
 9104SOL    HW238772   3.184   4.327   8.022 -0.1665 -0.3527  0.2494
 9105SOL     OW38773   3.510   2.740   5.054 -0.4059  0.0004 -0.0264
 9105SOL    HW138774   3.569   2.784   5.115 -1.8560  3.5799 -1.1781
 9105SOL    HW238775   3.547   2.754   4.967 -0.4147 -0.3812 -0.0887
 9106SOL     OW38776   2.725   2.252  16.325 -0.2684 -0.0043 -0.0658
 9106SOL    HW138777   2.687   2.337  16.350 -0.3659 -0.5883  1.7771
 9106SOL    HW238778   2.738   2.276  16.233 -0.9755 -1.0394 -0.4418
 9107SOL     OW38779   0.168   1.203   9.809 -0.0587  0.2643  0.9529
 9107SOL    HW138780   0.143   1.238   9.894 -2.4587  2.3580 -0.6112
 9107SOL    HW238781   0.093   1.143   9.804  0.8940 -0.8849  0.3319
 9108SOL     OW38782   0.089   4.519  11.718  0.5074  0.2102 -0.3192
 9108SOL    HW138783   0.119   4.463  11.789 -0.1948 -0.6155 -0.6726
 9108SOL    HW238784   0.059   4.595  11.769  0.8527 -1.3305  2.1880
 9109SOL     OW38785   2.471   0.031   5.005 -0.0078  0.2578 -0.0905
 9109SOL    HW138786   2.481   4.720   5.095 -0.9445  0.3895  0.0572
 9109SOL    HW238787   2.443   4.670   4.966  1.6959 -0.9554  1.2348
 9110SOL     OW38788   2.747   4.001   9.101  0.2832  0.2796  0.4401
 9110SOL    HW138789   2.684   3.941   9.061  1.4064 -0.0352 -0.8911
 9110SOL    HW238790   2.730   4.076   9.043  1.5734  0.9525  0.9177
 9111SOL     OW38791   2.180   0.048   7.088 -0.0249 -0.0178 -0.2607
 9111SOL    HW138792   2.155   4.694   7.142  0.0055 -1.3173 -2.0318
 9111SOL    HW238793   2.232   0.009   7.018 -1.1878  0.6442 -1.4902
 9112SOL     OW38794   3.891   2.968   1.995 -0.0112  0.1137  0.4358
 9112SOL    HW138795   3.951   2.908   1.951 -1.8280 -0.6495 -1.0428
 9112SOL    HW238796   3.937   3.051   1.988 -1.5676  0.9887  0.5402
 9113SOL     OW38797   1.587   1.695   7.913  0.2608  0.1381  0.1279
 9113SOL    HW138798   1.650   1.735   7.853 -1.1347  1.1889 -0.6413
 9113SOL    HW238799   1.642   1.623   7.943 -1.3018 -2.1442 -2.4891
 9114SOL     OW38800   0.328   2.284   2.205  0.3581  0.2309 -0.1149
 9114SOL    HW138801   0.273   2.357   2.177 -0.3600 -0.0013  0.6743
 9114SOL    HW238802   0.399   2.301   2.144 -1.6512 -2.3867 -3.1898
 9115SOL     OW38803   3.996   1.450   7.371  0.2496  0.2361  0.2628
 9115SOL    HW138804   3.977   1.374   7.426 -0.2046 -0.4321 -0.8238
 9115SOL    HW238805   3.989   1.522   7.433 -0.9921 -0.2191  0.6436
 9116SOL     OW38806   3.358   3.997   8.859  0.3296 -0.1683  0.3466
 9116SOL    HW138807   3.317   3.910   8.867  0.5403 -0.1244  1.9655
 9116SOL    HW238808   3.307   4.049   8.921  0.2843 -0.2416  0.3710
 9117SOL     OW38809   1.447   3.130  14.952  0.6445 -0.2690 -0.2025
 9117SOL    HW138810   1.469   3.046  14.913  0.9645 -0.5295  0.5422
 9117SOL    HW238811   1.530   3.176  14.963 -0.0928  1.0907 -0.4035
 9118SOL     OW38812   3.879   1.042   3.424 -0.4843 -0.5137  0.4216
 9118SOL    HW138813   3.851   1.122   3.379 -0.6196 -1.2966 -0.8734
 9118SOL    HW238814   3.876   0.979   3.353  0.6540  0.6413 -0.6441
 9119SOL     OW38815   3.905   2.847   4.499  0.0062  0.2674  0.0001
 9119SOL    HW138816   3.963   2.782   4.460  0.4755  0.2705  0.6794
 9119SOL    HW238817   3.956   2.920   4.464  1.7254 -1.3801 -0.9210
 9120SOL     OW38818   3.574   2.300   6.993  0.1333  0.2693  0.8136
 9120SOL    HW138819   3.572   2.275   6.901 -0.6894 -0.4365  1.0241
 9120SOL    HW238820   3.480   2.306   7.009  0.3130  0.3603  1.8412
 9121SOL     OW38821   1.066   2.847  17.670  0.5894 -0.3655 -0.8107
 9121SOL    HW138822   1.058   2.771   0.041 -0.6894 -2.3491 -3.5730
 9121SOL    HW238823   1.142   2.895   0.014  0.5789  1.2364 -3.2728
 9122SOL     OW38824   1.332   1.350   2.668 -0.3394  0.1140  0.1666
 9122SOL    HW138825   1.254   1.341   2.724 -1.1095  1.4571 -0.6962
 9122SOL    HW238826   1.383   1.405   2.727  1.6607  0.2375 -1.6692
 9123SOL     OW38827   3.778   3.920   4.546 -0.0600 -0.3723 -0.5712
 9123SOL    HW138828   3.751   3.924   4.638  0.4106 -0.2698 -0.4351
 9123SOL    HW238829   3.772   3.826   4.525 -2.3168 -0.7169  1.6432
 9124SOL     OW38830   4.623   2.097   1.827  0.5233 -0.3744  0.6197
 9124SOL    HW138831   4.665   2.159   1.887 -2.1966  0.1273  1.9860
 9124SOL    HW238832   4.693   2.084   1.763  0.0388 -2.9450  0.6103
 9125SOL     OW38833   3.091   0.782   1.636 -0.3760  0.1373  0.1884
 9125SOL    HW138834   3.063   0.831   1.559  0.9370  1.3118  0.4723
 9125SOL    HW238835   3.094   0.846   1.707 -1.1037  0.7101 -0.2915
 9126SOL     OW38836   1.059   3.099   1.804 -0.6077  0.5343 -0.2153
 9126SOL    HW138837   1.015   3.152   1.870 -0.9207  0.9642 -0.7754
 9126SOL    HW238838   0.991   3.036   1.782  0.4386  0.0310 -2.0136
 9127SOL     OW38839   0.293   0.042  12.348 -0.2584  0.0444 -0.3696
 9127SOL    HW138840   0.220   0.078  12.297 -1.5358  0.6282  1.8387
 9127SOL    HW238841   0.312   0.119  12.402  0.4295 -1.0783  0.9910
 9128SOL     OW38842   1.207   4.626   6.504  0.3773  0.7057  0.2890
 9128SOL    HW138843   1.240   4.537   6.514 -1.8504 -0.3542 -1.6979
 9128SOL    HW238844   1.237   4.656   6.418 -1.6135 -0.7927 -0.9111
 9129SOL     OW38845   2.478   3.458   7.963 -0.0720  0.3563 -0.1787
 9129SOL    HW138846   2.522   3.374   7.950  2.8364  1.9667 -0.7208
 9129SOL    HW238847   2.402   3.428   8.014  0.2144  0.2766  0.2020
 9130SOL     OW38848   3.240   3.112   9.535  0.0386  0.4578  0.2847
 9130SOL    HW138849   3.249   3.200   9.498  0.6108 -0.3084 -1.3962
 9130SOL    HW238850   3.168   3.123   9.597  0.2897  1.0784  0.4662
 9131SOL     OW38851   0.271   2.968   0.584  0.1564 -0.4547 -1.1117
 9131SOL    HW138852   0.282   3.063   0.586 -3.4780 -0.0643 -0.8821
 9131SOL    HW238853   0.267   2.951   0.490  0.8637 -3.9026 -0.5381
 9132SOL     OW38854   0.154   1.432   6.713 -0.1119 -0.8682 -0.6495
 9132SOL    HW138855   0.113   1.512   6.678  1.4295 -0.0377 -0.5181
 9132SOL    HW238856   0.239   1.464   6.741 -1.0354 -0.3918  1.5559
 9133SOL     OW38857   1.031   3.914  17.434  0.3538 -0.1349  0.1126
 9133SOL    HW138858   1.014   3.981  17.499  0.5865  0.0461 -0.0158
 9133SOL    HW238859   0.950   3.914  17.382 -0.1513  0.1431  0.8967
 9134SOL     OW38860   1.542   3.225   3.582 -0.6867  0.2033 -0.3343
 9134SOL    HW138861   1.583   3.222   3.496 -0.3125  3.6793 -0.2812
 9134SOL    HW238862   1.490   3.305   3.579 -0.6052  0.2118 -1.4097
 9135SOL     OW38863   2.584   4.019  12.456 -0.4582  0.2164 -0.2983
 9135SOL    HW138864   2.625   3.936  12.480 -0.0843  0.3505 -0.4825
 9135SOL    HW238865   2.645   4.081  12.494  1.7207 -2.1517  0.0698
 9136SOL     OW38866   3.361   3.587   5.907  0.2619  0.5005  0.5374
 9136SOL    HW138867   3.441   3.544   5.936 -0.1516  2.1697  4.1511
 9136SOL    HW238868   3.369   3.591   5.812  0.8741 -1.1564  0.5188
 9137SOL     OW38869   4.588   3.393   6.382 -0.4349 -0.4234 -0.1993
 9137SOL    HW138870   4.517   3.433   6.432  0.5188  0.9170  0.0736
 9137SOL    HW238871   4.619   3.325   6.442 -1.4539  1.0425  1.9857
 9138SOL     OW38872   0.659   0.044   7.062  0.0469 -0.1534  0.4953
 9138SOL    HW138873   0.720   0.026   7.134 -0.1188 -0.3835  0.5767
 9138SOL    HW238874   0.724   0.034   6.992 -0.6208 -1.2542  0.0278
 9139SOL     OW38875   3.479   0.353  14.788 -0.2467  0.4924 -0.1590
 9139SOL    HW138876   3.463   0.429  14.843  0.8024 -0.5887  1.6192
 9139SOL    HW238877   3.462   0.277  14.843  2.0367 -1.7145 -2.4992
 9140SOL     OW38878   0.020   1.964   5.965  0.4227 -0.1946  0.4160
 9140SOL    HW138879   4.679   1.958   6.038 -0.2912 -3.2992 -0.4448
 9140SOL    HW238880   0.004   1.878   5.925 -1.2001 -0.0939  0.8721
 9141SOL     OW38881   2.636   0.523   4.837 -0.4840 -0.7062  0.6166
 9141SOL    HW138882   2.587   0.449   4.875  0.3316 -1.2150  0.6807
 9141SOL    HW238883   2.650   0.482   4.751  1.3358  0.6559  0.2766
 9142SOL     OW38884   3.296   2.111   4.151 -0.4439 -0.4940 -0.3204
 9142SOL    HW138885   3.247   2.030   4.153  0.1464 -0.8148  1.4326
 9142SOL    HW238886   3.386   2.079   4.161 -0.3432 -0.0431  0.2515
 9143SOL     OW38887   3.020   0.685   6.788  0.1364 -0.4495 -0.0545
 9143SOL    HW138888   3.086   0.682   6.719  0.9854  0.3766  0.7301
 9143SOL    HW238889   2.948   0.733   6.749  1.5742  1.2057 -0.6715
 9144SOL     OW38890   3.321   0.314   7.173  0.6070  0.4354  0.1862
 9144SOL    HW138891   3.387   0.324   7.105  1.8205 -1.0949  1.1427
 9144SOL    HW238892   3.244   0.299   7.117 -0.9097  0.1276  2.3619
 9145SOL     OW38893   1.878   1.536   6.730  0.0590 -0.2013  0.0452
 9145SOL    HW138894   1.963   1.577   6.713 -0.2211  0.6513  0.7217
 9145SOL    HW238895   1.848   1.539   6.639 -0.8284 -2.0194  0.2666
 9146SOL     OW38896   4.599   1.215   4.746  0.2435  0.1552  0.2778
 9146SOL    HW138897   4.637   1.292   4.787  2.0131 -0.1122 -0.8611
 9146SOL    HW238898   4.625   1.146   4.808  1.2010 -0.6173 -0.9645
 9147SOL     OW38899   1.802   4.367   8.544  0.3380 -0.2749 -0.6542
 9147SOL    HW138900   1.887   4.324   8.556  0.1148 -0.7690 -0.8752
 9147SOL    HW238901   1.763   4.359   8.631  0.9802 -1.4850 -0.4765
 9148SOL     OW38902   2.225   2.611  16.318 -0.4997  0.4268 -0.6697
 9148SOL    HW138903   2.143   2.657  16.338 -0.8271 -0.4692  0.0376
 9148SOL    HW238904   2.294   2.676  16.331 -1.8781  1.5875  0.8568
 9149SOL     OW38905   3.216   3.754   8.856 -0.4150 -0.0253 -0.3562
 9149SOL    HW138906   3.123   3.756   8.881  0.1830 -0.3782  1.9070
 9149SOL    HW238907   3.210   3.795   8.770 -1.8794  0.7592  0.1104
 9150SOL     OW38908   1.147   1.132   9.738  0.2718  0.4351 -0.4337
 9150SOL    HW138909   1.114   1.219   9.715  1.8485  0.6187 -1.9637
 9150SOL    HW238910   1.091   1.122   9.815  0.7709  1.3805  0.0582
 9151SOL     OW38911   4.503   3.165   0.026 -0.0167 -0.7324  0.1047
 9151SOL    HW138912   4.572   3.107   0.059  0.7199 -0.4329 -0.9148
 9151SOL    HW238913   4.439   3.167   0.097  0.5147 -1.7917  0.6186
 9152SOL     OW38914   0.206   1.080   1.466 -0.2267 -0.0856  0.1107
 9152SOL    HW138915   0.243   0.998   1.431  1.2339  0.9423 -0.7615
 9152SOL    HW238916   0.291   1.124   1.469  1.7311 -3.8336  0.8795
 9153SOL     OW38917   4.514   3.966   4.457  0.0301 -0.4127  0.0432
 9153SOL    HW138918   4.437   4.014   4.487  1.0989  0.8062  0.7740
 9153SOL    HW238919   4.549   3.953   4.544  0.7712 -2.4158 -0.5539
 9154SOL     OW38920   2.400   0.357   4.157 -0.1812 -0.3880 -0.3885
 9154SOL    HW138921   2.357   0.441   4.173  0.8189  0.2222 -0.9733
 9154SOL    HW238922   2.336   0.320   4.096 -3.3444  1.2542  1.9074
 9155SOL     OW38923   2.038   0.178   3.150  0.3799  0.1593 -0.4703
 9155SOL    HW138924   2.111   0.218   3.197 -0.4530  1.5664 -0.3935
 9155SOL    HW238925   1.973   0.248   3.148  0.0471 -0.1278  0.1581
 9156SOL     OW38926   0.435   4.597   1.938 -0.1323  0.4297 -0.1086
 9156SOL    HW138927   0.526   4.598   1.910 -0.0305 -0.6109  0.2040
 9156SOL    HW238928   0.433   4.581   2.032  0.7288  3.2223  0.3841
 9157SOL     OW38929   3.229   0.844  15.303 -0.6193 -0.1233 -0.3092
 9157SOL    HW138930   3.221   0.816  15.212  1.6867 -0.9366 -0.2727
 9157SOL    HW238931   3.171   0.919  15.317 -0.5565  0.2946 -2.2766
 9158SOL     OW38932   2.749   3.247   9.844 -0.8014  0.7016 -0.2184
 9158SOL    HW138933   2.774   3.314   9.780  0.4172 -1.3975 -1.9265
 9158SOL    HW238934   2.754   3.294   9.927  0.5861  0.6441 -0.2618
 9159SOL     OW38935   2.861   4.438  13.458 -0.1197 -0.2456 -0.3391
 9159SOL    HW138936   2.802   4.441  13.533 -1.2469  1.4260 -1.3055
 9159SOL    HW238937   2.876   4.343  13.454  0.7017 -0.0812 -1.2385
 9160SOL     OW38938   4.716   4.163   5.394 -0.2859  0.3947 -0.1811
 9160SOL    HW138939   4.637   4.197   5.351  0.0292  0.4807 -0.6947
 9160SOL    HW238940   4.675   4.122   5.470  0.2453  1.2431  0.5641
 9161SOL     OW38941   1.212   2.799   3.834 -0.0517  0.0044  0.6592
 9161SOL    HW138942   1.264   2.732   3.877 -0.8944 -1.3207 -0.3666
 9161SOL    HW238943   1.273   2.829   3.767 -0.4400 -0.5508  0.0518
 9162SOL     OW38944   0.415   3.642   1.705 -0.3195  0.3922  0.0072
 9162SOL    HW138945   0.428   3.608   1.793 -0.0044  0.0436 -0.1735
 9162SOL    HW238946   0.451   3.569   1.654 -1.8583 -0.1607 -0.2775
 9163SOL     OW38947   1.491   4.378   8.357  0.0660 -0.2057  0.2834
 9163SOL    HW138948   1.550   4.452   8.354  0.3306 -0.4255  0.0815
 9163SOL    HW238949   1.406   4.409   8.388  0.3183  2.0508 -1.3432
 9164SOL     OW38950   3.730   4.304   3.284  0.3493 -0.1760  0.3456
 9164SOL    HW138951   3.808   4.267   3.243  1.5936  0.5731  1.9800
 9164SOL    HW238952   3.770   4.346   3.361  0.2448 -0.4881  0.5702
 9165SOL     OW38953   1.233   1.162  12.468  0.6053  0.7763  0.0453
 9165SOL    HW138954   1.247   1.140  12.561  0.0307 -0.9007 -0.2558
 9165SOL    HW238955   1.175   1.090  12.444  0.0307  0.5728  2.0164
 9166SOL     OW38956   0.803   3.917   4.513  0.5271  0.5963 -0.1192
 9166SOL    HW138957   0.888   3.925   4.470 -0.0105 -0.7452 -1.4324
 9166SOL    HW238958   0.773   4.008   4.510 -1.7935 -0.2746 -3.3612
 9167SOL     OW38959   2.404   1.782   2.586 -0.0832 -0.8852 -0.6141
 9167SOL    HW138960   2.468   1.727   2.631  2.0427 -0.9911 -3.7602
 9167SOL    HW238961   2.431   1.773   2.494  1.7368  0.5732 -0.2343
 9168SOL     OW38962   2.784   3.477   9.128  0.4160  0.0098 -0.0832
 9168SOL    HW138963   2.782   3.386   9.099  1.5685  0.0841 -0.3748
 9168SOL    HW238964   2.855   3.473   9.191 -0.8454 -1.3696  1.2621
 9169SOL     OW38965   4.515   1.101   3.134  0.2507 -0.8497  0.0725
 9169SOL    HW138966   4.499   1.019   3.088 -2.7805  0.4235 -1.1811
 9169SOL    HW238967   4.559   1.071   3.213  0.5322 -0.3044  0.1237
 9170SOL     OW38968   1.075   0.426  15.314 -0.0258  0.0147 -0.1653
 9170SOL    HW138969   1.110   0.506  15.354 -0.5274 -0.3740  1.0372
 9170SOL    HW238970   1.070   0.453  15.222  0.4264  0.6736  0.0086
 9171SOL     OW38971   0.574   1.143   2.193 -0.1801 -0.2499  0.6153
 9171SOL    HW138972   0.603   1.234   2.195 -1.5360  0.1801  0.9981
 9171SOL    HW238973   0.499   1.154   2.252 -1.6404 -0.0228 -1.3141
 9172SOL     OW38974   2.360   3.916  17.050  0.3635  0.0437  0.3911
 9172SOL    HW138975   2.264   3.910  17.041  0.4371  0.7732 -0.7720
 9172SOL    HW238976   2.390   3.916  16.959  1.5056 -0.8181  0.7724
 9173SOL     OW38977   2.982   4.696   8.122  0.4333  0.0864  0.4114
 9173SOL    HW138978   2.967   0.069   8.124 -0.0957 -0.0035  0.7571
 9173SOL    HW238979   2.900   4.665   8.081  1.5035  0.8632 -2.3364
 9174SOL     OW38980   2.476   2.525   0.460 -0.2305 -0.3510  0.5436
 9174SOL    HW138981   2.493   2.536   0.553 -2.1302  1.4758  0.6769
 9174SOL    HW238982   2.456   2.434   0.436  1.5537 -1.2053  2.3482
 9175SOL     OW38983   3.797   2.196  17.674  0.1136  0.5148  0.7135
 9175SOL    HW138984   3.837   2.165   0.068 -1.5329 -1.7034  0.6686
 9175SOL    HW238985   3.866   2.187  17.609 -1.8490 -1.1697 -1.1495
 9176SOL     OW38986   0.145   1.243   6.897  0.3545 -0.0470  0.5110
 9176SOL    HW138987   0.165   1.318   6.841  1.5775  0.7472  2.0150
 9176SOL    HW238988   0.071   1.215   6.842 -1.0203  0.6458  2.0151
 9177SOL     OW38989   0.863   3.794   4.752  0.1259  0.1255  0.2353
 9177SOL    HW138990   0.952   3.823   4.771 -0.2530  2.2916 -1.2475
 9177SOL    HW238991   0.838   3.850   4.678 -2.1038  0.5793  1.3091
 9178SOL     OW38992   4.198   2.525  14.735  0.1281 -0.2166 -0.1036
 9178SOL    HW138993   4.211   2.616  14.762 -0.9887 -0.3158  0.7719
 9178SOL    HW238994   4.229   2.474  14.811 -0.7778  0.4407  0.7088
 9179SOL     OW38995   2.348   4.281   8.224  0.1281 -0.6103  0.2009
 9179SOL    HW138996   2.255   4.264   8.239 -0.3452  1.9974  0.0841
 9179SOL    HW238997   2.349   4.367   8.183 -1.4990 -0.9601 -0.5731
 9180SOL     OW38998   3.507   2.182   6.716 -0.3361  0.3649  0.0559
 9180SOL    HW138999   3.472   2.271   6.713 -1.1379  0.0581  0.2906
 9180SOL    HW239000   3.423   2.142   6.739  0.0837 -0.4210  0.2252
 9181SOL     OW39001   0.989   4.668   7.539  0.3051 -0.0297 -0.0195
 9181SOL    HW139002   1.024   0.023   7.494  2.3579 -2.2742 -2.1540
 9181SOL    HW239003   0.996   4.690   7.632 -0.0001 -0.6039  0.1379
 9182SOL     OW39004   3.252   3.464   1.216  0.6407 -0.5226  0.1226
 9182SOL    HW139005   3.247   3.382   1.264  2.4980 -1.8849 -2.0445
 9182SOL    HW239006   3.261   3.526   1.288 -1.9555 -0.5760  0.5181
 9183SOL     OW39007   3.038   3.495   8.666  0.1247  0.5450 -0.1202
 9183SOL    HW139008   2.955   3.528   8.698  0.5551  2.1087 -0.6219
 9183SOL    HW239009   3.061   3.465   8.754 -2.5194  2.7720  1.3159
 9184SOL     OW39010   2.804   0.560   5.808  0.1903  0.2413  0.5742
 9184SOL    HW139011   2.879   0.537   5.863  1.4689  0.5596 -1.0233
 9184SOL    HW239012   2.778   0.471   5.784 -0.5642  1.1782 -2.0489
 9185SOL     OW39013   0.971   2.407   4.001  0.1934 -0.2699 -0.1735
 9185SOL    HW139014   0.922   2.380   4.079 -0.3634 -3.3144 -1.5804
 9185SOL    HW239015   0.947   2.499   3.992 -1.4909 -0.7253 -0.2249
 9186SOL     OW39016   0.821   1.833   1.483  1.0081 -0.0293  0.1221
 9186SOL    HW139017   0.730   1.854   1.505  0.4951 -1.2315 -0.8759
 9186SOL    HW239018   0.835   1.757   1.540 -2.6205 -0.5622  0.3496
 9187SOL     OW39019   1.530   2.052   8.289  0.2912 -0.0959  0.2905
 9187SOL    HW139020   1.468   2.045   8.362  1.3886 -1.3071  1.1082
 9187SOL    HW239021   1.517   1.978   8.228  0.3330  0.0705  0.0788
 9188SOL     OW39022   4.029   1.985  14.614  0.3404 -0.5667 -0.3674
 9188SOL    HW139023   4.020   1.970  14.520 -1.2698 -0.0300 -0.2904
 9188SOL    HW239024   3.974   2.057  14.641  1.0555 -0.2678  0.2961
 9189SOL     OW39025   0.661   0.864   7.154  0.6356 -0.1168  0.0832
 9189SOL    HW139026   0.593   0.859   7.221  1.4564 -0.1879  0.8989
 9189SOL    HW239027   0.630   0.798   7.091  0.5225  1.7125 -1.7842
 9190SOL     OW39028   0.039   1.174   4.160  0.0979 -0.1602  0.5212
 9190SOL    HW139029   0.133   1.188   4.150 -0.3190  2.8650  0.8335
 9190SOL    HW239030   0.024   1.190   4.253 -0.3128  2.3374  0.0294
 9191SOL     OW39031   0.508   1.588   9.400 -0.0532 -0.6172  0.3551
 9191SOL    HW139032   0.427   1.536   9.397 -0.5740  0.0527  2.8867
 9191SOL    HW239033   0.546   1.553   9.320 -1.8224 -0.2360 -0.6557
 9192SOL     OW39034   4.407   1.481   9.402  0.3265  0.3834  0.3396
 9192SOL    HW139035   4.449   1.511   9.483 -1.9783  0.4449  1.5148
 9192SOL    HW239036   4.388   1.391   9.427 -2.7749  0.6653 -0.9831
 9193SOL     OW39037   0.561   3.049   2.917 -0.0013 -0.0147 -0.2105
 9193SOL    HW139038   0.610   3.062   2.836 -1.8696  0.8931 -1.1762
 9193SOL    HW239039   0.478   3.049   2.871  1.3473 -1.3457 -2.6413
 9194SOL     OW39040   1.862   1.037  10.357 -0.1804 -0.0258  0.2312
 9194SOL    HW139041   1.814   1.039  10.275 -2.3707  3.0262  1.5839
 9194SOL    HW239042   1.942   0.991  10.334  0.8110  0.8831  1.8102
 9195SOL     OW39043   1.394   4.712   3.914  0.4211 -0.3395  0.5569
 9195SOL    HW139044   1.386   4.676   3.825  1.6935 -0.6313  0.5717
 9195SOL    HW239045   1.321   0.052   3.906 -0.3323 -1.3627 -0.5424
 9196SOL     OW39046   1.430   4.184  15.890  0.7672 -0.1095  0.2557
 9196SOL    HW139047   1.376   4.110  15.863  0.2928 -0.2647  1.5926
 9196SOL    HW239048   1.361   4.248  15.872 -1.3360 -2.0066  1.6092
 9197SOL     OW39049   0.305   2.380  14.031  0.3935 -0.0057 -0.2929
 9197SOL    HW139050   0.289   2.469  14.061  0.6785  0.1689 -0.6653
 9197SOL    HW239051   0.400   2.369  14.025  0.3490  0.7080 -2.3465
 9198SOL     OW39052   4.501   3.467   4.683 -0.0641  1.0863  0.0919
 9198SOL    HW139053   4.436   3.439   4.618  0.5935  0.7082 -0.4052
 9198SOL    HW239054   4.443   3.460   4.759 -0.0233 -1.7817 -0.1157
 9199SOL     OW39055   4.672   1.105   8.299 -0.2420  0.1422 -0.1625
 9199SOL    HW139056   0.046   1.099   8.290 -0.2457  1.9563 -1.4478
 9199SOL    HW239057   4.651   1.191   8.263  1.0768  0.9806  1.0942
 9200SOL     OW39058   2.595   1.926   1.228 -0.1796 -0.7459  0.2387
 9200SOL    HW139059   2.501   1.945   1.227 -0.3644 -1.6995 -0.2948
 9200SOL    HW239060   2.616   1.971   1.146  0.4249 -0.1125  0.7413
 9201SOL     OW39061   4.653   4.379   3.733 -0.5427 -0.0073  0.4454
 9201SOL    HW139062   4.632   4.309   3.794  0.9323 -0.3043  0.6213
 9201SOL    HW239063   4.716   4.343   3.670  0.4954  2.3241  0.1231
 9202SOL     OW39064   4.456   4.497  15.657  0.4927  0.1304 -0.0295
 9202SOL    HW139065   4.539   4.454  15.639  0.5598  1.6058 -3.2579
 9202SOL    HW239066   4.464   4.522  15.749  0.8945 -0.5623  0.1190
 9203SOL     OW39067   4.076   4.467  16.534 -0.4276  0.3513 -0.0029
 9203SOL    HW139068   4.123   4.435  16.611  0.0487 -1.0246 -0.8765
 9203SOL    HW239069   4.111   4.422  16.458 -0.6752 -0.1044  0.1501
 9204SOL     OW39070   0.792   2.429   1.231 -0.3705 -0.1205 -0.2734
 9204SOL    HW139071   0.814   2.435   1.138 -0.9638  1.6491 -0.2986
 9204SOL    HW239072   0.775   2.335   1.240 -0.9214  0.1591  1.5472
 9205SOL     OW39073   2.533   2.851   4.385  0.0547  0.8694  0.4553
 9205SOL    HW139074   2.609   2.865   4.328 -0.1838 -0.8049 -0.2792
 9205SOL    HW239075   2.575   2.779   4.432 -1.9115 -0.8733 -0.4773
 9206SOL     OW39076   1.421   0.873  12.165 -0.5044  0.9594 -0.3296
 9206SOL    HW139077   1.370   0.950  12.142  2.9830  3.0801 -0.9669
 9206SOL    HW239078   1.398   0.882  12.258  0.6514  0.1491  0.0436
 9207SOL     OW39079   3.321   2.914   4.798  0.0827  0.1348 -0.1002
 9207SOL    HW139080   3.362   2.999   4.811  0.1690  0.0110  0.4392
 9207SOL    HW239081   3.227   2.914   4.813  0.3090 -1.4152  1.4225
 9208SOL     OW39082   2.151   3.629   8.702 -0.1507 -0.3462  0.1301
 9208SOL    HW139083   2.158   3.536   8.721 -0.6468 -0.4755 -0.3448
 9208SOL    HW239084   2.086   3.628   8.632  0.1336  2.2400 -0.1797
 9209SOL     OW39085   0.198   0.522   3.814  0.6022 -0.2227 -0.3281
 9209SOL    HW139086   0.187   0.451   3.751 -2.7513  1.3437 -1.4865
 9209SOL    HW239087   0.110   0.525   3.851  1.5623  0.4921  1.9137
 9210SOL     OW39088   0.343   2.388   0.117 -0.4801 -0.1200 -0.3167
 9210SOL    HW139089   0.391   2.347   0.190  1.2588 -1.2397 -2.1062
 9210SOL    HW239090   0.268   2.412   0.170  0.6670 -1.5967  2.0144
 9211SOL     OW39091   4.106   0.765   4.304 -0.2155  0.6715  0.4922
 9211SOL    HW139092   4.109   0.795   4.394  0.7970 -0.5302  0.8597
 9211SOL    HW239093   4.039   0.697   4.307 -2.1695  2.6306  1.2166
 9212SOL     OW39094   2.217   3.420   2.355 -0.2215 -0.2045 -0.7059
 9212SOL    HW139095   2.152   3.404   2.287 -0.8601  1.3068 -0.4462
 9212SOL    HW239096   2.197   3.505   2.393  3.5126 -0.8153  2.6224
 9213SOL     OW39097   2.014   2.635   8.110 -0.2878  0.2458  0.4500
 9213SOL    HW139098   1.950   2.564   8.097 -1.0723  1.5984 -3.0492
 9213SOL    HW239099   1.962   2.709   8.078 -0.6011 -0.9551 -1.8024
 9214SOL     OW39100   1.359   1.454  15.439  0.1620 -0.6906  0.0180
 9214SOL    HW139101   1.388   1.537  15.401 -1.7269  0.2258  0.5627
 9214SOL    HW239102   1.410   1.395  15.384  2.2483 -0.3547  1.5907
 9215SOL     OW39103   0.072   1.504  10.724 -0.0562  0.6278  0.1464
 9215SOL    HW139104   0.032   1.583  10.686  0.0210  0.4016 -0.4061
 9215SOL    HW239105   0.059   1.523  10.817 -0.1180 -0.9034  0.4531
 9216SOL     OW39106   1.168   2.969   3.466 -0.1212 -0.2728 -0.2036
 9216SOL    HW139107   1.186   3.034   3.397 -4.0944  0.0736 -0.9485
 9216SOL    HW239108   1.085   3.004   3.499  0.9828  1.1861  1.0562
 9217SOL     OW39109   0.027   4.138   9.558 -0.0143 -0.2283  0.5757
 9217SOL    HW139110   4.700   4.058   9.538 -1.9142  0.4629  2.3941
 9217SOL    HW239111   4.720   4.149   9.649 -1.7083  2.7787 -0.3063
 9218SOL     OW39112   1.363   1.998   7.011 -0.2835 -0.1040  0.2451
 9218SOL    HW139113   1.372   1.975   6.918 -1.4264 -1.3132  0.4261
 9218SOL    HW239114   1.430   2.065   7.017 -0.0784 -0.4043  1.2720
 9219SOL     OW39115   0.944   2.826   3.868 -0.0677 -0.1484  0.7380
 9219SOL    HW139116   0.933   2.769   3.793 -0.4528 -0.1534  0.7981
 9219SOL    HW239117   1.039   2.816   3.864  0.1125  1.5687  0.5267
 9220SOL     OW39118   3.322   1.086   2.507 -0.1935  0.3827  0.0304
 9220SOL    HW139119   3.258   1.022   2.537 -1.9370  1.4604 -1.4297
 9220SOL    HW239120   3.301   1.108   2.416  2.3069  1.2448 -0.3402
 9221SOL     OW39121   0.777   3.741  13.203 -0.4299 -0.4486 -0.2545
 9221SOL    HW139122   0.809   3.652  13.220  1.1751 -0.1334 -1.6217
 9221SOL    HW239123   0.850   3.801  13.221 -0.1971 -0.8929  0.2930
 9222SOL     OW39124   0.119   3.918  11.476 -0.5940 -0.3142 -0.1539
 9222SOL    HW139125   0.119   3.937  11.382  2.6679 -4.0760 -0.9053
 9222SOL    HW239126   0.037   3.960  11.501 -0.0503  1.0989 -0.7187
 9223SOL     OW39127   3.741   0.985   3.658 -0.0147  0.1118 -0.4686
 9223SOL    HW139128   3.804   1.011   3.591  0.6886 -2.3283 -0.7619
 9223SOL    HW239129   3.772   1.042   3.727  0.8109  0.1197 -0.8425
 9224SOL     OW39130   0.214   4.092   3.958  0.1097  0.3159  0.4969
 9224SOL    HW139131   0.120   4.112   3.964 -0.4146 -2.0300  0.0421
 9224SOL    HW239132   0.230   4.014   4.010  0.8592 -0.0217 -0.2548
 9225SOL     OW39133   4.371   0.383  16.566 -0.7868 -0.7765 -0.0616
 9225SOL    HW139134   4.416   0.467  16.568 -3.7137  0.8149 -0.9527
 9225SOL    HW239135   4.279   0.410  16.574 -0.0767  2.0020 -1.3212
 9226SOL     OW39136   2.867   0.390  13.939  0.2246 -0.3520 -0.1913
 9226SOL    HW139137   2.833   0.418  14.024 -0.4584 -1.0962 -0.2178
 9226SOL    HW239138   2.822   0.307  13.923 -0.1696 -0.2679  0.4846
 9227SOL     OW39139   2.403   3.109  13.547  0.3496 -0.0046 -0.6735
 9227SOL    HW139140   2.348   3.035  13.522  1.8361 -0.8247 -1.5534
 9227SOL    HW239141   2.337   3.178  13.543 -1.1280 -1.4409 -1.2002
 9228SOL     OW39142   4.579   3.053  10.571  0.4188 -0.2890  0.0330
 9228SOL    HW139143   4.629   3.129  10.600 -2.6846  0.9576  2.0682
 9228SOL    HW239144   4.620   2.981  10.619  0.0863  0.9936  2.2106
 9229SOL     OW39145   2.567   3.458   7.642  0.3026  0.2448 -0.4137
 9229SOL    HW139146   2.606   3.516   7.708  1.6572 -0.7193 -0.3790
 9229SOL    HW239147   2.501   3.523   7.618  0.0648  0.7611  1.5943
 9230SOL     OW39148   2.017   2.389   2.277 -0.4471  0.1750 -0.6691
 9230SOL    HW139149   1.969   2.310   2.302 -0.4726  0.6517  0.7707
 9230SOL    HW239150   1.943   2.441   2.245 -0.6224  0.1764 -0.2600
 9231SOL     OW39151   1.259   0.089  14.548  0.1293  0.8605  0.1214
 9231SOL    HW139152   1.266   0.100  14.453  1.8937 -3.0875 -0.2071
 9231SOL    HW239153   1.344   0.051  14.571 -0.5724 -0.6122  0.2857
 9232SOL     OW39154   0.096   1.276   8.565 -0.1099 -0.1387 -0.3585
 9232SOL    HW139155   0.104   1.190   8.523  2.0271  0.5373 -1.3215
 9232SOL    HW239156   0.186   1.305   8.553  0.0102 -0.4080 -0.1159
 9233SOL     OW39157   2.027   3.060   3.797 -0.9073  0.0225 -0.5714
 9233SOL    HW139158   1.934   3.070   3.779 -0.6992  1.0703 -1.0917
 9233SOL    HW239159   2.034   2.968   3.823 -1.7294  0.5394  1.4767
 9234SOL     OW39160   1.575   0.692   4.621  0.3119 -0.3750 -0.1626
 9234SOL    HW139161   1.667   0.669   4.630  0.0643 -1.6343 -0.8400
 9234SOL    HW239162   1.535   0.606   4.610 -0.3800  0.0284 -0.7680
 9235SOL     OW39163   1.225   3.445   6.761 -0.2142  0.2751 -0.2727
 9235SOL    HW139164   1.266   3.466   6.845  1.1951  0.3821 -0.9732
 9235SOL    HW239165   1.132   3.456   6.777 -0.4256  0.7276 -1.8649
 9236SOL     OW39166   4.167   4.345  12.619 -0.3920 -0.0943  0.2537
 9236SOL    HW139167   4.239   4.404  12.592  0.3032  0.0981  2.5570
 9236SOL    HW239168   4.143   4.321  12.529 -0.3126 -0.7496  0.4067
 9237SOL     OW39169   0.299   2.320   3.466 -0.2285  0.2772  0.1685
 9237SOL    HW139170   0.322   2.356   3.380 -2.9654 -0.1901 -0.7748
 9237SOL    HW239171   0.228   2.259   3.445 -0.8846  0.7208  1.0585
 9238SOL     OW39172   3.136   3.536   9.604  0.2854 -0.5497  0.6843
 9238SOL    HW139173   3.082   3.602   9.561  1.5211  0.0186  0.0225
 9238SOL    HW239174   3.192   3.588   9.662  1.2255  1.7969 -2.3718
 9239SOL     OW39175   1.790   0.127   5.438  0.9102 -0.8513 -0.1792
 9239SOL    HW139176   1.824   0.216   5.431  0.6898 -0.6867  0.9126
 9239SOL    HW239177   1.820   0.109   5.527 -0.4407 -0.5346  0.3407
 9240SOL     OW39178   1.210   3.234   9.458 -0.0799  0.5061  0.0655
 9240SOL    HW139179   1.231   3.150   9.498 -2.0940  1.0891  2.3266
 9240SOL    HW239180   1.290   3.248   9.407 -1.3117  0.4833 -1.9048
 9241SOL     OW39181   2.418   0.119  11.010  0.2360 -0.3670  0.6019
 9241SOL    HW139182   2.352   0.173  10.967  3.0028  0.6558 -2.3664
 9241SOL    HW239183   2.369   0.099  11.090  0.6091  0.7063  1.0996
 9242SOL     OW39184   0.429   1.301   2.954  0.3964  0.1536 -0.4938
 9242SOL    HW139185   0.412   1.353   3.032 -1.9034 -1.4003  0.0441
 9242SOL    HW239186   0.392   1.350   2.881 -1.0998 -1.2557 -0.6805
 9243SOL     OW39187   3.513   1.032   8.985 -0.3361  0.1888  0.0591
 9243SOL    HW139188   3.525   0.940   9.008  0.1371  0.3036  0.2617
 9243SOL    HW239189   3.423   1.029   8.952 -0.7139  2.4635  0.8669
 9244SOL     OW39190   3.522   1.644   3.831 -0.1436  0.1443  0.3632
 9244SOL    HW139191   3.615   1.627   3.814 -0.1418 -1.0838  1.5720
 9244SOL    HW239192   3.514   1.726   3.782 -0.2539 -0.8017 -1.2086
 9245SOL     OW39193   3.709   0.911   4.915  0.1847 -0.2142  0.0491
 9245SOL    HW139194   3.642   0.851   4.881  0.3165 -0.0553 -0.4914
 9245SOL    HW239195   3.663   0.995   4.923  1.5749  0.6498 -0.9621
 9246SOL     OW39196   1.779   2.541   7.479 -0.1805  0.5146 -0.3687
 9246SOL    HW139197   1.727   2.592   7.541 -0.7723  1.2591 -1.4802
 9246SOL    HW239198   1.860   2.590   7.489  0.8300 -1.5205  1.4317
 9247SOL     OW39199   1.368   3.558   3.003 -0.1309  0.2328  0.3312
 9247SOL    HW139200   1.418   3.559   2.922  0.8075 -0.3719  0.9085
 9247SOL    HW239201   1.444   3.562   3.060 -1.3868  0.6757  1.9912
 9248SOL     OW39202   2.928   2.719   2.463 -0.1099  0.8011  0.2899
 9248SOL    HW139203   3.001   2.658   2.464  1.7224  2.9650  1.3912
 9248SOL    HW239204   2.946   2.775   2.540  0.9705 -1.8004  1.9311
 9249SOL     OW39205   0.394   0.943   2.812 -0.3110  0.1156  0.4607
 9249SOL    HW139206   0.396   0.861   2.762  2.3173  0.3122  0.2205
 9249SOL    HW239207   0.334   0.994   2.758 -0.8141 -2.0855 -1.0482
 9250SOL     OW39208   2.012   2.652   7.441 -0.2009 -0.0874  0.9880
 9250SOL    HW139209   2.061   2.618   7.516  2.9629  3.4126  0.5029
 9250SOL    HW239210   2.081   2.672   7.378 -1.1578 -0.3115 -0.1379
 9251SOL     OW39211   1.575   4.511  14.820 -0.2365 -0.0099 -0.1931
 9251SOL    HW139212   1.655   4.505  14.768  0.8390  0.7521  1.3824
 9251SOL    HW239213   1.604   4.478  14.905 -2.2890 -0.7485  0.2062
 9252SOL     OW39214   2.003   2.379   6.871  0.2218 -0.4371 -0.2152
 9252SOL    HW139215   1.937   2.391   6.803  1.6809 -2.6215 -1.9956
 9252SOL    HW239216   2.088   2.374   6.828  1.1730 -0.6432  1.6560
 9253SOL     OW39217   3.320   2.420   8.052  0.3136 -0.2436 -0.0833
 9253SOL    HW139218   3.321   2.512   8.023 -0.0945 -0.4937 -0.8801
 9253SOL    HW239219   3.378   2.415   8.128 -1.2592 -0.7651  1.0747
 9254SOL     OW39220   3.415   3.157   6.959 -0.1340 -0.5610  0.1433
 9254SOL    HW139221   3.489   3.145   7.018 -0.5288 -0.8264  0.5788
 9254SOL    HW239222   3.353   3.203   7.015  0.8005  1.8483 -0.7959
 9255SOL     OW39223   1.534   2.465   7.036  0.7581 -0.0022  0.0259
 9255SOL    HW139224   1.480   2.544   7.034 -0.5252 -0.9031 -1.2935
 9255SOL    HW239225   1.607   2.482   7.095  1.0345 -0.5830 -0.1500
 9256SOL     OW39226   3.040   1.510   7.032 -0.3997 -0.1778  0.3907
 9256SOL    HW139227   2.981   1.580   7.004 -0.7505 -0.0122  1.5327
 9256SOL    HW239228   3.118   1.562   7.055  1.3855 -1.3618 -2.9180
 9257SOL     OW39229   1.055   3.814  15.867  0.0692  0.0185 -0.0734
 9257SOL    HW139230   1.074   3.772  15.784  0.3194 -0.9191  0.4545
 9257SOL    HW239231   0.964   3.843  15.859  0.0768 -0.8982 -3.3113
 9258SOL     OW39232   0.185   2.952  10.020 -0.2429 -0.0495 -0.7584
 9258SOL    HW139233   0.141   2.868  10.031  0.8739 -0.7449 -1.6977
 9258SOL    HW239234   0.108   3.008  10.010 -0.3068  0.0336  0.1345
 9259SOL     OW39235   0.228   3.875  11.760 -0.3659  0.0889 -0.0602
 9259SOL    HW139236   0.196   3.864  11.670 -1.9132  1.8109  0.2824
 9259SOL    HW239237   0.313   3.919  11.759 -1.0812  1.4698 -0.9853
 9260SOL     OW39238   1.981   2.885  17.348  0.1301  0.0483 -0.2218
 9260SOL    HW139239   2.045   2.849  17.409  0.5090  1.4217  0.1993
 9260SOL    HW239240   2.026   2.874  17.264  1.2425 -0.3192  0.4250
 9261SOL     OW39241   3.579   4.060   9.215 -0.2527 -0.4057 -0.7412
 9261SOL    HW139242   3.655   4.085   9.268 -0.9735  1.8380 -0.7429
 9261SOL    HW239243   3.607   4.072   9.124  2.3916 -0.8689  0.0008
 9262SOL     OW39244   0.133   2.401   3.891 -0.4614  0.2988  0.4003
 9262SOL    HW139245   0.150   2.379   3.799  0.0614  1.2902  0.2598
 9262SOL    HW239246   0.199   2.340   3.924 -1.7121 -0.8818  0.7308
 9263SOL     OW39247   0.618   2.130   5.294  0.0856  0.1635  0.1312
 9263SOL    HW139248   0.670   2.049   5.299  1.7154  1.2798  1.6649
 9263SOL    HW239249   0.529   2.098   5.284  0.1434  0.2128 -0.5554
 9264SOL     OW39250   2.301   0.357   4.570 -0.0721 -0.0892  0.1666
 9264SOL    HW139251   2.291   0.265   4.595 -0.1833  0.2744  1.4914
 9264SOL    HW239252   2.395   0.354   4.552 -0.4978 -0.1803 -1.9742
 9265SOL     OW39253   0.458   0.228   6.949  0.3259 -0.5748  0.3796
 9265SOL    HW139254   0.526   0.194   7.007  2.6687  1.3492 -1.2507
 9265SOL    HW239255   0.509   0.225   6.868  0.3966  1.4606  0.3654
 9266SOL     OW39256   0.180   0.433   2.283 -0.0976  0.5390  0.2829
 9266SOL    HW139257   0.106   0.465   2.334  1.0929  2.2682  0.9151
 9266SOL    HW239258   0.206   0.513   2.239  0.1763  2.1476  3.3503
 9267SOL     OW39259   4.001   3.945   9.373  0.7288 -0.5860 -0.1968
 9267SOL    HW139260   4.082   3.952   9.422  0.2278 -0.6410  0.6464
 9267SOL    HW239261   3.957   3.867   9.407  1.6049 -0.4540  1.2569
 9268SOL     OW39262   3.815   4.340   5.671 -0.1213  0.2278  0.6892
 9268SOL    HW139263   3.816   4.369   5.579 -2.2855  1.2381  0.9686
 9268SOL    HW239264   3.833   4.250   5.644 -0.6831  0.0585  0.8805
 9269SOL     OW39265   2.870   2.279   2.503 -0.5140  0.0124 -0.1998
 9269SOL    HW139266   2.866   2.352   2.441 -0.7843 -0.6600 -0.9669
 9269SOL    HW239267   2.905   2.221   2.435 -1.7758 -0.7165 -0.2254
 9270SOL     OW39268   0.879   4.004   2.985  0.0945 -0.3112 -0.1559
 9270SOL    HW139269   0.930   3.956   2.919  0.7997 -0.0194  0.1733
 9270SOL    HW239270   0.862   4.090   2.946  2.5719 -0.0521 -0.6702
 9271SOL     OW39271   3.722   3.476   7.056  0.6391  0.4990  0.3330
 9271SOL    HW139272   3.673   3.505   6.980  0.3465 -3.0133 -0.7851
 9271SOL    HW239273   3.784   3.549   7.066  2.9102 -1.1935 -1.2983
 9272SOL     OW39274   2.853   3.135  13.216 -0.0274 -0.4083 -0.6225
 9272SOL    HW139275   2.868   3.221  13.254 -1.3412 -0.8243  0.8430
 9272SOL    HW239276   2.816   3.086  13.289 -0.2657 -0.6769 -0.9220
 9273SOL     OW39277   3.423   1.955   3.850  0.6609 -0.1933  0.1541
 9273SOL    HW139278   3.442   1.928   3.760 -0.0079  0.5586 -0.2076
 9273SOL    HW239279   3.469   1.898   3.912  0.4625 -1.0744 -0.5255
 9274SOL     OW39280   2.394   0.866   8.874  0.5284 -0.1914 -0.3633
 9274SOL    HW139281   2.430   0.854   8.961  1.4672  1.7943 -0.4806
 9274SOL    HW239282   2.449   0.940   8.847  0.5872  0.2336  0.9358
 9275SOL     OW39283   3.456   0.336   9.979 -0.1649  0.5342  0.4013
 9275SOL    HW139284   3.536   0.374  10.014  0.9609 -1.7609  0.3573
 9275SOL    HW239285   3.448   0.249  10.019  1.6626  0.0980 -0.2151
 9276SOL     OW39286   1.075   0.254  17.626  0.3214 -0.3669 -0.2850
 9276SOL    HW139287   1.008   0.202  17.669  0.0255 -1.2686 -1.8500
 9276SOL    HW239288   1.052   0.340  17.662 -1.1592 -1.0028  0.2650
 9277SOL     OW39289   2.721   3.082   3.736  0.2733  0.5374  0.0008
 9277SOL    HW139290   2.765   3.011   3.782  1.5793  1.1205 -0.3534
 9277SOL    HW239291   2.779   3.106   3.663  0.2264  0.6532  0.0012
 9278SOL     OW39292   0.872   4.322  15.529  0.8419 -0.2358 -0.3969
 9278SOL    HW139293   0.914   4.373  15.459 -1.7307  0.7950 -1.2104
 9278SOL    HW239294   0.780   4.341  15.508  0.8314 -0.4700 -0.5592
 9279SOL     OW39295   2.687   3.469   5.288  0.0779  0.3425 -0.8565
 9279SOL    HW139296   2.632   3.394   5.265  0.9114 -0.5991  0.1788
 9279SOL    HW239297   2.770   3.421   5.296 -0.4746 -0.3167  1.0352
 9280SOL     OW39298   2.198   0.298  17.400  0.3385  0.1315 -0.3781
 9280SOL    HW139299   2.260   0.371  17.403  1.5521 -0.8729 -0.5578
 9280SOL    HW239300   2.147   0.317  17.322 -0.8061 -1.6834 -0.0676
 9281SOL     OW39301   0.891   2.335   9.077 -0.1784 -0.0039 -0.3367
 9281SOL    HW139302   0.946   2.358   9.001 -1.5738 -3.8991 -2.4950
 9281SOL    HW239303   0.807   2.312   9.038 -0.8328  0.6951  0.6818
 9282SOL     OW39304   1.777   3.713   7.644 -0.5397 -0.2609 -0.0220
 9282SOL    HW139305   1.851   3.675   7.597 -0.8697 -1.1832  0.2098
 9282SOL    HW239306   1.763   3.791   7.590  1.5612 -0.2397 -0.5034
 9283SOL     OW39307   4.052   0.472   8.050 -0.3611  0.4345  0.2880
 9283SOL    HW139308   4.087   0.548   8.003  0.3391  0.0636  0.2201
 9283SOL    HW239309   3.983   0.449   7.988  0.2556  0.4524 -0.4022
 9284SOL     OW39310   0.734   0.745   4.975  0.4833 -0.0680  0.0641
 9284SOL    HW139311   0.792   0.808   5.017  1.6011 -1.3470  0.4158
 9284SOL    HW239312   0.762   0.660   5.010 -0.0584 -0.2330  0.0921
 9285SOL     OW39313   2.204   2.525   4.909 -0.2399 -0.4557  0.4154
 9285SOL    HW139314   2.280   2.530   4.968  0.3347  1.9014 -0.5197
 9285SOL    HW239315   2.148   2.456   4.945  0.7915 -1.3272  0.3597
 9286SOL     OW39316   3.048   2.296   5.177 -0.6075 -0.0984 -0.4200
 9286SOL    HW139317   3.104   2.220   5.159  0.8673  0.8863 -0.0090
 9286SOL    HW239318   3.110   2.355   5.221  2.0189 -1.3573 -2.4136
 9287SOL     OW39319   2.959   2.687  16.186 -0.0351 -0.0190  1.2604
 9287SOL    HW139320   3.048   2.716  16.208  0.5013 -0.0418 -0.8377
 9287SOL    HW239321   2.987   2.597  16.169  3.9378  1.6343 -1.2870
 9288SOL     OW39322   1.206   2.432   6.758  0.3148  0.6066  0.0170
 9288SOL    HW139323   1.167   2.518   6.742 -0.5204  0.0275 -1.0734
 9288SOL    HW239324   1.125   2.384   6.773 -0.8214  1.8833 -2.0926
 9289SOL     OW39325   4.531   1.740   1.573 -0.4783 -0.2008 -0.3277
 9289SOL    HW139326   4.617   1.759   1.611  0.2216 -2.6545 -0.6752
 9289SOL    HW239327   4.467   1.798   1.615 -0.6329  0.8454 -1.9925
 9290SOL     OW39328   3.607   3.700   1.221 -0.0226  0.6199  0.0654
 9290SOL    HW139329   3.639   3.623   1.267 -2.7663  0.3785  1.5375
 9290SOL    HW239330   3.530   3.668   1.173  0.3687  3.1310 -2.2569
 9291SOL     OW39331   3.872   1.187   4.242  0.0636  0.3509  0.3282
 9291SOL    HW139332   3.778   1.198   4.259 -0.2093 -1.4711  0.0156
 9291SOL    HW239333   3.885   1.097   4.272  0.5748  0.7237  1.2014
 9292SOL     OW39334   2.075   0.176   7.479 -0.0465  0.0282  0.3929
 9292SOL    HW139335   2.052   0.261   7.516 -2.1050  0.4163 -1.7886
 9292SOL    HW239336   2.002   0.163   7.419 -0.7344  3.1418  0.5342
 9293SOL     OW39337   0.702   2.984   5.973 -0.3735 -0.5891 -0.0638
 9293SOL    HW139338   0.762   3.046   6.015  0.2270 -1.8701  0.9672
 9293SOL    HW239339   0.685   2.920   6.043 -2.4442 -1.0336 -0.9925
 9294SOL     OW39340   3.041   1.294   4.272 -0.6011  0.4967  0.2288
 9294SOL    HW139341   3.024   1.385   4.249  1.2267  0.5086 -1.1176
 9294SOL    HW239342   3.083   1.308   4.356  0.0293 -0.9330  0.1588
 9295SOL     OW39343   3.568   4.245   3.079 -0.1232 -0.0302 -0.0959
 9295SOL    HW139344   3.644   4.211   3.031 -0.3779  0.1725 -0.6414
 9295SOL    HW239345   3.599   4.255   3.169 -0.8166  0.7772  0.0515
 9296SOL     OW39346   3.473   0.129   9.321 -0.3897  0.7337  0.2932
 9296SOL    HW139347   3.490   0.153   9.412 -1.4622  1.6140  0.2521
 9296SOL    HW239348   3.454   0.036   9.335  1.9104 -0.1536 -2.4523
 9297SOL     OW39349   4.620   1.106  16.086 -0.3150 -0.3629 -0.1343
 9297SOL    HW139350   4.616   1.185  16.141 -0.8309 -0.8376  0.5191
 9297SOL    HW239351   4.628   1.138  15.997  1.3343 -0.2628  0.0488
 9298SOL     OW39352   3.668   4.369  13.488  0.3917 -0.5158  0.1589
 9298SOL    HW139353   3.618   4.304  13.539 -1.2017 -0.4116 -1.2763
 9298SOL    HW239354   3.692   4.312  13.415  1.1800 -2.0557  1.6123
 9299SOL     OW39355   0.910   3.102   2.490 -0.1854 -0.2183  0.3301
 9299SOL    HW139356   0.853   3.162   2.441 -2.2017 -1.4211  1.1990
 9299SOL    HW239357   0.939   3.052   2.413 -0.7978  0.8746 -0.6056
 9300SOL     OW39358   0.676   3.896   3.818  0.1764 -0.3430  0.1488
 9300SOL    HW139359   0.656   3.964   3.755  2.4979  0.7402  0.5933
 9300SOL    HW239360   0.733   3.933   3.886  2.2416 -1.9527 -0.7048
 9301SOL     OW39361   4.335   4.448   0.628  0.1025 -0.3896 -0.1337
 9301SOL    HW139362   4.306   4.368   0.673 -0.7829  0.8839  1.5429
 9301SOL    HW239363   4.425   4.453   0.660  0.2189 -1.4388 -0.3072
 9302SOL     OW39364   3.066   4.079   7.488  0.3689  0.0766 -0.6520
 9302SOL    HW139365   3.045   4.104   7.399 -1.0778 -0.8557 -0.5736
 9302SOL    HW239366   3.157   4.108   7.479  0.0904  0.9462 -0.6435
 9303SOL     OW39367   4.212   0.424   8.276 -0.3664  0.4059  0.1821
 9303SOL    HW139368   4.248   0.507   8.245 -1.0575  0.9482  0.8423
 9303SOL    HW239369   4.123   0.424   8.240  0.1917 -0.8185 -1.2323
 9304SOL     OW39370   4.102   4.542   7.174 -0.3216  0.1356  0.3655
 9304SOL    HW139371   4.074   4.517   7.262 -2.1113  0.0153 -0.2456
 9304SOL    HW239372   4.164   4.470   7.159 -0.6177 -0.0570  0.0615
 9305SOL     OW39373   0.333   3.025  14.447 -0.7792 -0.2405  0.0467
 9305SOL    HW139374   0.424   3.009  14.472 -0.9624  0.1809  0.9723
 9305SOL    HW239375   0.351   3.107  14.401 -2.7390 -0.8179 -1.7506
 9306SOL     OW39376   3.327   4.586   3.691 -0.3672  0.2156  0.0941
 9306SOL    HW139377   3.264   4.550   3.754 -1.3006  2.8269  0.6768
 9306SOL    HW239378   3.367   4.654   3.747 -0.2135 -0.0558  0.3135
 9307SOL     OW39379   3.709   4.683   9.056 -0.0195 -0.4568 -0.6116
 9307SOL    HW139380   3.745   4.626   8.988  1.7926 -0.7322  0.5888
 9307SOL    HW239381   3.621   4.644   9.061  0.0538 -0.4191  1.0540
 9308SOL     OW39382   0.350   2.076  17.259  0.1983  0.2058 -0.5905
 9308SOL    HW139383   0.338   2.156  17.310 -2.4048 -1.8268  1.9218
 9308SOL    HW239384   0.292   2.087  17.184 -0.1704  1.6391 -0.0885
 9309SOL     OW39385   0.291   0.011  16.817 -0.0720  0.1312 -0.3587
 9309SOL    HW139386   0.292   0.089  16.761  0.5757  1.3653  1.3898
 9309SOL    HW239387   0.354   0.031  16.886 -0.2310 -0.5289 -0.0257
 9310SOL     OW39388   0.524   2.431   3.058  0.1673  0.2507  0.6271
 9310SOL    HW139389   0.459   2.472   3.116  0.8189  0.6084  1.1018
 9310SOL    HW239390   0.567   2.366   3.114 -0.9889 -1.2926 -0.2935
 9311SOL     OW39391   2.663   2.800   3.614  0.2955 -0.1558  0.5079
 9311SOL    HW139392   2.679   2.726   3.672  0.2844 -0.5140  0.0551
 9311SOL    HW239393   2.739   2.802   3.555  0.5762 -0.6070  0.8562
 9312SOL     OW39394   4.354   1.144   3.804 -0.0052  0.2082  0.1578
 9312SOL    HW139395   4.387   1.110   3.720 -2.3972 -1.7420  0.0074
 9312SOL    HW239396   4.440   1.165   3.839  1.5876 -3.2952 -1.6277
 9313SOL     OW39397   2.119   0.860  15.997 -0.2598  0.4843 -0.0549
 9313SOL    HW139398   2.036   0.814  15.986 -0.3731  0.2454  1.8129
 9313SOL    HW239399   2.154   0.853  15.907  0.0816  0.4984  0.0757
 9314SOL     OW39400   4.197   1.820  11.626  0.3833  0.1928  0.2702
 9314SOL    HW139401   4.109   1.854  11.642 -0.0077 -1.1059  0.8642
 9314SOL    HW239402   4.195   1.750  11.691  0.4593  0.4269  0.5252
 9315SOL     OW39403   3.401   0.056   7.304 -0.2277  0.0982  0.0424
 9315SOL    HW139404   3.353   0.037   7.385  0.1688  0.3146  0.3299
 9315SOL    HW239405   3.474   0.109   7.336  0.2359  1.2016 -2.8319
 9316SOL     OW39406   1.691   4.307   8.785  0.0081 -0.0745  0.0078
 9316SOL    HW139407   1.752   4.329   8.856 -3.1436 -0.8248  2.9355
 9316SOL    HW239408   1.674   4.216   8.809  0.4491  0.0927  0.9652
 9317SOL     OW39409   0.214   0.171   6.050  0.0768  0.3260  0.7140
 9317SOL    HW139410   0.257   0.098   6.005 -2.9871  0.0071 -1.6834
 9317SOL    HW239411   0.191   0.132   6.134  0.0030 -1.0609  0.0458
 9318SOL     OW39412   0.897   2.529   2.767 -0.3106  0.0590  0.6653
 9318SOL    HW139413   0.877   2.538   2.674 -2.4110 -2.1348  0.9027
 9318SOL    HW239414   0.817   2.556   2.813 -0.9751 -3.5782  1.5762
 9319SOL     OW39415   0.382   1.214   3.638 -0.3086  0.1130  0.7678
 9319SOL    HW139416   0.381   1.124   3.671  2.5838 -0.3350 -0.3994
 9319SOL    HW239417   0.443   1.215   3.565 -1.4961  2.6997 -0.1813
 9320SOL     OW39418   1.894   2.599  10.228  0.2948 -0.1794 -0.0402
 9320SOL    HW139419   1.830   2.528  10.238 -1.0938  1.1309  0.3340
 9320SOL    HW239420   1.838   2.675  10.216 -0.0464 -0.0168  2.6194
 9321SOL     OW39421   4.158   2.986   4.985  0.8229 -0.1697  0.1081
 9321SOL    HW139422   4.168   2.990   4.890  1.4162 -1.4950  0.1061
 9321SOL    HW239423   4.184   2.895   4.999 -1.6456 -0.8500  0.2233
 9322SOL     OW39424   1.397   0.464  10.010  0.3270  0.1180 -0.2437
 9322SOL    HW139425   1.387   0.401  10.081  1.2136  0.2161 -0.0349
 9322SOL    HW239426   1.483   0.444   9.973  0.7189  0.3746  0.5461
 9323SOL     OW39427   2.146   0.529   1.107 -0.2088  0.7091  0.4795
 9323SOL    HW139428   2.102   0.608   1.138  2.3750  1.4978  2.1021
 9323SOL    HW239429   2.180   0.494   1.189  1.0357  2.3149  0.6556
 9324SOL     OW39430   0.040   0.052   9.557  0.1553  0.3791  0.1745
 9324SOL    HW139431   0.041   0.024   9.648 -0.1247 -0.5715 -0.1120
 9324SOL    HW239432   0.018   0.145   9.562 -2.1612 -0.1874  0.6680
 9325SOL     OW39433   0.734   4.027   6.372 -0.0128  0.1940  0.1865
 9325SOL    HW139434   0.730   4.092   6.303  1.2683 -0.0812 -0.1600
 9325SOL    HW239435   0.790   3.962   6.328  1.4295  1.0011  0.8101
 9326SOL     OW39436   2.456   0.231   5.392  0.1819  0.3157 -0.6476
 9326SOL    HW139437   2.472   0.309   5.445 -2.3190 -0.1449  0.7908
 9326SOL    HW239438   2.539   0.223   5.345  2.0909  2.2980  2.3840
 9327SOL     OW39439   2.380   4.680   6.900  0.0999  0.1737 -0.1220
 9327SOL    HW139440   2.438   0.030   6.873 -1.4184  1.9522  1.2786
 9327SOL    HW239441   2.346   4.644   6.818 -2.2930  1.3605  0.3318
 9328SOL     OW39442   1.116   0.661   0.399  0.2573  0.0166 -0.1907
 9328SOL    HW139443   1.108   0.566   0.402  1.1524 -0.0552  0.0553
 9328SOL    HW239444   1.034   0.678   0.445 -0.1414  1.9800 -1.6017
 9329SOL     OW39445   0.567   3.493   3.311  0.3094 -0.2097 -0.2318
 9329SOL    HW139446   0.627   3.470   3.240  1.3037  1.6548  0.0178
 9329SOL    HW239447   0.583   3.587   3.314  0.6129 -0.2885  0.7039
 9330SOL     OW39448   1.436   4.377   7.109 -0.6169 -0.2462 -0.2022
 9330SOL    HW139449   1.519   4.330   7.109 -1.6273 -2.0350 -1.0258
 9330SOL    HW239450   1.431   4.410   7.198 -0.0759 -3.4201  1.0241
 9331SOL     OW39451   0.283   0.925   9.103 -0.5118 -0.7530 -1.1738
 9331SOL    HW139452   0.226   0.959   9.172  1.3068 -0.3685  0.1080
 9331SOL    HW239453   0.268   0.991   9.035 -0.0220  0.2683 -0.2875
 9332SOL     OW39454   1.464   1.666  15.704  0.5094 -0.2780 -0.4563
 9332SOL    HW139455   1.559   1.670  15.718  0.6065 -2.2816 -0.5635
 9332SOL    HW239456   1.424   1.708  15.780  1.3823  1.3935 -0.9369
 9333SOL     OW39457   3.562   2.841   0.510 -0.1913  0.8944  0.4770
 9333SOL    HW139458   3.654   2.817   0.503 -0.2078  0.8481  0.4241
 9333SOL    HW239459   3.533   2.792   0.434 -0.6874  1.6019  0.2071
 9334SOL     OW39460   0.843   0.670   6.907  0.2111 -0.2793 -0.2562
 9334SOL    HW139461   0.792   0.624   6.840 -2.9752 -0.0677  2.0029
 9334SOL    HW239462   0.839   0.760   6.875 -1.9064 -0.4454 -0.4556
 9335SOL     OW39463   0.864   1.425   0.697  0.7021 -0.5528 -0.1254
 9335SOL    HW139464   0.896   1.485   0.630  0.1751 -0.4496 -0.2854
 9335SOL    HW239465   0.926   1.443   0.768  2.4437 -2.7092 -1.0977
 9336SOL     OW39466   3.331   4.412   8.759 -0.7391 -0.0021 -0.6451
 9336SOL    HW139467   3.319   4.440   8.669 -0.1173  0.7193 -0.4980
 9336SOL    HW239468   3.362   4.322   8.752  0.6128  0.2861  1.6838
 9337SOL     OW39469   1.095   1.754  14.753  0.9200 -0.3412 -0.0747
 9337SOL    HW139470   1.034   1.686  14.724 -0.5037  0.8581  0.1243
 9337SOL    HW239471   1.171   1.701  14.779  0.6941  0.2226  1.7568
 9338SOL     OW39472   2.677   3.617   4.692 -0.2167 -0.4451 -0.5863
 9338SOL    HW139473   2.620   3.624   4.615  1.8590 -0.9553 -2.1588
 9338SOL    HW239474   2.766   3.623   4.657 -0.9114 -0.8591 -2.4575
 9339SOL     OW39475   2.496   3.428  13.657  0.3499 -0.1213 -0.3741
 9339SOL    HW139476   2.591   3.433  13.648  0.2511  1.7911 -0.3337
 9339SOL    HW239477   2.467   3.505  13.706  0.1543  1.2154 -2.5875
 9340SOL     OW39478   2.228   4.500   2.670  0.2637  0.1507 -0.1177
 9340SOL    HW139479   2.167   4.544   2.728  0.8315  0.2134  0.4387
 9340SOL    HW239480   2.256   4.573   2.615 -2.0073 -0.3324 -1.9050
 9341SOL     OW39481   1.694   3.580  17.315 -0.6339  0.3267  0.3836
 9341SOL    HW139482   1.742   3.618  17.388  0.0655 -1.1677  0.7007
 9341SOL    HW239483   1.607   3.617  17.334 -0.3769  2.2075 -2.0393
 9342SOL     OW39484   4.529   0.163   6.899  0.4948 -0.6865 -0.2205
 9342SOL    HW139485   4.543   0.247   6.943 -1.4782  0.1135 -1.1253
 9342SOL    HW239486   4.519   0.109   6.978  0.7096 -0.0677  0.2283
 9343SOL     OW39487   4.715   3.953   7.468 -0.0963  0.1763  0.4454
 9343SOL    HW139488   0.002   4.012   7.394 -1.4302  0.4260  0.4985
 9343SOL    HW239489   0.023   4.004   7.543 -0.7680 -0.2061  0.9708
 9344SOL     OW39490   3.122   3.888   8.645  0.0633 -0.1890  0.1213
 9344SOL    HW139491   3.148   3.955   8.582 -3.3224 -1.7087 -2.9013
 9344SOL    HW239492   3.031   3.868   8.623  0.9071 -2.1737 -1.5289
 9345SOL     OW39493   3.611   1.479  16.251  0.2655  0.0566  0.2497
 9345SOL    HW139494   3.555   1.498  16.326 -0.7838  0.7840 -0.7201
 9345SOL    HW239495   3.702   1.482  16.282  0.8103 -2.5427 -1.1475
 9346SOL     OW39496   1.512   0.417   3.888  0.5167 -0.4122 -0.1759
 9346SOL    HW139497   1.519   0.512   3.901 -3.4169  0.1636 -2.4484
 9346SOL    HW239498   1.601   0.401   3.858  0.4424  2.6513 -1.9968
 9347SOL     OW39499   0.387   2.222   5.015 -0.0481 -0.0928  0.0826
 9347SOL    HW139500   0.328   2.179   5.077  0.4642 -2.1593 -0.8569
 9347SOL    HW239501   0.454   2.156   4.998 -2.9465 -2.3358 -2.6151
 9348SOL     OW39502   0.130   2.737   0.825  0.0090 -0.1426  0.5828
 9348SOL    HW139503   0.111   2.644   0.816  0.8151 -0.2351 -0.2231
 9348SOL    HW239504   0.078   2.767   0.899 -0.2976  1.9115 -0.4421
 9349SOL     OW39505   0.812   2.208   7.746  0.2727 -0.3993 -0.3224
 9349SOL    HW139506   0.723   2.240   7.733  0.3471  0.4541  1.2973
 9349SOL    HW239507   0.857   2.197   7.663  1.1671 -1.1006  0.2438
 9350SOL     OW39508   0.135   0.632   8.962 -0.1109 -0.0900  0.1196
 9350SOL    HW139509   0.230   0.641   8.954  0.0327  0.3724  2.1836
 9350SOL    HW239510   0.120   0.619   8.869  0.0178  1.5810 -0.1377
 9351SOL     OW39511   3.355   3.971   9.917  0.1816  0.8535  0.3774
 9351SOL    HW139512   3.307   3.961   9.835 -0.5451 -1.4438  1.0576
 9351SOL    HW239513   3.442   3.935   9.900 -0.6271 -0.5762 -0.8430
 9352SOL     OW39514   3.798   4.113   7.007  0.4650  0.1288  0.1346
 9352SOL    HW139515   3.758   4.147   7.087  0.3805  1.0404 -0.2903
 9352SOL    HW239516   3.756   4.028   6.999  0.3680 -0.0064  2.0255
 9353SOL     OW39517   0.417   0.488   5.393  0.0977  0.1251 -0.1783
 9353SOL    HW139518   0.371   0.554   5.444  1.6065  0.9057  0.1903
 9353SOL    HW239519   0.391   0.507   5.303  1.2817 -1.1385 -0.7971
 9354SOL     OW39520   4.520   0.222   4.197 -0.1846 -0.4217  0.8717
 9354SOL    HW139521   4.432   0.240   4.230 -0.9662  0.5021 -1.7069
 9354SOL    HW239522   4.558   0.307   4.177 -1.8863 -0.2711 -1.6518
 9355SOL     OW39523   0.003   4.348   7.361  0.0656  0.3571 -0.3110
 9355SOL    HW139524   0.090   4.309   7.373  0.0139  0.1651 -0.5608
 9355SOL    HW239525   4.699   4.371   7.451 -0.3389 -2.8581  0.4051
 9356SOL     OW39526   2.708   0.986  17.267 -0.3214 -0.0240 -0.2128
 9356SOL    HW139527   2.635   1.007  17.325  1.1189  1.3883  1.0868
 9356SOL    HW239528   2.750   1.072  17.261  1.5690 -0.8972  0.6610
 9357SOL     OW39529   3.409   0.264   5.881 -0.7971  0.0143  0.1602
 9357SOL    HW139530   3.427   0.332   5.816  0.8707  0.8229  1.4736
 9357SOL    HW239531   3.485   0.277   5.937 -1.5410  1.2243  0.8807
 9358SOL     OW39532   0.342   1.311   0.462  0.4242 -0.1356 -0.2092
 9358SOL    HW139533   0.403   1.266   0.405 -0.2477 -2.5559  0.9825
 9358SOL    HW239534   0.381   1.397   0.475  0.0387 -0.1281  0.9253
 9359SOL     OW39535   1.556   3.822  14.003  0.4667  0.3441 -0.5076
 9359SOL    HW139536   1.497   3.769  13.950  2.4150  1.2975 -3.5970
 9359SOL    HW239537   1.490   3.859  14.063  0.0494 -0.6188 -0.3715
 9360SOL     OW39538   3.339   2.698   7.901 -0.5853  0.3870  0.5940
 9360SOL    HW139539   3.423   2.663   7.871 -0.4730  1.9608 -0.8918
 9360SOL    HW239540   3.371   2.775   7.947 -0.3660  0.9605 -0.5300
 9361SOL     OW39541   2.211   2.494   8.269 -0.2948 -0.0749  0.2834
 9361SOL    HW139542   2.152   2.437   8.220 -0.1160  0.5882 -0.7050
 9361SOL    HW239543   2.195   2.477   8.362 -0.4316 -1.0478  0.0756
 9362SOL     OW39544   1.123   1.376  12.365 -0.3115 -0.0760 -0.7518
 9362SOL    HW139545   1.044   1.377  12.418 -0.0406  1.2836 -0.3796
 9362SOL    HW239546   1.182   1.318  12.411 -3.9175 -1.3244  2.2844
 9363SOL     OW39547   4.446   4.341   5.812 -0.2388 -0.7764  0.3907
 9363SOL    HW139548   4.391   4.407   5.853 -1.6965 -2.1454  0.6218
 9363SOL    HW239549   4.456   4.284   5.888 -0.6063  0.5334  1.4220
 9364SOL     OW39550   4.094   3.202  12.027  0.5595 -0.3492  0.2821
 9364SOL    HW139551   4.153   3.139  12.068  0.4040  0.4505  1.7462
 9364SOL    HW239552   4.130   3.208  11.939 -2.0858  0.8174 -0.7297
 9365SOL     OW39553   1.162   4.234   8.530 -0.3802 -0.1673  0.1065
 9365SOL    HW139554   1.083   4.218   8.581 -0.7331  0.4281 -0.2636
 9365SOL    HW239555   1.195   4.304   8.586 -1.2602 -1.6764  2.5197
 9366SOL     OW39556   4.053   1.606  15.779  0.4306 -0.1189  0.2857
 9366SOL    HW139557   4.075   1.513  15.773  1.8352  0.1960  0.5482
 9366SOL    HW239558   4.130   1.646  15.820 -0.2730  0.9972  0.5099
 9367SOL     OW39559   0.609   1.462   9.634  0.0666 -0.5262  0.8910
 9367SOL    HW139560   0.593   1.485   9.542  2.5951  1.6280  0.9935
 9367SOL    HW239561   0.581   1.542   9.678  1.4057  1.5391 -2.0094
 9368SOL     OW39562   0.527   1.894   1.936 -0.4482 -0.0805  0.6876
 9368SOL    HW139563   0.447   1.861   1.975 -1.7755 -1.1534 -2.9233
 9368SOL    HW239564   0.588   1.897   2.010 -3.1185 -1.3119  2.9071
 9369SOL     OW39565   3.889   2.251  14.602 -0.1975  0.3622 -0.0378
 9369SOL    HW139566   3.797   2.228  14.611 -0.3795  0.4677 -1.6382
 9369SOL    HW239567   3.898   2.316  14.671 -1.3686 -1.6177  1.9472
 9370SOL     OW39568   2.942   4.192  17.478  0.1611 -0.4703 -0.1870
 9370SOL    HW139569   3.011   4.127  17.473 -0.8498 -1.5697  0.1070
 9370SOL    HW239570   2.949   4.226  17.389 -0.3006  0.0083 -0.0436
 9371SOL     OW39571   4.304   0.154   5.425 -0.4497  0.3924 -0.5269
 9371SOL    HW139572   4.325   0.246   5.438 -1.6208  0.3738  1.5765
 9371SOL    HW239573   4.250   0.165   5.346  1.3911 -0.8126 -1.9499
 9372SOL     OW39574   0.039   1.229   9.426 -0.1784  0.5444 -0.4079
 9372SOL    HW139575   4.707   1.208   9.349 -0.2183  1.7409 -0.7062
 9372SOL    HW239576   0.010   1.319   9.441  0.4849  0.4866  1.2434
 9373SOL     OW39577   0.922   2.490   0.981  0.1232 -0.0460 -0.6015
 9373SOL    HW139578   0.982   2.532   0.919 -0.5145  1.8023  0.0341
 9373SOL    HW239579   0.848   2.508   0.923  0.7836  2.3992 -0.7092
 9374SOL     OW39580   0.956   0.515  11.672  0.4839  0.3114  0.3798
 9374SOL    HW139581   0.965   0.565  11.591 -1.0881  0.9140  0.5777
 9374SOL    HW239582   0.904   0.569  11.731  1.1931  1.6271 -0.2014
 9375SOL     OW39583   3.134   4.321   5.195  0.1210  0.3398 -0.1672
 9375SOL    HW139584   3.173   4.322   5.282  1.1892  0.9266 -0.6410
 9375SOL    HW239585   3.045   4.291   5.212 -0.1045  0.3400 -1.3091
 9376SOL     OW39586   2.571   2.247   2.530  0.2364  0.1111  0.0229
 9376SOL    HW139587   2.515   2.206   2.595 -2.4161  1.8454 -1.1814
 9376SOL    HW239588   2.657   2.257   2.571  1.4531  0.3469 -2.5354
 9377SOL     OW39589   4.155   0.276  10.310  0.0175 -0.0058 -0.1161
 9377SOL    HW139590   4.167   0.243  10.399 -1.9840 -0.4467  0.0056
 9377SOL    HW239591   4.075   0.235  10.278  0.9844 -0.9541 -1.2902
 9378SOL     OW39592   4.225   1.354   5.225 -0.1762  0.0434 -0.1295
 9378SOL    HW139593   4.206   1.387   5.137  2.4479  0.3863 -0.5544
 9378SOL    HW239594   4.302   1.409   5.235  1.6305 -2.2651 -1.3784
 9379SOL     OW39595   3.491   0.730   9.046 -0.3749 -0.0072  0.2236
 9379SOL    HW139596   3.575   0.696   9.077 -0.3733  0.3173  0.5719
 9379SOL    HW239597   3.471   0.671   8.973  1.5563 -3.5538  2.5957
 9380SOL     OW39598   0.031   0.536   8.696 -0.2484  0.1163  0.6298
 9380SOL    HW139599   0.052   0.588   8.618 -0.9582 -1.2372 -0.4854
 9380SOL    HW239600   0.079   0.456   8.676 -1.3714 -0.6005  0.8175
 9381SOL     OW39601   1.502   2.098   5.091 -0.1797  0.1048  0.2619
 9381SOL    HW139602   1.411   2.110   5.116 -0.1705  2.3682 -0.7358
 9381SOL    HW239603   1.546   2.173   5.131  1.6199 -0.2834 -0.9831
 9382SOL     OW39604   1.517   0.223   2.851 -0.3150 -0.3600 -0.5369
 9382SOL    HW139605   1.538   0.269   2.769  0.9338  1.4233  0.7965
 9382SOL    HW239606   1.601   0.185   2.877  0.3587  0.4862 -1.4893
 9383SOL     OW39607   0.697   4.207  12.288 -0.0920  0.0116 -0.2807
 9383SOL    HW139608   0.745   4.267  12.346  1.5824  0.4139 -2.0947
 9383SOL    HW239609   0.611   4.248  12.283  0.3704  1.2499  1.9326
 9384SOL     OW39610   1.615   1.680   4.187 -0.2642  0.0765 -0.3021
 9384SOL    HW139611   1.667   1.621   4.132  0.6085  0.5151  0.0555
 9384SOL    HW239612   1.623   1.758   4.133 -0.0487  0.4115  0.2194
 9385SOL     OW39613   4.032   0.668   1.796  0.0675  0.2466  0.2729
 9385SOL    HW139614   4.094   0.642   1.728  0.9869 -1.7133  1.8759
 9385SOL    HW239615   4.052   0.589   1.846  0.9515  0.3305  0.0462
 9386SOL     OW39616   2.843   0.181   8.856  0.5383 -0.3875  0.2529
 9386SOL    HW139617   2.783   0.126   8.806 -0.1185 -0.8865  1.5729
 9386SOL    HW239618   2.875   0.112   8.913 -0.4760 -2.1430 -1.3244
 9387SOL     OW39619   1.989   2.735   2.586 -0.3288  0.0104  0.6818
 9387SOL    HW139620   1.946   2.806   2.537  0.6964  0.8846  1.0431
 9387SOL    HW239621   2.060   2.714   2.526  0.9554 -0.3227  2.3353
 9388SOL     OW39622   1.166   2.577   0.645 -0.0770  0.3661 -0.1124
 9388SOL    HW139623   1.112   2.620   0.711 -0.6694 -0.2433 -0.1997
 9388SOL    HW239624   1.251   2.620   0.656 -0.1191  0.4139  0.0182
 9389SOL     OW39625   0.197   0.169   2.010 -0.2492  0.0944  0.4472
 9389SOL    HW139626   0.117   0.216   1.990 -0.3029 -0.4209 -0.5619
 9389SOL    HW239627   0.258   0.239   1.985  0.0892  0.0716  1.2060
 9390SOL     OW39628   3.077   3.078   6.125  0.1002 -0.1405 -0.0922
 9390SOL    HW139629   3.140   3.130   6.176  1.2402 -0.4395 -1.1784
 9390SOL    HW239630   3.050   3.144   6.061  0.0740 -0.5887 -0.5492
 9391SOL     OW39631   4.709   1.645   6.613  0.0759 -0.0013  0.4174
 9391SOL    HW139632   0.019   1.703   6.682  0.3286 -0.3770  0.6221
 9391SOL    HW239633   4.615   1.640   6.634  0.2157  1.1062  1.2929
 9392SOL     OW39634   1.964   3.858   5.949 -0.1028 -0.2084 -0.1821
 9392SOL    HW139635   1.936   3.813   5.869 -0.5320  0.3480 -0.3387
 9392SOL    HW239636   1.992   3.940   5.910  0.5708  0.0785  0.9248
 9393SOL     OW39637   4.332   0.792  13.696 -0.1794 -0.2877  0.8696
 9393SOL    HW139638   4.240   0.808  13.676  0.2701 -1.8076 -2.5682
 9393SOL    HW239639   4.374   0.875  13.674 -0.8420 -0.0483  0.5165
 9394SOL     OW39640   3.644   1.274   4.356  0.2395  0.0733 -0.0236
 9394SOL    HW139641   3.651   1.218   4.433 -0.4582  0.0562  0.0288
 9394SOL    HW239642   3.553   1.304   4.352  0.8619  1.8984 -0.5153
 9395SOL     OW39643   2.164   2.382   2.811 -0.2331  0.6574  0.2880
 9395SOL    HW139644   2.109   2.339   2.877  0.3489 -0.4110  0.0811
 9395SOL    HW239645   2.108   2.369   2.735  0.5552  1.1650 -0.3740
 9396SOL     OW39646   2.091   1.454   6.456  0.2033 -0.2571 -0.6066
 9396SOL    HW139647   2.114   1.504   6.535 -2.6783  0.9429 -0.5001
 9396SOL    HW239648   2.169   1.477   6.407 -0.0255 -0.0283 -0.8627
 9397SOL     OW39649   3.466   3.979   3.842 -0.0078  0.1793  0.4536
 9397SOL    HW139650   3.421   4.055   3.878  0.6079  0.0753  1.4441
 9397SOL    HW239651   3.399   3.931   3.793 -0.6937  1.3529  0.2382
 9398SOL     OW39652   4.111   0.731   3.908  0.4679  0.3203  0.0990
 9398SOL    HW139653   4.199   0.744   3.873  0.0464  0.2311 -0.9822
 9398SOL    HW239654   4.120   0.636   3.920 -0.1726  0.1834 -0.5025
 9399SOL     OW39655   1.188   3.850   4.655  0.0245  0.1637  0.2796
 9399SOL    HW139656   1.271   3.870   4.611  0.0215 -0.1493  0.1299
 9399SOL    HW239657   1.184   3.924   4.716 -4.8924 -0.2391  0.4496
 9400SOL     OW39658   4.424   4.571   8.635 -0.4233 -0.0981 -0.0168
 9400SOL    HW139659   4.381   4.567   8.720  2.6938 -1.0261  1.5346
 9400SOL    HW239660   4.365   4.633   8.592 -0.3308 -0.5026 -0.7351
 9401SOL     OW39661   4.522   1.107   2.568 -0.5908  0.0336 -0.2354
 9401SOL    HW139662   4.475   1.190   2.576  0.0274  0.3059  0.5670
 9401SOL    HW239663   4.502   1.078   2.656  0.3286 -3.3850 -1.1670
 9402SOL     OW39664   0.794   0.695   8.044 -0.4758 -0.5277  0.3143
 9402SOL    HW139665   0.876   0.729   8.078 -0.5897 -0.0467  0.1032
 9402SOL    HW239666   0.731   0.739   8.101 -1.5015 -2.8174  0.9658
 9403SOL     OW39667   0.114   2.993  11.454  0.1159 -0.3907  0.0363
 9403SOL    HW139668   0.210   2.991  11.451  0.2171 -1.1338  3.6495
 9403SOL    HW239669   0.085   2.959  11.369  0.2854  4.5874 -2.0581
 9404SOL     OW39670   1.561   1.905   7.233  0.3360 -0.0362 -0.5198
 9404SOL    HW139671   1.597   1.986   7.197 -0.1365  1.1484  1.6373
 9404SOL    HW239672   1.468   1.916   7.213  0.4421 -1.0972 -1.5381
 9405SOL     OW39673   4.001   0.021   9.164 -0.0109  0.4354  0.8719
 9405SOL    HW139674   3.934   4.675   9.168  1.2496 -0.9498 -1.2561
 9405SOL    HW239675   3.961   0.083   9.103  0.8860 -0.2974 -0.4693
 9406SOL     OW39676   0.184   2.161   9.335 -0.5704 -0.9799 -0.1061
 9406SOL    HW139677   0.134   2.148   9.416 -0.1976  1.9912  0.6121
 9406SOL    HW239678   0.197   2.256   9.333  0.1710 -1.1117 -1.4824
 9407SOL     OW39679   1.071   2.379   2.927 -0.0536 -0.0955 -0.1676
 9407SOL    HW139680   1.024   2.390   3.010 -0.2191 -3.2469  0.1732
 9407SOL    HW239681   1.008   2.426   2.872  1.0929 -1.6855 -2.8581
 9408SOL     OW39682   0.444   2.587   5.247 -0.1397  0.2662  0.0529
 9408SOL    HW139683   0.406   2.674   5.259  1.1965  0.9483 -0.6143
 9408SOL    HW239684   0.386   2.531   5.298  0.7414 -1.0194 -0.3396
 9409SOL     OW39685   3.658   1.789   6.179  0.2735  0.1672 -0.2530
 9409SOL    HW139686   3.653   1.881   6.206  3.6046  0.5563 -1.0476
 9409SOL    HW239687   3.740   1.793   6.131  0.5903 -0.5808  0.2319
 9410SOL     OW39688   4.369   2.765   0.549  0.7913  0.1805  0.0492
 9410SOL    HW139689   4.353   2.797   0.638  0.9588  1.7057 -0.4623
 9410SOL    HW239690   4.303   2.696   0.548 -0.5054  1.4241 -0.7629
 9411SOL     OW39691   0.403   4.715   4.658  0.1492  0.5095  0.5506
 9411SOL    HW139692   0.423   4.623   4.673  0.4381  0.2215 -1.6391
 9411SOL    HW239693   0.307   0.002   4.662 -0.0567 -1.0319 -1.4727
 9412SOL     OW39694   3.156   0.856   2.479 -0.5611 -0.1889 -0.4414
 9412SOL    HW139695   3.082   0.847   2.539 -1.3472  1.7544 -1.1169
 9412SOL    HW239696   3.209   0.783   2.510  0.3046  0.3440 -0.6515
 9413SOL     OW39697   1.042   2.016   0.398 -0.1356 -0.0101  0.0262
 9413SOL    HW139698   1.068   1.925   0.409 -1.4563 -0.7230 -2.8343
 9413SOL    HW239699   0.948   2.002   0.408 -0.1584  1.4266  2.0557
 9414SOL     OW39700   4.159   0.085   3.792  0.0984  0.5652  0.3100
 9414SOL    HW139701   4.117   0.009   3.832 -1.6092  1.2694 -0.1439
 9414SOL    HW239702   4.122   0.157   3.843 -0.9481 -0.4260  0.9399
 9415SOL     OW39703   3.802   3.462   9.516 -0.0838 -0.2557  0.3421
 9415SOL    HW139704   3.855   3.411   9.577 -0.8300 -1.0173  0.3706
 9415SOL    HW239705   3.714   3.432   9.538  0.0407  0.2258  1.4699
 9416SOL     OW39706   1.357   2.025  16.014 -0.0465  0.1486  0.6134
 9416SOL    HW139707   1.403   2.085  16.074  1.4417  0.0537 -0.4384
 9416SOL    HW239708   1.415   1.949  16.021 -1.4417 -0.6826  3.3915
 9417SOL     OW39709   1.984   0.042   9.170  0.3762  0.0553  0.3761
 9417SOL    HW139710   1.951   0.110   9.229  0.0833  0.2330  0.0099
 9417SOL    HW239711   2.078   0.062   9.167  0.3865 -0.0857 -0.2358
 9418SOL     OW39712   4.531   2.753   7.280 -0.1021  0.1766 -0.2242
 9418SOL    HW139713   4.567   2.718   7.361  1.7559  1.8684 -0.3228
 9418SOL    HW239714   4.514   2.843   7.307 -0.1269  0.1573 -0.1769
 9419SOL     OW39715   2.883   1.500   6.405  0.7006 -0.5028  0.0372
 9419SOL    HW139716   2.923   1.425   6.449  4.3302  2.4053  1.7081
 9419SOL    HW239717   2.813   1.536   6.460 -0.1319 -0.5016 -1.0122
 9420SOL     OW39718   0.618   1.906   2.210 -0.0693 -0.6470 -0.3530
 9420SOL    HW139719   0.556   1.954   2.265  1.3975 -0.3542  1.0122
 9420SOL    HW239720   0.704   1.923   2.248 -0.0164  0.9093 -1.1249
 9421SOL     OW39721   1.109   2.427   9.723  0.4298 -0.0196 -0.3385
 9421SOL    HW139722   1.085   2.376   9.646  1.0384 -0.5553 -0.1683
 9421SOL    HW239723   1.029   2.413   9.774 -0.6040  2.6656 -1.1729
 9422SOL     OW39724   1.072   2.782   5.453  0.0405 -0.2478 -0.0707
 9422SOL    HW139725   1.127   2.850   5.413  0.5188  0.4718  1.8032
 9422SOL    HW239726   1.140   2.734   5.499  1.9078  1.8972 -0.5690
 9423SOL     OW39727   0.475   1.269  10.100  0.0298  0.1136  0.3467
 9423SOL    HW139728   0.494   1.179  10.073 -1.3464  0.7309 -2.6217
 9423SOL    HW239729   0.466   1.250  10.194  0.2741  1.3871  0.6281
 9424SOL     OW39730   2.090   0.915  11.901  0.2114 -0.1319  0.0377
 9424SOL    HW139731   2.085   0.899  11.995  3.4958  1.3891  0.4768
 9424SOL    HW239732   2.170   0.864  11.887  1.5816  2.1576 -0.4448
 9425SOL     OW39733   4.239   1.537  12.820 -0.2674 -0.2151  0.1126
 9425SOL    HW139734   4.307   1.603  12.833 -1.1362  0.8215 -0.6395
 9425SOL    HW239735   4.164   1.588  12.791 -0.8609 -1.1589 -0.0381
 9426SOL     OW39736   0.321   3.519   4.226 -0.2861 -0.3741 -0.0513
 9426SOL    HW139737   0.371   3.593   4.261  1.3347 -1.6581  0.3201
 9426SOL    HW239738   0.332   3.536   4.132 -1.8699 -0.7704 -0.3041
 9427SOL     OW39739   2.543   2.095   4.949  0.1534 -0.0055  0.2630
 9427SOL    HW139740   2.499   2.019   4.912 -1.5546  0.2035  1.8586
 9427SOL    HW239741   2.474   2.158   4.929  1.0607  1.0320  0.3976
 9428SOL     OW39742   2.343   0.834  13.453 -0.1129 -0.4460  1.2738
 9428SOL    HW139743   2.421   0.890  13.453  0.6442 -1.5043  0.7613
 9428SOL    HW239744   2.379   0.747  13.469 -2.9909 -1.5526  1.7262
 9429SOL     OW39745   3.452   3.255   3.224 -0.0508 -0.0313  0.5545
 9429SOL    HW139746   3.514   3.256   3.297  1.6205  1.4933 -0.8771
 9429SOL    HW239747   3.420   3.345   3.228  0.2452  0.1769 -2.0137
 9430SOL     OW39748   2.617   1.830   7.993  0.3628  0.0136  0.2195
 9430SOL    HW139749   2.603   1.786   8.077 -0.1064  0.6069  0.4542
 9430SOL    HW239750   2.528   1.827   7.958  0.9438 -0.6734 -1.2143
 9431SOL     OW39751   3.043   3.104   5.409  0.9600  0.4985 -0.1437
 9431SOL    HW139752   2.951   3.126   5.421  0.9080  1.3888 -2.2807
 9431SOL    HW239753   3.066   3.104   5.502 -0.5428  0.6701  0.2148
 9432SOL     OW39754   0.118   3.398  13.751 -0.5283  0.5429  0.0388
 9432SOL    HW139755   0.062   3.457  13.699  0.7615  2.4933  0.8570
 9432SOL    HW239756   0.194   3.455  13.743  0.5538 -1.1196 -1.3463
 9433SOL     OW39757   4.225   1.463   6.062 -0.0218 -0.3154  0.2099
 9433SOL    HW139758   4.187   1.467   6.150 -0.3697 -0.7560  0.0739
 9433SOL    HW239759   4.319   1.460   6.079 -0.4229 -1.0277  2.3464
 9434SOL     OW39760   1.481   1.193   3.995  0.2086  0.3476 -0.0260
 9434SOL    HW139761   1.454   1.174   3.905  0.2690  3.0309 -0.6198
 9434SOL    HW239762   1.576   1.178   3.998 -0.1875 -2.3645 -0.7989
 9435SOL     OW39763   1.977   1.820   9.628  0.0575  0.2654  0.1010
 9435SOL    HW139764   2.068   1.794   9.616  1.2347  3.3464  2.1152
 9435SOL    HW239765   1.924   1.767   9.569  0.5163 -0.4367  0.3224
 9436SOL     OW39766   2.425   4.376   5.131 -0.0075 -0.1497 -0.6427
 9436SOL    HW139767   2.483   4.362   5.056 -0.4321 -2.5455 -0.4947
 9436SOL    HW239768   2.451   4.467   5.150  0.1722 -0.3029 -0.1664
 9437SOL     OW39769   0.513   0.002   8.441  0.1468  0.1038 -0.2549
 9437SOL    HW139770   0.514   0.002   8.537 -0.5955  2.2822 -0.2544
 9437SOL    HW239771   0.424   4.688   8.427  0.6283 -1.3932  0.4953
 9438SOL     OW39772   2.125   1.159   5.669  0.5258 -0.6163 -0.3455
 9438SOL    HW139773   2.151   1.126   5.755  1.0351  0.3259 -0.1331
 9438SOL    HW239774   2.031   1.143   5.672  0.5909 -1.0083 -0.3661
 9439SOL     OW39775   4.542   1.532   3.183 -0.0785 -0.2063 -0.3121
 9439SOL    HW139776   4.523   1.450   3.137 -2.0686  1.4995 -2.5789
 9439SOL    HW239777   4.637   1.524   3.192 -0.1887 -2.8048 -1.3828
 9440SOL     OW39778   4.247   1.117   5.376 -0.3247  0.0375 -0.4182
 9440SOL    HW139779   4.157   1.094   5.351 -0.2067 -0.7243 -0.1152
 9440SOL    HW239780   4.254   1.202   5.332  0.4101  0.4953  0.5727
 9441SOL     OW39781   1.030   1.420   1.188 -0.6571 -0.6275  0.0740
 9441SOL    HW139782   0.939   1.417   1.216 -0.8210 -1.2314 -0.5150
 9441SOL    HW239783   1.079   1.412   1.269  0.7331  0.1835 -0.6942
 9442SOL     OW39784   4.665   1.618   0.602 -0.3930 -0.0602 -0.2674
 9442SOL    HW139785   4.716   1.671   0.541 -0.0364  0.5252  0.5445
 9442SOL    HW239786   4.596   1.681   0.623 -0.3133  0.3864 -1.3661
 9443SOL     OW39787   3.549   0.817   3.013  0.2932 -0.2600 -0.6766
 9443SOL    HW139788   3.636   0.783   3.033 -1.2615 -4.4326 -1.0535
 9443SOL    HW239789   3.546   0.805   2.918  1.0615  0.5021 -0.7995
 9444SOL     OW39790   3.605   0.593   6.227 -0.0044  0.3742  1.0289
 9444SOL    HW139791   3.598   0.662   6.161 -1.4001 -0.9005 -0.1857
 9444SOL    HW239792   3.644   0.519   6.180 -2.3647 -0.9288  1.1130
 9445SOL     OW39793   0.328   2.003   5.268  0.0465  0.2438  0.7649
 9445SOL    HW139794   0.242   2.029   5.234 -0.3049 -0.8921  0.7846
 9445SOL    HW239795   0.375   1.955   5.200  1.2948  1.5398  0.7299
 9446SOL     OW39796   2.620   0.664   7.064  0.5774 -0.4161 -0.3342
 9446SOL    HW139797   2.655   0.748   7.091 -2.7503  0.3710  1.5396
 9446SOL    HW239798   2.697   0.621   7.102 -0.7345 -2.3980  0.0855
 9447SOL     OW39799   0.677   1.876   7.689 -0.1454 -0.1724  0.0956
 9447SOL    HW139800   0.677   1.785   7.721 -0.8166 -0.7116 -1.4243
 9447SOL    HW239801   0.741   1.875   7.617 -1.0212 -1.1265 -0.6751
 9448SOL     OW39802   1.692   0.747   1.571 -0.0685 -0.0429 -0.1642
 9448SOL    HW139803   1.693   0.740   1.667  0.8018  3.8370  0.1143
 9448SOL    HW239804   1.763   0.689   1.545 -0.5403  0.9754 -3.6922
 9449SOL     OW39805   4.409   3.119   1.188 -0.0963 -0.4744 -0.0875
 9449SOL    HW139806   4.320   3.091   1.170 -0.1950 -0.1394 -0.1334
 9449SOL    HW239807   4.467   3.065   1.134  1.4790  1.2129 -0.1135
 9450SOL     OW39808   2.991   1.855  11.601  0.4601 -0.1942 -0.1418
 9450SOL    HW139809   2.932   1.798  11.651 -0.7244  1.1809  0.0280
 9450SOL    HW239810   2.926   1.912  11.560  0.1072  0.4050  1.2638
 9451SOL     OW39811   0.524   4.311   3.532 -0.0208  0.6045  0.0939
 9451SOL    HW139812   0.547   4.403   3.534  0.7226  0.4592 -1.9120
 9451SOL    HW239813   0.456   4.323   3.599  1.4218 -0.0273  1.6863
 9452SOL     OW39814   2.883   3.144   8.697 -0.1248  0.5526 -0.2082
 9452SOL    HW139815   2.969   3.153   8.657 -0.4451 -2.0082 -1.4821
 9452SOL    HW239816   2.910   3.158   8.788 -1.2696  1.1216  0.0476
 9453SOL     OW39817   2.645   3.486   6.275  0.2784  0.1394 -0.3883
 9453SOL    HW139818   2.597   3.537   6.210 -1.4258 -2.0346 -0.8534
 9453SOL    HW239819   2.734   3.520   6.277  0.5750 -0.6870  0.6894
 9454SOL     OW39820   2.670   4.378   7.787 -0.0877  0.3268 -0.2234
 9454SOL    HW139821   2.657   4.374   7.692 -1.0229 -1.5815 -0.0276
 9454SOL    HW239822   2.729   4.452   7.794  1.3109 -0.7196 -0.8716
 9455SOL     OW39823   0.600   2.043   7.873  0.1095 -0.6869 -0.3457
 9455SOL    HW139824   0.570   2.126   7.834 -0.2504 -0.1967  0.9611
 9455SOL    HW239825   0.634   1.994   7.799  0.6169 -0.0427 -0.5412
 9456SOL     OW39826   4.020   2.707   6.625 -0.3310  0.4744  0.1298
 9456SOL    HW139827   4.102   2.662   6.644 -0.1148 -0.0433 -2.0922
 9456SOL    HW239828   4.016   2.744   6.713 -2.2648 -0.4396  0.4315
 9457SOL     OW39829   1.401   1.070  16.674  0.1119  0.0676 -0.4393
 9457SOL    HW139830   1.444   0.997  16.717 -0.0087 -0.9352 -2.0235
 9457SOL    HW239831   1.459   1.147  16.679 -0.9464  0.8446 -0.1653
 9458SOL     OW39832   3.710   4.346   9.525 -1.0656  0.2058  0.6638
 9458SOL    HW139833   3.675   4.300   9.601  0.4023 -0.6966  0.7764
 9458SOL    HW239834   3.733   4.273   9.467  1.2343  2.7159 -1.5930
 9459SOL     OW39835   0.450   1.016   8.861 -0.0477  0.2231  1.0811
 9459SOL    HW139836   0.400   1.089   8.826  2.4804  1.3213 -0.2380
 9459SOL    HW239837   0.490   1.054   8.939  1.0113 -1.1082  1.1903
 9460SOL     OW39838   0.781   4.042   4.033 -0.1689  0.3976  0.8056
 9460SOL    HW139839   0.736   3.990   4.100 -0.7324 -0.0652  0.0670
 9460SOL    HW239840   0.773   4.133   4.060 -0.8282  0.1192  1.5817
 9461SOL     OW39841   3.498   2.110   9.614 -0.6208  0.1469  0.0393
 9461SOL    HW139842   3.486   2.030   9.563  2.2849  0.9288 -1.8765
 9461SOL    HW239843   3.409   2.142   9.630 -0.7421 -0.1668 -0.0044
 9462SOL     OW39844   2.031   1.715   7.794  0.2550  0.5041 -0.2255
 9462SOL    HW139845   2.122   1.737   7.774 -0.2996  1.9375 -1.1913
 9462SOL    HW239846   2.006   1.778   7.862 -2.1301  0.0838 -0.6958
 9463SOL     OW39847   1.035   3.915   8.215  0.4672 -0.0395 -0.5826
 9463SOL    HW139848   0.978   3.900   8.291  0.9994  2.4729  0.2972
 9463SOL    HW239849   1.076   3.996   8.246  2.0022 -0.6648 -0.9734
 9464SOL     OW39850   4.711   1.974  11.567  0.7668 -0.2592 -0.4075
 9464SOL    HW139851   4.649   1.902  11.560 -0.5364  0.8669 -0.3369
 9464SOL    HW239852   0.036   1.952  11.648 -2.5626  0.5309  1.6933
 9465SOL     OW39853   4.007   0.878   8.347  0.2244 -0.4285  0.1712
 9465SOL    HW139854   3.991   0.940   8.275 -1.4876 -1.2297 -0.1311
 9465SOL    HW239855   3.978   0.920   8.427 -0.9786  0.4632 -0.7258
 9466SOL     OW39856   0.323   4.649  16.475 -0.0873 -0.0517  0.5809
 9466SOL    HW139857   0.243   4.669  16.523 -0.2961  1.7083 -0.4995
 9466SOL    HW239858   0.381   4.673  16.548  0.8066  0.7390 -0.3903
 9467SOL     OW39859   0.197   0.293  12.224  0.0915  1.0190 -0.4717
 9467SOL    HW139860   0.265   0.350  12.262 -0.0460 -0.2447  1.6825
 9467SOL    HW239861   0.124   0.328  12.274 -0.8392 -0.5890 -0.7180
 9468SOL     OW39862   3.353   1.046   3.674 -0.0410  0.0292 -0.8909
 9468SOL    HW139863   3.308   1.028   3.756  1.4150  0.5116  0.0127
 9468SOL    HW239864   3.407   1.121   3.699 -1.7199  0.9452 -0.0530
 9469SOL     OW39865   3.142   1.445   8.448 -0.9928 -0.6624  0.0192
 9469SOL    HW139866   3.117   1.510   8.382 -1.7465  0.3300  1.2627
 9469SOL    HW239867   3.220   1.484   8.488 -1.1691  0.9293 -1.1761
 9470SOL     OW39868   3.956   4.074   1.813  0.0005  0.2464  0.4306
 9470SOL    HW139869   3.989   4.122   1.889 -2.4991  2.4116  0.1622
 9470SOL    HW239870   3.885   4.135   1.790  1.0152  0.6942 -1.5470
 9471SOL     OW39871   1.016   3.747   9.803  0.3188 -0.2957  0.5491
 9471SOL    HW139872   0.966   3.721   9.726  1.8421  1.8119 -1.1425
 9471SOL    HW239873   1.099   3.749   9.756  0.7427 -1.1877  1.2469
 9472SOL     OW39874   4.625   0.533  14.646  0.3702  0.0790 -0.1142
 9472SOL    HW139875   4.583   0.589  14.581 -2.0443 -4.1011 -2.1210
 9472SOL    HW239876   4.618   0.446  14.607  0.9742  0.6975 -1.6075
 9473SOL     OW39877   0.486   1.176   1.325  0.3825  0.1694 -0.4292
 9473SOL    HW139878   0.478   1.082   1.339 -0.7330  0.4454  0.8234
 9473SOL    HW239879   0.422   1.186   1.254 -0.7295  1.8829  0.8161
 9474SOL     OW39880   0.589   4.615  10.324 -0.0217 -0.2450  0.7918
 9474SOL    HW139881   0.518   4.578  10.377 -1.6615  0.4439 -0.9503
 9474SOL    HW239882   0.623   4.536  10.283 -1.7965 -0.5648 -0.0473
 9475SOL     OW39883   3.386   4.219   2.788 -0.0141  0.3315  0.4977
 9475SOL    HW139884   3.416   4.138   2.746  0.9706  0.3257  1.2268
 9475SOL    HW239885   3.453   4.275   2.748 -2.7663  2.6693 -0.8506
 9476SOL     OW39886   4.350   3.285   3.613  0.0129 -0.7270 -0.2838
 9476SOL    HW139887   4.309   3.358   3.567  0.2014 -1.0532 -0.9836
 9476SOL    HW239888   4.361   3.314   3.703 -0.0317 -1.2852 -0.0964
 9477SOL     OW39889   0.175   1.247   5.593  0.4753  0.3777  0.4595
 9477SOL    HW139890   0.255   1.228   5.643 -0.4493 -0.9282  1.4295
 9477SOL    HW239891   0.117   1.175   5.615 -0.8579  0.5394 -2.5813
 9478SOL     OW39892   1.328   4.316   0.737  0.1546 -0.1059 -0.5064
 9478SOL    HW139893   1.291   4.328   0.649  0.0231 -3.5985 -0.9292
 9478SOL    HW239894   1.257   4.348   0.793  0.8803 -2.0118  1.5040
 9479SOL     OW39895   0.222   1.239   6.442  0.4665 -0.0527  0.4043
 9479SOL    HW139896   0.189   1.322   6.475  1.9613  1.7383 -2.5480
 9479SOL    HW239897   0.308   1.227   6.483  0.4979  1.2328  0.7158
 9480SOL     OW39898   0.844   1.092  11.732  0.5861  0.2510 -0.1446
 9480SOL    HW139899   0.902   1.020  11.758  1.4132  1.4268  1.2305
 9480SOL    HW239900   0.851   1.103  11.637 -0.2445 -3.2621 -0.6366
 9481SOL     OW39901   1.347   2.325   7.391  0.3739  0.1907 -0.1930
 9481SOL    HW139902   1.317   2.394   7.331 -0.0688  0.0948 -0.0805
 9481SOL    HW239903   1.442   2.325   7.398  0.3620  0.0998 -0.0470
 9482SOL     OW39904   3.980   4.016  14.738  0.3562  0.0367 -0.1176
 9482SOL    HW139905   3.895   4.050  14.711  1.4923  2.0217 -1.2154
 9482SOL    HW239906   3.966   3.938  14.792  2.6008  0.9584  1.7883
 9483SOL     OW39907   4.624   1.523   4.227  0.1484 -0.4594 -0.2847
 9483SOL    HW139908   4.583   1.438   4.245 -2.7109  0.9891 -0.0290
 9483SOL    HW239909   4.660   1.506   4.140  0.6676 -0.7884 -0.0088
 9484SOL     OW39910   2.634   2.599   7.335  0.0950 -0.4507 -0.2928
 9484SOL    HW139911   2.640   2.676   7.392  0.2914 -1.0179  0.4539
 9484SOL    HW239912   2.620   2.639   7.249  2.3160  0.6550 -0.1310
 9485SOL     OW39913   1.735   1.969  13.658  0.2366  0.1492  0.1999
 9485SOL    HW139914   1.708   2.057  13.682 -1.4368 -0.3125  0.0495
 9485SOL    HW239915   1.817   1.983  13.610  1.2121  1.3159  2.1929
 9486SOL     OW39916   1.785   2.949   8.082 -0.4080  0.1693  0.5989
 9486SOL    HW139917   1.733   2.873   8.060  1.9101 -1.3521  0.4096
 9486SOL    HW239918   1.794   2.936   8.177 -0.6609 -0.1079  0.5826
 9487SOL     OW39919   2.502   3.516   3.914  0.4128 -0.3615  0.0721
 9487SOL    HW139920   2.590   3.507   3.950  1.7524  0.3585 -3.0871
 9487SOL    HW239921   2.521   3.584   3.850  2.8358 -0.4240  0.7220
 9488SOL     OW39922   0.745   0.379   4.700  0.0465  0.0363  0.0033
 9488SOL    HW139923   0.768   0.330   4.621  1.7927 -0.7405  0.9883
 9488SOL    HW239924   0.680   0.440   4.664 -0.8967 -0.5598  0.7054
 9489SOL     OW39925   1.507   0.700   3.917 -0.0634  0.1025 -0.0054
 9489SOL    HW139926   1.593   0.722   3.952 -0.5398 -0.8933  1.7770
 9489SOL    HW239927   1.491   0.772   3.855 -0.9936  0.6871  0.9163
 9490SOL     OW39928   2.526   3.286   4.606 -0.3296  0.3709 -0.3869
 9490SOL    HW139929   2.527   3.361   4.547  1.4217  1.3402  0.8754
 9490SOL    HW239930   2.435   3.255   4.603  0.9508 -3.3870  0.2544
 9491SOL     OW39931   4.053   0.120   9.936 -0.7320 -0.3022  0.0316
 9491SOL    HW139932   4.006   0.050   9.981 -1.5628 -0.0371 -0.4298
 9491SOL    HW239933   4.136   0.075   9.916 -0.6299 -0.4408  0.7518
 9492SOL     OW39934   4.419   1.707  15.575 -0.0635 -0.2166 -0.4007
 9492SOL    HW139935   4.434   1.615  15.597 -1.1000 -0.0552  0.9610
 9492SOL    HW239936   4.509   1.740  15.570  0.1704 -0.8617 -0.3979
 9493SOL     OW39937   1.202   0.268  11.682  0.8357 -0.4439 -0.4280
 9493SOL    HW139938   1.269   0.312  11.629  2.1742  0.2497  1.8487
 9493SOL    HW239939   1.148   0.229  11.614  2.6149  0.9820 -2.6530
 9494SOL     OW39940   3.659   1.947   5.845  0.2368 -0.1543  0.0052
 9494SOL    HW139941   3.748   1.932   5.876  1.4999  1.6370 -2.8219
 9494SOL    HW239942   3.623   2.004   5.913  1.4618 -1.8852  2.1180
 9495SOL     OW39943   0.439   0.474  10.140 -0.0675 -0.1514  0.6910
 9495SOL    HW139944   0.509   0.489  10.203  1.6476 -2.0182 -0.7687
 9495SOL    HW239945   0.472   0.498  10.053 -1.6378 -2.5628 -0.5879
 9496SOL     OW39946   1.818   2.365   6.232 -0.4120 -0.3641  0.2298
 9496SOL    HW139947   1.911   2.390   6.230 -0.0759 -1.7592 -1.7877
 9496SOL    HW239948   1.828   2.282   6.185 -0.1178 -0.7259  0.9411
 9497SOL     OW39949   0.622   4.187  15.331 -0.0454 -0.5165 -0.0335
 9497SOL    HW139950   0.579   4.170  15.247 -2.4391  2.3976  0.5677
 9497SOL    HW239951   0.545   4.199  15.387 -0.3266  0.6911 -0.6657
 9498SOL     OW39952   0.480   2.731   6.605 -0.5279  0.0486 -0.2811
 9498SOL    HW139953   0.471   2.706   6.513 -2.1185 -0.1686 -0.0746
 9498SOL    HW239954   0.408   2.790   6.627 -1.2028 -1.0989  0.6347
 9499SOL     OW39955   4.422   4.362   4.255  0.3113  0.2709 -0.3999
 9499SOL    HW139956   4.459   4.406   4.331  1.4868 -2.4098  0.5496
 9499SOL    HW239957   4.466   4.278   4.267 -0.1959 -0.0333 -0.6830
 9500SOL     OW39958   2.370   0.154   2.711 -0.7461 -0.4094 -0.4346
 9500SOL    HW139959   2.380   0.152   2.807  0.4708  0.2808 -0.5386
 9500SOL    HW239960   2.454   0.112   2.689 -0.1631  1.8206 -2.3596
 9501SOL     OW39961   4.349   3.691  14.865  0.6025  0.4796 -0.3212
 9501SOL    HW139962   4.392   3.716  14.947  1.7583 -1.9341 -0.1989
 9501SOL    HW239963   4.417   3.715  14.802 -0.9810  3.6661 -0.8387
 9502SOL     OW39964   3.157   4.375   2.857 -0.1215 -0.2453  0.7554
 9502SOL    HW139965   3.173   4.439   2.927 -1.0929 -0.8976  1.5562
 9502SOL    HW239966   3.238   4.330   2.834 -0.2249  0.6595 -1.3874
 9503SOL     OW39967   1.385   0.105   1.126 -0.3096  0.2166 -0.0157
 9503SOL    HW139968   1.371   0.101   1.032  0.9324  0.2829 -0.2067
 9503SOL    HW239969   1.376   0.196   1.154 -2.0012 -1.2829  4.4295
 9504SOL     OW39970   0.708   3.092   2.679  0.6827 -0.1904 -0.4409
 9504SOL    HW139971   0.778   3.064   2.621 -0.2962 -1.5493 -0.9734
 9504SOL    HW239972   0.699   3.186   2.664 -0.8521 -0.3040 -0.2842
 9505SOL     OW39973   1.285   3.249   3.299 -0.0982  0.0537  0.3590
 9505SOL    HW139974   1.271   3.166   3.253 -0.6937  0.9178 -1.0402
 9505SOL    HW239975   1.240   3.317   3.247 -1.7208 -1.9256 -0.8204
 9506SOL     OW39976   0.311   1.940   6.240  0.1876 -0.5599 -0.4164
 9506SOL    HW139977   0.369   1.866   6.224 -1.2442 -1.4927 -1.2892
 9506SOL    HW239978   0.282   1.940   6.149  0.0084 -0.3626 -0.3603
 9507SOL     OW39979   0.208   2.763   5.604 -0.2682  0.2820 -0.0301
 9507SOL    HW139980   0.117   2.733   5.609  0.7293 -2.1639  3.4120
 9507SOL    HW239981   0.210   2.775   5.509 -0.9390 -1.2317 -0.2262
 9508SOL     OW39982   1.944   0.712  12.977  0.2040 -0.0975  0.5498
 9508SOL    HW139983   1.934   0.617  12.972  0.4162  0.0463 -2.7410
 9508SOL    HW239984   2.038   0.732  12.970  0.2241 -0.6683 -0.7958
 9509SOL     OW39985   2.525   2.004   0.107  0.0766 -0.2804 -0.5433
 9509SOL    HW139986   2.475   2.000   0.189 -0.7069 -0.8985 -1.0605
 9509SOL    HW239987   2.455   2.025   0.045  1.7488 -1.4979 -2.8178
 9510SOL     OW39988   1.560   2.702   4.871  0.1902 -0.2357  0.4916
 9510SOL    HW139989   1.602   2.731   4.952  0.8702 -0.0306  0.0647
 9510SOL    HW239990   1.591   2.774   4.817 -1.0827  0.4429  0.6688
 9511SOL     OW39991   1.941   2.609   4.993  0.8016 -0.5363 -0.0537
 9511SOL    HW139992   1.919   2.698   5.020  0.0989 -1.4452  2.3936
 9511SOL    HW239993   2.006   2.620   4.924  1.5990  0.5314  0.8752
 9512SOL     OW39994   0.709   1.803   5.548 -0.1363 -0.6756  0.2091
 9512SOL    HW139995   0.678   1.717   5.577 -1.2895 -0.1087  0.6791
 9512SOL    HW239996   0.626   1.850   5.543 -0.7928 -1.7076  1.1910
 9513SOL     OW39997   1.791   1.867  17.455  0.2257  0.5959 -0.3463
 9513SOL    HW139998   1.696   1.857  17.460  0.2188  0.1778 -1.4038
 9513SOL    HW239999   1.811   1.818  17.375 -0.0501  0.2174 -0.1840
 9514SOL     OW40000   0.981   0.766   5.650  0.0849  0.1284 -0.0923
 9514SOL    HW140001   1.005   0.859   5.644  0.2998  0.0973  0.3059
 9514SOL    HW240002   0.932   0.766   5.568  0.8965  1.2985 -0.5855
 9515SOL     OW40003   2.032   2.268   0.587 -0.5621  0.2805 -0.3191
 9515SOL    HW140004   2.085   2.229   0.518 -1.0887 -0.1651 -0.4770
 9515SOL    HW240005   1.953   2.215   0.599 -0.3516  0.0194 -0.0596
 9516SOL     OW40006   4.359   2.033   9.847  0.5531 -0.1521 -0.4655
 9516SOL    HW140007   4.288   2.050   9.909 -0.4944 -1.9511 -1.1488
 9516SOL    HW240008   4.437   2.045   9.901  1.5122 -0.6497 -1.7381
 9517SOL     OW40009   0.622   3.481   7.561 -0.4384  0.7322 -0.1429
 9517SOL    HW140010   0.611   3.404   7.505  1.4618  0.2330  0.1644
 9517SOL    HW240011   0.630   3.542   7.488  0.8153  1.5021  0.6497
 9518SOL     OW40012   3.652   2.292   5.025  0.4375 -0.4942  0.2048
 9518SOL    HW140013   3.713   2.353   4.984 -0.5173  1.2614  1.3809
 9518SOL    HW240014   3.581   2.355   5.035  1.1914  0.6668 -1.8553
 9519SOL     OW40015   0.785   4.437   4.369 -0.2816 -0.2636  0.5801
 9519SOL    HW140016   0.814   4.433   4.277 -0.7667 -2.6374  0.5432
 9519SOL    HW240017   0.745   4.351   4.379 -1.0175 -0.0355 -0.4066
 9520SOL     OW40018   2.169   3.151   8.509 -0.7582 -0.0487 -0.2488
 9520SOL    HW140019   2.247   3.133   8.457 -0.6924  0.9529 -0.5018
 9520SOL    HW240020   2.140   3.069   8.547 -3.5188  0.6328 -0.8822
 9521SOL     OW40021   3.059   3.912   0.088 -0.0237  0.3384 -0.2754
 9521SOL    HW140022   2.999   3.846   0.052  0.9209  0.6774 -2.5016
 9521SOL    HW240023   3.083   3.884   0.176 -0.5480 -2.1578 -0.9314
 9522SOL     OW40024   4.304   0.507  17.000 -0.0376  0.6649  0.3186
 9522SOL    HW140025   4.308   0.414  16.980 -1.0966  0.8439 -0.7866
 9522SOL    HW240026   4.293   0.508  17.095 -2.2419  3.2305  0.0445
 9523SOL     OW40027   3.759   2.538   4.912  0.0710  0.6147 -0.2162
 9523SOL    HW140028   3.816   2.569   4.841 -0.5159  1.4841 -0.3088
 9523SOL    HW240029   3.679   2.575   4.873 -1.6408  0.1496  2.8608
 9524SOL     OW40030   2.021   4.531   8.349 -0.2545 -0.0110  0.0478
 9524SOL    HW140031   2.067   4.448   8.344  1.4398  0.8712  1.1221
 9524SOL    HW240032   2.087   4.586   8.390  1.1971 -1.6832 -0.0757
 9525SOL     OW40033   2.757   0.616   1.107  0.0653  0.1183 -0.5427
 9525SOL    HW140034   2.839   0.622   1.058 -1.0285  1.6503 -2.1907
 9525SOL    HW240035   2.738   0.524   1.089  2.4280 -1.2720  4.0386
 9526SOL     OW40036   1.111   4.377   2.326 -0.5160 -1.2704  0.2375
 9526SOL    HW140037   1.034   4.345   2.279 -0.1432 -0.0886 -1.1594
 9526SOL    HW240038   1.104   4.356   2.419 -2.1457  0.9857  0.6195
 9527SOL     OW40039   3.679   4.187  17.009  0.2194  0.3271  0.6349
 9527SOL    HW140040   3.676   4.282  17.022  1.2576  0.7284 -2.0425
 9527SOL    HW240041   3.728   4.176  16.927  0.3636  1.0693  0.6203
 9528SOL     OW40042   2.493   4.248   7.963 -0.4788  0.2266 -0.3399
 9528SOL    HW140043   2.551   4.321   7.943 -1.9571  0.5453 -3.4513
 9528SOL    HW240044   2.448   4.278   8.042 -1.5155 -4.5556  0.9282
 9529SOL     OW40045   0.457   3.518  10.738  0.2472 -0.6219 -0.2555
 9529SOL    HW140046   0.541   3.475  10.727  0.0720 -0.9845 -0.1996
 9529SOL    HW240047   0.459   3.532  10.833 -2.5945  0.2954 -0.3154
 9530SOL     OW40048   0.256   0.583   6.224  0.1759  0.9378  0.4764
 9530SOL    HW140049   0.348   0.585   6.196  0.6545 -0.2801  1.9103
 9530SOL    HW240050   0.215   0.626   6.150 -0.9813 -0.0011  0.5741
 9531SOL     OW40051   3.620   3.759   8.212  0.0643  0.1692 -0.2467
 9531SOL    HW140052   3.573   3.680   8.183  2.2888 -1.0080 -0.6203
 9531SOL    HW240053   3.542   3.814   8.224  0.9991  0.8742  2.6011
 9532SOL     OW40054   0.753   2.110   4.524 -0.0782 -0.8526 -0.1606
 9532SOL    HW140055   0.704   2.191   4.510  0.5879 -0.3258  0.6081
 9532SOL    HW240056   0.800   2.128   4.605 -0.0334  0.8455 -0.5575
 9533SOL     OW40057   4.188   3.584   6.988  0.0245 -0.8816 -0.1341
 9533SOL    HW140058   4.245   3.521   6.944 -0.3882  0.2138 -2.2616
 9533SOL    HW240059   4.246   3.657   7.008  0.3026 -0.9867 -0.5493
 9534SOL     OW40060   4.448   4.158   1.043 -0.0856  0.0427 -0.0830
 9534SOL    HW140061   4.482   4.104   0.972 -1.4663 -1.0387  0.0798
 9534SOL    HW240062   4.439   4.092   1.112  1.3294 -0.4295 -0.3563
 9535SOL     OW40063   2.124   0.931  10.046  0.6536  0.7183 -0.4792
 9535SOL    HW140064   2.080   0.869   9.987  2.5793 -0.4831 -0.6681
 9535SOL    HW240065   2.074   1.008  10.019 -1.0512  0.2471  1.3313
 9536SOL     OW40066   0.138   4.408  16.007  0.7802 -0.4111 -0.7141
 9536SOL    HW140067   0.065   4.351  16.030 -0.3519  1.5921  0.6362
 9536SOL    HW240068   0.191   4.400  16.087  0.0816 -3.7616 -0.5682
 9537SOL     OW40069   3.342   2.650   8.474 -0.3118 -0.6515 -0.1179
 9537SOL    HW140070   3.360   2.598   8.552  0.5647  0.4352  0.4089
 9537SOL    HW240071   3.296   2.595   8.411 -1.0013  0.3455 -0.4834
 9538SOL     OW40072   2.971   4.425   4.115 -0.6231  0.1728 -0.1080
 9538SOL    HW140073   2.893   4.370   4.112  0.0639 -0.7209 -1.6234
 9538SOL    HW240074   3.030   4.352   4.135 -1.4759 -0.0739  1.4582
 9539SOL     OW40075   1.586   2.801   7.073 -0.4532 -0.5534  0.5165
 9539SOL    HW140076   1.679   2.781   7.080 -0.4562 -0.2677  1.4499
 9539SOL    HW240077   1.560   2.797   7.165  2.0229 -1.1311  1.1921
 9540SOL     OW40078   0.651   0.186   2.215 -0.6170 -0.0770  0.0091
 9540SOL    HW140079   0.688   0.217   2.298  1.0577 -1.2511 -0.2966
 9540SOL    HW240080   0.561   0.210   2.237 -0.9524  0.7855 -2.3026
 9541SOL     OW40081   3.882   2.910   3.014  0.3315 -0.1241 -0.2541
 9541SOL    HW140082   3.943   2.954   2.955  0.3892 -1.2402 -1.0270
 9541SOL    HW240083   3.946   2.849   3.050  0.0813  0.9492  1.9999
 9542SOL     OW40084   2.224   4.029   3.479  0.2202  0.5121 -0.3354
 9542SOL    HW140085   2.255   3.998   3.564  1.2042  1.8991 -0.1808
 9542SOL    HW240086   2.294   4.090   3.457  1.3052 -0.7032 -0.2413
 9543SOL     OW40087   3.589   3.184   7.901 -0.3626  0.0982  0.1155
 9543SOL    HW140088   3.560   3.205   7.812  2.8277  0.9274 -0.7162
 9543SOL    HW240089   3.658   3.124   7.874  0.3435  2.1314 -2.6102
 9544SOL     OW40090   2.574   3.289   6.980  0.4736 -0.3205 -0.2194
 9544SOL    HW140091   2.625   3.296   6.900 -0.0570 -0.6431 -0.5840
 9544SOL    HW240092   2.555   3.383   6.987 -0.3631 -0.5450  0.5158
 9545SOL     OW40093   2.347   1.035   3.680 -0.0577 -0.0990  0.2889
 9545SOL    HW140094   2.305   0.986   3.609 -1.5210  1.5785  0.0009
 9545SOL    HW240095   2.420   1.075   3.632 -0.3515  1.4144  1.1180
 9546SOL     OW40096   0.291   1.930   5.960  0.5719 -0.0846  0.1203
 9546SOL    HW140097   0.200   1.955   5.945  0.9259 -0.3756 -2.5041
 9546SOL    HW240098   0.307   1.878   5.881 -0.1831  0.6746 -0.5407
 9547SOL     OW40099   1.698   2.742  10.090  0.2530  0.4323  0.3660
 9547SOL    HW140100   1.719   2.715  10.000 -2.9260  2.6628 -1.0776
 9547SOL    HW240101   1.643   2.819  10.075 -0.2337 -0.3362 -1.7974
 9548SOL     OW40102   3.031   2.356   0.804  0.1343 -0.0141  0.5461
 9548SOL    HW140103   3.085   2.409   0.864  2.1706  0.3986 -1.6623
 9548SOL    HW240104   2.962   2.417   0.778 -0.7682 -1.2435  0.0574
 9549SOL     OW40105   3.810   2.114  10.757  0.1914  0.2222 -0.0502
 9549SOL    HW140106   3.772   2.108  10.845 -0.1501 -0.9796 -0.2696
 9549SOL    HW240107   3.839   2.204  10.757 -2.8473  1.2266 -1.2935
 9550SOL     OW40108   0.163   2.945   0.325  0.0693 -0.4446 -0.3774
 9550SOL    HW140109   0.226   2.896   0.271 -0.6255 -1.1899 -0.5140
 9550SOL    HW240110   0.164   3.035   0.293  2.0820 -0.1523  0.5036
 9551SOL     OW40111   1.800   0.846   3.455 -0.2018  0.5977  0.1926
 9551SOL    HW140112   1.811   0.755   3.427  0.9219  0.6157  0.5421
 9551SOL    HW240113   1.831   0.852   3.546 -2.5616 -1.8182  1.1511
 9552SOL     OW40114   1.939   2.119   8.357  0.2656  0.5062  0.2277
 9552SOL    HW140115   1.935   2.026   8.378  2.6098  0.4827  0.4814
 9552SOL    HW240116   1.983   2.155   8.434 -1.0977  2.6312  0.0431
 9553SOL     OW40117   1.412   3.238   6.732  0.1969 -0.1422  0.2939
 9553SOL    HW140118   1.351   3.311   6.721 -0.4339 -0.9303 -1.3070
 9553SOL    HW240119   1.448   3.255   6.820  1.5167  2.3095 -0.7129
 9554SOL     OW40120   1.437   4.396  17.029 -0.3600 -0.1397  0.0580
 9554SOL    HW140121   1.358   4.354  16.996  1.0533 -2.7435 -0.0160
 9554SOL    HW240122   1.402   4.484  17.041  1.2378  0.4156  0.7177
 9555SOL     OW40123   3.323   1.653  16.287 -0.0522  0.8261  0.5353
 9555SOL    HW140124   3.325   1.562  16.258 -1.2043  1.5680 -1.8746
 9555SOL    HW240125   3.351   1.640  16.378 -0.3060  1.7549  0.7517
 9556SOL     OW40126   0.449   1.089   7.530  0.1902  0.3707  0.0326
 9556SOL    HW140127   0.528   1.134   7.561  2.0071 -2.2836 -0.6823
 9556SOL    HW240128   0.478   1.002   7.554 -1.3930 -0.3508 -0.6757
 9557SOL     OW40129   0.699   0.852  14.563 -0.4479  0.1095  0.0949
 9557SOL    HW140130   0.746   0.912  14.621 -2.2287  2.0392 -0.4716
 9557SOL    HW240131   0.628   0.811  14.612 -0.2618 -0.8513 -0.4255
 9558SOL     OW40132   3.857   0.665  12.658 -0.1915 -0.0568 -0.0617
 9558SOL    HW140133   3.793   0.667  12.729  0.4371  1.3006  0.4627
 9558SOL    HW240134   3.800   0.698  12.589 -0.8970 -0.2154  0.4387
 9559SOL     OW40135   0.503   0.966  13.666  0.2200 -0.1248 -0.3133
 9559SOL    HW140136   0.441   0.924  13.607 -0.9174  0.4171  0.5018
 9559SOL    HW240137   0.500   0.915  13.747  2.6339  2.3068  1.3271
 9560SOL     OW40138   3.295   0.241   1.201 -0.5571 -0.5517  0.0580
 9560SOL    HW140139   3.227   0.298   1.236  1.8519  1.1603  1.9161
 9560SOL    HW240140   3.334   0.224   1.286 -2.1706 -0.8125  0.7430
 9561SOL     OW40141   4.468   0.952  12.943  0.9416 -0.5521 -0.1906
 9561SOL    HW140142   4.483   0.868  12.899 -0.5952 -0.7364 -0.3825
 9561SOL    HW240143   4.389   0.968  12.890 -0.6779  0.4188  2.5164
 9562SOL     OW40144   4.563   2.815   3.343  1.2497  0.2877 -0.1736
 9562SOL    HW140145   4.569   2.890   3.283  1.9534 -0.4491 -1.0190
 9562SOL    HW240146   4.604   2.845   3.424  0.1310  3.3315 -0.7238
 9563SOL     OW40147   0.222   1.053   8.271 -0.6514  0.2144  0.6314
 9563SOL    HW140148   0.280   1.111   8.221 -3.4202  2.8016  0.4218
 9563SOL    HW240149   0.229   0.989   8.200 -1.5200  0.2994  0.4648
 9564SOL     OW40150   3.040   2.251   3.862  0.0402  0.0423  1.0259
 9564SOL    HW140151   2.968   2.190   3.877  0.1484 -1.1160 -3.1713
 9564SOL    HW240152   3.113   2.197   3.834 -0.5340  0.6144 -1.5263
 9565SOL     OW40153   1.196   0.309  15.583  0.4825  0.5137  0.1007
 9565SOL    HW140154   1.125   0.267  15.534  1.4226  0.6284 -1.3380
 9565SOL    HW240155   1.154   0.309  15.669 -0.3029  0.0196 -0.2809
   4.72116   4.72116  17.68703
