Membrane in water
40155
    1TCq1    O1    1   4.262   2.092  11.259  0.3850  0.2985 -0.2567
    1TCq1    C1    2   4.287   2.137  11.386 -0.2432  0.0490  0.4763
    1TCq1    O2    3   4.199   2.168  11.459 -0.0161  0.2683  0.0730
    1TCq1    C2    4   4.413   2.066  11.433 -0.3788 -0.3669 -0.3610
    1TCq1    C3    5   4.524   2.076  11.352  0.4881  0.7097 -0.5338
    1TCq1    C4    6   4.648   2.037  11.398 -0.1840 -0.8765  0.4486
    1TCq1    C5    7   4.658   1.995  11.528  0.2278  0.3857  0.2247
    1TCq1    C6    8   4.542   1.999  11.611  0.2157  0.1220 -0.1929
    1TCq1    C7    9   4.424   2.040  11.567 -0.9832  0.1773 -0.5148
    1TCq1    C8   10   4.562   2.015  11.756 -0.0247  1.1364 -0.2551
    1TCq1    O4   11   4.468   2.061  11.818 -0.2951  0.1444 -0.1783
    1TCq1    C9   12   0.039   2.065  11.324  0.3023 -0.4145 -0.8067
    1TCq1    O5   13   0.149   2.049  11.382 -0.4423 -0.3402  0.2008
    1TCq1    O6   14   0.023   2.149  11.233 -0.5014  0.1185 -0.2587
    1TCq1    H1   15   4.328   2.026  11.228 -0.5940 -0.9520  0.2773
    1TCq1    H2   16   4.526   2.123  11.254 -0.7273  0.8025 -0.5196
    1TCq1    H3   17   0.030   1.958  11.566 -0.2773  0.3391  1.4366
    1TCq1    H4   18   4.337   2.060  11.629 -1.1832 -1.1125 -0.3782
    2MPD2     C   19   0.091   2.019  12.199  0.2068 -0.2209  0.0181
    2MPD2    C1   20   0.007   2.108  12.143  0.1463 -0.8531  0.4356
    2MPD2    C2   21   4.662   2.078  12.022  0.2479  0.4356 -0.3199
    2MPD2    C3   22   4.707   1.973  11.948 -0.2298 -0.3140  0.2428
    2MPD2    C4   23   0.067   1.882  12.005  0.6151  0.1396  0.2661
    2MPD2    C5   24   0.114   1.900  12.134 -0.6669  0.5016 -0.0696
    2MPD2     H   25   4.599   2.155  11.977 -1.2470 -0.1601  0.7443
    2MPD2    H1   26   0.112   1.796  11.957  1.0651 -0.3502  1.5607
    2MPD2    H2   27   0.142   2.040  12.293 -0.1303 -2.5369  0.7293
    2MPD2    H3   28   0.173   1.821  12.180 -2.3555 -0.3387  0.6443
    2MPD2     N   29   4.670   1.954  11.813 -0.2892  0.3247 -0.7417
    2MPD2    H5   30   0.006   1.893  11.757  1.4167 -0.7192  2.2129
    2MPD2    N1   31   4.700   2.231  12.199 -0.0263 -0.1672 -0.3828
    2MPD2    H7   32   4.641   2.296  12.147  0.4937  1.6991  1.3484
    3TCq1    O1   33   0.225   4.217  10.630  0.0367  0.1900 -0.4816
    3TCq1    C1   34   0.197   4.098  10.690 -0.4714  0.7021  0.0634
    3TCq1    O2   35   0.126   4.009  10.651  0.8479  0.3897  0.2098
    3TCq1    C2   36   0.236   4.114  10.830 -0.0231 -0.2252  0.0109
    3TCq1    C3   37   0.317   4.219  10.867  0.1314 -0.1535  0.6516
    3TCq1    C4   38   0.305   4.273  10.996 -0.1600 -0.1131 -0.2292
    3TCq1    C5   39   0.203   4.230  11.076  0.6404  0.5590  0.2684
    3TCq1    C6   40   0.127   4.130  11.034  0.3275 -0.2211 -0.0322
    3TCq1    C7   41   0.140   4.066  10.912 -0.3768  0.6587 -0.2381
    3TCq1    C8   42   0.010   4.091  11.104  0.5088  0.4618  0.2817
    3TCq1    O4   43   4.717   3.970  11.120 -0.2184  0.4160  0.0434
    3TCq1    C9   44   0.408   4.354  11.052  0.5974 -0.3059 -0.3572
    3TCq1    O5   45   0.404   4.374  11.179  0.4840  0.0801 -0.0737
    3TCq1    O6   46   0.519   4.356  10.991 -0.1104 -0.8382 -0.7831
    3TCq1    H1   47   0.253   4.291  10.688 -0.1159  0.2333 -0.4618
    3TCq1    H2   48   0.397   4.253  10.803 -0.9598 -1.4636 -1.4122
    3TCq1    H3   49   0.194   4.259  11.180 -0.0056  0.9137  0.1117
    3TCq1    H4   50   0.078   3.984  10.877  0.4141 -0.3020  0.5943
    4MPD2     C   51   4.320   4.236  11.363 -0.2086 -0.1841  0.3817
    4MPD2    C1   52   4.347   4.334  11.270  0.8648 -0.4616 -0.1907
    4MPD2    C2   53   4.451   4.310  11.185 -0.1514  0.8709  1.0840
    4MPD2    C3   54   4.536   4.198  11.195 -0.5299  0.2997 -0.4551
    4MPD2    C4   55   4.509   4.106  11.289 -0.9195 -1.0435 -0.3753
    4MPD2    C5   56   4.396   4.126  11.367  0.7573 -0.1341  0.3862
    4MPD2     H   57   4.473   4.385  11.110 -2.4583 -1.3371 -1.8499
    4MPD2    H1   58   4.569   4.020  11.316  0.4207 -0.8522 -2.7093
    4MPD2    H2   59   4.235   4.239  11.430 -0.1931 -0.8995  0.4284
    4MPD2    H3   60   4.366   4.057  11.445  0.0153 -0.4300 -0.1600
    4MPD2     N   61   4.653   4.196  11.123 -0.3397  0.3859 -0.1363
    4MPD2    H5   62   4.678   4.286  11.083  1.4413 -1.0843 -2.3010
    4MPD2    N1   63   4.275   4.449  11.257  0.1349 -0.3340 -0.3886
    4MPD2    H7   64   4.288   4.506  11.174  0.2198 -2.0221 -1.5321
    5TCq1    O1   65   4.712   2.233  10.975  0.1919  0.3402 -0.4625
    5TCq1    C1   66   0.006   2.145  10.873 -0.0035  0.0432  0.4435
    5TCq1    O2   67   0.014   2.172  10.753 -1.0943  0.4897 -0.3554
    5TCq1    C2   68   4.708   2.016  10.912 -0.0862  0.6650  0.5129
    5TCq1    C3   69   4.609   1.990  11.000 -0.3894  0.4430  0.4927
    5TCq1    C4   70   4.595   1.862  11.040 -0.1354 -0.4327  0.3438
    5TCq1    C5   71   4.683   1.764  11.002 -0.4263  0.2156 -0.0021
    5TCq1    C6   72   0.054   1.793  10.907 -1.0318 -0.2323  0.0085
    5TCq1    C7   73   0.063   1.919  10.855 -0.2375 -0.4278 -0.5472
    5TCq1    C8   74   0.102   1.677  10.830 -0.2250  0.2146  0.9357
    5TCq1    O4   75   0.093   1.570  10.886  0.3823  0.0068 -0.1670
    5TCq1    C9   76   4.478   1.822  11.117 -1.0742 -0.2611  0.4288
    5TCq1    O5   77   4.389   1.911  11.133 -0.0602 -0.4805  0.5612
    5TCq1    O6   78   4.457   1.700  11.137 -0.1584 -0.0646  0.2967
    5TCq1    H1   79   4.701   2.174  11.052 -0.1737 -1.9573 -2.2682
    5TCq1    H2   80   4.529   2.058  11.027 -1.4872 -0.0184 -1.6028
    5TCq1    H3   81   4.672   1.662  11.038  1.6725 -0.5137 -1.4620
    5TCq1    H4   82   0.132   1.953  10.779 -0.2493  0.7987 -0.0197
    6MPD2     C   83   0.245   1.658  10.492 -0.2463 -0.6293  0.3922
    6MPD2    C1   84   0.201   1.603  10.609 -0.8340 -0.1374 -0.1506
    6MPD2    C2   85   0.210   1.470  10.637 -0.1954 -0.5188  0.0538
    6MPD2    C3   86   0.259   1.385  10.537  0.3785 -0.3620  0.8337
    6MPD2    C4   87   0.298   1.441  10.418 -0.4164  0.0815 -0.0746
    6MPD2    C5   88   0.299   1.573  10.398 -0.4936  0.1804  0.0061
    6MPD2     H   89   0.195   1.432  10.737  0.0297 -0.3194  0.1647
    6MPD2    H1   90   0.344   1.385  10.337 -1.5461 -1.2607  0.2159
    6MPD2    H2   91   0.227   1.762  10.466 -0.8508 -1.2012 -1.4871
    6MPD2    H3   92   0.337   1.603  10.302  0.2432  0.1119  0.2779
    6MPD2     N   93   0.259   1.249  10.561 -0.1138 -0.2483  0.4319
    6MPD2    H5   94   0.215   1.223  10.649  2.1281  1.5074  2.0525
    6MPD2    N1   95   0.152   1.697  10.702 -0.3468 -0.4382 -0.2054
    6MPD2    H7   96   0.150   1.793  10.667 -0.7287 -0.9414 -1.5721
    7TCq1    O1   97   2.577   4.483  12.375  0.5216  0.5190  0.1088
    7TCq1    C1   98   2.645   4.397  12.453  0.1077  0.1295 -0.2996
    7TCq1    O2   99   2.751   4.418  12.513  0.0623 -0.3111 -0.0497
    7TCq1    C2  100   2.554   4.279  12.472 -0.2114 -0.0037  0.2776
    7TCq1    C3  101   2.469   4.249  12.370  0.0152  0.7336 -0.1742
    7TCq1    C4  102   2.371   4.158  12.389  0.0204 -0.7394  0.3076
    7TCq1    C5  103   2.348   4.116  12.515 -0.3455 -0.3705 -0.6289
    7TCq1    C6  104   2.438   4.142  12.618  0.3487  0.2082  0.0969
    7TCq1    C7  105   2.550   4.213  12.596 -0.8296 -0.4172  0.5034
    7TCq1    C8  106   2.382   4.115  12.758 -0.2315 -0.5245 -0.0094
    7TCq1    O4  107   2.306   4.022  12.781  0.1124 -1.1843  0.1575
    7TCq1    C9  108   2.267   4.157  12.297 -0.5419  0.3642  0.0574
    7TCq1    O5  109   2.152   4.143  12.343  0.3294 -0.5333 -0.0037
    7TCq1    O6  110   2.294   4.194  12.182  0.2706  1.0971 -0.8113
    7TCq1    H1  111   2.490   4.443  12.355 -0.0828  1.4244  0.8764
    7TCq1    H2  112   2.472   4.295  12.272 -0.7381  2.5898  0.6897
    7TCq1    H3  113   2.263   4.051  12.532  0.3446 -1.3842 -1.0932
    7TCq1    H4  114   2.620   4.231  12.677  1.8529  1.2777 -2.1819
    8MPD2     C  115   2.220   4.255  13.223  0.1931  0.2867  0.2510
    8MPD2    C1  116   2.227   4.127  13.166  1.1853  0.1709  0.2323
    8MPD2    C2  117   2.294   4.114  13.047 -0.1470 -0.0868  0.1164
    8MPD2    C3  118   2.351   4.218  12.977  0.2175 -0.6743  0.4656
    8MPD2    C4  119   2.345   4.343  13.039  0.0833  1.1278  0.1664
    8MPD2    C5  120   2.281   4.363  13.155 -0.2969  0.7052  0.3004
    8MPD2     H  121   2.306   4.016  13.001  1.0401 -0.4549  1.1874
    8MPD2    H1  122   2.409   4.422  13.000  0.3340  0.6197 -0.4395
    8MPD2    H2  123   2.178   4.267  13.322 -0.3334  1.8938 -0.1663
    8MPD2    H3  124   2.294   4.457  13.208 -0.7223  1.3071 -0.6528
    8MPD2     N  125   2.412   4.213  12.849  0.0287  0.2253 -0.4045
    8MPD2    H5  126   2.445   4.301  12.809 -0.3539  0.3779 -0.3866
    8MPD2    N1  127   2.152   4.030  13.234  0.1528  0.6425  0.1930
    8MPD2    H7  128   2.117   4.054  13.326 -0.7164  1.9059 -0.4728
    9TCq1    O1  129   0.694   4.325  10.798  0.1623 -0.0525 -0.1722
    9TCq1    C1  130   0.692   4.196  10.764  0.4752 -0.2300  0.2188
    9TCq1    O2  131   0.702   4.152  10.650  0.5927 -0.1094  0.4908
    9TCq1    C2  132   0.666   4.112  10.879  0.4661 -0.2761 -0.0104
    9TCq1    C3  133   0.699   4.148  11.010  0.1800  0.3695  0.2979
    9TCq1    C4  134   0.639   4.069  11.109 -0.4864  0.4784 -0.7704
    9TCq1    C5  135   0.562   3.964  11.081 -0.1417  0.4627  0.3001
    9TCq1    C6  136   0.546   3.929  10.949 -0.0730  0.5292  0.2710
    9TCq1    C7  137   0.601   4.005  10.845 -0.3559  0.2970  0.0368
    9TCq1    C8  138   0.456   3.819  10.911 -0.3376 -0.5409  0.3516
    9TCq1    O4  139   0.436   3.792  10.792  0.0883 -0.2842  0.6809
    9TCq1    C9  140   0.656   4.119  11.251 -0.2162  0.0873  0.4409
    9TCq1    O5  141   0.695   4.241  11.258  0.5299 -0.4662 -0.1420
    9TCq1    O6  142   0.605   4.049  11.346  0.0915  1.2374 -0.0035
    9TCq1    H1  143   0.627   4.334  10.868  0.9720 -1.0637  0.7358
    9TCq1    H2  144   0.752   4.238  11.039 -0.9085  0.4502  2.1028
    9TCq1    H3  145   0.528   3.917  11.172  1.0951 -0.3579  0.3341
    9TCq1    H4  146   0.577   3.980  10.742 -1.1637  2.1712 -0.2160
   10MPD2     C  147   0.276   3.584  10.898  0.3206  0.7413  1.4715
   10MPD2    C1  148   0.322   3.645  11.012 -0.1195  0.1979  0.2180
   10MPD2    C2  149   0.286   3.590  11.136  0.5215  0.3451  0.7265
   10MPD2    C3  150   0.233   3.462  11.147  0.3378  0.5232 -0.3185
   10MPD2    C4  151   0.186   3.404  11.026 -0.8379 -0.0387 -0.8209
   10MPD2    C5  152   0.201   3.466  10.905 -0.4622  0.1608 -0.7655
   10MPD2     H  153   0.328   3.649  11.216 -0.7234  1.4639  0.5499
   10MPD2    H1  154   0.133   3.310  11.033 -0.4269 -0.2216 -0.1847
   10MPD2    H2  155   0.277   3.624  10.797  0.1364 -0.2783  1.0728
   10MPD2    H3  156   0.166   3.413  10.817  0.0765 -1.7293  0.1517
   10MPD2     N  157   0.221   3.396  11.272  0.5703 -0.3373 -0.3704
   10MPD2    H5  158   0.173   3.307  11.269  0.4677 -0.3455  1.3590
   10MPD2    N1  159   0.398   3.760  11.016  0.0520 -0.3663  0.7134
   10MPD2    H7  160   0.420   3.794  11.110 -3.9439  1.8343  0.8312
   11TCq1    O1  161   0.717   2.956  15.002  0.3175  1.1246  0.0982
   11TCq1    C1  162   0.748   2.986  14.868 -0.0954  0.3405 -0.3192
   11TCq1    O2  163   0.708   2.921  14.775 -0.0735  0.3279  0.7620
   11TCq1    C2  164   0.792   3.120  14.864 -0.3743 -0.1139 -0.0352
   11TCq1    C3  165   0.883   3.165  14.954  0.0667 -0.3589  0.1807
   11TCq1    C4  166   0.926   3.293  14.950 -0.1360 -0.5175  0.0195
   11TCq1    C5  167   0.876   3.382  14.854  0.3381 -0.1849 -0.1580
   11TCq1    C6  168   0.778   3.331  14.764  0.2156  0.7169 -0.5698
   11TCq1    C7  169   0.735   3.203  14.770  0.2264  0.2278  0.0729
   11TCq1    C8  170   0.710   3.420  14.664 -0.4079 -0.2714  0.7615
   11TCq1    O4  171   0.711   3.540  14.691 -0.3651  0.2514 -0.4074
   11TCq1    C9  172   1.036   3.336  15.032  0.2426  0.1858 -0.3493
   11TCq1    O5  173   1.087   3.236  15.092  0.6948 -0.0970  0.0833
   11TCq1    O6  174   1.079   3.456  15.031 -0.1631  0.5110  0.1768
   11TCq1    H1  175   0.739   3.021  15.072  1.6110  1.2864 -0.4585
   11TCq1    H2  176   0.921   3.095  15.027 -0.7353  0.9220  1.8334
   11TCq1    H3  177   0.917   3.481  14.841 -2.7809  0.7618 -2.7284
   11TCq1    H4  178   0.662   3.155  14.706 -0.0042  0.2792  0.2981
   12MPD2     C  179   0.552   3.550  14.438 -0.2731  0.1753  0.0067
   12MPD2    C1  180   0.588   3.417  14.447  0.4695 -0.0064 -0.5411
   12MPD2    C2  181   0.566   3.335  14.341  0.8056 -0.8989 -0.2591
   12MPD2    C3  182   0.495   3.376  14.222  0.5856  0.0600  0.7540
   12MPD2    C4  183   0.468   3.511  14.210 -0.1394  0.6570  0.0531
   12MPD2    C5  184   0.495   3.595  14.322 -0.6646  0.1695 -0.5402
   12MPD2     H  185   0.613   3.237  14.334  1.2368 -0.6676 -0.6006
   12MPD2    H1  186   0.419   3.550  14.121 -1.2778 -1.1742 -0.1122
   12MPD2    H2  187   0.576   3.625  14.513 -0.0007  0.6617 -0.5690
   12MPD2    H3  188   0.470   3.700  14.319  1.3985  0.6646 -0.7078
   12MPD2     N  189   0.459   3.293  14.113 -0.0712 -0.3847 -0.1575
   12MPD2    H5  190   0.406   3.330  14.035 -0.6241 -1.3415 -0.2459
   12MPD2    N1  191   0.665   3.358  14.553 -0.3047  0.3139 -0.1547
   12MPD2    H7  192   0.705   3.266  14.536 -3.0392 -0.9877  0.4849
   13TCq1    O1  193   4.116   2.956  11.603 -0.2353  0.1642 -0.1823
   13TCq1    C1  194   4.186   2.870  11.527  0.5553 -0.6126  0.4185
   13TCq1    O2  195   4.146   2.770  11.477 -0.3066 -0.1104  0.0447
   13TCq1    C2  196   4.304   2.940  11.483  0.1994  0.1952 -0.9132
   13TCq1    C3  197   4.391   2.867  11.406 -0.4750 -0.1341 -1.1460
   13TCq1    C4  198   4.487   2.930  11.330 -0.2685  0.0251 -0.6819
   13TCq1    C5  199   4.516   3.064  11.348 -0.9315  0.6158  0.3357
   13TCq1    C6  200   4.425   3.129  11.428 -0.2212 -0.3170  0.1603
   13TCq1    C7  201   4.322   3.074  11.499  0.1777  0.4098  0.3806
   13TCq1    C8  202   4.443   3.267  11.465  0.0452 -1.0048  0.2392
   13TCq1    O4  203   4.390   3.322  11.557  1.0846 -0.1819  0.0740
   13TCq1    C9  204   4.574   2.857  11.243  0.1321  0.1370 -0.6207
   13TCq1    O5  205   4.653   2.920  11.171 -0.6485 -0.6681 -0.1687
   13TCq1    O6  206   4.564   2.731  11.250  0.3233  0.2925 -0.0113
   13TCq1    H1  207   4.155   3.045  11.618  0.3552 -0.0685 -0.3458
   13TCq1    H2  208   4.380   2.759  11.407 -0.8922 -0.0832  1.4766
   13TCq1    H3  209   4.600   3.111  11.299 -0.4587  0.3094  0.8571
   13TCq1    H4  210   4.268   3.136  11.570 -1.3063 -0.3697 -0.0744
   14MPD2     C  211   4.639   3.496  11.274 -0.6509 -0.1406 -0.1211
   14MPD2    C1  212   4.573   3.455  11.383  0.2729 -0.4254  0.0029
   14MPD2    C2  213   4.556   3.543  11.492 -0.1733 -0.3988  0.0818
   14MPD2    C3  214   4.605   3.674  11.474  0.2703 -0.0282  0.8181
   14MPD2    C4  215   4.660   3.712  11.357 -0.0205  0.0357  0.1563
   14MPD2    C5  216   4.684   3.622  11.257 -0.2935 -0.4612  0.8337
   14MPD2     H  217   4.523   3.512  11.590  0.8738  1.2678  0.9603
   14MPD2    H1  218   4.701   3.810  11.334  0.0520 -0.0946 -0.2778
   14MPD2    H2  219   4.658   3.432  11.189  0.0313  0.7416 -0.6424
   14MPD2    H3  220   0.028   3.642  11.174  0.4468  0.6547  1.6980
   14MPD2     N  221   4.586   3.762  11.581  0.3690 -0.2347 -0.6003
   14MPD2    H5  222   4.509   3.735  11.642 -1.1874 -0.7850 -2.8351
   14MPD2    N1  223   4.535   3.325  11.383  0.3701  0.0474  0.9806
   14MPD2    H7  224   4.554   3.274  11.297  0.6479 -1.4094  1.9127
   15TCq1    O1  225   1.231   3.160   2.343 -0.7334  0.2040 -0.7148
   15TCq1    C1  226   1.211   3.043   2.287  0.9091  0.7911 -0.2993
   15TCq1    O2  227   1.134   3.039   2.190 -0.4540  0.2783  0.0728
   15TCq1    C2  228   1.320   2.949   2.311 -0.3425 -1.0344  0.0503
   15TCq1    C3  229   1.372   2.943   2.434  0.0746  0.1746  0.1087
   15TCq1    C4  230   1.473   2.854   2.454  0.0739  0.6539  0.3185
   15TCq1    C5  231   1.518   2.762   2.360  0.1029  0.1599 -0.3909
   15TCq1    C6  232   1.454   2.770   2.231  0.1514  0.1098  0.0725
   15TCq1    C7  233   1.350   2.859   2.210 -0.2196 -0.5532 -0.3502
   15TCq1    C8  234   1.476   2.652   2.145  0.5539 -0.3840  0.3413
   15TCq1    O4  235   1.573   2.584   2.171 -1.0447 -0.0455  0.3649
   15TCq1    C9  236   1.521   2.846   2.591 -0.6925  0.0926  0.0828
   15TCq1    O5  237   1.449   2.890   2.687 -0.3146  0.4772 -0.2232
   15TCq1    O6  238   1.613   2.757   2.614 -0.0852  0.3135 -0.4460
   15TCq1    H1  239   1.305   3.180   2.404 -1.0194  0.1937 -0.3636
   15TCq1    H2  240   1.324   3.004   2.509  1.2128  0.8285  0.3080
   15TCq1    H3  241   1.598   2.694   2.388 -0.7231  0.2972  2.2210
   15TCq1    H4  242   1.295   2.871   2.117 -0.1859  1.9369 -0.0535
   16MPD2     C  243   1.270   2.567   1.856  0.0193 -1.1666 -0.1601
   16MPD2    C1  244   1.374   2.557   1.947  0.3095  0.2424 -0.6030
   16MPD2    C2  245   1.483   2.477   1.914 -0.1170 -0.2742  0.3256
   16MPD2    C3  246   1.473   2.394   1.800 -0.3883 -0.5601 -0.2756
   16MPD2    C4  247   1.354   2.393   1.729  0.0077  0.4346 -0.2309
   16MPD2    C5  248   1.257   2.486   1.753  0.3791  0.4487  0.3750
   16MPD2     H  249   1.571   2.473   1.978  0.1591  3.0561  0.1235
   16MPD2    H1  250   1.327   2.317   1.656 -0.3047  0.4017 -0.0805
   16MPD2    H2  251   1.186   2.630   1.883  0.5755  0.1540 -1.5181
   16MPD2    H3  252   1.162   2.488   1.700 -1.0527 -0.7781  2.8963
   16MPD2     N  253   1.586   2.315   1.770 -0.5035 -0.1606 -0.0618
   16MPD2    H5  254   1.662   2.330   1.836 -0.2829  0.5573 -0.4773
   16MPD2    N1  255   1.373   2.639   2.059 -0.6617 -0.7629  0.5281
   16MPD2    H7  256   1.296   2.705   2.058 -1.5091 -1.7908 -1.9589
   17TCq1    O1  257   3.870   2.045   9.649  1.0158  0.0557 -0.2720
   17TCq1    C1  258   3.898   2.153   9.575  0.4457 -0.6510  0.5312
   17TCq1    O2  259   3.941   2.149   9.460 -0.0121  0.2644 -0.4476
   17TCq1    C2  260   3.931   2.268   9.658  0.5280 -0.1932 -0.3450
   17TCq1    C3  261   3.922   2.394   9.609  0.1135 -0.3659  0.4569
   17TCq1    C4  262   3.945   2.508   9.680 -0.6347 -0.2867  0.4848
   17TCq1    C5  263   3.994   2.495   9.810 -0.2281  0.0203  0.7103
   17TCq1    C6  264   4.005   2.365   9.860 -0.2869  0.1401 -0.6057
   17TCq1    C7  265   3.970   2.247   9.786 -0.0468 -0.2428 -0.6993
   17TCq1    C8  266   4.067   2.340   9.985  0.0333 -0.6872  0.0726
   17TCq1    O4  267   4.050   2.235  10.041 -0.0178 -0.0435  0.2486
   17TCq1    C9  268   3.936   2.637   9.616 -0.7303  0.3355 -0.4268
   17TCq1    O5  269   3.905   2.624   9.491  0.3169  0.1664  0.4699
   17TCq1    O6  270   3.969   2.740   9.675  0.1149 -0.6020  0.0468
   17TCq1    H1  271   3.838   2.073   9.737  0.1119  1.5625 -1.0849
   17TCq1    H2  272   3.888   2.390   9.507  1.1435  0.8354  0.0713
   17TCq1    H3  273   4.014   2.586   9.866 -0.9699  0.0647  0.9015
   17TCq1    H4  274   3.999   2.149   9.822  1.9866  0.6764  0.1438
   18MPD2     C  275   4.180   2.368  10.271  0.3699 -0.4113 -0.0968
   18MPD2    C1  276   4.209   2.447  10.156 -0.4415 -0.2152 -0.1837
   18MPD2    C2  277   4.303   2.547  10.165  0.0619 -0.4516  0.1302
   18MPD2    C3  278   4.380   2.571  10.281  0.1052 -0.0333  0.0848
   18MPD2    C4  279   4.343   2.495  10.387 -0.5404  0.2400  0.4171
   18MPD2    C5  280   4.252   2.394  10.385 -0.5675 -0.3473 -0.7395
   18MPD2     H  281   4.320   2.603  10.074  0.3690 -1.5957 -0.5181
   18MPD2    H1  282   4.385   2.524  10.482 -0.1910 -1.8883  0.9056
   18MPD2    H2  283   4.090   2.307  10.269 -1.3709  2.2080 -1.2794
   18MPD2    H3  284   4.226   2.342  10.476 -0.3522  0.9482  0.0621
   18MPD2     N  285   4.478   2.676  10.303 -0.3524  0.4668 -0.0345
   18MPD2    H5  286   4.516   2.686  10.396 -2.2835  1.7159  0.6086
   18MPD2    N1  287   4.147   2.438  10.029 -0.1757  0.4986 -0.0667
   18MPD2    H7  288   4.174   2.510   9.963  2.9627 -0.1307  0.5163
   19TMC2    C1  289   1.864   2.405  13.493 -0.0692  0.0533 -0.3539
   19TMC2    C2  290   1.886   2.372  13.365  0.0022  0.1968  0.3904
   19TMC2    C3  291   1.794   2.282  13.308 -0.3666  0.4826 -0.2217
   19TMC2    C4  292   1.758   2.361  13.566  0.4272 -0.4421 -0.2343
   19TMC2    C5  293   1.673   2.268  13.507 -0.0043  0.3189 -1.1044
   19TMC2    C6  294   1.694   2.222  13.378  0.5903 -0.4659 -0.1664
   19TMC2     C  295   1.982   2.447  13.566 -0.2644  0.0836  0.2711
   19TMC2     O  296   2.085   2.437  13.502  0.1178 -0.4868  0.0419
   19TMC2     H  297   1.976   2.399  13.312 -0.0785 -1.1421 -0.4338
   19TMC2    H1  298   1.749   2.367  13.674 -1.3257  0.1224 -0.4074
   19TMC2    H2  299   1.644   2.137  13.333  1.7716 -1.2317 -0.0287
   19TMC2    C7  300   1.533   2.270  13.550  0.2073 -0.3012  0.4381
   19TMC2    C8  301   1.846   2.201  13.199 -1.2012  0.2739 -0.5550
   19TMC2    O1  302   1.462   2.178  13.508  0.2022  0.2161 -0.1146
   19TMC2    O2  303   1.965   2.169  13.191 -0.3665  0.2366  0.2539
   19TMC2    O5  304   1.750   2.199  13.111  0.2004 -0.2655  0.0225
   19TMC2    H5  305   1.677   2.254  13.146  0.0817 -0.5706  0.2518
   20MPD2     C  306   2.198   2.519  13.740  0.0942 -0.3401  0.2819
   20MPD2    C1  307   2.067   2.538  13.772  0.0039 -0.0822 -0.2895
   20MPD2    C2  308   2.039   2.575  13.903 -0.1564 -0.2456  0.3952
   20MPD2    C3  309   2.143   2.584  13.996 -0.2273 -0.2638 -0.4123
   20MPD2    C4  310   2.273   2.564  13.962  0.3481  0.5904 -0.2007
   20MPD2    C5  311   2.296   2.539  13.832 -0.3989  0.5833 -0.1927
   20MPD2     H  312   1.934   2.589  13.925 -0.1467  0.0060  0.2833
   20MPD2    H1  313   2.352   2.561  14.036 -0.4336  0.4553  0.6291
   20MPD2    H2  314   2.235   2.482  13.644 -0.0020  1.0985 -0.3134
   20MPD2    H3  315   2.397   2.519  13.799 -0.3672  0.8577 -0.2658
   20MPD2     N  316   2.131   2.614  14.128  0.1087 -0.1226  0.3696
   20MPD2    H5  317   2.209   2.584  14.186 -0.6462 -1.5521  0.6512
   20MPD2    N1  318   1.963   2.501  13.686 -0.7501 -0.2991 -0.6256
   20MPD2    H7  319   1.867   2.521  13.712 -0.1852 -0.7824  1.8351
   21MPD2     C  320   4.175   3.620  14.213 -0.4115  0.1715  0.9656
   21MPD2    C1  321   4.245   3.560  14.317  0.3231  0.2672 -0.5310
   21MPD2    C2  322   4.170   3.503  14.421 -0.2747 -0.0149 -0.1268
   21MPD2    C3  323   4.031   3.497  14.419  0.3484  0.5456  0.2011
   21MPD2    C4  324   3.967   3.546  14.314  0.8022  0.5348  0.5567
   21MPD2    C5  325   4.038   3.607  14.213 -0.8515 -0.0946  0.0976
   21MPD2     H  326   4.227   3.471  14.507  0.2460  1.4764  0.0867
   21MPD2    H1  327   3.859   3.554  14.309  0.7541 -1.6558 -2.0340
   21MPD2    H2  328   4.217   3.675  14.129 -1.1579  0.0719  0.5189
   21MPD2    H3  329   3.989   3.652  14.128 -0.7983  0.2601  0.2520
   21MPD2     N  330   3.944   3.452  14.524 -0.4031 -0.1258  0.1339
   21MPD2    H5  331   3.847   3.480  14.515 -0.6112 -0.8264  0.2419
   21MPD2    N1  332   4.385   3.544  14.320 -0.2819  0.6980  0.1772
   21MPD2    H7  333   4.422   3.489  14.397 -0.2506 -0.4944 -0.6718
   22TCq2    C1  334   3.980   3.374  14.628 -0.2012  0.6872  0.8328
   22TCq2    O2  335   4.084   3.313  14.644  1.0320  0.3157  0.1506
   22TCq2    C2  336   3.884   3.356  14.731  0.4900 -0.0768  0.2568
   22TCq2    C3  337   3.915   3.273  14.836 -0.3688  0.2085 -0.2261
   22TCq2    C4  338   3.821   3.260  14.934 -0.2638  0.1486  0.6206
   22TCq2    C5  339   3.704   3.330  14.943  0.6101 -1.2277 -0.6252
   22TCq2    C6  340   3.679   3.424  14.848  0.3156 -0.0380  0.4834
   22TCq2    C7  341   3.771   3.440  14.744  0.0564 -0.5991 -0.2460
   22TCq2    C8  342   3.576   3.523  14.881 -0.3718  0.1103 -0.0106
   22TCq2    O4  343   3.526   3.524  14.994  0.0537 -0.0779  0.6360
   22TCq2    C9  344   3.830   3.140  15.019  0.3694  0.5302 -0.0706
   22TCq2    O5  345   3.925   3.068  14.992  0.2640  0.1281 -0.2354
   22TCq2    O6  346   3.752   3.133  15.115  0.2060  0.1807  0.0020
   22TCq2    H2  347   4.006   3.215  14.821  0.9720  1.8364  1.5960
   22TCq2    H3  348   3.619   3.300  15.004 -1.0391  1.4850 -1.6195
   22TCq2    H4  349   3.754   3.510  14.663  0.2827 -2.6892 -2.1093
   23MPD2     C  350   0.700   0.203  14.710 -0.2245 -0.6672  0.2587
   23MPD2    C1  351   0.612   0.097  14.741 -0.0932  0.2447 -0.5783
   23MPD2    C2  352   0.537   0.036  14.640 -0.0397  0.0418  0.0340
   23MPD2    C3  353   0.556   0.080  14.507  0.2281 -0.4227 -0.1056
   23MPD2    C4  354   0.646   0.185  14.483  0.6559  0.2108  1.1229
   23MPD2    C5  355   0.712   0.244  14.585 -0.2371 -0.4502  0.5352
   23MPD2     H  356   0.478   4.672  14.668  0.1100  0.6311  2.1607
   23MPD2    H1  357   0.673   0.220  14.384  0.0439  0.8699  1.1844
   23MPD2    H2  358   0.769   0.243  14.783  0.1127  0.9570 -0.9568
   23MPD2    H3  359   0.784   0.322  14.560 -3.4448  2.5770  0.8014
   23MPD2     N  360   0.503   0.014  14.395 -0.1045 -1.0344  0.4830
   23MPD2    H5  361   0.536   0.027  14.300 -0.9020 -0.7354  0.2446
   23MPD2    N1  362   0.612   0.040  14.874  0.4808 -0.2525  0.0295
   23MPD2    H7  363   0.544   4.688  14.885 -1.3584  1.5414  0.9861
   24TCq2    C1  364   0.424   4.625  14.410  0.7505  0.4759 -0.1843
   24TCq2    O2  365   0.362   4.584  14.505  0.1940  0.7133  0.4263
   24TCq2    C2  366   0.398   4.557  14.282  0.5379 -0.4637 -0.1408
   24TCq2    C3  367   0.443   4.602  14.159 -0.2075 -0.3999 -0.4394
   24TCq2    C4  368   0.405   4.544  14.044 -0.4170  0.0810 -0.3415
   24TCq2    C5  369   0.318   4.438  14.049 -0.0272  0.7019 -0.0329
   24TCq2    C6  370   0.280   4.384  14.167 -0.6154 -0.5215  0.3923
   24TCq2    C7  371   0.319   4.446  14.282  0.5806  0.5517 -0.2858
   24TCq2    C8  372   0.226   4.246  14.168 -0.0033  0.6594  1.4721
   24TCq2    O4  373   0.268   4.171  14.256 -0.4760  0.4569 -0.5535
   24TCq2    C9  374   0.467   4.585  13.919  0.0750  0.3332 -0.5976
   24TCq2    O5  375   0.426   4.538  13.811  0.0739 -0.5778 -0.0921
   24TCq2    O6  376   0.547   4.680  13.927 -0.3437  0.4626 -0.1473
   24TCq2    H2  377   0.526   4.671  14.151 -1.6427  1.3280 -0.2253
   24TCq2    H3  378   0.305   4.388  13.954  1.2910 -0.1852  0.2583
   24TCq2    H4  379   0.281   4.404  14.375 -0.0119  1.1523 -0.2570
   25TMC2    C1  380   4.300   2.478  11.279  0.2902 -0.0634  0.5237
   25TMC2    C2  381   4.440   2.477  11.296  1.0944  0.7390 -0.0406
   25TMC2    C3  382   4.476   2.466  11.428  0.0670 -0.1327 -0.1075
   25TMC2    C4  383   4.207   2.480  11.379 -0.2812  0.6954  0.5665
   25TMC2    C5  384   4.257   2.470  11.506 -0.4489  0.5862 -0.3844
   25TMC2    C6  385   4.390   2.451  11.533  0.3251 -0.1358 -0.7326
   25TMC2     C  386   4.260   2.484  11.140  0.3331 -0.1607 -0.1025
   25TMC2     O  387   4.329   2.563  11.077  0.5054  0.2587  0.0563
   25TMC2     H  388   4.516   2.468  11.219  2.8447 -0.3192  1.8157
   25TMC2    H1  389   4.100   2.496  11.365 -0.5568 -2.1889 -0.5235
   25TMC2    H2  390   4.430   2.428  11.631 -0.1967  0.8894 -0.2819
   25TMC2    C7  391   4.167   2.456  11.624  0.3589 -0.3193 -0.2527
   25TMC2    C8  392   4.619   2.442  11.451  0.1976  0.4242 -0.3178
   25TMC2    O1  393   4.229   2.427  11.727 -0.5068 -0.2653 -0.4179
   25TMC2    O2  394   4.655   2.381  11.548 -0.1502  0.1522 -0.0795
   25TMC2    O5  395   4.673   2.555  11.400  0.2562 -0.3921  0.0685
   25TMC2    H5  396   4.623   2.613  11.338  0.1755  0.7280  1.1871
   26MPD2     C  397   4.080   2.311  10.702 -0.2802  0.6166 -0.1273
   26MPD2    C1  398   4.020   2.242  10.809  0.5203  0.5495 -0.9778
   26MPD2    C2  399   4.038   2.271  10.944  0.6035  0.4069 -0.3741
   26MPD2    C3  400   4.113   2.380  10.971 -0.1678 -0.2117 -0.4494
   26MPD2    C4  401   4.157   2.462  10.868  0.4767 -0.2991 -0.1656
   26MPD2    C5  402   4.147   2.425  10.736 -0.7932  0.5343  0.4325
   26MPD2     H  403   3.992   2.220  11.027  0.0981 -0.7861 -1.3913
   26MPD2    H1  404   4.223   2.547  10.884  1.6780 -0.6889 -2.9918
   26MPD2    H2  405   4.073   2.274  10.600  1.2917  0.1170 -0.0664
   26MPD2    H3  406   4.199   2.492  10.668  0.6984 -3.1150 -1.9726
   26MPD2     N  407   4.156   2.401  11.102  0.1167  0.4235  0.1808
   26MPD2    H5  408   4.124   2.338  11.175  1.0398  0.1932  0.3899
   26MPD2    N1  409   3.948   2.128  10.764  0.1754  0.6385 -0.1333
   26MPD2    H7  410   3.937   2.109  10.665  2.8175 -1.7077  0.0320
   27TMC2    C1  411   3.140   4.300  11.982 -0.1850 -0.7937 -0.1989
   27TMC2    C2  412   3.113   4.346  11.857  0.1831  0.1721 -0.4833
   27TMC2    C3  413   3.123   4.478  11.834 -0.9355 -1.0006 -0.4687
   27TMC2    C4  414   3.199   4.383  12.070  0.0645 -0.3908 -0.6680
   27TMC2    C5  415   3.218   4.517  12.041 -0.7758 -0.4124  0.1957
   27TMC2    C6  416   3.173   4.566  11.922 -0.1457 -0.3462  0.5986
   27TMC2     C  417   3.130   4.161  12.009  0.5210 -0.6558 -0.2065
   27TMC2     O  418   3.118   4.078  11.919  0.3322  0.0372  0.2663
   27TMC2     H  419   3.058   4.286  11.786 -0.2871  0.8075 -0.6558
   27TMC2    H1  420   3.232   4.338  12.163 -0.8046  0.9769  0.2960
   27TMC2    H2  421   3.183   4.673  11.903  2.3386 -0.5053  1.0119
   27TMC2    C7  422   3.275   4.617  12.135  0.0050 -0.1414  0.0557
   27TMC2    C8  423   3.153   4.527  11.701  0.7358  0.1235  0.4389
   27TMC2    O1  424   3.326   4.722  12.089  0.1932  0.7440  0.5447
   27TMC2    O2  425   3.187   4.646  11.690  0.6564 -0.2383  0.2616
   27TMC2    O5  426   3.213   4.425  11.635 -0.0295 -0.3857  0.2108
   27TMC2    H5  427   3.178   4.339  11.666 -0.4105 -0.5169 -0.6007
   28MPD2     C  428   3.024   3.785  12.326  0.3941  0.2464  0.6717
   28MPD2    C1  429   2.969   3.900  12.378 -0.2133 -0.3317  0.3549
   28MPD2    C2  430   2.997   4.021  12.325 -0.5349  0.0443  0.1664
   28MPD2    C3  431   3.071   4.028  12.204  0.3339 -0.0201 -0.1209
   28MPD2    C4  432   3.135   3.913  12.159 -0.9049 -0.7277  0.0108
   28MPD2    C5  433   3.110   3.791  12.224 -0.1938  0.6513 -0.7099
   28MPD2     H  434   2.957   4.116  12.358  0.1119  0.6714 -0.8694
   28MPD2    H1  435   3.208   3.918  12.079  0.7645 -0.4867  1.5635
   28MPD2    H2  436   2.997   3.691  12.372 -1.3149 -0.3412 -1.5435
   28MPD2    H3  437   3.169   3.707  12.188 -3.2051 -0.8925 -2.0275
   28MPD2     N  438   3.097   4.154  12.143  0.3834 -0.0017  0.6633
   28MPD2    H5  439   3.073   4.241  12.188 -0.1267  1.1758 -1.8641
   28MPD2    N1  440   2.881   3.879  12.485 -0.8365  0.5108 -0.2311
   28MPD2    H7  441   2.853   3.782  12.495  0.3056  0.1787 -0.2421
   29MPD2     C  442   2.590   1.453  14.077 -0.4684  0.3082  0.6811
   29MPD2    C1  443   2.646   1.393  14.190  0.9458  0.7176  0.2428
   29MPD2    C2  444   2.642   1.459  14.313 -0.5548 -0.6461  0.2968
   29MPD2    C3  445   2.570   1.578  14.314  0.1420  0.6595 -0.1165
   29MPD2    C4  446   2.510   1.629  14.207  0.2845  0.0484 -0.2285
   29MPD2    C5  447   2.516   1.568  14.084  0.0469 -0.5788 -0.2975
   29MPD2     H  448   2.681   1.411  14.402  0.8668  1.7168  0.9777
   29MPD2    H1  449   2.445   1.716  14.205 -0.6815 -0.6681 -0.3069
   29MPD2    H2  450   2.604   1.405  13.980 -4.9728  0.5254 -0.0502
   29MPD2    H3  451   2.465   1.615  14.001  0.7769  1.1775  0.2407
   29MPD2     N  452   2.541   1.658  14.425 -0.1896  0.5917 -0.4564
   29MPD2    H5  453   2.491   1.744  14.401 -1.1862 -0.0372 -0.6340
   29MPD2    N1  454   2.696   1.262  14.182  0.2505 -0.5846  0.2306
   29MPD2    H7  455   2.745   1.228  14.264  2.3304 -0.6054 -1.0183
   30TCq2    C1  456   2.572   1.629  14.560  0.1775 -0.0864 -0.4603
   30TCq2    O2  457   2.572   1.517  14.612  0.3711  0.0503 -0.0082
   30TCq2    C2  458   2.552   1.744  14.650  0.5612  1.0341 -0.3451
   30TCq2    C3  459   2.547   1.711  14.783  0.9820 -0.5206  0.6427
   30TCq2    C4  460   2.573   1.814  14.871 -0.5795  1.1598  0.6447
   30TCq2    C5  461   2.573   1.943  14.833 -0.2196  0.2240  0.7713
   30TCq2    C6  462   2.583   1.975  14.700  0.2724  0.2769 -0.0573
   30TCq2    C7  463   2.574   1.872  14.609  0.1844 -0.4706  0.3870
   30TCq2    C8  464   2.569   2.109  14.654 -0.8050 -0.1971 -0.1118
   30TCq2    O4  465   2.545   2.111  14.536  0.1382  0.4889 -0.2605
   30TCq2    C9  466   2.564   1.792  15.014 -0.2048  0.0320  0.7361
   30TCq2    O5  467   2.573   1.673  15.059  0.0538 -0.2242  0.1310
   30TCq2    O6  468   2.551   1.896  15.084 -0.1584  1.1887  0.4246
   30TCq2    H2  469   2.562   1.606  14.806 -0.3797 -0.6492  0.9210
   30TCq2    H3  470   2.585   2.020  14.908 -0.3081 -0.2207  1.2407
   30TCq2    H4  471   2.597   1.881  14.504 -2.1530  0.6960 -0.0315
   31MPD2     C  472   0.410   0.459  14.924 -0.6065 -0.5558 -0.1705
   31MPD2    C1  473   0.296   0.539  14.918 -0.0770  0.3775 -0.0091
   31MPD2    C2  474   0.202   0.534  15.018  0.5792  0.0733 -0.1146
   31MPD2    C3  475   0.226   0.449  15.122  0.6065  0.0326 -0.0020
   31MPD2    C4  476   0.335   0.368  15.131  0.4997 -0.0057  0.4951
   31MPD2    C5  477   0.430   0.372  15.024 -0.0587  0.6632 -0.4922
   31MPD2     H  478   0.116   0.599  15.015 -0.1561 -0.9132 -0.6523
   31MPD2    H1  479   0.355   0.295  15.208 -1.7719 -1.6100 -0.4171
   31MPD2    H2  480   0.475   0.451  14.838 -0.7432  0.2620 -0.3530
   31MPD2    H3  481   0.513   0.303  15.018 -2.1733 -2.0292  1.2329
   31MPD2     N  482   0.140   0.440  15.236  0.8076 -0.5835 -0.2255
   31MPD2    H5  483   0.162   0.365  15.300  1.6745  1.2145  1.6166
   31MPD2    N1  484   0.279   0.614  14.796  0.4134  0.2849 -0.1354
   31MPD2    H7  485   0.355   0.612  14.729 -0.9642  1.8500 -1.7308
   32TCq2    C1  486   0.033   0.518  15.272  0.4911  0.6656  0.0403
   32TCq2    O2  487   4.689   0.598  15.201 -0.2112  0.0710  0.5818
   32TCq2    C2  488   0.007   0.510  15.415  0.6079 -0.1494 -0.1572
   32TCq2    C3  489   4.617   0.570  15.459 -0.8775  0.6674  0.4555
   32TCq2    C4  490   4.593   0.567  15.595 -0.7760 -0.3212  0.4867
   32TCq2    C5  491   4.673   0.512  15.688 -0.7963 -0.5934  0.0309
   32TCq2    C6  492   0.065   0.453  15.639  0.4158  0.6967 -0.5435
   32TCq2    C7  493   0.090   0.453  15.502  0.0434  0.0442  0.0519
   32TCq2    C8  494   0.170   0.400  15.730  0.2121 -0.2586 -0.0980
   32TCq2    O4  495   0.261   0.332  15.691  0.0180 -0.4626 -0.6573
   32TCq2    C9  496   4.494   0.660  15.649 -0.0354 -0.3164  0.0904
   32TCq2    O5  497   4.423   0.727  15.568 -0.1925 -0.6244  0.4298
   32TCq2    O6  498   4.473   0.660  15.773  0.2789  0.0083 -0.3906
   32TCq2    H2  499   4.554   0.633  15.397 -1.4096 -0.3823 -0.0591
   32TCq2    H3  500   4.652   0.513  15.794  1.6369  0.0587  0.5260
   32TCq2    H4  501   0.182   0.407  15.466 -1.0368 -1.3359 -0.9431
   33MPD2     C  502   0.018   3.180   9.773  0.0582 -0.0739  0.0874
   33MPD2    C1  503   0.122   3.155   9.858  1.0403  0.6921  0.4285
   33MPD2    C2  504   0.251   3.176   9.814  0.3321  0.1543  0.3549
   33MPD2    C3  505   0.277   3.225   9.688  0.1723 -0.3255  0.9460
   33MPD2    C4  506   0.170   3.238   9.606  0.0486  0.5861  0.6859
   33MPD2    C5  507   0.043   3.212   9.643 -0.1798  0.9804  0.0118
   33MPD2     H  508   0.330   3.173   9.888  0.2923 -0.3191  0.3785
   33MPD2    H1  509   0.177   3.266   9.501  2.4075 -2.3794  0.0479
   33MPD2    H2  510   4.640   3.153   9.803 -0.3789  2.6240  1.0337
   33MPD2    H3  511   4.693   3.226   9.564  0.6679  0.3420 -0.8790
   33MPD2     N  512   0.399   3.270   9.634  0.3291 -0.3318 -0.9427
   33MPD2    H5  513   0.397   3.300   9.537  1.1713  0.7256 -0.6210
   33MPD2    N1  514   0.083   3.107   9.987 -0.0002  0.6962 -0.4872
   33MPD2    H7  515   4.705   3.111   9.999 -0.1961  0.7762 -2.1896
   34TCq2    C1  516   0.518   3.266   9.703  0.5240  0.3652 -1.1326
   34TCq2    O2  517   0.541   3.245   9.818  0.3765  0.1320  0.3417
   34TCq2    C2  518   0.620   3.330   9.619 -0.6137 -0.8623 -0.1781
   34TCq2    C3  519   0.615   3.319   9.479 -0.1714 -0.4071  0.0637
   34TCq2    C4  520   0.688   3.405   9.402  0.3740  0.2201  0.0030
   34TCq2    C5  521   0.778   3.488   9.460  0.7674  0.5498 -0.2885
   34TCq2    C6  522   0.787   3.497   9.598  0.8224  0.2300  0.3951
   34TCq2    C7  523   0.710   3.411   9.678 -0.2231  0.4740 -0.5184
   34TCq2    C8  524   0.916   3.544   9.653 -0.0445  0.0846  0.3630
   34TCq2    O4  525   0.932   3.572   9.772 -0.8205 -0.4688 -0.2233
   34TCq2    C9  526   0.682   3.401   9.263 -0.3017  0.7190 -0.1011
   34TCq2    O5  527   0.773   3.461   9.203 -0.6332  0.1232 -0.2686
   34TCq2    O6  528   0.593   3.339   9.201 -0.0532 -0.5056 -0.0760
   34TCq2    H2  529   0.552   3.247   9.428 -1.1469 -0.3414  1.1703
   34TCq2    H3  530   0.836   3.557   9.399  1.6924  0.1896  0.1729
   34TCq2    H4  531   0.704   3.417   9.786  1.3907  0.7656 -0.4484
   35MPD2     C  532   2.481   4.402  11.549  0.0308 -0.1738  0.0192
   35MPD2    C1  533   2.464   4.326  11.667 -0.5721  0.6328 -0.5670
   35MPD2    C2  534   2.341   4.332  11.728  0.1445 -0.5287 -0.4413
   35MPD2    C3  535   2.245   4.419  11.684 -1.0220  0.2842 -0.1298
   35MPD2    C4  536   2.281   4.509  11.587 -0.1072 -0.0379  0.4473
   35MPD2    C5  537   2.395   4.502  11.515  0.7692  0.3278  0.4529
   35MPD2     H  538   2.320   4.279  11.820 -3.5754  1.3249 -0.2172
   35MPD2    H1  539   2.215   4.588  11.554 -0.8196 -1.3451 -1.3028
   35MPD2    H2  540   2.565   4.388  11.483 -0.6332 -0.0809 -0.8462
   35MPD2    H3  541   2.408   4.568  11.430  0.7265 -2.5198 -1.7902
   35MPD2     N  542   2.130   4.414  11.760 -1.0920  0.3097 -0.3707
   35MPD2    H5  543   2.113   4.337  11.824 -0.8349  0.1252 -0.5254
   35MPD2    N1  544   2.569   4.251  11.715  0.3382  0.4307  0.8812
   35MPD2    H7  545   2.662   4.268  11.678  0.1158  0.9360  0.5658
   36TCq2    C1  546   2.033   4.514  11.752  0.1040  0.2165 -0.5405
   36TCq2    O2  547   2.033   4.621  11.693 -0.3627  0.2910 -0.2137
   36TCq2    C2  548   1.924   4.486  11.846 -0.1519 -0.1445 -0.2045
   36TCq2    C3  549   1.835   4.589  11.862 -0.1740  0.3452  0.4628
   36TCq2    C4  550   1.711   4.564  11.903 -0.1245 -0.6277  0.1932
   36TCq2    C5  551   1.669   4.435  11.942 -0.1106  0.3335 -0.2567
   36TCq2    C6  552   1.759   4.331  11.930 -0.0121 -0.0544  0.7913
   36TCq2    C7  553   1.883   4.356  11.875  0.6359 -0.4028  0.3342
   36TCq2    C8  554   1.699   4.203  11.902 -0.1796 -0.0211 -0.0233
   36TCq2    O4  555   1.582   4.201  11.868  0.5672 -0.2714 -0.5629
   36TCq2    C9  556   1.625   4.679  11.910  0.3399 -0.6191  0.7466
   36TCq2    O5  557   1.501   4.660  11.902  0.6767  0.0015  0.5324
   36TCq2    O6  558   1.682   0.069  11.912  0.5735  0.2788 -0.4946
   36TCq2    H2  559   1.854   4.685  11.816  1.5854 -0.4373 -0.4498
   36TCq2    H3  560   1.577   4.410  11.993  0.1011  1.6398  0.7862
   36TCq2    H4  561   1.935   4.275  11.826  0.0401  0.4653 -1.7191
   37TMC2    C1  562   3.850   0.305  11.789  0.3630 -0.0275  0.2769
   37TMC2    C2  563   3.776   0.408  11.738 -0.1091 -0.6478  0.0623
   37TMC2    C3  564   3.822   0.476  11.627  0.2142 -0.5953  0.6214
   37TMC2    C4  565   3.972   0.279  11.730 -0.1249 -0.1255 -0.4101
   37TMC2    C5  566   4.019   0.360  11.627 -0.1635  0.4735  0.2737
   37TMC2    C6  567   3.942   0.457  11.570 -0.0725  0.8610 -1.1992
   37TMC2     C  568   3.788   0.245  11.908  0.4943 -0.5041  0.0042
   37TMC2     O  569   3.684   0.294  11.954  0.0104  0.6807 -0.3350
   37TMC2     H  570   3.677   0.444  11.765  0.0310  0.0568 -0.3737
   37TMC2    H1  571   4.037   0.205  11.773  1.6137  2.0199  0.6537
   37TMC2    H2  572   3.977   0.533  11.501 -0.8328  1.0383 -1.3932
   37TMC2    C7  573   4.163   0.352  11.597  0.3157 -0.2174 -0.8659
   37TMC2    C8  574   3.790   0.614  11.647 -0.0666 -0.5498 -0.5804
   37TMC2    O1  575   4.237   0.300  11.676  0.3738 -0.0700  0.4875
   37TMC2    O2  576   3.743   0.663  11.753 -0.0348  0.4110  0.0933
   37TMC2    O5  577   3.818   0.682  11.532  0.0056 -0.6073  0.2743
   37TMC2    H5  578   3.839   0.626  11.454 -2.2967  0.9020 -1.4468
   38MPD2     C  579   3.726   4.589  12.261 -0.3179 -1.4086 -0.0684
   38MPD2    C1  580   3.831   4.547  12.176 -0.1780  0.1048  0.4065
   38MPD2    C2  581   3.873   4.641  12.074  0.4610 -0.0491 -0.1280
   38MPD2    C3  582   3.804   0.037  12.047 -0.7484 -0.1077 -0.3492
   38MPD2    C4  583   3.693   0.067  12.127  0.5774  0.2146 -0.1898
   38MPD2    C5  584   3.658   4.708  12.232 -0.9869 -0.0014  0.2313
   38MPD2     H  585   3.965   4.617  12.022 -1.2632  0.3479 -3.3205
   38MPD2    H1  586   3.642   0.162  12.113  2.3688  1.2671  0.4850
   38MPD2    H2  587   3.696   4.533  12.349 -0.6482  1.9353  1.9545
   38MPD2    H3  588   3.599   0.031  12.311  0.7063 -0.2708  1.6555
   38MPD2     N  589   3.848   0.120  11.941 -0.0994 -0.4210 -0.0024
   38MPD2    H5  590   3.924   0.091  11.881 -1.5447 -0.6196 -1.7208
   38MPD2    N1  591   3.889   4.419  12.184 -0.4000 -0.2899 -0.1175
   38MPD2    H7  592   3.969   4.397  12.124  0.4285  0.5338  0.6992
   39MPD2     C  593   2.580   1.503   1.792  0.0699 -0.0091 -0.6045
   39MPD2    C1  594   2.516   1.606   1.854  1.0130 -0.5159  0.2565
   39MPD2    C2  595   2.396   1.634   1.802  0.1872 -0.1441  0.5105
   39MPD2    C3  596   2.332   1.560   1.703 -0.2197  0.2182 -0.0371
   39MPD2    C4  597   2.397   1.444   1.660  1.1964  0.3329  0.3896
   39MPD2    C5  598   2.520   1.416   1.705  0.0525 -0.7114 -0.0917
   39MPD2     H  599   2.343   1.715   1.850  2.1620  1.1845  0.4642
   39MPD2    H1  600   2.344   1.365   1.608  1.0609  1.5214 -1.2715
   39MPD2    H2  601   2.685   1.479   1.806  0.1823  1.3517  0.8735
   39MPD2    H3  602   2.581   1.336   1.664 -0.7491 -1.0776 -0.5659
   39MPD2     N  603   2.201   1.594   1.659 -0.7865 -0.1235 -0.0467
   39MPD2    H5  604   2.166   1.536   1.582  0.9032 -0.0157 -0.8999
   39MPD2    N1  605   2.583   1.678   1.957  0.3264 -0.2859 -0.0344
   39MPD2    H7  606   2.679   1.649   1.969  0.8148  1.3433  0.0398
   40TCq2    C1  607   2.532   1.774   2.037 -0.6562 -0.2071  0.6511
   40TCq2    O2  608   2.416   1.811   2.038  0.6587 -0.3302 -0.1661
   40TCq2    C2  609   2.630   1.845   2.125  0.0645 -0.2470  0.6118
   40TCq2    C3  610   2.581   1.922   2.218  0.0937  0.4356 -0.7087
   40TCq2    C4  611   2.662   1.978   2.309 -0.2818  0.3052  0.2017
   40TCq2    C5  612   2.799   1.960   2.298 -0.7456  0.1407  0.1140
   40TCq2    C6  613   2.852   1.885   2.203  0.2115 -0.5215 -1.0582
   40TCq2    C7  614   2.771   1.823   2.119 -0.5282 -0.3096  0.0896
   40TCq2    C8  615   2.979   1.930   2.143 -0.9320 -0.3360  0.9848
   40TCq2    O4  616   3.067   1.858   2.097 -0.0069  0.2539 -0.1050
   40TCq2    C9  617   2.601   2.044   2.427  0.2350 -0.3027  0.5469
   40TCq2    O5  618   2.483   2.019   2.450 -0.0044 -0.3707 -0.3345
   40TCq2    O6  619   2.681   2.102   2.505  0.2987  1.0782 -0.0383
   40TCq2    H2  620   2.476   1.949   2.218  0.1916  0.8218 -3.7258
   40TCq2    H3  621   2.859   2.013   2.370 -1.2614 -0.8845  1.2989
   40TCq2    H4  622   2.816   1.784   2.028 -2.2194 -0.8649 -0.5206
   41TMC2    C1  623   1.358   4.317  13.407  0.6608  0.2016  1.0111
   41TMC2    C2  624   1.425   4.406  13.486 -0.1146  0.4533 -0.2075
   41TMC2    C3  625   1.543   4.466  13.437  0.1235 -0.7158  0.0823
   41TMC2    C4  626   1.407   4.281  13.290 -0.3997  0.0987  0.4321
   41TMC2    C5  627   1.524   4.329  13.243 -0.1007  0.0872 -0.1819
   41TMC2    C6  628   1.592   4.420  13.320 -0.5399 -0.4902  0.0291
   41TMC2     C  629   1.259   4.230  13.470  0.1144  0.3073 -0.7595
   41TMC2     O  630   1.233   4.124  13.417 -0.2423 -0.0256  0.0036
   41TMC2     H  631   1.414   4.416  13.594  0.4661  0.1141 -0.1157
   41TMC2    H1  632   1.343   4.223  13.223  0.6127 -2.0785  1.3296
   41TMC2    H2  633   1.691   4.457  13.296 -0.8231  0.7085  0.7102
   41TMC2    C7  634   1.571   4.272  13.116  0.2115 -0.4623 -0.1469
   41TMC2    C8  635   1.636   4.488  13.541  0.4298 -0.4302 -0.5540
   41TMC2    O1  636   1.488   4.220  13.039 -0.1613  0.3876 -0.4100
   41TMC2    O2  637   1.627   4.442  13.653 -0.2834  0.2499 -0.0689
   41TMC2    O5  638   1.740   4.551  13.491 -0.1077 -0.0837 -0.5787
   41TMC2    H5  639   1.704   4.618  13.430 -0.2390 -0.5212 -0.9820
   42MPD2     C  640   1.086   4.057  13.648 -0.4567 -0.2632  0.2337
   42MPD2    C1  641   1.151   4.173  13.686  0.0976 -0.3850  0.5393
   42MPD2    C2  642   1.143   4.211  13.823  0.4641  0.1237 -0.7003
   42MPD2    C3  643   1.086   4.128  13.919 -0.2822  0.6550  0.0933
   42MPD2    C4  644   1.044   4.000  13.878 -0.6155  0.4266  0.2619
   42MPD2    C5  645   1.031   3.976  13.744  0.4092  0.0256 -0.5498
   42MPD2     H  646   1.203   4.295  13.856  0.1799 -0.7201  1.9448
   42MPD2    H1  647   1.022   3.923  13.951  0.0156  0.2328  0.2418
   42MPD2    H2  648   1.068   4.026  13.545  3.1460  0.6102 -0.6718
   42MPD2    H3  649   0.979   3.885  13.715 -0.2685  0.3227 -0.2748
   42MPD2     N  650   1.078   4.152  14.060  0.1806  0.6619  0.1373
   42MPD2    H5  651   1.054   4.071  14.117  0.3842  0.5813  0.1088
   42MPD2    N1  652   1.219   4.263  13.596  0.3464 -0.4656  0.5977
   42MPD2    H7  653   1.249   4.350  13.638 -1.3503 -0.3014  1.4801
   43MPD2     C  654   3.205   2.977   1.066  0.6724 -0.3600  0.6476
   43MPD2    C1  655   3.171   2.874   1.154  0.2238 -0.7407  0.8695
   43MPD2    C2  656   3.077   2.894   1.249 -0.3999 -0.5129 -0.2545
   43MPD2    C3  657   2.998   3.005   1.247  0.5361 -0.8603  0.4195
   43MPD2    C4  658   3.043   3.108   1.169 -0.5413  0.4175  0.0250
   43MPD2    C5  659   3.142   3.099   1.074  0.6458  0.4562  0.0268
   43MPD2     H  660   3.046   2.814   1.315  0.6422 -0.5645  0.1646
   43MPD2    H1  661   2.992   3.203   1.180 -0.9013  0.3459 -1.0282
   43MPD2    H2  662   3.273   2.956   0.985  2.0802  0.6952  1.5699
   43MPD2    H3  663   3.160   3.175   1.000  1.2814  0.4852  0.2043
   43MPD2     N  664   2.882   3.032   1.321 -0.4865  0.2711  0.1827
   43MPD2    H5  665   2.832   3.118   1.303  0.7544  0.8108 -0.6749
   43MPD2    N1  666   3.234   2.746   1.146  0.0521  0.3630  0.4594
   43MPD2    H7  667   3.207   2.673   1.211 -0.0524 -0.6314 -0.6959
   44TCq2    C1  668   2.551   2.881   1.793 -0.1467 -0.9734 -0.1312
   44TCq2    O2  669   2.628   2.788   1.801  0.3299  0.0865 -0.3892
   44TCq2    C2  670   2.577   2.961   1.679 -0.5820  0.6976 -0.1008
   44TCq2    C3  671   2.529   3.087   1.669  0.3655 -0.1005  0.5417
   44TCq2    C4  672   2.570   3.161   1.563  0.1683  0.3891 -0.4818
   44TCq2    C5  673   2.665   3.125   1.474  0.1512  0.5730  0.0666
   44TCq2    C6  674   2.708   2.990   1.484 -0.5276  0.2637 -0.3567
   44TCq2    C7  675   2.664   2.908   1.586  0.4322 -0.0240 -0.4628
   44TCq2    C8  676   2.830   2.945   1.415 -0.1454 -0.2429  0.6572
   44TCq2    O4  677   2.882   2.848   1.466 -0.0633 -0.5029 -0.8105
   44TCq2    C9  678   2.551   3.303   1.566 -0.0641 -0.4706  0.6040
   44TCq2    O5  679   2.475   3.351   1.654 -0.8647  0.1168 -0.7489
   44TCq2    O6  680   2.605   3.368   1.471  0.0403  0.3159  0.0992
   44TCq2    H2  681   2.465   3.141   1.738 -0.6767  0.3990 -0.8293
   44TCq2    H3  682   2.718   3.192   1.407  0.8883 -0.4688 -0.4044
   44TCq2    H4  683   2.704   2.807   1.588  0.7941  0.1508  1.0246
   45TMC2    C1  684   3.162   0.182   9.495  0.2679 -0.0699 -0.0635
   45TMC2    C2  685   3.303   0.191   9.493 -0.2056 -0.0647 -0.2200
   45TMC2    C3  686   3.359   0.292   9.428  0.1472 -0.4331  0.3783
   45TMC2    C4  687   3.088   0.283   9.444 -0.5918  0.9159  0.1992
   45TMC2    C5  688   3.156   0.390   9.392  0.3064  0.3021 -1.0073
   45TMC2    C6  689   3.291   0.397   9.380 -0.8434  0.1216  0.8559
   45TMC2     C  690   3.102   0.055   9.529  0.8815 -0.1958 -0.3650
   45TMC2     O  691   3.168   4.708   9.607 -0.5909 -0.0978  0.0958
   45TMC2     H  692   3.353   0.102   9.529 -0.9398 -0.5605 -0.4064
   45TMC2    H1  693   2.979   0.286   9.438 -0.6542 -0.2289  0.7230
   45TMC2    H2  694   3.338   0.487   9.340  0.0283 -0.6061  0.2474
   45TMC2    C7  695   3.083   0.511   9.380  0.3827  0.1146  0.0083
   45TMC2    C8  696   3.501   0.324   9.438 -0.1499  0.4338  0.1021
   45TMC2    O1  697   2.970   0.497   9.333  0.4298 -0.1399  0.0540
   45TMC2    O2  698   3.556   0.406   9.371  0.7243 -0.5621 -0.0925
   45TMC2    O5  699   3.559   0.278   9.552  0.0084  0.8212 -0.1808
   45TMC2    H5  700   3.491   0.229   9.601  0.6682  0.0116 -0.0692
   46MPD2     C  701   2.921   4.534   9.534 -1.0560 -0.1630  0.0232
   46MPD2    C1  702   2.889   4.657   9.472  0.9840  0.2503  0.1899
   46MPD2    C2  703   2.761   4.685   9.423 -0.1569 -0.5940  0.6774
   46MPD2    C3  704   2.661   4.593   9.460 -0.2292  0.2430 -0.0611
   46MPD2    C4  705   2.697   4.469   9.513  0.6876  0.2558 -0.1959
   46MPD2    C5  706   2.823   4.444   9.554 -0.5241  0.1695 -0.6722
   46MPD2     H  707   2.736   0.058   9.378 -0.0794  0.3573  2.6606
   46MPD2    H1  708   2.622   4.420   9.574  0.6798  0.7122  0.1682
   46MPD2    H2  709   3.022   4.525   9.572 -0.3871  0.1575 -1.6661
   46MPD2    H3  710   2.847   4.343   9.586  1.5697  1.1000  0.7256
   46MPD2     N  711   2.524   4.627   9.443  0.0154  0.3539  0.3914
   46MPD2    H5  712   2.499   4.716   9.402  0.0350 -0.4122 -1.2863
   46MPD2    N1  713   2.978   0.038   9.468  0.3385  0.1871  0.2537
   46MPD2    H7  714   2.953   0.104   9.395  2.0637  1.0698  0.4802
   47TMC2    C1  715   1.195   0.693   9.306 -0.2055 -0.4026 -0.2782
   47TMC2    C2  716   1.268   0.609   9.221  0.8947 -0.6256  0.6127
   47TMC2    C3  717   1.211   0.577   9.101 -0.5857  0.1364 -0.4114
   47TMC2    C4  718   1.061   0.710   9.283  0.1057  0.1509 -0.2252
   47TMC2    C5  719   1.006   0.654   9.173 -0.0880 -1.0428 -0.3347
   47TMC2    C6  720   1.073   0.577   9.081  0.0324 -0.1545 -0.3392
   47TMC2     C  721   1.266   0.769   9.406 -0.4562  0.0640  0.1081
   47TMC2     O  722   1.208   0.871   9.448 -0.3977 -0.3726 -0.4293
   47TMC2     H  723   1.376   0.618   9.219  0.8881 -0.9756 -2.1696
   47TMC2    H1  724   1.003   0.777   9.345 -1.4835 -1.0007 -0.4665
   47TMC2    H2  725   1.036   0.568   8.980  1.1536 -0.3206 -0.7316
   47TMC2    C7  726   0.861   0.639   9.186 -0.1070 -0.1675 -0.6303
   47TMC2    C8  727   1.305   0.559   8.983 -0.0975  0.0042 -0.5377
   47TMC2    O1  728   0.801   0.701   9.272  1.0176  0.4683  0.3615
   47TMC2    O2  729   1.412   0.611   8.973 -0.1614 -0.0882  1.1515
   47TMC2    O5  730   1.259   0.460   8.900 -0.5317  0.3711 -0.0939
   47TMC2    H5  731   1.183   0.407   8.933 -1.2382  1.8070  0.5941
   48MPD2     C  732   1.460   0.872   9.601  0.1671  0.1703  0.5854
   48MPD2    C1  733   1.477   0.760   9.526  0.0038  0.5027  0.2858
   48MPD2    C2  734   1.591   0.685   9.554 -0.0365 -0.7230  0.3334
   48MPD2    C3  735   1.690   0.721   9.647 -0.1680  0.5688 -0.5364
   48MPD2    C4  736   1.670   0.836   9.718 -0.2151  0.7259 -0.1504
   48MPD2    C5  737   1.547   0.901   9.694 -0.1509  0.7686  0.2712
   48MPD2     H  738   1.599   0.587   9.508  1.2917 -0.2996 -0.3212
   48MPD2    H1  739   1.734   0.868   9.800  1.7820 -0.2233 -1.3317
   48MPD2    H2  740   1.372   0.935   9.609 -0.4233 -0.6544  0.6116
   48MPD2    H3  741   1.533   0.995   9.747 -0.9268 -0.6827  2.6580
   48MPD2     N  742   1.782   0.616   9.676 -0.2428 -0.3331 -0.0906
   48MPD2    H5  743   1.774   0.527   9.626 -0.7397  0.2039 -0.9647
   48MPD2    N1  744   1.386   0.712   9.435  0.0985 -0.5252  0.3437
   48MPD2    H7  745   1.407   0.621   9.395  1.0068  0.3623 -1.2017
   49MPD2     C  746   3.798   2.372  10.280 -0.6044 -0.2706  0.0869
   49MPD2    C1  747   3.808   2.486  10.203  0.6340  0.0300  0.3349
   49MPD2    C2  748   3.860   2.607  10.245 -0.6075 -0.5753 -0.2468
   49MPD2    C3  749   3.906   2.609  10.374  0.5303 -0.7341 -0.4952
   49MPD2    C4  750   3.919   2.486  10.443  0.0232  1.2151  0.2400
   49MPD2    C5  751   3.855   2.374  10.404 -0.2909 -0.7247  0.1855
   49MPD2     H  752   3.861   2.698  10.186  3.9814  0.7487  1.8596
   49MPD2    H1  753   3.959   2.491  10.543 -1.5552 -1.2917  0.9880
   49MPD2    H2  754   3.759   2.274  10.252 -2.8108  1.1530 -1.7786
   49MPD2    H3  755   3.865   2.282  10.460  2.1118 -0.0518  0.8836
   49MPD2     N  756   3.939   2.727  10.447 -0.1378 -0.0417  0.5556
   49MPD2    H5  757   3.978   2.715  10.540 -2.0676  2.1728  1.6648
   49MPD2    N1  758   3.760   2.482  10.070 -0.3277 -0.1261 -0.2486
   49MPD2    H7  759   3.752   2.575  10.030 -1.5913 -1.3179 -2.7652
   50TCq2    C1  760   3.694   2.380  10.007  0.6710  0.1737 -0.5668
   50TCq2    O2  761   3.690   2.261  10.036 -0.1997  0.3482  0.1201
   50TCq2    C2  762   3.637   2.419   9.882 -0.3912 -0.4906  0.0561
   50TCq2    C3  763   3.615   2.554   9.848  0.0768 -0.5507  0.2082
   50TCq2    C4  764   3.559   2.587   9.725  0.6277  0.7568  0.1042
   50TCq2    C5  765   3.536   2.487   9.634 -0.2435 -0.1134  0.5288
   50TCq2    C6  766   3.557   2.352   9.674 -0.2573 -0.3481 -0.4853
   50TCq2    C7  767   3.611   2.318   9.793  0.3183  0.4837 -0.5536
   50TCq2    C8  768   3.541   2.245   9.576  0.0190  1.0097 -0.4171
   50TCq2    O4  769   3.545   2.128   9.612 -0.3150 -0.0494  0.5208
   50TCq2    C9  770   3.515   2.718   9.708  0.2197 -0.4251  0.1446
   50TCq2    O5  771   3.482   2.750   9.589  0.0425 -0.1240 -0.3972
   50TCq2    O6  772   3.532   2.792   9.806 -0.1736 -0.5438  0.3476
   50TCq2    H2  773   3.646   2.640   9.907  1.4499 -0.3684 -0.7904
   50TCq2    H3  774   3.480   2.521   9.548 -0.7795 -0.7240  0.6409
   50TCq2    H4  775   3.642   2.218   9.824 -2.0670 -0.0516  0.0959
   51MPD2     C  776   3.829   1.700   0.771 -0.3432  0.5280 -0.5854
   51MPD2    C1  777   3.935   1.609   0.781 -0.3310  0.8843  0.4999
   51MPD2    C2  778   4.044   1.632   0.857 -0.2441  0.6096  0.2219
   51MPD2    C3  779   4.058   1.755   0.922  0.5291 -0.1923  0.0430
   51MPD2    C4  780   3.962   1.853   0.898 -0.3883  0.4779 -0.4626
   51MPD2    C5  781   3.851   1.825   0.827  0.6692  0.2093  0.0243
   51MPD2     H  782   4.121   1.557   0.865 -0.3000  0.5532  0.2277
   51MPD2    H1  783   3.975   1.957   0.928 -3.2010  0.2170  1.6339
   51MPD2    H2  784   3.743   1.685   0.706 -0.8694 -0.1956  0.2893
   51MPD2    H3  785   3.786   1.908   0.802  1.2178  0.5519 -0.2586
   51MPD2     N  786   4.175   1.803   0.990 -0.3808 -0.3537 -1.2065
   51MPD2    H5  787   4.175   1.899   1.022 -0.8732 -1.2182  1.3836
   51MPD2    N1  788   3.926   1.477   0.728  0.0359 -0.5328 -0.3909
   51MPD2    H7  789   4.010   1.423   0.708  0.9193  0.9747 -0.7908
   52TCq2    C1  790   4.275   1.721   1.034 -0.2081 -0.1255 -0.1975
   52TCq2    O2  791   4.282   1.601   1.024 -0.0224 -0.1390  0.3029
   52TCq2    C2  792   4.364   1.796   1.120  0.3014 -1.3653 -0.2039
   52TCq2    C3  793   4.431   1.717   1.210  0.3764 -0.4874  0.0907
   52TCq2    C4  794   4.498   1.779   1.310 -0.5021  0.3582  0.5878
   52TCq2    C5  795   4.489   1.910   1.326 -0.3266  0.1152 -0.9399
   52TCq2    C6  796   4.412   1.984   1.238  0.2845  0.3108 -0.3957
   52TCq2    C7  797   4.352   1.931   1.127  0.1658  0.0245 -0.3035
   52TCq2    C8  798   4.435   2.128   1.237 -0.0179  0.0230 -0.9143
   52TCq2    O4  799   4.543   2.168   1.278 -0.2243  0.0307 -0.0282
   52TCq2    C9  800   4.572   1.704   1.409  0.2014  0.2334 -0.7000
   52TCq2    O5  801   4.639   1.766   1.491  0.7201 -0.2726 -0.2338
   52TCq2    O6  802   4.572   1.577   1.409  0.1656  0.0576  0.0918
   52TCq2    H2  803   4.443   1.609   1.207  3.0680 -0.1846  0.7297
   52TCq2    H3  804   4.548   1.953   1.406  1.1315 -2.9349 -0.3628
   52TCq2    H4  805   4.308   1.994   1.051  0.2715  0.1884 -0.2310
   53TMC2    C1  806   0.117   0.124  11.492 -0.1231 -0.4541 -0.2084
   53TMC2    C2  807   0.193   0.026  11.432 -0.2393  0.1338  0.2112
   53TMC2    C3  808   0.192   4.629  11.502  0.1005  0.1066 -0.3214
   53TMC2    C4  809   0.062   0.109  11.615  0.1614  0.3562 -0.2800
   53TMC2    C5  810   0.063   4.718  11.687 -0.1293  0.5734  0.2779
   53TMC2    C6  811   0.132   4.619  11.625 -0.2062 -0.4053 -0.7963
   53TMC2     C  812   0.054   0.221  11.406  0.3992 -0.4161 -0.1023
   53TMC2     O  813   0.097   0.263  11.301 -0.0031  0.7963  0.2259
   53TMC2     H  814   0.223   0.050  11.330 -1.8588  0.2242 -0.2410
   53TMC2    H1  815   0.014   0.198  11.654  2.1635  0.3950  2.0650
   53TMC2    H2  816   0.142   4.522  11.671 -2.9114 -0.1822  0.2828
   53TMC2    C7  817   4.684   4.706  11.789 -0.9984 -0.0633 -0.1040
   53TMC2    C8  818   0.286   4.528  11.463  0.2070 -0.3364 -0.4539
   53TMC2    O1  819   4.601   0.072  11.781 -0.5037  0.7560  0.0229
   53TMC2    O2  820   0.301   4.423  11.522  0.1222  0.3232  0.8307
   53TMC2    O5  821   0.306   4.555  11.332  0.6097  0.0686  0.3180
   53TMC2    H5  822   0.339   4.481  11.276  1.7890  1.7742 -1.2377
   54MPD2     C  823   4.588   0.430  11.325  0.0774  0.6872 -0.3114
   54MPD2    C1  824   4.553   0.331  11.409 -0.6634 -0.6312  0.9420
   54MPD2    C2  825   4.424   0.332  11.466  0.3067  1.1086 -0.3684
   54MPD2    C3  826   4.332   0.430  11.441  0.4998 -0.6171 -0.3647
   54MPD2    C4  827   4.372   0.525  11.349  0.3915 -0.5220  0.1670
   54MPD2    C5  828   4.496   0.526  11.298 -0.3970  0.4476  0.0582
   54MPD2     H  829   4.388   0.256  11.535 -2.0610  3.0695  0.5469
   54MPD2    H1  830   4.304   0.597  11.307 -0.5396 -2.3983 -1.5266
   54MPD2    H2  831   4.682   0.452  11.275 -0.0549  1.8993 -0.0481
   54MPD2    H3  832   4.530   0.607  11.234  1.8214 -0.8016 -0.3029
   54MPD2     N  833   4.202   0.441  11.502  0.5324 -0.7312  0.1432
   54MPD2    H5  834   4.134   0.507  11.466  0.0796 -1.3456 -0.1249
   54MPD2    N1  835   4.650   0.237  11.453  0.2713  0.2272 -0.3584
   54MPD2    H7  836   4.620   0.173  11.526  0.0983  1.0193  0.2734
   55MPD2     C  837   0.257   3.170   0.097 -0.1839 -0.7720 -0.7226
   55MPD2    C1  838   0.242   3.047   0.150 -1.3535 -0.7466  0.2238
   55MPD2    C2  839   0.153   3.019   0.254  0.6523  0.2372  0.3577
   55MPD2    C3  840   0.057   3.112   0.289  0.0692  0.1474  0.2302
   55MPD2    C4  841   0.059   3.239   0.227  0.7792  0.0121  0.4540
   55MPD2    C5  842   0.161   3.267   0.134  0.8460 -0.2571  0.7283
   55MPD2     H  843   0.147   2.924   0.306 -2.2006  0.6198  0.6911
   55MPD2    H1  844   4.717   3.320   0.258  0.8105 -0.0846  0.7770
   55MPD2    H2  845   0.330   3.196   0.021  1.3044  0.5633  1.1509
   55MPD2    H3  846   0.157   3.360   0.078  0.0762 -0.7993 -0.1073
   55MPD2     N  847   4.693   3.080   0.393 -0.0641 -0.0954  0.0464
   55MPD2    H5  848   4.705   2.987   0.433  1.1376 -0.5002 -1.2743
   55MPD2    N1  849   0.338   2.953   0.110 -0.6474  0.2873  0.6788
   55MPD2    H7  850   0.409   2.990   0.048 -0.7356 -1.0429 -0.2117
   56TCq2    C1  851   0.335   2.812   0.139 -0.9730 -0.5809  0.8699
   56TCq2    O2  852   0.279   2.743   0.222  0.6096 -0.0401 -0.0493
   56TCq2    C2  853   0.426   2.739   0.044  0.3729  0.5361  0.4201
   56TCq2    C3  854   0.443   2.793  17.614 -0.1333  0.5921  0.4638
   56TCq2    C4  855   0.530   2.714  17.539 -0.1445  0.2815  0.6905
   56TCq2    C5  856   0.587   2.597  17.578  0.0291  0.7899  0.2380
   56TCq2    C6  857   0.550   2.548   0.012  0.0717  0.5218  0.0983
   56TCq2    C7  858   0.464   2.616   0.095  0.2034  0.4202 -0.6137
   56TCq2    C8  859   0.600   2.419   0.053 -0.0115  0.2595 -0.3138
   56TCq2    O4  860   0.668   2.362  17.663 -0.6064  0.3030 -0.1692
   56TCq2    C9  861   0.560   2.757  17.404  0.5985  0.3946 -1.5365
   56TCq2    O5  862   0.526   2.878  17.383 -0.3127  0.0464  0.1802
   56TCq2    O6  863   0.640   2.685  17.334 -0.4424 -0.5613  0.1512
   56TCq2    H2  864   0.410   2.887  17.573 -1.4430 -0.4983 -0.9444
   56TCq2    H3  865   0.648   2.542  17.507 -0.0071 -0.2520  1.0061
   56TCq2    H4  866   0.442   2.591   0.198  2.0074 -2.2134 -0.8482
   57TMC2    C1  867   0.112   3.515  13.599 -0.2751 -0.1348  0.5319
   57TMC2    C2  868   0.202   3.507  13.701  0.5853  0.6330  0.1072
   57TMC2    C3  869   0.329   3.458  13.668 -0.0155 -0.5824  0.1566
   57TMC2    C4  870   0.149   3.489  13.470  0.3479  0.0868  0.7919
   57TMC2    C5  871   0.270   3.437  13.445  0.4632  0.3361  0.2632
   57TMC2    C6  872   0.365   3.417  13.542 -0.1282  0.0487 -0.1211
   57TMC2     C  873   4.691   3.489  13.627  0.5513  0.1191 -0.1270
   57TMC2     O  874   4.607   3.549  13.567  0.0779  0.0347 -0.4752
   57TMC2     H  875   0.176   3.535  13.802  0.9047  0.4479  0.2419
   57TMC2    H1  876   0.074   3.508  13.394  0.7430 -0.1628  0.3450
   57TMC2    H2  877   0.458   3.378  13.504  0.0654  2.8454 -2.4923
   57TMC2    C7  878   0.313   3.422  13.305 -0.7667  0.4927 -0.1892
   57TMC2    C8  879   0.417   3.451  13.777 -0.2199  0.2584 -0.2348
   57TMC2    O1  880   0.260   3.499  13.228  1.1283 -0.7987  0.3127
   57TMC2    O2  881   0.382   3.468  13.891 -0.2233  0.2336  0.3452
   57TMC2    O5  882   0.531   3.384  13.737  0.0038 -0.2031  0.6973
   57TMC2    H5  883   0.564   3.397  13.645  0.3434  0.1710  0.8683
   58MPD2     C  884   4.308   3.273  13.916 -0.2285  0.2315  0.1897
   58MPD2    C1  885   4.308   3.378  13.827  0.5444  0.7422  0.1108
   58MPD2    C2  886   4.417   3.422  13.760 -0.2230  0.0576 -0.1199
   58MPD2    C3  887   4.544   3.365  13.789  0.1519 -0.4805 -0.1666
   58MPD2    C4  888   4.542   3.267  13.881 -0.1642  0.0743  0.1963
   58MPD2    C5  889   4.430   3.217  13.940  0.3855 -0.4582  0.8407
   58MPD2     H  890   4.411   3.509  13.695  2.6023 -0.0400 -0.4856
   58MPD2    H1  891   4.639   3.222  13.898  0.0406  0.8400  1.0967
   58MPD2    H2  892   4.219   3.233  13.963  0.4840 -1.2568  0.2903
   58MPD2    H3  893   4.448   3.138  14.013 -1.4295 -0.8495  0.8531
   58MPD2     N  894   4.675   3.408  13.745 -0.7018  0.5763  0.3227
   58MPD2    H5  895   0.034   3.367  13.790  1.9626  2.7319 -2.5856
   58MPD2    N1  896   4.196   3.441  13.780  0.2592  0.3243 -0.1836
   58MPD2    H7  897   4.208   3.517  13.714 -1.2563 -0.2017 -1.0558
   59MPD2     C  898   2.477   3.272  13.244 -0.0833 -1.0406  0.1501
   59MPD2    C1  899   2.547   3.324  13.131 -0.7499  0.0567  0.7803
   59MPD2    C2  900   2.655   3.413  13.161 -0.2708  0.2157  0.3126
   59MPD2    C3  901   2.677   3.454  13.292  0.9549  0.5630  0.1540
   59MPD2    C4  902   2.606   3.401  13.392  0.5587 -1.0542 -0.0070
   59MPD2    C5  903   2.509   3.303  13.369 -0.2325 -0.4523 -0.1592
   59MPD2     H  904   2.708   3.454  13.076  0.4523  0.4762  0.8900
   59MPD2    H1  905   2.626   3.443  13.489  1.1344 -0.9025 -0.1899
   59MPD2    H2  906   2.408   3.189  13.237  1.0096 -1.9213 -0.2636
   59MPD2    H3  907   2.458   3.248  13.448 -2.3510  0.3699 -0.9404
   59MPD2     N  908   2.760   3.564  13.329  0.1546  0.1224  0.5039
   59MPD2    H5  909   2.762   3.596  13.425  1.1209 -0.9509  0.8432
   59MPD2    N1  910   2.517   3.301  12.997  0.7313 -0.7853  0.8430
   59MPD2    H7  911   2.572   3.350  12.928  1.5109 -3.0744 -0.1709
   60TCq2    C1  912   2.423   3.214  12.938  0.0928 -0.2212 -0.3475
   60TCq2    O2  913   2.334   3.156  12.995  0.1911  0.0272 -0.0364
   60TCq2    C2  914   2.424   3.227  12.786 -0.5243 -0.1066 -1.0500
   60TCq2    C3  915   2.291   3.241  12.739  0.3551  0.2023 -0.0935
   60TCq2    C4  916   2.284   3.283  12.607  0.9758 -0.2442  0.2702
   60TCq2    C5  917   2.389   3.339  12.537  0.2806  0.3208  0.1520
   60TCq2    C6  918   2.514   3.328  12.595  0.1395 -0.4150 -0.7001
   60TCq2    C7  919   2.529   3.282  12.723 -0.2154 -0.0184  0.1197
   60TCq2    C8  920   2.628   3.357  12.511  0.8050  0.2401  0.4276
   60TCq2    O4  921   2.736   3.300  12.524  0.2988  0.0120 -0.0676
   60TCq2    C9  922   2.152   3.292  12.548  0.3766 -0.5571  0.5805
   60TCq2    O5  923   2.066   3.231  12.620 -0.8205  0.6940 -0.2189
   60TCq2    O6  924   2.138   3.346  12.437  0.4068  0.2378 -0.5121
   60TCq2    H2  925   2.211   3.191  12.792 -0.3052  1.5674  0.1755
   60TCq2    H3  926   2.376   3.364  12.432  1.0728 -1.4479 -0.3600
   60TCq2    H4  927   2.630   3.286  12.762  0.1193  1.4766 -0.9058
   61MPD2     C  928   1.653   0.255  14.160  0.1427 -0.6849 -0.2429
   61MPD2    C1  929   1.560   0.258  14.262  0.7937 -0.2108  0.0658
   61MPD2    C2  930   1.445   0.337  14.239 -0.4867  0.3616  0.4354
   61MPD2    C3  931   1.425   0.409  14.117 -0.0197 -0.7428  0.3413
   61MPD2    C4  932   1.522   0.405  14.018 -0.0572  0.8802  0.5371
   61MPD2    C5  933   1.630   0.319  14.040  0.1949  0.0719  0.7614
   61MPD2     H  934   1.371   0.342  14.319  1.1711  2.0050  1.8570
   61MPD2    H1  935   1.512   0.456  13.923  0.2735 -1.5841 -0.8241
   61MPD2    H2  936   1.738   0.187  14.164  1.6370  1.2338  0.8895
   61MPD2    H3  937   1.705   0.303  13.964 -2.0359  0.2230 -1.4892
   61MPD2     N  938   1.309   0.495  14.106  0.2619 -0.3100 -0.1144
   61MPD2    H5  939   1.303   0.566  14.035  0.4063 -0.1773  0.0059
   61MPD2    N1  940   1.584   0.199  14.393  0.6304 -0.0827 -0.1573
   61MPD2    H7  941   1.520   0.228  14.466  1.9290 -0.4003  1.1194
   62TCq2    C1  942   1.703   0.135  14.435 -0.1355  0.2930  0.2396
   62TCq2    O2  943   1.805   0.099  14.378 -0.1445  0.2366 -0.1709
   62TCq2    C2  944   1.716   0.154  14.580 -0.8523  0.5344  0.3695
   62TCq2    C3  945   1.809   0.075  14.644 -0.5791  0.2555 -0.1381
   62TCq2    C4  946   1.846   0.110  14.774  0.2615 -0.7685 -0.4053
   62TCq2    C5  947   1.794   0.214  14.846  0.0977 -0.1952  0.6329
   62TCq2    C6  948   1.712   0.290  14.770  0.1942  0.2446 -0.0259
   62TCq2    C7  949   1.674   0.271  14.638  0.0608 -0.7307 -0.4203
   62TCq2    C8  950   1.673   0.414  14.827  0.4551  0.8276 -0.1763
   62TCq2    O4  951   1.752   0.479  14.893 -0.6912 -0.3827 -0.3811
   62TCq2    C9  952   1.944   0.028  14.836 -0.3362 -0.3003 -0.1486
   62TCq2    O5  953   2.019   4.679  14.763  0.5289 -0.0512 -0.1753
   62TCq2    O6  954   1.956   0.029  14.957  0.2648  0.1345  0.7194
   62TCq2    H2  955   1.843   4.710  14.590  0.8647  0.9006 -0.2557
   62TCq2    H3  956   1.830   0.239  14.945  0.1774 -0.1005  0.5802
   62TCq2    H4  957   1.622   0.346  14.579  0.9225 -0.5885 -0.9902
   63TMC2    C1  958   1.941   0.620  10.894  0.5917  0.8052 -0.0673
   63TMC2    C2  959   2.053   0.640  10.966  0.7255 -0.2548  0.0521
   63TMC2    C3  960   2.161   0.702  10.904 -0.0364 -0.1235 -0.0715
   63TMC2    C4  961   1.926   0.663  10.766 -0.2952  1.2862 -0.1346
   63TMC2    C5  962   2.027   0.744  10.720 -0.3516  0.0639  1.0445
   63TMC2    C6  963   2.149   0.757  10.778  0.2255 -0.1561 -0.3752
   63TMC2     C  964   1.830   0.560  10.962 -0.7810  0.3466 -0.9320
   63TMC2     O  965   1.844   0.537  11.082 -0.2064 -0.1181  0.5992
   63TMC2     H  966   2.056   0.597  11.065  0.6325  1.8556  0.9753
   63TMC2    H1  967   1.825   0.672  10.730 -0.9771  0.1931  1.4899
   63TMC2    H2  968   2.224   0.826  10.741  0.8125 -0.2952  0.5579
   63TMC2    C7  969   1.980   0.842  10.625  0.1181  0.5248  0.8312
   63TMC2    C8  970   2.252   0.775  10.987 -0.2055  0.0807  0.8900
   63TMC2    O1  971   1.870   0.821  10.576  0.0452 -0.3144 -0.2817
   63TMC2    O2  972   2.251   0.896  10.972  0.1512  0.4786  0.2591
   63TMC2    O5  973   2.258   0.711  11.104 -0.9289 -0.3561  0.6624
   63TMC2    H5  974   2.284   0.617  11.096 -1.6265 -0.3158 -1.9511
   64MPD2     C  975   1.343   0.400  10.976 -0.5072 -0.0132 -0.4104
   64MPD2    C1  976   1.391   0.391  10.851  0.7417  0.6615  0.5338
   64MPD2    C2  977   1.515   0.441  10.819  0.1040  0.4171  0.3385
   64MPD2    C3  978   1.593   0.494  10.915  0.5297 -0.0110  0.2779
   64MPD2    C4  979   1.551   0.505  11.044 -0.4955  0.6719  0.2802
   64MPD2    C5  980   1.427   0.456  11.072 -0.1466 -0.0614  0.3116
   64MPD2     H  981   1.543   0.426  10.716 -0.6394  1.4864 -0.0253
   64MPD2    H1  982   1.618   0.547  11.118 -1.3434  0.4431  1.1833
   64MPD2    H2  983   1.248   0.362  11.012 -0.4467 -1.3553 -1.6294
   64MPD2    H3  984   1.381   0.473  11.168  1.7379 -3.7456  1.8773
   64MPD2     N  985   1.723   0.524  10.881 -0.6742  0.4664 -0.5890
   64MPD2    H5  986   1.737   0.511  10.782  0.9426  1.0225 -0.4386
   64MPD2    N1  987   1.325   0.334  10.737 -0.2798  0.0219 -0.2886
   64MPD2    H7  988   1.381   0.325  10.653  1.6063  0.6003  0.9233
   65MPD2     C  989   2.170   4.076  15.777 -0.9887 -0.0631  0.1732
   65MPD2    C1  990   2.151   4.079  15.638  0.2949  0.5151 -0.4290
   65MPD2    C2  991   2.100   3.970  15.573 -0.2081  0.2288 -0.1016
   65MPD2    C3  992   2.074   3.857  15.650  0.4692  0.3773 -0.1587
   65MPD2    C4  993   2.092   3.856  15.788  0.8342 -0.0467  0.0875
   65MPD2    C5  994   2.136   3.971  15.850  0.0971  0.3261 -0.0909
   65MPD2     H  995   2.066   3.981  15.471  1.0686  2.4879 -0.2849
   65MPD2    H1  996   2.059   3.770  15.846 -0.9677 -1.0042 -2.3481
   65MPD2    H2  997   2.193   4.161  15.841 -2.1738 -0.5236  1.2163
   65MPD2    H3  998   2.155   3.971  15.957 -3.1361 -1.0466  0.4529
   65MPD2     N  999   2.012   3.743  15.596  0.1488  0.3340  0.3571
   65MPD2    H5 1000   1.984   3.667  15.657  1.1799  2.0125  2.9458
   65MPD2    N1 1001   2.164   4.192  15.557 -0.3933  0.7566  0.3324
   65MPD2    H7 1002   2.132   4.195  15.461 -0.8146  0.5926  0.4697
   66TCq2    C1 1003   2.240   4.301  15.602 -0.0943 -0.4991  0.1251
   66TCq2    O2 1004   2.274   4.336  15.713  0.4709  0.0099 -0.7462
   66TCq2    C2 1005   2.251   4.402  15.495 -0.9572 -0.7728  0.9540
   66TCq2    C3 1006   2.267   4.350  15.367 -0.2959 -0.6781 -0.1468
   66TCq2    C4 1007   2.304   4.434  15.270 -0.8681  0.5301 -0.2863
   66TCq2    C5 1008   2.322   4.570  15.296 -0.2985 -0.1183 -0.1302
   66TCq2    C6 1009   2.307   4.617  15.421 -0.0498  0.2741  0.0367
   66TCq2    C7 1010   2.265   4.537  15.525  0.3265 -0.2237  0.5826
   66TCq2    C8 1011   2.320   0.037  15.433 -0.4489 -0.5603 -0.4414
   66TCq2    O4 1012   2.371   0.101  15.341  0.1212 -0.7144 -1.1064
   66TCq2    C9 1013   2.301   4.386  15.136  0.8433 -0.3954 -0.1637
   66TCq2    O5 1014   2.302   4.259  15.119  0.2130 -0.3437  0.6942
   66TCq2    O6 1015   2.298   4.468  15.036 -0.2325 -0.5718  0.3255
   66TCq2    H2 1016   2.273   4.245  15.342  0.2738 -0.7594  0.3286
   66TCq2    H3 1017   2.358   4.626  15.210 -0.9407  1.4917  0.6464
   66TCq2    H4 1018   2.272   4.562  15.631  0.4420 -0.2819  0.5901
   67MPD2     C 1019   2.241   3.542  13.999  0.7623 -0.3761 -0.2759
   67MPD2    C1 1020   2.197   3.606  14.114 -0.5332 -0.0924  0.0747
   67MPD2    C2 1021   2.061   3.612  14.137  0.7131  0.5133  0.5823
   67MPD2    C3 1022   1.968   3.549  14.051  1.3662  0.5436 -0.6826
   67MPD2    C4 1023   2.021   3.482  13.948 -0.7631 -0.4131 -0.3777
   67MPD2    C5 1024   2.151   3.481  13.915  0.6242  0.7743  0.7220
   67MPD2     H 1025   2.023   3.677  14.215  1.0392 -0.0297  1.1971
   67MPD2    H1 1026   1.955   3.438  13.874  0.2104  0.4812 -1.7917
   67MPD2    H2 1027   2.346   3.539  13.972  0.3375 -1.4400 -1.7972
   67MPD2    H3 1028   2.172   3.429  13.822  1.7016  1.0659  0.8069
   67MPD2     N 1029   1.829   3.559  14.057 -0.0013  0.3963 -0.4796
   67MPD2    H5 1030   1.788   3.520  13.972  2.3058  0.0937 -1.4554
   67MPD2    N1 1031   2.285   3.682  14.198  0.1169  0.4116  0.4066
   67MPD2    H7 1032   2.256   3.721  14.287  0.7070  1.8705 -0.0227
   68TCq2    C1 1033   2.417   3.705  14.175 -0.3871  0.1736  0.0476
   68TCq2    O2 1034   2.496   3.654  14.100 -0.2346 -0.5424  0.3061
   68TCq2    C2 1035   2.469   3.799  14.269  0.7734  0.0651  0.5164
   68TCq2    C3 1036   2.391   3.910  14.296 -0.3663  0.1643  0.1908
   68TCq2    C4 1037   2.452   4.013  14.367  0.0971  0.3711 -0.6563
   68TCq2    C5 1038   2.577   4.001  14.418 -0.4804 -0.2078  0.1798
   68TCq2    C6 1039   2.647   3.885  14.394 -0.7477  0.2052 -0.2021
   68TCq2    C7 1040   2.594   3.783  14.320 -0.4536  0.7812  0.0594
   68TCq2    C8 1041   2.754   3.856  14.493  0.2789  0.2178  0.4426
   68TCq2    O4 1042   2.825   3.758  14.472 -0.0017  1.0103 -0.1942
   68TCq2    C9 1043   2.380   4.131  14.394  0.6224  0.1493 -0.0611
   68TCq2    O5 1044   2.306   4.173  14.301  0.6315  0.1294 -0.7054
   68TCq2    O6 1045   2.393   4.194  14.503  0.4615 -0.1908 -0.0329
   68TCq2    H2 1046   2.289   3.922  14.261  0.1318 -0.0188 -1.3411
   68TCq2    H3 1047   2.620   4.086  14.470 -0.3191 -1.1521  1.5970
   68TCq2    H4 1048   2.644   3.687  14.311 -0.7834  0.5817  0.3632
   69TMC2    C1 1049   4.273   0.828  12.214 -0.6091 -0.4881 -0.6501
   69TMC2    C2 1050   4.196   0.932  12.261 -0.4737  0.0452 -0.4713
   69TMC2    C3 1051   4.202   1.044  12.192 -0.0159 -0.0289 -0.2031
   69TMC2    C4 1052   4.342   0.837  12.099 -0.0779  0.0139  0.8033
   69TMC2    C5 1053   4.333   0.959  12.032  0.0407 -0.5873  0.1344
   69TMC2    C6 1054   4.251   1.061  12.063  0.6586  0.9321  0.3632
   69TMC2     C 1055   4.287   0.709  12.292 -0.4240  0.2370 -0.3608
   69TMC2     O 1056   4.370   0.622  12.261 -0.8260 -0.1122  0.1406
   69TMC2     H 1057   4.126   0.925  12.343  0.4078  4.2177  0.6203
   69TMC2    H1 1058   4.407   0.757  12.064  0.7716  0.5247  1.2042
   69TMC2    H2 1059   4.236   1.150  12.004  2.7523  2.1011  1.6319
   69TMC2    C7 1060   4.435   0.980  11.929 -0.2345  0.0475  0.4066
   69TMC2    C8 1061   4.144   1.162  12.240 -0.1415  0.0973  0.3339
   69TMC2    O1 1062   4.530   0.903  11.949 -0.2595 -0.1110 -0.1225
   69TMC2    O2 1063   4.093   1.244  12.165  0.8355  0.2004  0.6700
   69TMC2    O5 1064   4.196   1.186  12.364  0.2016 -1.0449 -0.0612
   69TMC2    H5 1065   4.261   1.120  12.398  0.3465 -0.2856  1.1518
   70MPD2     C 1066   4.052   0.596  12.544 -0.7127 -0.0529  0.1768
   70MPD2    C1 1067   4.159   0.578  12.457 -0.0832  0.3810 -0.2881
   70MPD2    C2 1068   4.251   0.471  12.478  0.4513  0.2426  0.9685
   70MPD2    C3 1069   4.223   0.382  12.580  0.0185 -0.6730  0.5021
   70MPD2    C4 1070   4.104   0.394  12.655 -0.3838 -0.4059  0.0978
   70MPD2    C5 1071   4.016   0.494  12.628 -0.4167  0.4604 -0.1797
   70MPD2     H 1072   4.340   0.455  12.418 -0.2558  0.0217 -0.0139
   70MPD2    H1 1073   4.073   0.329  12.736 -0.3208  0.6554  0.9718
   70MPD2    H2 1074   3.976   0.671  12.527 -1.4194 -0.9063 -0.4541
   70MPD2    H3 1075   3.921   0.500  12.680  0.6138  0.6168  1.6743
   70MPD2     N 1076   4.294   0.260  12.606  0.0341 -0.0491 -0.5713
   70MPD2    H5 1077   4.262   0.213  12.690  1.0890  0.5346  0.1545
   70MPD2    N1 1078   4.181   0.690  12.373 -0.2119 -0.9095 -0.1486
   70MPD2    H7 1079   4.115   0.767  12.369 -0.3980 -1.0519  0.2548
   71TMC2    C1 1080   2.869   0.894   0.436  0.4067 -0.0836 -0.5125
   71TMC2    C2 1081   2.941   0.891   0.317 -0.4405 -0.6578 -0.4776
   71TMC2    C3 1082   3.036   0.794   0.306 -0.1996 -0.2637 -0.5489
   71TMC2    C4 1083   2.891   0.815   0.546 -0.3348  0.2239  0.0184
   71TMC2    C5 1084   2.996   0.728   0.527  0.0022 -0.0498 -0.2681
   71TMC2    C6 1085   3.070   0.714   0.412  0.4779  0.6613  0.2696
   71TMC2     C 1086   2.795   1.017   0.468  0.2778  0.3534  0.2661
   71TMC2     O 1087   2.750   1.022   0.583  0.1022 -0.0166  0.0284
   71TMC2     H 1088   2.912   0.953   0.233 -0.2683  0.5469  0.3544
   71TMC2    H1 1089   2.833   0.814   0.637 -1.4968 -0.1405 -0.7150
   71TMC2    H2 1090   3.170   0.672   0.415 -0.4192 -1.4759  0.7180
   71TMC2    C7 1091   3.031   0.627   0.628 -0.8492 -0.0832 -0.2047
   71TMC2    C8 1092   3.138   0.804   0.200  0.2927  0.1595 -0.3348
   71TMC2    O1 1093   3.143   0.575   0.627 -0.6961 -0.4972 -0.0982
   71TMC2    O2 1094   3.239   0.733   0.200 -0.1099 -0.2717  0.0929
   71TMC2    O5 1095   3.099   0.903   0.115 -0.0904  0.0505  0.1386
   71TMC2    H5 1096   3.157   0.937   0.044 -0.9043  0.3904 -0.3653
   72MPD2     C 1097   2.606   1.491   0.393 -0.6392 -0.3539 -0.6036
   72MPD2    C1 1098   2.622   1.414   0.513  0.5875 -0.0194  0.0334
   72MPD2    C2 1099   2.699   1.304   0.499  0.4103  0.0263  0.1374
   72MPD2    C3 1100   2.727   1.240   0.382  0.5836  0.7418 -0.1612
   72MPD2    C4 1101   2.709   1.313   0.265 -0.3863  0.0811  0.3155
   72MPD2    C5 1102   2.657   1.445   0.273  0.6191 -0.1791  0.0196
   72MPD2     H 1103   2.709   1.251   0.593 -1.0158 -1.2424 -0.4063
   72MPD2    H1 1104   2.731   1.278   0.165  0.5157  0.5027  0.3646
   72MPD2    H2 1105   2.564   1.591   0.394 -1.4627 -0.7170  0.8422
   72MPD2    H3 1106   2.647   1.500   0.180  0.6384 -2.4982 -1.3568
   72MPD2     N 1107   2.776   1.114   0.368 -0.0613  0.8362 -0.6503
   72MPD2    H5 1108   2.808   1.082   0.278 -0.4990 -1.0176 -0.1520
   72MPD2    N1 1109   2.584   1.455   0.642  0.1858 -0.5039 -0.5079
   72MPD2    H7 1110   2.612   1.404   0.725 -0.1747  1.8638  1.0546
   73TMC2    C1 1111   1.649   2.179  14.008  0.3727  0.2141 -0.0667
   73TMC2    C2 1112   1.579   2.288  14.027 -0.3914 -0.2210 -0.6147
   73TMC2    C3 1113   1.623   2.388  14.105 -0.8470  0.7227 -0.0235
   73TMC2    C4 1114   1.769   2.166  14.076  0.3683 -0.8531 -0.2002
   73TMC2    C5 1115   1.808   2.262  14.160  0.5849  0.1065  0.0011
   73TMC2    C6 1116   1.735   2.375  14.174  0.7853  0.1496 -0.2516
   73TMC2     C 1117   1.670   2.136  13.872 -0.0904 -0.7271  0.5274
   73TMC2     O 1118   1.782   2.168  13.830  0.2344  0.1132  0.1798
   73TMC2     H 1119   1.487   2.303  13.971 -0.5338  1.3788  0.0506
   73TMC2    H1 1120   1.830   2.078  14.059  2.6295  0.0152  3.3240
   73TMC2    H2 1121   1.770   2.458  14.234 -0.4796  1.0037 -0.6966
   73TMC2    C7 1122   1.947   2.295  14.145  0.4392 -0.0063 -0.1412
   73TMC2    C8 1123   1.545   2.505  14.118 -0.7420 -0.0187 -0.2484
   73TMC2    O1 1124   2.011   2.333  14.241  0.4308  0.3098  0.3481
   73TMC2    O2 1125   1.469   2.537  14.028  0.1286 -0.2617 -0.7857
   73TMC2    O5 1126   1.520   2.514  14.254  0.5464  0.2352  0.0818
   73TMC2    H5 1127   1.554   2.433  14.300 -0.1697 -1.0022 -1.5622
   74MPD2     C 1128   1.615   1.809  13.487  0.2845 -0.0952  0.7561
   74MPD2    C1 1129   1.712   1.902  13.514  0.0980 -0.1226  0.1838
   74MPD2    C2 1130   1.690   1.982  13.625 -0.4352 -0.2877 -0.5139
   74MPD2    C3 1131   1.592   1.957  13.714 -1.2192 -0.2165 -1.0415
   74MPD2    C4 1132   1.494   1.867  13.682 -1.0069  0.2688 -0.2103
   74MPD2    C5 1133   1.507   1.795  13.569  0.1498  0.5115 -0.2905
   74MPD2     H 1134   1.757   2.064  13.643 -1.8477  0.9625 -0.9361
   74MPD2    H1 1135   1.407   1.856  13.746 -0.1752  0.3092  0.9124
   74MPD2    H2 1136   1.627   1.737  13.407  1.2713  0.9869 -0.0801
   74MPD2    H3 1137   1.428   1.729  13.536 -0.1061 -0.0954  1.5068
   74MPD2     N 1138   1.591   2.027  13.837  0.0966 -0.7827  0.1568
   74MPD2    H5 1139   1.510   2.009  13.897 -1.4225 -0.7729 -1.9090
   74MPD2    N1 1140   1.840   1.902  13.443 -0.2023  0.0261 -0.2587
   74MPD2    H7 1141   1.847   1.836  13.365 -0.6948  0.1041 -0.3702
   75TCq2    C1 1142   1.753   3.626  14.154  0.8356 -0.6402 -0.2612
   75TCq2    O2 1143   1.780   3.646  14.274 -0.0463  0.0769 -0.0315
   75TCq2    C2 1144   1.613   3.636  14.111 -0.3761 -0.0167 -0.4932
   75TCq2    C3 1145   1.506   3.643  14.201  0.0292 -0.5611 -0.1353
   75TCq2    C4 1146   1.380   3.666  14.154 -0.2924 -0.3601  0.3623
   75TCq2    C5 1147   1.352   3.704  14.025 -0.3332 -0.8121  0.7793
   75TCq2    C6 1148   1.462   3.713  13.941 -0.1182 -0.5253  0.0890
   75TCq2    C7 1149   1.589   3.678  13.983  0.1411  0.6485 -0.2727
   75TCq2    C8 1150   1.453   3.768  13.805 -0.0645  0.4407 -1.1893
   75TCq2    O4 1151   1.374   3.713  13.729 -0.6469 -0.4045  0.3094
   75TCq2    C9 1152   1.273   3.680  14.252 -0.3316  0.2424  0.1230
   75TCq2    O5 1153   1.159   3.720  14.214  0.5795  0.4428  0.5603
   75TCq2    O6 1154   1.307   3.679  14.373  0.0147 -0.2528 -0.4701
   75TCq2    H2 1155   1.517   3.598  14.299  1.7526 -0.6627 -0.3746
   75TCq2    H3 1156   1.254   3.744  14.005  0.2239  0.1737  0.0440
   75TCq2    H4 1157   1.669   3.697  13.913  1.4482 -1.0794  0.7629
   76MPD2     C 1158   0.281   0.261  11.894 -0.0694 -0.3752 -0.2082
   76MPD2    C1 1159   0.321   0.272  11.758  0.4957 -0.6038  0.2450
   76MPD2    C2 1160   0.419   0.183  11.710  0.1811 -0.3741  0.1595
   76MPD2    C3 1161   0.462   0.077  11.789  0.0595  0.3589 -0.0279
   76MPD2    C4 1162   0.406   0.062  11.916  0.1872 -0.3388  0.0897
   76MPD2    C5 1163   0.316   0.156  11.965 -0.1645 -0.4354  0.6544
   76MPD2     H 1164   0.457   0.193  11.609 -1.0347 -0.3806 -0.2976
   76MPD2    H1 1165   0.436   4.695  11.970 -1.1542  0.4504  2.1369
   76MPD2    H2 1166   0.210   0.331  11.937  1.5819  0.6494  0.8254
   76MPD2    H3 1167   0.264   0.144  12.059  1.0835  1.1848  1.5384
   76MPD2     N 1168   0.571   4.709  11.757 -0.4194 -0.5187  0.3040
   76MPD2    H5 1169   0.601   4.640  11.826  0.8398  0.8641  1.1429
   76MPD2    N1 1170   0.274   0.380  11.674  0.0318  0.3812 -0.4250
   76MPD2    H7 1171   0.190   0.431  11.700  0.5702  0.3610  1.3150
   77TCq2    C1 1172   0.660   0.003  11.648 -0.1610 -0.1783 -0.2938
   77TCq2    O2 1173   0.659   0.094  11.568  0.0711  0.0455 -0.3079
   77TCq2    C2 1174   0.778   4.647  11.648  0.0266  0.5231  0.6078
   77TCq2    C3 1175   0.896   4.719  11.640 -0.2365 -1.1582 -0.3073
   77TCq2    C4 1176   1.007   4.658  11.692  0.1835  0.4268 -0.4097
   77TCq2    C5 1177   1.005   4.532  11.743 -0.1150 -0.7340  0.2594
   77TCq2    C6 1178   0.882   4.469  11.756 -0.0508  0.0585 -0.1063
   77TCq2    C7 1179   0.768   4.527  11.708  0.1414 -0.0104  0.3278
   77TCq2    C8 1180   0.878   4.328  11.793  0.5267  0.0529 -0.2079
   77TCq2    O4 1181   0.787   4.261  11.743  0.1038  0.1385 -0.1648
   77TCq2    C9 1182   1.133   4.719  11.698 -0.7555  0.0451 -0.0292
   77TCq2    O5 1183   1.224   4.661  11.761  0.2853 -0.5845  0.5183
   77TCq2    O6 1184   1.139   0.119  11.668 -0.4943  0.5022 -0.0075
   77TCq2    H2 1185   0.909   0.090  11.587 -1.3097 -1.7150 -1.5656
   77TCq2    H3 1186   1.096   4.485  11.776 -0.5465 -0.1878  2.2328
   77TCq2    H4 1187   0.673   4.475  11.718 -0.7766  1.6575  0.1426
   78MPD1     C 1188   2.184   0.800   2.141 -0.3589  0.0519  0.2424
   78MPD1    C1 1189   2.279   0.705   2.106 -0.1129  0.5783 -0.4654
   78MPD1    C2 1190   2.269   0.639   1.985 -0.1450 -0.0752 -0.4349
   78MPD1    C3 1191   2.166   0.670   1.896 -0.1661  0.2605  0.2827
   78MPD1    C4 1192   2.076   0.765   1.931  0.8081  0.1953 -0.2001
   78MPD1    C5 1193   2.078   0.812   2.057 -0.8650 -0.4517 -0.3557
   78MPD1     H 1194   2.348   0.567   1.969  0.6018  0.0367  2.6211
   78MPD1    H1 1195   1.987   0.786   1.871  1.2441  2.0383 -0.2133
   78MPD1    H2 1196   2.178   0.835   2.243 -2.5009  0.1260  0.0928
   78MPD1    H3 1197   1.989   0.867   2.083 -0.8837 -0.6812  0.0799
   78MPD1     N 1198   2.148   0.601   1.771 -0.0981 -0.7184  0.1691
   78MPD1    H5 1199   2.087   0.641   1.700 -0.5488 -1.2723  0.2400
   78MPD1    N1 1200   2.363   0.641   2.198 -0.8010  0.0307 -0.6539
   78MPD1    H6 1201   2.438   0.584   2.160 -0.1814 -0.5312  1.4601
   78MPD1    H7 1202   2.409   0.712   2.255 -1.1833 -0.5566  0.3838
   79TCq2    C1 1203   2.214   0.485   1.743 -0.0616  0.1263  0.0594
   79TCq2    O2 1204   2.262   0.405   1.824  0.5027 -0.0025  0.8756
   79TCq2    C2 1205   2.186   0.435   1.609  0.5795 -0.2684  0.1697
   79TCq2    C3 1206   2.066   0.452   1.547 -0.7744 -1.4124 -0.7798
   79TCq2    C4 1207   2.050   0.390   1.429  0.5154 -0.0523  0.5757
   79TCq2    C5 1208   2.150   0.317   1.370  0.0362 -0.6514  0.3181
   79TCq2    C6 1209   2.261   0.297   1.440  0.0064 -0.0361 -0.1890
   79TCq2    C7 1210   2.286   0.350   1.563 -0.1771  0.5053 -0.4643
   79TCq2    C8 1211   2.367   0.218   1.376 -0.2831  0.2301  0.0034
   79TCq2    O4 1212   2.464   0.187   1.446  0.0077  0.4574 -0.2710
   79TCq2    C9 1213   1.926   0.395   1.362 -0.2017  0.0706 -0.6917
   79TCq2    O5 1214   1.833   0.453   1.414  0.1838 -0.4961  0.4049
   79TCq2    O6 1215   1.924   0.350   1.242  0.1905  0.3231 -0.0371
   79TCq2    H2 1216   1.980   0.500   1.593  0.2023 -1.0737  0.6998
   79TCq2    H3 1217   2.119   0.267   1.279  0.1348  1.2649 -0.7689
   79TCq2    H4 1218   2.383   0.340   1.612 -1.0292 -0.3623  1.0404
   80MPD2     C 1219   0.075   4.146  12.384 -0.2530  0.2898  0.3706
   80MPD2    C1 1220   4.713   4.083  12.297  0.1225  0.6895 -0.2556
   80MPD2    C2 1221   4.580   4.092  12.310 -0.2468  0.3428  1.0836
   80MPD2    C3 1222   4.525   4.144  12.421 -0.0228  0.7178 -0.9991
   80MPD2    C4 1223   4.610   4.185  12.527 -0.3690 -0.0529  0.1787
   80MPD2    C5 1224   0.020   4.190  12.503 -0.1243  0.3276 -0.2146
   80MPD2     H 1225   4.519   4.054  12.228 -0.2378  1.7658  0.4239
   80MPD2    H1 1226   4.565   4.220  12.619 -0.0472  0.7051  0.0484
   80MPD2    H2 1227   0.183   4.141  12.376 -0.4636 -0.0808 -2.0892
   80MPD2    H3 1228   0.084   4.214  12.587 -0.5107 -0.0542  0.1923
   80MPD2     N 1229   4.384   4.159  12.430 -0.6064 -0.2828  0.0707
   80MPD2    H5 1230   4.343   4.178  12.521 -1.6996  0.5609 -0.5912
   80MPD2    N1 1231   0.047   4.017  12.186 -0.0087 -1.4068  0.5090
   80MPD2    H7 1232   4.707   3.948  12.145 -0.1961 -1.4552  0.8765
   81TCq2    C1 1233   0.163   4.041  12.120 -0.2038  0.2386 -0.4142
   81TCq2    O2 1234   0.241   4.131  12.134 -0.4513 -0.0902 -0.0986
   81TCq2    C2 1235   0.193   3.954  12.010 -0.5110 -0.3845  0.4740
   81TCq2    C3 1236   0.248   4.022  11.900 -0.0805  0.0955  0.1366
   81TCq2    C4 1237   0.274   3.940  11.796 -0.5863  0.3653 -0.3243
   81TCq2    C5 1238   0.233   3.805  11.795 -1.3018  0.0489  0.4719
   81TCq2    C6 1239   0.178   3.750  11.905 -0.9459  0.1035 -0.3329
   81TCq2    C7 1240   0.153   3.823  12.015 -0.1711 -0.5247  0.0982
   81TCq2    C8 1241   0.099   3.632  11.874 -0.0731 -0.4732 -0.3472
   81TCq2    O4 1242   0.083   3.590  11.757  0.2174 -0.7252 -0.0544
   81TCq2    C9 1243   0.322   3.994  11.685  0.0831  0.1282  0.2427
   81TCq2    O5 1244   0.359   3.917  11.591 -0.2301 -0.1901  0.4755
   81TCq2    O6 1245   0.302   4.117  11.674  0.2097  0.6609 -0.4346
   81TCq2    H2 1246   0.270   4.128  11.902  0.0849  0.0833 -1.1271
   81TCq2    H3 1247   0.259   3.743  11.709 -0.8350  0.6895  0.1485
   81TCq2    H4 1248   0.105   3.779  12.102 -0.6362  0.2788  0.2486
   82MPD2     C 1249   2.537   3.780  11.738 -0.7781  0.4563 -0.6995
   82MPD2    C1 1250   2.598   3.806  11.620  0.0409 -0.6205  1.5102
   82MPD2    C2 1251   2.707   3.729  11.584  0.8203 -0.4323 -0.0994
   82MPD2    C3 1252   2.760   3.644  11.681  0.0362 -0.1543  0.9538
   82MPD2    C4 1253   2.701   3.619  11.805  0.0145  0.5989  0.4495
   82MPD2    C5 1254   2.590   3.690  11.831 -0.5328  0.1545 -0.7062
   82MPD2     H 1255   2.767   3.737  11.494  2.2988  3.5842  1.2396
   82MPD2    H1 1256   2.743   3.541  11.866  1.8804 -0.5884 -2.3427
   82MPD2    H2 1257   2.453   3.839  11.771 -0.5996  1.3740 -1.8757
   82MPD2    H3 1258   2.536   3.648  11.916  0.7288  0.9814  0.5126
   82MPD2     N 1259   2.872   3.554  11.650  0.0494 -0.7834  0.1426
   82MPD2    H5 1260   2.882   3.480  11.718 -1.8653  0.6366  1.9744
   82MPD2    N1 1261   2.545   3.908  11.543  0.4000  0.1054  0.5407
   82MPD2    H7 1262   2.461   3.951  11.580 -0.4699  1.4316 -2.9256
   83TCq2    C1 1263   2.957   3.573  11.543  0.3040 -0.0276 -0.4123
   83TCq2    O2 1264   2.982   3.675  11.477 -0.5562 -0.3479  0.1569
   83TCq2    C2 1265   3.042   3.461  11.517  1.2390  0.2129  0.2568
   83TCq2    C3 1266   3.141   3.478  11.424  0.2052  0.4636  0.2845
   83TCq2    C4 1267   3.162   3.380  11.330 -0.0844  0.0459 -0.4666
   83TCq2    C5 1268   3.099   3.260  11.336  0.3295  0.8374  1.0016
   83TCq2    C6 1269   3.013   3.240  11.435  0.6847 -0.0520 -0.7881
   83TCq2    C7 1270   2.977   3.334  11.529  0.5889 -0.0065 -0.1604
   83TCq2    C8 1271   2.909   3.153  11.406 -0.8152  0.4443  0.1363
   83TCq2    O4 1272   2.867   3.088  11.497 -0.3152 -0.1073  0.2718
   83TCq2    C9 1273   3.240   3.419  11.214 -0.4167 -0.1332  0.3918
   83TCq2    O5 1274   3.247   3.341  11.116  0.2667  0.0825  0.1625
   83TCq2    O6 1275   3.303   3.525  11.223  0.0820  0.0477  0.4844
   83TCq2    H2 1276   3.187   3.575  11.415  2.0385 -0.7621 -3.5983
   83TCq2    H3 1277   3.120   3.183  11.262  0.2313  1.9854 -0.2135
   83TCq2    H4 1278   2.916   3.312  11.615 -0.2197 -0.5970 -0.8883
   84TCq2    C1 1279   3.918   2.856  10.399 -0.4621  0.0384  0.1671
   84TCq2    O2 1280   3.885   2.898  10.290 -0.4538 -0.6656 -0.3470
   84TCq2    C2 1281   3.962   2.956  10.495 -0.5128  0.1129 -0.4514
   84TCq2    C3 1282   4.018   3.069  10.445  0.3560  0.5704  0.2907
   84TCq2    C4 1283   4.016   3.185  10.520  0.1822 -0.3593  0.9776
   84TCq2    C5 1284   3.958   3.188  10.641 -0.3678 -0.6436  0.2117
   84TCq2    C6 1285   3.888   3.078  10.690 -0.2904  0.0068  0.0372
   84TCq2    C7 1286   3.887   2.964  10.612 -0.3055  0.1284  0.7910
   84TCq2    C8 1287   3.811   3.084  10.818 -0.0393  0.6037  0.4922
   84TCq2    O4 1288   3.833   3.181  10.892 -0.2892  0.4391  0.0397
   84TCq2    C9 1289   4.109   3.287  10.490 -0.5355 -0.0740 -0.5050
   84TCq2    O5 1290   4.172   3.286  10.379 -0.2271 -0.2512 -0.4587
   84TCq2    O6 1291   4.141   3.360  10.588  0.6652  0.5814  0.3519
   84TCq2    H2 1292   4.081   3.057  10.358  0.2170 -2.0217  0.5389
   84TCq2    H3 1293   3.944   3.273  10.707  0.5309 -0.2880 -0.0661
   84TCq2    H4 1294   3.836   2.878  10.656 -1.0618 -0.6350 -1.5921
   85MPD2     C 1295   4.592   0.540  16.427 -0.4136  0.0377  0.0058
   85MPD2    C1 1296   4.502   0.570  16.329 -0.2207  0.6387  0.2792
   85MPD2    C2 1297   4.509   0.689  16.257  0.5806  0.2112 -1.1082
   85MPD2    C3 1298   4.606   0.785  16.288 -0.4177 -0.1437 -0.5488
   85MPD2    C4 1299   4.694   0.755  16.392 -0.2081  0.4780 -1.0163
   85MPD2    C5 1300   4.687   0.632  16.458  0.3905 -0.2690 -0.0762
   85MPD2     H 1301   4.446   0.705  16.171  1.2247  1.2141 -1.3848
   85MPD2    H1 1302   0.044   0.827  16.429  0.0232  0.4427 -1.3918
   85MPD2    H2 1303   4.584   0.447  16.481 -0.5918  1.8127  3.0441
   85MPD2    H3 1304   0.033   0.606  16.537  0.3419 -1.3232 -0.3778
   85MPD2     N 1305   4.593   0.905  16.218 -0.7835 -0.0348  0.1013
   85MPD2    H5 1306   4.533   0.907  16.136 -1.9974 -1.1392  0.9596
   85MPD2    N1 1307   4.385   0.492  16.300  0.2066 -0.0072  0.3344
   85MPD2    H7 1308   4.340   0.502  16.209  1.1173 -0.6412 -0.1870
   86TCq2    C1 1309   4.682   1.011  16.231 -0.1133  0.7602 -0.1243
   86TCq2    O2 1310   0.064   1.012  16.295 -0.3258 -0.1539 -0.3631
   86TCq2    C2 1311   4.674   1.120  16.131  0.0613  0.3274  0.1403
   86TCq2    C3 1312   4.557   1.178  16.109  0.4163  0.2599  0.1301
   86TCq2    C4 1313   4.568   1.297  16.049  0.1002 -0.0694  0.2818
   86TCq2    C5 1314   4.687   1.346  16.005 -0.2793 -0.5492  0.2551
   86TCq2    C6 1315   0.080   1.281  16.018 -0.0504  0.1805  0.2592
   86TCq2    C7 1316   0.073   1.170  16.083  0.2939 -0.1388 -0.8866
   86TCq2    C8 1317   0.197   1.296  15.940 -0.2246 -0.0456 -0.1885
   86TCq2    O4 1318   0.276   1.202  15.944 -0.1991  0.2868  0.0580
   86TCq2    C9 1319   4.454   1.383  16.055  0.3586 -0.4294 -0.2428
   86TCq2    O5 1320   4.342   1.333  16.087 -0.1561  0.4115 -0.6544
   86TCq2    O6 1321   4.481   1.501  16.072 -0.2246 -0.1036 -0.3688
   86TCq2    H2 1322   4.462   1.147  16.151  0.2410  1.5289  0.6780
   86TCq2    H3 1323   4.673   1.436  15.945  1.4052 -0.0572  0.5970
   86TCq2    H4 1324   0.166   1.118  16.105  0.6811  2.1301  2.8526
   87MPD2     C 1325   1.578   4.412   1.100 -0.4723 -0.2243 -0.2775
   87MPD2    C1 1326   1.486   4.316   1.057 -0.4824 -0.0421 -0.3664
   87MPD2    C2 1327   1.374   4.361   0.986  0.1377  0.1189  0.0835
   87MPD2    C3 1328   1.346   4.499   0.991  0.6288  0.4175 -0.3480
   87MPD2    C4 1329   1.429   4.585   1.056  0.0242 -0.7033  0.2723
   87MPD2    C5 1330   1.546   4.541   1.103 -0.2229  0.1139  0.4158
   87MPD2     H 1331   1.322   4.292   0.921 -1.8364 -0.5910  2.4120
   87MPD2    H1 1332   1.424   4.693   1.055 -2.4267 -0.8233  2.2035
   87MPD2    H2 1333   1.673   4.386   1.145  1.0953  3.0390 -1.7735
   87MPD2    H3 1334   1.616   4.614   1.144  1.8372 -0.4757 -2.0570
   87MPD2     N 1335   1.228   4.554   0.938 -0.1606  0.0591 -0.0164
   87MPD2    H5 1336   1.222   4.655   0.945  0.7472  0.0260  1.2092
   87MPD2    N1 1337   1.531   4.186   1.044 -0.3605  0.0821  0.1867
   87MPD2    H7 1338   1.630   4.165   1.048  0.0727  1.9299 -0.5024
   88TCq2    C1 1339   1.445   4.075   1.033 -0.1581 -0.5489  0.2105
   88TCq2    O2 1340   1.323   4.076   1.044 -0.7320  0.0854  0.1917
   88TCq2    C2 1341   1.514   3.953   1.040  0.6846 -0.1744  0.4015
   88TCq2    C3 1342   1.448   3.855   1.108  0.3724  0.9717  0.4141
   88TCq2    C4 1343   1.514   3.740   1.135 -0.5905  0.2451  0.4852
   88TCq2    C5 1344   1.648   3.729   1.112 -0.6970  0.0229  0.1982
   88TCq2    C6 1345   1.708   3.820   1.037  0.0448  0.1240 -0.3771
   88TCq2    C7 1346   1.643   3.938   0.999  0.6594  0.1254  0.4505
   88TCq2    C8 1347   1.840   3.786   0.980  0.2701  0.6082 -0.0777
   88TCq2    O4 1348   1.879   3.853   0.880  0.0715  0.5433 -0.2878
   88TCq2    C9 1349   1.440   3.633   1.199 -0.0839 -0.0372  0.0530
   88TCq2    O5 1350   1.315   3.646   1.196  0.5398 -0.5463 -0.2039
   88TCq2    O6 1351   1.497   3.528   1.238 -0.4895 -0.0310  0.5158
   88TCq2    H2 1352   1.354   3.877   1.156  0.9776  0.7832  1.6839
   88TCq2    H3 1353   1.700   3.639   1.146 -0.6590 -0.2426 -0.5725
   88TCq2    H4 1354   1.686   4.018   0.939  0.5026 -0.0097  0.1563
   89MPD2     C 1355   3.210   2.124   2.052 -0.1086 -0.0691 -0.6188
   89MPD2    C1 1356   3.090   2.155   2.120 -0.5295 -0.0283 -0.1464
   89MPD2    C2 1357   3.063   2.289   2.134  0.3514  0.1679  0.7426
   89MPD2    C3 1358   3.133   2.387   2.082  0.4136  0.2196 -0.4887
   89MPD2    C4 1359   3.240   2.356   2.009  0.9114 -0.4159 -0.6574
   89MPD2    C5 1360   3.283   2.224   1.995 -0.6745 -0.2107 -0.8298
   89MPD2     H 1361   2.972   2.312   2.187 -0.1937 -2.6650  0.9966
   89MPD2    H1 1362   3.293   2.439   1.962  1.2416  0.0579  0.5716
   89MPD2    H2 1363   3.235   2.021   2.028 -2.7023 -0.8874  0.1519
   89MPD2    H3 1364   3.372   2.198   1.938 -2.5746 -4.7592 -1.7108
   89MPD2     N 1365   3.078   2.516   2.106  0.6838  0.1107 -0.4114
   89MPD2    H5 1366   3.015   2.526   2.186  1.0246  0.1644 -0.1512
   89MPD2    N1 1367   2.991   2.064   2.166  0.1412  0.6040 -0.4525
   89MPD2    H7 1368   2.905   2.104   2.202 -0.6994 -1.0016 -0.7152
   90TCq2    C1 1369   3.103   2.623   2.031  0.0335 -0.5256  0.3269
   90TCq2    O2 1370   3.167   2.633   1.925 -0.3895  0.1967  0.4819
   90TCq2    C2 1371   3.019   2.741   2.066  0.1765  0.2418 -0.2521
   90TCq2    C3 1372   2.958   2.752   2.187  0.2234 -0.5554  0.3127
   90TCq2    C4 1373   2.866   2.845   2.210 -0.0681 -0.0352 -0.4756
   90TCq2    C5 1374   2.833   2.936   2.111 -0.2542  0.4497  0.5557
   90TCq2    C6 1375   2.902   2.924   1.996 -0.9520  0.5353  0.5614
   90TCq2    C7 1376   2.997   2.833   1.973  0.7975 -0.4679  0.0687
   90TCq2    C8 1377   2.883   3.036   1.902  0.2990 -0.5690  0.2553
   90TCq2    O4 1378   2.810   3.133   1.926 -0.5657  0.7535  0.8304
   90TCq2    C9 1379   2.821   2.864   2.347  0.0912  0.5735 -0.7271
   90TCq2    O5 1380   2.848   2.775   2.433  0.4314 -0.3619 -0.4444
   90TCq2    O6 1381   2.779   2.982   2.376 -0.0841  0.1235 -0.1544
   90TCq2    H2 1382   2.995   2.684   2.263 -3.3823 -2.1511  0.6352
   90TCq2    H3 1383   2.760   3.014   2.131 -0.4849  1.1224 -2.9728
   90TCq2    H4 1384   3.032   2.811   1.873 -1.6035  0.8733 -1.0738
   91TMC2    C1 1385   4.399   1.818  16.424  0.1220  0.0393 -0.1369
   91TMC2    C2 1386   4.470   1.839  16.308  0.3968  0.0313  0.4239
   91TMC2    C3 1387   4.418   1.777  16.196  0.2066  0.2383  0.2288
   91TMC2    C4 1388   4.295   1.728  16.436 -0.9987  0.0307 -0.1499
   91TMC2    C5 1389   4.244   1.683  16.319  0.1286 -0.3638  0.7831
   91TMC2    C6 1390   4.295   1.705  16.193 -0.5691  0.2876  0.2348
   91TMC2     C 1391   4.445   1.863  16.551 -0.5781  0.1648  0.4811
   91TMC2     O 1392   4.369   1.894  16.645  1.1128 -0.0146 -0.0633
   91TMC2     H 1393   4.553   1.907  16.300  1.0723 -0.9257 -0.6673
   91TMC2    H1 1394   4.260   1.696  16.534  2.2702 -0.1482  0.9524
   91TMC2    H2 1395   4.246   1.680  16.100  0.8202  1.8244 -0.9181
   91TMC2    C7 1396   4.129   1.589  16.330 -1.0967  0.3127 -0.3236
   91TMC2    C8 1397   4.445   1.840  16.063 -0.0857 -0.4191 -0.0873
   91TMC2    O1 1398   4.074   1.590  16.442  0.1421 -0.6454  0.1636
   91TMC2    O2 1399   4.523   1.935  16.048  0.0209  0.2180  0.6312
   91TMC2    O5 1400   4.454   1.743  15.977  0.1287  0.0319  0.7211
   91TMC2    H5 1401   4.439   1.655  16.017  0.8632 -0.3563  0.1324
   92MPD2     C 1402   4.612   1.915  16.796  0.0044 -0.3387 -1.2956
   92MPD2    C1 1403   4.658   1.911  16.668 -0.1312 -0.5738  0.1498
   92MPD2    C2 1404   0.070   1.927  16.644  0.2568  0.4882  0.1651
   92MPD2    C3 1405   0.155   1.936  16.753  0.0648  0.1576  0.0659
   92MPD2    C4 1406   0.109   1.921  16.888  0.4300 -0.3085  0.4296
   92MPD2    C5 1407   4.694   1.915  16.906  0.7385 -0.5627  0.0105
   92MPD2     H 1408   0.103   1.940  16.541 -1.5698 -0.3880 -0.5352
   92MPD2    H1 1409   0.176   1.899  16.970 -1.4460 -0.8778  1.8296
   92MPD2    H2 1410   4.504   1.912  16.812  0.5301  1.1270  2.6247
   92MPD2    H3 1411   4.656   1.916  17.008  1.9572  2.2513  0.4652
   92MPD2     N 1412   0.288   1.946  16.714  0.2471 -0.3577 -0.7719
   92MPD2    H5 1413   0.309   1.955  16.615  1.8287 -0.6571 -0.4544
   92MPD2    N1 1414   4.579   1.895  16.552  0.2345  0.4036 -0.1960
   92MPD2    H7 1415   4.628   1.897  16.463 -1.5993  1.6030 -1.1653
   93MPD2     C 1416   1.605   1.432  13.416 -0.2302 -0.4927  0.7345
   93MPD2    C1 1417   1.575   1.444  13.552  0.2227  0.4427 -0.0456
   93MPD2    C2 1418   1.454   1.393  13.590  0.1091  0.0242 -0.2018
   93MPD2    C3 1419   1.355   1.342  13.502  0.5626  0.3036  0.4418
   93MPD2    C4 1420   1.395   1.328  13.373 -0.5812  0.6121 -0.0582
   93MPD2    C5 1421   1.522   1.364  13.334 -0.0731  0.0709  0.7763
   93MPD2     H 1422   1.442   1.384  13.697  3.5512  1.0112  0.2594
   93MPD2    H1 1423   1.335   1.287  13.293  0.6685  0.9384 -1.1487
   93MPD2    H2 1424   1.694   1.477  13.372 -0.4146 -2.4113 -1.5901
   93MPD2    H3 1425   1.553   1.348  13.232 -0.8550  0.9541  0.4011
   93MPD2     N 1426   1.229   1.300  13.538 -0.1930  0.5260  0.5024
   93MPD2    H5 1427   1.164   1.283  13.463 -0.7823 -0.6382  1.2747
   93MPD2    N1 1428   1.674   1.493  13.644  0.3864 -0.7779 -0.3401
   93MPD2    H7 1429   1.639   1.520  13.735 -0.0017  0.3640 -0.8221
   94TCq2    C1 1430   1.795   1.528  13.606  0.1390 -0.2328 -0.0025
   94TCq2    O2 1431   1.864   1.476  13.519 -0.0674 -0.1516  0.2894
   94TCq2    C2 1432   1.859   1.604  13.715 -0.4154  0.0746 -0.0701
   94TCq2    C3 1433   1.785   1.674  13.809  0.0528 -0.0774 -1.0074
   94TCq2    C4 1434   1.851   1.755  13.898  0.1947  0.0979 -0.6593
   94TCq2    C5 1435   1.988   1.768  13.897  0.2441  0.2025  0.1407
   94TCq2    C6 1436   2.056   1.713  13.792 -0.8832  0.3250  0.2301
   94TCq2    C7 1437   1.995   1.628  13.701  0.1111  0.2853  0.1375
   94TCq2    C8 1438   2.192   1.741  13.773  0.5293  0.0669  0.1648
   94TCq2    O4 1439   2.252   1.692  13.680 -0.8059  0.2825  0.2155
   94TCq2    C9 1440   1.786   1.801  14.019 -0.2542 -0.0521  0.3932
   94TCq2    O5 1441   1.669   1.751  14.034 -0.2694  0.1986 -0.3252
   94TCq2    O6 1442   1.860   1.850  14.111 -0.4840 -0.2131 -0.2892
   94TCq2    H2 1443   1.677   1.668  13.815  0.0373  1.5064  0.2568
   94TCq2    H3 1444   2.031   1.845  13.960  0.6798  1.7496 -2.0301
   94TCq2    H4 1445   2.049   1.596  13.613 -0.5394 -1.5105  0.3935
   95TMC2    C1 1446   1.319   3.864  16.022 -0.6953 -0.3804  0.7224
   95TMC2    C2 1447   1.286   3.790  16.135 -0.3240  0.5670  0.6897
   95TMC2    C3 1448   1.331   3.843  16.250 -0.1396  0.3257  0.1552
   95TMC2    C4 1449   1.396   3.976  16.020  0.1302 -0.3794  0.5254
   95TMC2    C5 1450   1.448   4.015  16.142  0.2087  0.4192 -0.3822
   95TMC2    C6 1451   1.414   3.949  16.256  0.5735  0.1666 -0.0846
   95TMC2     C 1452   1.324   3.787  15.900 -0.2665  0.2458 -0.4427
   95TMC2     O 1453   1.343   3.667  15.903 -0.6476  0.3306  0.4024
   95TMC2     H 1454   1.214   3.709  16.128  1.5029 -1.0746  0.9676
   95TMC2    H1 1455   1.432   4.015  15.926 -0.5060  0.1647  0.5082
   95TMC2    H2 1456   1.465   3.977  16.347  1.8791 -1.0884 -0.4327
   95TMC2    C7 1457   1.497   4.147  16.160 -0.5043  0.0421 -0.2985
   95TMC2    C8 1458   1.325   3.755  16.365  0.3897  1.1471 -0.4979
   95TMC2    O1 1459   1.528   4.180  16.272 -0.5182 -0.0894  0.2598
   95TMC2    O2 1460   1.407   3.769  16.454 -0.1654 -0.4136 -0.0020
   95TMC2    O5 1461   1.252   3.644  16.331 -0.8960  0.6777  0.0640
   95TMC2    H5 1462   1.174   3.650  16.272 -1.3507 -0.0399  0.5928
   96MPD2     C 1463   1.385   3.765  15.402  0.1975  0.7070  0.8738
   96MPD2    C1 1464   1.436   3.686  15.498  0.2790  0.4635  0.1266
   96MPD2    C2 1465   1.403   3.708  15.627 -0.3690 -0.1119 -0.5425
   96MPD2    C3 1466   1.341   3.832  15.655 -1.1759  0.7754 -0.2584
   96MPD2    C4 1467   1.297   3.921  15.563 -0.2341  0.7335  0.3189
   96MPD2    C5 1468   1.305   3.881  15.428 -0.4268  0.1885 -0.0264
   96MPD2     H 1469   1.434   3.643  15.709  3.4786  0.9543 -1.1679
   96MPD2    H1 1470   1.243   4.014  15.580  0.0322  0.8414  0.5771
   96MPD2    H2 1471   1.400   3.730  15.301  1.7660 -1.1754  1.7483
   96MPD2    H3 1472   1.273   3.938  15.342 -1.1022  0.6239  0.5124
   96MPD2     N 1473   1.312   3.868  15.789 -0.6470  0.4977 -0.4922
   96MPD2    H5 1474   1.274   3.961  15.802  0.2012  0.7874 -0.1266
   96MPD2    N1 1475   1.530   3.592  15.464  0.0935  0.1348  0.2550
   96MPD2    H7 1476   1.555   3.595  15.365  1.9065  0.5246  0.7294
   97MPD2     C 1477   2.928   1.646   0.636  0.2073 -0.3028  0.1760
   97MPD2    C1 1478   2.958   1.514   0.630  0.5534 -0.0250 -0.1677
   97MPD2    C2 1479   2.999   1.462   0.505 -0.2627 -0.1167  0.1487
   97MPD2    C3 1480   3.039   1.542   0.400  0.0762 -0.2060  0.5819
   97MPD2    C4 1481   3.024   1.679   0.414 -0.4781  0.3088  0.2561
   97MPD2    C5 1482   2.960   1.721   0.529  0.0584  0.1674  0.5594
   97MPD2     H 1483   3.007   1.354   0.497  1.0894 -0.0588  0.7642
   97MPD2    H1 1484   3.043   1.745   0.330  2.0827  1.2312  1.5427
   97MPD2    H2 1485   2.881   1.696   0.720  1.2790  0.4647  0.3102
   97MPD2    H3 1486   2.941   1.826   0.548  0.1334 -0.1770  2.6192
   97MPD2     N 1487   3.097   1.496   0.282  0.1006 -0.1158 -0.4199
   97MPD2    H5 1488   3.118   1.570   0.215 -1.7551 -0.8205 -1.7785
   97MPD2    N1 1489   2.925   1.430   0.743 -1.0684 -0.2329  0.3364
   97MPD2    H7 1490   2.902   1.487   0.823 -1.3621 -0.4016  0.3734
   98TCq2    C1 1491   3.118   1.367   0.243  0.1259  0.4576 -0.6861
   98TCq2    O2 1492   3.108   1.264   0.298  0.1261 -0.0601  0.7317
   98TCq2    C2 1493   3.198   1.366   0.122 -0.2292  0.7695 -0.0866
   98TCq2    C3 1494   3.207   1.249   0.061 -0.1986 -0.4258 -0.0803
   98TCq2    C4 1495   3.318   1.217  17.669 -0.6346  0.3803  0.1404
   98TCq2    C5 1496   3.407   1.314  17.648 -0.1681  0.2282  0.8776
   98TCq2    C6 1497   3.392   1.441   0.010 -0.3034  0.1784 -0.1810
   98TCq2    C7 1498   3.293   1.466   0.102 -0.0721  0.2919 -0.1991
   98TCq2    C8 1499   3.498   1.534  17.687 -0.3945 -0.2439  0.3063
   98TCq2    O4 1500   3.505   1.618   0.081 -0.0352  0.3299  0.0199
   98TCq2    C9 1501   3.330   1.087  17.607 -0.3211  0.8333 -0.1069
   98TCq2    O5 1502   3.418   1.078  17.515  0.0294 -0.1398 -0.1904
   98TCq2    O6 1503   3.240   1.007  17.626 -0.0097 -0.1681 -0.3262
   98TCq2    H2 1504   3.124   1.179   0.061 -0.5645  0.0287 -3.4915
   98TCq2    H3 1505   3.495   1.276  17.597 -1.2079 -2.5212  1.1227
   98TCq2    H4 1506   3.298   1.561   0.154 -1.0690  0.1078  0.2427
   99MPD2     C 1507   2.413   2.804   2.287  1.2281  0.1307  0.6168
   99MPD2    C1 1508   2.337   2.908   2.236  0.5472 -0.2839 -0.1860
   99MPD2    C2 1509   2.356   2.949   2.108 -1.2547  0.1238  0.4814
   99MPD2    C3 1510   2.447   2.887   2.021  0.0060  0.2754  0.0888
   99MPD2    C4 1511   2.519   2.775   2.067 -0.5175 -0.0401  0.1451
   99MPD2    C5 1512   2.496   2.736   2.201 -0.5635  0.2413  0.1046
   99MPD2     H 1513   2.298   3.026   2.058  1.5651  1.4000 -0.8373
   99MPD2    H1 1514   2.591   2.709   2.021 -2.0139 -0.4541 -1.5704
   99MPD2    H2 1515   2.396   2.772   2.389  0.0439  0.4309  0.5169
   99MPD2    H3 1516   2.572   2.666   2.235 -0.4056 -0.5010 -1.8006
   99MPD2     N 1517   2.462   2.936   1.891 -0.4122 -0.7404  0.2499
   99MPD2    H5 1518   2.429   3.030   1.874 -0.0380 -0.9536 -1.7522
   99MPD2    N1 1519   2.248   2.987   2.314 -0.4069 -0.1037 -0.1645
   99MPD2    H7 1520   2.190   3.059   2.272  0.1846  0.5655  0.1698
  100TCq2    C1 1521   2.224   2.975   2.447  0.0517 -0.7683  0.0214
  100TCq2    O2 1522   2.250   2.884   2.526  0.0410 -0.0556 -0.5156
  100TCq2    C2 1523   2.132   3.071   2.490 -0.6393 -0.4678 -0.1364
  100TCq2    C3 1524   2.120   3.093   2.628  0.3766 -0.4791  0.2929
  100TCq2    C4 1525   2.019   3.157   2.691  0.0553 -0.1639 -0.5061
  100TCq2    C5 1526   1.913   3.190   2.613  1.3552  0.7574  0.2217
  100TCq2    C6 1527   1.903   3.149   2.486  0.0995 -0.1772  0.0877
  100TCq2    C7 1528   2.015   3.092   2.424 -0.5586  0.3067 -0.5560
  100TCq2    C8 1529   1.786   3.183   2.414 -0.1143 -0.5420  0.1143
  100TCq2    O4 1530   1.722   3.271   2.464  0.0531 -0.3040 -0.1048
  100TCq2    C9 1531   2.027   3.192   2.828 -0.7780 -0.5599  0.6229
  100TCq2    O5 1532   2.137   3.171   2.882  0.1298  0.2522 -0.0727
  100TCq2    O6 1533   1.922   3.248   2.869  0.2880  0.5826  0.6231
  100TCq2    H2 1534   2.202   3.054   2.687  1.4908  2.3581  0.6483
  100TCq2    H3 1535   1.825   3.231   2.661  0.0688 -2.5474  0.6956
  100TCq2    H4 1536   2.008   3.063   2.319  1.3218  1.0117 -0.8675
  101MPD2     C 1537   3.569   4.251  13.046 -1.0450 -0.0705 -0.7018
  101MPD2    C1 1538   3.480   4.316  13.124  0.0389 -0.3441  0.8502
  101MPD2    C2 1539   3.377   4.245  13.184 -0.2818 -0.1616  0.0914
  101MPD2    C3 1540   3.364   4.107  13.167  0.2275 -0.0091 -0.1873
  101MPD2    C4 1541   3.462   4.045  13.097  0.7756  0.5490 -0.4255
  101MPD2    C5 1542   3.567   4.111  13.041  0.1190 -0.7184  0.2861
  101MPD2     H 1543   3.297   4.295  13.238 -1.0114 -1.0918 -0.1228
  101MPD2    H1 1544   3.449   3.939  13.079  1.5061  0.4575 -0.4163
  101MPD2    H2 1545   3.663   4.299  13.019  0.0686 -1.2779  1.0029
  101MPD2    H3 1546   3.647   4.060  12.990 -0.7158  0.4044 -2.1280
  101MPD2     N 1547   3.259   4.038  13.234 -0.1211  0.2222 -0.2992
  101MPD2    H5 1548   3.200   4.097  13.292  1.7553  2.5050 -0.7118
  101MPD2    N1 1549   3.489   4.460  13.128  0.2542  0.0614  0.3125
  101MPD2    H7 1550   3.571   4.506  13.090 -1.0290  0.8951 -1.4150
  102TCq2    C1 1551   3.551   0.189  12.909  0.3548 -0.4226  0.7807
  102TCq2    O2 1552   3.651   0.121  12.880 -0.1655  0.2645 -0.3843
  102TCq2    C2 1553   3.481   0.143  13.032  0.0105 -0.6586 -0.2096
  102TCq2    C3 1554   3.372   0.217  13.071  0.2035 -0.0151  0.5725
  102TCq2    C4 1555   3.281   0.156  13.153 -0.6346 -0.3615  0.1495
  102TCq2    C5 1556   3.304   0.037  13.210 -0.4866  0.7430 -0.4404
  102TCq2    C6 1557   3.411   4.686  13.171 -0.2329 -0.9188 -0.4786
  102TCq2    C7 1558   3.492   0.014  13.073 -0.0043  0.3234  0.8060
  102TCq2    C8 1559   3.402   4.539  13.201  0.3223  0.1602 -0.3642
  102TCq2    O4 1560   3.307   4.508  13.274 -0.0728  0.0986 -0.3589
  102TCq2    C9 1561   3.155   0.218  13.187 -0.0932  0.4114 -0.4773
  102TCq2    O5 1562   3.070   0.152  13.254 -0.2561 -1.0897  1.0156
  102TCq2    O6 1563   3.135   0.341  13.155 -0.2078  0.1997 -0.2318
  102TCq2    H2 1564   3.336   0.314  13.039  0.1067 -0.8499 -1.8257
  102TCq2    H3 1565   3.227   0.007  13.280  2.6511 -1.7945  1.9461
  102TCq2    H4 1566   3.580   4.678  13.050 -1.2881 -1.9809  1.8107
  103TMC2    C1 1567   1.458   4.088  12.275 -0.3755  0.4045  0.2324
  103TMC2    C2 1568   1.514   3.967  12.244  0.5501  0.0205 -0.0226
  103TMC2    C3 1569   1.605   3.910  12.325  0.4605 -0.1213 -0.2748
  103TMC2    C4 1570   1.495   4.163  12.384  0.0694 -0.9420  0.4918
  103TMC2    C5 1571   1.594   4.108  12.461 -0.1516  0.4914 -0.4394
  103TMC2    C6 1572   1.655   3.987  12.431  0.1098 -0.3898  0.1039
  103TMC2     C 1573   1.345   4.127  12.204  0.4877 -0.0117  0.3335
  103TMC2     O 1574   1.301   4.238  12.224  0.3664  0.7802  0.4671
  103TMC2     H 1575   1.507   3.931  12.142  2.1701 -2.9108  0.9233
  103TMC2    H1 1576   1.452   4.260  12.405  1.2138 -0.3896  0.3032
  103TMC2    H2 1577   1.725   3.938  12.497  2.3848  1.8153 -0.6943
  103TMC2    C7 1578   1.620   4.178  12.589 -0.3183 -0.2372  0.7737
  103TMC2    C8 1579   1.671   3.798  12.262  0.9375 -0.4183  0.5297
  103TMC2    O1 1580   1.548   4.267  12.625  0.1642 -0.3151 -0.1950
  103TMC2    O2 1581   1.609   3.726  12.185  0.0908 -0.0708 -0.0389
  103TMC2    O5 1582   1.799   3.792  12.311 -0.0413 -0.1039 -0.1381
  103TMC2    H5 1583   1.828   3.870  12.363 -3.4083 -0.3601  2.1407
  104MPD2     C 1584   1.097   3.934  12.025  0.2788 -0.3667 -0.1425
  104MPD2    C1 1585   1.152   4.046  12.076 -0.2488  0.0915  0.4008
  104MPD2    C2 1586   1.114   4.166  12.022 -0.2340  0.0526 -0.3314
  104MPD2    C3 1587   1.014   4.173  11.932  0.1374  0.2436 -0.6106
  104MPD2    C4 1588   0.959   4.054  11.878  0.2110  0.7325 -0.0037
  104MPD2    C5 1589   0.994   3.935  11.936 -0.5288  0.4356 -0.0625
  104MPD2     H 1590   1.155   4.261  12.053  0.2794 -0.6434  1.1402
  104MPD2    H1 1591   0.882   4.043  11.803 -0.9037  0.6452  1.1516
  104MPD2    H2 1592   1.128   3.837  12.060  0.3868 -0.1735  0.3018
  104MPD2    H3 1593   0.964   3.838  11.898 -0.5698  0.0781  0.8649
  104MPD2     N 1594   0.976   4.297  11.884 -0.2196  0.7382 -0.4860
  104MPD2    H5 1595   1.021   4.382  11.917  0.2763  1.1709 -2.2814
  104MPD2    N1 1596   1.268   4.029  12.153  0.4632  0.7472  0.0110
  104MPD2    H7 1597   1.300   3.934  12.169 -5.5575 -0.8496  2.6639
  105MPD2     C 1598   3.031   3.659  17.635 -0.3258 -0.2711 -0.7686
  105MPD2    C1 1599   2.914   3.717  17.591  0.0812 -0.0072 -0.3652
  105MPD2    C2 1600   2.807   3.712  17.679  0.0084  0.3880  0.5903
  105MPD2    C3 1601   2.820   3.652   0.114  0.2345 -0.0733 -0.9821
  105MPD2    C4 1602   2.931   3.579   0.147  0.5025 -0.6347  0.2157
  105MPD2    C5 1603   3.032   3.584   0.057 -0.2272  0.5401  0.5543
  105MPD2     H 1604   2.720   3.772  17.653 -0.7692 -1.1223 -0.2832
  105MPD2    H1 1605   2.950   3.528   0.241  0.0846  2.7098  2.1262
  105MPD2    H2 1606   3.128   3.655  17.586  0.7665  0.9445  1.3301
  105MPD2    H3 1607   3.123   3.535   0.091  0.6187  1.5070 -0.3411
  105MPD2     N 1608   2.720   3.672   0.209  0.2157 -0.0384  0.2680
  105MPD2    H5 1609   2.635   3.714   0.173  0.5129  0.9063  0.6627
  105MPD2    N1 1610   2.892   3.769  17.462 -0.3494  0.0156  0.0188
  105MPD2    H7 1611   2.798   3.800  17.438 -0.6090  0.2387  1.3461
  106TCq2    C1 1612   2.709   3.623   0.340  0.2416  0.3446  0.3914
  106TCq2    O2 1613   2.795   3.568   0.403 -0.3270  1.0084  0.2513
  106TCq2    C2 1614   2.585   3.661   0.411 -0.3778  0.1925  0.1230
  106TCq2    C3 1615   2.508   3.754   0.351  0.5152 -0.4001 -0.0961
  106TCq2    C4 1616   2.386   3.779   0.394  0.1826  0.4713 -0.3370
  106TCq2    C5 1617   2.334   3.708   0.503  0.0818  0.2202 -0.0849
  106TCq2    C6 1618   2.412   3.611   0.560  0.0822  0.1924  0.4079
  106TCq2    C7 1619   2.530   3.572   0.503 -0.0570  0.0437  0.6691
  106TCq2    C8 1620   2.380   3.556   0.684 -0.6779 -0.9119  0.8591
  106TCq2    O4 1621   2.471   3.500   0.743  0.0110 -0.1868  0.6610
  106TCq2    C9 1622   2.304   3.871   0.318 -0.4956 -0.8981  0.0373
  106TCq2    O5 1623   2.341   3.908   0.205 -0.2921 -0.2970  0.0220
  106TCq2    O6 1624   2.198   3.917   0.380  0.3089 -0.3877  0.0755
  106TCq2    H2 1625   2.550   3.823   0.278  1.8674 -0.7366  0.3687
  106TCq2    H3 1626   2.233   3.736   0.528  0.7572  2.3478  0.2907
  106TCq2    H4 1627   2.597   3.501   0.550  1.2376  0.2011 -0.9453
  107TMC2    C1 1628   3.408   3.301  11.678  0.6173  0.2910  0.2606
  107TMC2    C2 1629   3.435   3.429  11.636  0.5502  0.6665  0.6837
  107TMC2    C3 1630   3.474   3.442  11.506 -0.0729  0.4341 -0.2583
  107TMC2    C4 1631   3.401   3.199  11.595  0.4907  0.0713 -0.6667
  107TMC2    C5 1632   3.448   3.217  11.471  0.4286 -0.5680 -0.1618
  107TMC2    C6 1633   3.490   3.335  11.425  0.3195  0.2086  0.0486
  107TMC2     C 1634   3.334   3.275  11.802 -0.0519 -0.0757 -0.8175
  107TMC2     O 1635   3.283   3.167  11.815  0.1940 -0.0618 -0.0253
  107TMC2     H 1636   3.411   3.517  11.695 -0.3190  0.2840  0.9032
  107TMC2    H1 1637   3.353   3.104  11.615  1.5022  0.0235  1.5497
  107TMC2    H2 1638   3.537   3.346  11.328 -0.9561  0.1343 -0.5815
  107TMC2    C7 1639   3.453   3.100  11.381 -0.1798  0.0455 -0.1551
  107TMC2    C8 1640   3.527   3.566  11.474 -0.2782 -0.4186 -0.0615
  107TMC2    O1 1641   3.363   3.017  11.400 -0.4579 -0.8141  0.1471
  107TMC2    O2 1642   3.592   3.640  11.549  0.6357 -0.0220 -0.3412
  107TMC2    O5 1643   3.524   3.574  11.341  0.8622 -0.8493  0.3391
  107TMC2    H5 1644   3.444   3.535  11.300  0.9256 -1.2497  0.5930
  108MPD2     C 1645   3.312   3.463  12.118  0.3005  0.1171  0.6102
  108MPD2    C1 1646   3.289   3.364  12.024 -0.0146  0.2006  0.7490
  108MPD2    C2 1647   3.217   3.251  12.077  0.4912 -0.1651 -0.6597
  108MPD2    C3 1648   3.174   3.238  12.209  0.1242 -0.2227 -0.1300
  108MPD2    C4 1649   3.208   3.341  12.295 -0.1155 -0.4499 -0.1723
  108MPD2    C5 1650   3.273   3.450  12.248  0.1322  0.0971 -0.1375
  108MPD2     H 1651   3.185   3.176  12.007 -2.2171  0.0525  0.3473
  108MPD2    H1 1652   3.178   3.330  12.399  2.5687 -0.6734  0.5610
  108MPD2    H2 1653   3.356   3.557  12.087 -2.1636  0.8390 -0.7023
  108MPD2    H3 1654   3.295   3.530  12.319  1.0361  0.8968 -1.3185
  108MPD2     N 1655   3.088   3.134  12.256 -0.1621 -0.9593  0.2072
  108MPD2    H5 1656   3.052   3.144  12.350  0.4188  2.3435  0.0871
  108MPD2    N1 1657   3.335   3.376  11.894 -0.0517  0.1763  0.0917
  108MPD2    H7 1658   3.373   3.466  11.866 -0.3891 -0.0154 -1.0068
  109MPD2     C 1659   3.552   0.074   1.695 -0.0981 -0.1511  0.3489
  109MPD2    C1 1660   3.479   0.155   1.613 -0.8792  0.5752 -0.3879
  109MPD2    C2 1661   3.514   0.290   1.596  0.2402 -0.0723 -0.3202
  109MPD2    C3 1662   3.634   0.329   1.640 -0.6248 -0.2147 -0.2381
  109MPD2    C4 1663   3.701   0.251   1.725 -0.2137 -0.4838 -0.4247
  109MPD2    C5 1664   3.666   0.121   1.746  0.2745  0.3048 -0.0777
  109MPD2     H 1665   3.466   0.353   1.523  0.5357  0.3565 -0.1456
  109MPD2    H1 1666   3.788   0.285   1.779  0.4194  0.0020 -1.7654
  109MPD2    H2 1667   3.519   4.694   1.709  1.5047 -0.6123  0.7409
  109MPD2    H3 1668   3.724   0.057   1.812  0.8943 -1.9656 -2.8291
  109MPD2     N 1669   3.677   0.461   1.614 -0.5262 -0.0716 -0.3593
  109MPD2    H5 1670   3.610   0.519   1.566 -2.4186 -0.3468  1.9366
  109MPD2    N1 1671   3.374   0.103   1.529  0.6117 -0.6246  0.7623
  109MPD2    H7 1672   3.370   0.002   1.533  0.2828 -0.7218 -1.6656
  110TCq2    C1 1673   3.799   0.521   1.651  0.4767 -0.0080 -0.3974
  110TCq2    O2 1674   3.894   0.470   1.711  0.8004  0.1963 -0.0205
  110TCq2    C2 1675   3.802   0.661   1.606  0.3664 -0.4593  0.4438
  110TCq2    C3 1676   3.886   0.752   1.668 -0.4730  0.2484 -0.4430
  110TCq2    C4 1677   3.908   0.876   1.620  0.2952 -0.5226  0.0409
  110TCq2    C5 1678   3.839   0.919   1.511 -0.2470  0.2041  0.3012
  110TCq2    C6 1679   3.745   0.830   1.456  0.8079 -0.1022  0.6967
  110TCq2    C7 1680   3.736   0.697   1.493  0.3363  0.3596 -0.0734
  110TCq2    C8 1681   3.643   0.893   1.373  0.2960  0.0477  0.2510
  110TCq2    O4 1682   3.531   0.846   1.381 -0.0751  0.6183  0.3897
  110TCq2    C9 1683   4.001   0.960   1.680  0.0828  0.3424  0.8382
  110TCq2    O5 1684   4.059   0.918   1.783  0.2779  0.2299 -0.4781
  110TCq2    O6 1685   4.021   1.072   1.626 -0.0104  0.4488  0.3097
  110TCq2    H2 1686   3.940   0.714   1.754 -0.5188  0.2853 -0.3977
  110TCq2    H3 1687   3.846   1.020   1.472  0.4094 -0.0074 -0.1234
  110TCq2    H4 1688   3.689   0.623   1.430 -0.3900  0.1239  0.7400
  111TMC2    C1 1689   3.749   1.039  11.609 -0.7361  0.1919 -0.0951
  111TMC2    C2 1690   3.817   1.135  11.544 -0.1537 -0.4655  0.0842
  111TMC2    C3 1691   3.957   1.148  11.564  0.9525 -0.1899 -0.4896
  111TMC2    C4 1692   3.823   0.958  11.697  0.4461 -0.9179 -0.2406
  111TMC2    C5 1693   3.955   0.963  11.697 -0.6664  0.1602 -0.1135
  111TMC2    C6 1694   4.033   1.067  11.640 -0.2848  0.1653 -0.5716
  111TMC2     C 1695   3.633   0.992  11.534  0.0072 -0.3666 -0.1430
  111TMC2     O 1696   3.613   1.049  11.430 -0.6791  0.3423  0.5843
  111TMC2     H 1697   3.770   1.191  11.465  0.7991  0.0680 -0.1071
  111TMC2    H1 1698   3.764   0.875  11.733 -1.6388  0.9257  0.5545
  111TMC2    H2 1699   4.138   1.081  11.663 -0.9475 -0.0441  2.6571
  111TMC2    C7 1700   4.017   0.863  11.784  0.0189 -0.0270 -0.2124
  111TMC2    C8 1701   4.034   1.247  11.481 -0.2087 -0.7032  0.0586
  111TMC2    O1 1702   3.965   0.835  11.892 -0.2697 -0.0245 -0.3198
  111TMC2    O2 1703   4.012   1.268  11.364  0.9161  0.4972  0.4837
  111TMC2    O5 1704   4.145   1.288  11.547 -0.3497 -0.2275 -0.6187
  111TMC2    H5 1705   4.143   1.296  11.645  0.4949  1.5730 -0.7445
  112MPD2     C 1706   3.388   0.585  11.355 -0.2813  0.4985 -0.7495
  112MPD2    C1 1707   3.405   0.710  11.305 -0.1497  0.7445  0.6154
  112MPD2    C2 1708   3.454   0.810  11.383 -0.2867 -0.5562  0.1086
  112MPD2    C3 1709   3.498   0.785  11.514  0.1996  0.3291 -0.3707
  112MPD2    C4 1710   3.467   0.661  11.567 -0.0680  0.4837 -0.4458
  112MPD2    C5 1711   3.421   0.562  11.487 -0.9252  0.3963 -0.0531
  112MPD2     H 1712   3.466   0.904  11.331 -3.7051  0.9953  2.1364
  112MPD2    H1 1713   3.493   0.640  11.670  3.4144  0.0991 -1.3965
  112MPD2    H2 1714   3.352   0.500  11.298  0.0929  0.4099 -0.8520
  112MPD2    H3 1715   3.414   0.459  11.518 -2.9784 -0.5246 -3.5693
  112MPD2     N 1716   3.582   0.873  11.584  0.3614 -0.1095 -0.2309
  112MPD2    H5 1717   3.616   0.832  11.670  3.1812 -0.6088 -1.5666
  112MPD2    N1 1718   3.377   0.745  11.175 -0.1153  0.3785  0.4535
  112MPD2    H7 1719   3.384   0.843  11.149  1.0457 -0.3255 -1.9029
  113MPD2     C 1720   1.614   2.898   1.247 -0.2443  0.5939  0.5870
  113MPD2    C1 1721   1.485   2.919   1.274 -0.2749  0.0035 -0.9790
  113MPD2    C2 1722   1.399   2.859   1.186 -0.3400 -0.4914 -0.6641
  113MPD2    C3 1723   1.443   2.785   1.078  0.5467  0.6742  0.6925
  113MPD2    C4 1724   1.579   2.772   1.045 -0.8130  0.3003 -0.5764
  113MPD2    C5 1725   1.662   2.817   1.143  0.1949 -0.0505 -0.1863
  113MPD2     H 1726   1.293   2.858   1.210 -0.4811 -0.3369 -1.2718
  113MPD2    H1 1727   1.614   2.725   0.954  0.3791 -0.7939  0.4394
  113MPD2    H2 1728   1.684   2.931   1.323  0.2999  1.5296 -0.3280
  113MPD2    H3 1729   1.771   2.814   1.144  0.2321  0.5943 -2.1535
  113MPD2     N 1730   1.346   2.731   0.981  0.6545 -0.0440 -0.1915
  113MPD2    H5 1731   1.387   2.673   0.908  0.9162 -0.7558  0.5180
  113MPD2    N1 1732   1.432   3.007   1.371  0.0051 -0.0688  0.4190
  113MPD2    H7 1733   1.337   3.034   1.350  0.9037  1.0614 -2.2291
  114TCq2    C1 1734   1.212   2.709   0.993  0.2267 -0.2940  0.0447
  114TCq2    O2 1735   1.131   2.744   1.077 -0.4918  0.3147  0.0757
  114TCq2    C2 1736   1.162   2.625   0.888 -0.5554 -0.0728  0.7706
  114TCq2    C3 1737   1.227   2.634   0.765  0.1272 -0.2443  0.0058
  114TCq2    C4 1738   1.219   2.528   0.683 -0.5453  0.1274 -0.5278
  114TCq2    C5 1739   1.158   2.409   0.720  0.2137  1.1632  0.1370
  114TCq2    C6 1740   1.115   2.394   0.851 -0.0193 -0.5093 -0.4510
  114TCq2    C7 1741   1.109   2.505   0.931  0.3375  0.0902 -0.3021
  114TCq2    C8 1742   1.119   2.260   0.916  0.0520  0.0780 -0.2767
  114TCq2    O4 1743   1.183   2.176   0.851 -0.6000  0.1512  0.1764
  114TCq2    C9 1744   1.294   2.534   0.556 -0.0441  0.0811  0.1633
  114TCq2    O5 1745   1.368   2.630   0.537 -0.0751  0.1965 -0.1391
  114TCq2    O6 1746   1.325   2.421   0.513 -0.0899  0.1569  0.5988
  114TCq2    H2 1747   1.261   2.732   0.735 -0.8958  0.0477 -0.1888
  114TCq2    H3 1748   1.161   2.317   0.661 -0.7518  0.9200  0.4722
  114TCq2    H4 1749   1.071   2.511   1.032 -0.5961 -0.7791 -0.6155
  115TMC2    C1 1750   2.131   0.762  17.470  0.7482 -0.2323  0.1401
  115TMC2    C2 1751   2.244   0.705  17.411 -0.0389 -0.8972  0.3436
  115TMC2    C3 1752   2.364   0.765  17.445 -0.9845 -0.5995 -0.5920
  115TMC2    C4 1753   2.139   0.848  17.574 -0.2383  0.7635  0.0002
  115TMC2    C5 1754   2.266   0.902  17.607 -0.1343  0.2919 -0.0295
  115TMC2    C6 1755   2.381   0.858  17.545  0.0212 -0.1072 -0.3445
  115TMC2     C 1756   2.009   0.696  17.438 -0.1208 -1.1266 -0.2754
  115TMC2     O 1757   2.007   0.629  17.337  0.5051  0.1443  0.3549
  115TMC2     H 1758   2.243   0.621  17.343 -1.2012  0.1343 -0.9053
  115TMC2    H1 1759   2.051   0.895  17.615 -1.2573 -1.3701  0.2566
  115TMC2    H2 1760   2.479   0.897  17.572 -0.5513  1.3466 -0.3437
  115TMC2    C7 1761   2.257   1.040  17.670 -0.1343  0.2517 -1.1540
  115TMC2    C8 1762   2.485   0.729  17.381 -0.3672  0.4442  0.0773
  115TMC2    O1 1763   2.160   1.057   0.050 -0.0895 -0.5541 -0.2970
  115TMC2    O2 1764   2.583   0.730  17.456  0.6443 -0.3566  0.3255
  115TMC2    O5 1765   2.463   0.650  17.275  0.9747  0.0309  0.4277
  115TMC2    H5 1766   2.394   0.686  17.216  0.6887  1.2234  1.4951
  116MPD2     C 1767   1.525   0.573  17.464 -0.0038  0.4608  0.4201
  116MPD2    C1 1768   1.634   0.496  17.430 -0.1653 -0.1726  0.5009
  116MPD2    C2 1769   1.761   0.543  17.449  0.4533  0.3793 -0.5263
  116MPD2    C3 1770   1.781   0.665  17.516  0.2939  0.5862 -0.0280
  116MPD2    C4 1771   1.670   0.729  17.575 -0.6537 -0.0692  0.9321
  116MPD2    C5 1772   1.540   0.687  17.549  0.8233  0.1308  0.1454
  116MPD2     H 1773   1.846   0.491  17.408 -2.1089 -2.4652 -2.2685
  116MPD2    H1 1774   1.686   0.821  17.629 -1.3826  1.0629 -0.7834
  116MPD2    H2 1775   1.424   0.542  17.439  1.2249 -1.5940 -2.0003
  116MPD2    H3 1776   1.458   0.741  17.594  0.9325 -1.2754  2.0615
  116MPD2     N 1777   1.910   0.730  17.524  0.2839  0.9021 -0.8081
  116MPD2    H5 1778   1.921   0.805  17.591  2.0729 -0.3933  0.3614
  116MPD2    N1 1779   1.610   0.366  17.368 -0.2258  0.3169 -0.8181
  116MPD2    H7 1780   1.513   0.344  17.346 -0.5154  1.3939 -0.6100
  117TMC2    C1 1781   0.730   2.033  13.864 -0.0521 -0.0560  0.2374
  117TMC2    C2 1782   0.748   1.918  13.941  0.5079  0.0445  0.1806
  117TMC2    C3 1783   0.876   1.866  13.961 -0.6001 -0.2874 -0.2523
  117TMC2    C4 1784   0.843   2.104  13.821 -0.5859 -0.0425  0.5075
  117TMC2    C5 1785   0.969   2.071  13.869  0.5347 -0.0346 -0.7275
  117TMC2    C6 1786   0.987   1.943  13.929 -0.4136  0.0211 -0.0214
  117TMC2     C 1787   0.601   2.093  13.862  0.2372 -0.1930 -0.2455
  117TMC2     O 1788   0.519   2.031  13.922  0.2300  0.1815 -0.2968
  117TMC2     H 1789   0.667   1.858  13.980  0.0350  0.4363 -0.1995
  117TMC2    H1 1790   0.840   2.184  13.748 -0.3880 -1.5904 -1.1972
  117TMC2    H2 1791   1.085   1.900  13.944 -0.5323  0.6769  2.6477
  117TMC2    C7 1792   1.085   2.138  13.817 -0.1331  0.5030 -0.1598
  117TMC2    C8 1793   0.902   1.732  13.991 -0.4490  0.1867 -0.3801
  117TMC2    O1 1794   1.181   2.065  13.790 -0.4803 -0.0896 -0.2497
  117TMC2    O2 1795   1.013   1.693  14.021  0.1021  0.1717 -0.7837
  117TMC2    O5 1796   0.807   1.649  13.934  0.0988  0.4513  0.2200
  117TMC2    H5 1797   0.724   1.691  13.901  0.7241  0.8486 -0.8339
  118MPD2     C 1798   1.132   2.496  13.770  0.5582 -0.3824 -0.5373
  118MPD2    C1 1799   1.166   2.364  13.761  0.0679 -0.4250 -0.5358
  118MPD2    C2 1800   1.282   2.328  13.695 -0.5695 -0.6956 -0.2782
  118MPD2    C3 1801   1.371   2.428  13.655  0.2799  0.5117  0.1792
  118MPD2    C4 1802   1.343   2.558  13.685  0.9582 -0.6099  0.3820
  118MPD2    C5 1803   1.223   2.591  13.744  0.8001  0.1388  0.2732
  118MPD2     H 1804   1.323   2.228  13.687 -0.7162 -0.9236  2.0174
  118MPD2    H1 1805   1.406   2.643  13.663 -0.1020  0.2577  0.6918
  118MPD2    H2 1806   1.049   2.534  13.828 -0.0372  0.1716 -1.7410
  118MPD2    H3 1807   1.200   2.690  13.781 -0.5118  0.2099 -0.7220
  118MPD2     N 1808   1.496   2.395  13.602  0.7972 -0.3135  0.0432
  118MPD2    H5 1809   1.569   2.465  13.603 -1.5126  2.1214 -0.6301
  118MPD2    N1 1810   1.068   2.275  13.819  0.4496 -0.3801 -0.1938
  118MPD2    H7 1811   0.987   2.323  13.858  0.3609 -1.3235  0.8015
  119MPD2     C 1812   4.113   3.411  13.118 -0.3758 -0.5766  0.8711
  119MPD2    C1 1813   3.999   3.399  13.195 -0.1380  0.0069  0.2423
  119MPD2    C2 1814   3.880   3.358  13.137  0.5771 -0.3201  0.3732
  119MPD2    C3 1815   3.879   3.328  13.000 -0.1393 -0.1049  0.2817
  119MPD2    C4 1816   3.994   3.336  12.928 -1.1068  0.3556 -0.1865
  119MPD2    C5 1817   4.109   3.379  12.985 -0.0576 -0.5984  0.1125
  119MPD2     H 1818   3.790   3.341  13.194  1.8819  0.1171  2.5758
  119MPD2    H1 1819   3.991   3.313  12.822 -2.3904 -1.8270  0.3435
  119MPD2    H2 1820   4.203   3.441  13.171 -0.6072 -2.1097  2.1380
  119MPD2    H3 1821   4.199   3.382  12.925 -2.1535  0.8181 -3.0013
  119MPD2     N 1822   3.766   3.288  12.928  0.0936  0.4794  0.1609
  119MPD2    H5 1823   3.789   3.260  12.833  2.7927 -0.5417  1.1252
  119MPD2    N1 1824   4.000   3.463  13.319  0.0083  0.3827  0.0741
  119MPD2    H7 1825   4.086   3.507  13.349 -0.0801  1.6807 -1.5394
  120TCq2    C1 1826   3.639   3.287  12.976 -0.8566  0.0215  0.3299
  120TCq2    O2 1827   3.600   3.324  13.082 -0.0174 -0.1356  0.3493
  120TCq2    C2 1828   3.548   3.229  12.875 -0.1043 -0.4985  0.1666
  120TCq2    C3 1829   3.581   3.126  12.801 -0.2356  0.3074  0.2656
  120TCq2    C4 1830   3.484   3.050  12.754 -0.1914  0.6278  0.3568
  120TCq2    C5 1831   3.357   3.082  12.779  0.4469 -0.7004 -0.4981
  120TCq2    C6 1832   3.323   3.194  12.845  0.5286 -0.2804 -0.1114
  120TCq2    C7 1833   3.419   3.262  12.907  0.0411  0.6769 -0.0128
  120TCq2    C8 1834   3.196   3.201  12.915 -0.1919  0.1410 -0.6303
  120TCq2    O4 1835   3.104   3.143  12.864 -0.3914 -0.5532  0.0346
  120TCq2    C9 1836   3.525   2.923  12.699  0.0168 -0.0267 -0.8872
  120TCq2    O5 1837   3.427   2.845  12.682 -0.0146 -0.0916 -0.1344
  120TCq2    O6 1838   3.649   2.899  12.699 -0.3723  0.0918 -0.2219
  120TCq2    H2 1839   3.683   3.090  12.793  0.0185  0.3015  3.3158
  120TCq2    H3 1840   3.279   3.014  12.746  0.3895 -0.9255  0.0936
  120TCq2    H4 1841   3.404   3.361  12.949 -0.4910  0.9847 -0.9385
  121TMC2    C1 1842   0.476   0.354  13.622 -0.3217  1.2189 -0.2628
  121TMC2    C2 1843   0.550   0.258  13.561  0.0697 -0.3578 -0.1787
  121TMC2    C3 1844   0.513   0.129  13.585  0.5702 -0.2880  0.4485
  121TMC2    C4 1845   0.355   0.323  13.681 -0.4961 -0.1370  0.0945
  121TMC2    C5 1846   0.312   0.194  13.672 -0.3902  0.1265  0.2401
  121TMC2    C6 1847   0.390   0.090  13.632 -0.3855  0.2498 -0.2811
  121TMC2     C 1848   0.531   0.482  13.644  0.6066 -0.6571  0.1976
  121TMC2     O 1849   0.500   0.541  13.746  0.3991 -0.5100 -0.1687
  121TMC2     H 1850   0.656   0.269  13.542  0.0505  2.0117  1.1900
  121TMC2    H1 1851   0.304   0.402  13.734 -1.2629  0.6385 -1.7899
  121TMC2    H2 1852   0.348   4.715  13.609  0.7567 -0.1808 -0.5419
  121TMC2    C7 1853   0.180   0.169  13.729  0.6565 -0.4082 -0.5788
  121TMC2    C8 1854   0.600   0.023  13.541 -0.1186  0.3493 -0.2939
  121TMC2    O1 1855   0.175   0.064  13.798 -0.7448 -0.1149 -0.1666
  121TMC2    O2 1856   0.703   0.038  13.473  0.0131  0.1188 -0.0541
  121TMC2    O5 1857   0.571   4.630  13.603  0.0179  0.0608 -0.1258
  121TMC2    H5 1858   0.508   4.640  13.677  1.0916  1.6992  0.5767
  122MPD2     C 1859   0.731   0.704  13.684  1.1014 -0.3184 -0.3756
  122MPD2    C1 1860   0.709   0.639  13.567 -0.0577 -0.5265  0.6954
  122MPD2    C2 1861   0.793   0.677  13.460  0.2679 -0.2098  0.8440
  122MPD2    C3 1862   0.878   0.789  13.467  0.4480  0.6149 -0.7108
  122MPD2    C4 1863   0.877   0.864  13.584  0.2146 -0.3008  0.3941
  122MPD2    C5 1864   0.818   0.812  13.697 -0.1229 -0.0888 -0.0867
  122MPD2     H 1865   0.784   0.612  13.373  1.1832 -0.8688  1.2413
  122MPD2    H1 1866   0.947   0.947  13.587 -1.3786  1.0220  1.0517
  122MPD2    H2 1867   0.704   0.656  13.778  0.8450  1.1575  0.2945
  122MPD2    H3 1868   0.849   0.866  13.786  0.1214 -0.9730  0.3716
  122MPD2     N 1869   0.956   0.834  13.369  0.7026  0.6768 -0.5691
  122MPD2    H5 1870   1.013   0.916  13.384  0.0160  1.0268  0.0863
  122MPD2    N1 1871   0.627   0.518  13.552  0.1998  0.1192 -0.1441
  122MPD2    H7 1872   0.634   0.469  13.463  1.7578  2.0942 -1.0955
  123MPD2     C 1873   3.852   3.964  10.699 -0.5966  0.1370  0.3376
  123MPD2    C1 1874   3.785   3.954  10.586  0.1326  0.3663  0.9547
  123MPD2    C2 1875   3.802   4.041  10.483 -0.0485  0.6340 -1.5493
  123MPD2    C3 1876   3.886   4.150  10.495  0.2929  0.0020 -0.0909
  123MPD2    C4 1877   3.955   4.165  10.609 -0.5965  0.0941 -0.0966
  123MPD2    C5 1878   3.937   4.079  10.710 -0.4583 -0.2765 -0.7881
  123MPD2     H 1879   3.750   4.037  10.388  0.9971 -1.1691 -2.0306
  123MPD2    H1 1880   4.021   4.250  10.621  0.3613 -1.1038  3.0390
  123MPD2    H2 1881   3.836   3.891  10.778 -3.4800  2.3448  1.8034
  123MPD2    H3 1882   3.993   4.094  10.801 -3.2050 -0.5238  0.9462
  123MPD2     N 1883   3.918   4.221  10.376  0.0272 -0.5328  0.4030
  123MPD2    H5 1884   3.860   4.199  10.296 -0.4066  1.9895  0.0380
  123MPD2    N1 1885   3.706   3.831  10.575  0.3210 -0.0583  0.0432
  123MPD2    H7 1886   3.679   3.790  10.664  0.1781 -1.0254 -0.4470
  124TCq2    C1 1887   4.015   4.316  10.352 -0.0592  0.0599 -0.2064
  124TCq2    O2 1888   4.112   4.338  10.422  0.2414  0.3114 -0.3999
  124TCq2    C2 1889   4.022   4.363  10.216 -0.1851 -0.4274  0.3179
  124TCq2    C3 1890   4.146   4.390  10.161 -0.1189  0.1753 -0.1828
  124TCq2    C4 1891   4.150   4.402  10.024  0.3862 -0.6823  0.2460
  124TCq2    C5 1892   4.034   4.399   9.947  0.1165 -0.5001  0.0122
  124TCq2    C6 1893   3.914   4.374  10.012 -0.9486  0.2182  0.6161
  124TCq2    C7 1894   3.909   4.347  10.142 -0.6306  0.7578 -0.1026
  124TCq2    C8 1895   3.805   4.313   9.937  0.0560 -0.3441 -0.3391
  124TCq2    O4 1896   3.730   4.235   9.989 -0.0115 -0.4534  0.5498
  124TCq2    C9 1897   4.278   4.417   9.958  0.0875 -0.9908  0.3562
  124TCq2    O5 1898   4.386   4.410  10.021 -0.0661  0.5432 -0.1302
  124TCq2    O6 1899   4.273   4.437   9.833 -0.2935 -0.1797  0.1608
  124TCq2    H2 1900   4.239   4.380  10.216  0.9347  0.3484 -1.9421
  124TCq2    H3 1901   4.042   4.409   9.840  2.6803 -0.9531  0.1650
  124TCq2    H4 1902   3.808   4.328  10.177 -1.0768 -0.9537 -2.3017
  125TMC2    C1 1903   4.606   0.522   9.363 -0.2794  0.8011 -0.4576
  125TMC2    C2 1904   4.637   0.468   9.481 -0.5892  0.7656 -0.2677
  125TMC2    C3 1905   0.041   0.427   9.500  1.4731  0.2667  0.3331
  125TMC2    C4 1906   4.702   0.549   9.267  0.2787 -0.3880 -0.0838
  125TMC2    C5 1907   0.108   0.513   9.288 -0.4488 -0.3426 -0.3238
  125TMC2    C6 1908   0.139   0.442   9.400  0.0150 -0.8604 -0.2754
  125TMC2     C 1909   4.464   0.555   9.333  0.1934  0.6710  0.7212
  125TMC2     O 1910   4.390   0.566   9.431 -0.3806  0.4026 -0.3348
  125TMC2     H 1911   4.553   0.447   9.546  0.8467  0.0801  1.3606
  125TMC2    H1 1912   4.684   0.623   9.190 -1.5556  2.9703  3.5636
  125TMC2    H2 1913   0.233   0.393   9.422  0.9964  0.9538 -0.4426
  125TMC2    C7 1914   0.202   0.517   9.181 -0.5853  0.2388  0.2071
  125TMC2    C8 1915   0.080   0.375   9.624  0.1099 -0.2060 -0.2498
  125TMC2    O1 1916   0.145   0.518   9.073 -0.6822 -0.5096 -0.2959
  125TMC2    O2 1917   0.193   0.364   9.665 -0.3088 -0.3149 -0.7882
  125TMC2    O5 1918   4.709   0.275   9.651 -0.4431  0.1293 -0.2317
  125TMC2    H5 1919   4.616   0.293   9.624 -0.4260  0.0460 -0.3439
  126MPD1     C 1920   4.104   0.792   9.042 -0.7380  0.4861  0.1721
  126MPD1    C1 1921   4.213   0.762   8.968  0.0850 -0.2397  0.3680
  126MPD1    C2 1922   4.309   0.681   9.028 -0.3779 -0.1577 -0.2180
  126MPD1    C3 1923   4.311   0.641   9.158  0.6093 -0.8002 -0.3928
  126MPD1    C4 1924   4.198   0.675   9.237 -0.1690 -0.1656 -0.9669
  126MPD1    C5 1925   4.097   0.747   9.171  0.1115  0.0225  0.0160
  126MPD1     H 1926   4.392   0.663   8.961  1.0082  0.3673  1.3545
  126MPD1    H1 1927   4.185   0.651   9.343  0.5472 -2.2318 -1.3467
  126MPD1    H2 1928   4.019   0.852   9.010  1.1063  2.3167 -1.2774
  126MPD1    H3 1929   4.008   0.761   9.230 -1.2545  1.7941 -2.4620
  126MPD1     N 1930   4.439   0.589   9.200 -0.3643 -0.2129 -0.7497
  126MPD1    H5 1931   4.508   0.572   9.128  0.8724 -0.8001  0.5837
  126MPD1    N1 1932   4.215   0.785   8.831  0.4505  0.0593  0.5560
  126MPD1    H6 1933   4.306   0.768   8.789 -0.2011  1.3012 -1.3656
  126MPD1    H7 1934   4.185   0.878   8.802  0.4954 -0.1426 -0.1426
  127MPD2     C 1935   1.588   4.566   9.460  0.6214  0.3307  0.2044
  127MPD2    C1 1936   1.636   4.544   9.592 -0.1993  0.6088 -0.4144
  127MPD2    C2 1937   1.712   4.642   9.648  0.2129 -0.2911 -0.7206
  127MPD2    C3 1938   1.751   0.035   9.586  0.2190 -0.4074 -0.1813
  127MPD2    C4 1939   1.714   0.048   9.461 -0.5425  0.3880  0.0074
  127MPD2    C5 1940   1.640   4.673   9.397 -0.2028  0.2212  0.2463
  127MPD2     H 1941   1.754   4.622   9.746  0.4401 -0.3002 -0.8206
  127MPD2    H1 1942   1.743   0.133   9.399 -0.5459 -0.0269 -0.5662
  127MPD2    H2 1943   1.523   4.500   9.403  0.3624 -0.0475  0.9383
  127MPD2    H3 1944   1.617   4.694   9.293  0.0337  2.1828  0.5842
  127MPD2     N 1945   1.821   0.145   9.649 -0.1328 -0.1542  1.5345
  127MPD2    H5 1946   1.837   0.230   9.594  2.1112 -1.9105 -0.5258
  127MPD2    N1 1947   1.592   4.431   9.652 -0.0056 -0.4622 -0.5674
  127MPD2    H7 1948   1.535   4.369   9.595 -0.0550 -1.6594  0.7892
  128TCq2    C1 1949   1.589   4.409   9.785 -0.0624  0.0972 -0.0283
  128TCq2    O2 1950   1.621   4.483   9.870 -0.2817 -0.5248 -0.1576
  128TCq2    C2 1951   1.519   4.281   9.821  0.6073  0.2350 -0.0994
  128TCq2    C3 1952   1.465   4.274   9.947 -0.0351 -0.9955 -0.1537
  128TCq2    C4 1953   1.406   4.155   9.989 -0.2408  0.4732 -0.3631
  128TCq2    C5 1954   1.379   4.061   9.894  0.0910  0.2801 -0.6046
  128TCq2    C6 1955   1.437   4.067   9.768 -0.0897  1.3236  0.8275
  128TCq2    C7 1956   1.507   4.180   9.733  0.3463 -0.8446  0.1210
  128TCq2    C8 1957   1.452   3.953   9.680 -0.0796  0.0166  0.1470
  128TCq2    O4 1958   1.542   3.945   9.599  0.0251 -0.3818  0.2312
  128TCq2    C9 1959   1.348   4.146  10.122  0.9414  0.2874 -0.8795
  128TCq2    O5 1960   1.292   4.040  10.160 -0.3396 -0.0588 -0.1737
  128TCq2    O6 1961   1.348   4.251  10.188 -0.6355  0.1745 -0.6348
  128TCq2    H2 1962   1.479   4.355  10.018  1.0354 -0.5934 -0.8244
  128TCq2    H3 1963   1.326   3.977   9.937  1.1839 -0.5519 -0.8763
  128TCq2    H4 1964   1.572   4.171   9.647 -1.5515  1.1280 -1.5117
  129MPD2     C 1965   3.403   0.666   0.990  0.5579 -0.2246 -0.2517
  129MPD2    C1 1966   3.538   0.640   0.984 -0.1200 -0.6356 -0.2749
  129MPD2    C2 1967   3.616   0.715   0.902 -0.0743 -0.0543  0.1229
  129MPD2    C3 1968   3.564   0.820   0.828 -0.2558 -0.0944 -0.2117
  129MPD2    C4 1969   3.430   0.840   0.837  0.0220  0.1247 -0.3766
  129MPD2    C5 1970   3.345   0.762   0.912  0.5413 -0.0466 -0.3231
  129MPD2     H 1971   3.722   0.696   0.893 -0.2903 -1.7156  0.9772
  129MPD2    H1 1972   3.379   0.922   0.787 -2.0561 -1.5259 -0.9467
  129MPD2    H2 1973   3.333   0.599   1.041 -0.0167  0.4029 -0.2100
  129MPD2    H3 1974   3.238   0.772   0.898  0.0375 -3.7595  0.9462
  129MPD2     N 1975   3.647   0.899   0.753  0.2958  0.2751 -0.4203
  129MPD2    H5 1976   3.746   0.884   0.763  0.2218  0.4048  0.5639
  129MPD2    N1 1977   3.597   0.541   1.069 -0.1654  0.4531  0.1243
  129MPD2    H7 1978   3.696   0.525   1.052 -0.1683  0.6108 -0.0455
  130TCq2    C1 1979   3.535   0.465   1.164 -0.3157  0.3237  0.1492
  130TCq2    O2 1980   3.418   0.429   1.172  0.4186  0.7604  0.2019
  130TCq2    C2 1981   3.627   0.375   1.227 -0.8022 -0.3112  0.3280
  130TCq2    C3 1982   3.760   0.413   1.249  0.3563 -0.7565  0.5117
  130TCq2    C4 1983   3.832   0.330   1.326  0.0330  0.2682  0.0318
  130TCq2    C5 1984   3.793   0.202   1.348 -0.7339 -1.1406 -0.3256
  130TCq2    C6 1985   3.670   0.159   1.302  0.0919 -0.1520 -0.2514
  130TCq2    C7 1986   3.579   0.246   1.254 -0.1576  0.5440 -0.0121
  130TCq2    C8 1987   3.624   0.019   1.316  0.1857  0.0923  0.2096
  130TCq2    O4 1988   3.515   4.706   1.269 -0.0744  0.3380 -0.4852
  130TCq2    C9 1989   3.964   0.371   1.357 -0.3114  0.5040 -0.2280
  130TCq2    O5 1990   3.995   0.490   1.339 -0.5493 -0.4353 -0.1387
  130TCq2    O6 1991   4.038   0.290   1.421  0.3631 -0.1722 -0.0687
  130TCq2    H2 1992   3.793   0.514   1.230  0.0898 -0.5493  1.1590
  130TCq2    H3 1993   3.858   0.145   1.414 -0.3459 -1.0933 -0.6642
  130TCq2    H4 1994   3.486   0.205   1.218 -1.2898 -0.5375  4.1355
  131MPD2     C 1995   2.963   3.918   9.933 -0.4363  0.5316 -0.3403
  131MPD2    C1 1996   3.091   3.971   9.935  0.7457 -1.0798  0.2841
  131MPD2    C2 1997   3.192   3.909  10.008  0.3510 -0.4846 -0.2143
  131MPD2    C3 1998   3.155   3.813  10.104  0.0706  0.5215 -0.4207
  131MPD2    C4 1999   3.022   3.780  10.123 -0.5570  0.4305 -0.0146
  131MPD2    C5 2000   2.933   3.819  10.026  0.6282  0.1349 -0.1340
  131MPD2     H 2001   3.296   3.936   9.992  0.4725  0.5867  2.3229
  131MPD2    H1 2002   2.998   3.697  10.188  2.6213  0.1201  0.7918
  131MPD2    H2 2003   2.884   3.951   9.866  0.0545  1.5779 -0.4065
  131MPD2    H3 2004   2.833   3.779  10.028  0.4052  0.7428  0.8520
  131MPD2     N 2005   3.262   3.747  10.167 -0.4296 -0.0472 -0.4765
  131MPD2    H5 2006   3.353   3.786  10.148  0.0308 -2.0323 -2.3246
  131MPD2    N1 2007   3.111   4.082   9.847  0.7359  0.2555 -0.0389
  131MPD2    H7 2008   3.033   4.106   9.788  0.8204  0.4845 -0.0614
  132TCq2    C1 2009   3.410   4.526   9.584  0.1613  0.2791 -0.3609
  132TCq2    O2 2010   3.476   4.554   9.680  0.1717 -0.2261  0.5605
  132TCq2    C2 2011   3.298   4.432   9.592 -0.1084 -0.0915  0.3750
  132TCq2    C3 2012   3.234   4.381   9.479  1.1914  0.3750  0.3257
  132TCq2    C4 2013   3.149   4.277   9.485 -0.7507 -1.0209 -0.0011
  132TCq2    C5 2014   3.126   4.213   9.602 -0.3958  0.5306  0.7627
  132TCq2    C6 2015   3.198   4.254   9.717  0.1986  0.2344 -0.8823
  132TCq2    C7 2016   3.294   4.350   9.705 -0.1428  1.0058 -0.6136
  132TCq2    C8 2017   3.226   4.153   9.822 -0.2086  0.7462 -0.7079
  132TCq2    O4 2018   3.319   4.175   9.896  0.0388 -0.1173  0.2219
  132TCq2    C9 2019   3.108   4.215   9.361 -0.2069  0.5383  0.4340
  132TCq2    O5 2020   3.141   4.277   9.256  0.3766 -0.6317 -0.0734
  132TCq2    O6 2021   3.050   4.103   9.367  0.0927  0.5454  0.1762
  132TCq2    H2 2022   3.247   4.437   9.388 -1.0239 -0.1741 -0.3147
  132TCq2    H3 2023   3.054   4.132   9.599  0.5138 -0.2352 -0.1864
  132TCq2    H4 2024   3.349   4.385   9.792  1.2067  0.2329 -1.1636
  133MPD2     C 2025   1.614   4.452   8.952 -0.0092  0.0522  0.4172
  133MPD2    C1 2026   1.625   4.398   9.074 -0.1238 -0.7968 -0.0893
  133MPD2    C2 2027   1.725   4.447   9.160 -0.1560 -0.1089  1.0720
  133MPD2    C3 2028   1.805   4.557   9.111 -0.7143 -0.3640  0.0299
  133MPD2    C4 2029   1.768   4.630   8.999  0.4205  0.2789  0.2632
  133MPD2    C5 2030   1.677   4.568   8.918  0.8448 -0.1343 -0.4146
  133MPD2     H 2031   1.741   4.399   9.256  1.7757 -0.5017  0.5549
  133MPD2    H1 2032   1.816   0.000   8.971 -0.0757  0.5279  0.2330
  133MPD2    H2 2033   1.537   4.414   8.885 -1.0208  1.1686  0.9484
  133MPD2    H3 2034   1.645   4.620   8.829 -1.8562 -0.0980  0.6022
  133MPD2     N 2035   1.917   4.611   9.185  0.0516  0.5044  0.2225
  133MPD2    H5 2036   1.962   4.697   9.158  1.3106 -0.9539 -2.3566
  133MPD2    N1 2037   1.546   4.292   9.097 -0.0131  0.0462 -0.1562
  133MPD2    H7 2038   1.480   4.266   9.023 -0.1117 -0.8165  0.2359
  134TCq2    C1 2039   1.542   4.221   9.215 -0.2873  0.0266 -0.1297
  134TCq2    O2 2040   1.590   4.245   9.323 -0.0156 -0.2927 -0.8272
  134TCq2    C2 2041   1.454   4.110   9.203  0.3311 -0.4143 -0.1477
  134TCq2    C3 2042   1.438   4.040   9.088  0.4901  0.0391 -0.5197
  134TCq2    C4 2043   1.341   3.940   9.075 -0.5232 -0.0682  0.0852
  134TCq2    C5 2044   1.261   3.919   9.183 -0.0723 -0.1476  0.1093
  134TCq2    C6 2045   1.276   3.995   9.301  0.5933 -0.7748 -0.2180
  134TCq2    C7 2046   1.372   4.089   9.309  0.4233  0.5123  0.5043
  134TCq2    C8 2047   1.169   4.006   9.407  0.1062  0.1958 -0.2317
  134TCq2    O4 2048   1.195   4.081   9.505  0.0044  0.2748  0.3400
  134TCq2    C9 2049   1.352   3.852   8.967 -0.5511 -0.3748  0.2780
  134TCq2    O5 2050   1.261   3.776   8.933 -1.1141  0.1065  0.2403
  134TCq2    O6 2051   1.454   3.872   8.900  0.0957  0.2799 -0.0645
  134TCq2    H2 2052   1.504   4.066   9.006 -2.4609  0.1665 -2.8715
  134TCq2    H3 2053   1.185   3.841   9.181 -1.0225  0.8240 -2.8388
  134TCq2    H4 2054   1.383   4.143   9.403 -1.0004 -1.4250  1.7777
  135MPD2     C 2055   4.554   0.903   9.257 -0.6633 -0.4094 -0.5465
  135MPD2    C1 2056   4.683   0.899   9.311 -0.1412 -0.3813 -0.4543
  135MPD2    C2 2057   0.078   0.896   9.233 -0.0419 -0.6350  0.3234
  135MPD2    C3 2058   0.059   0.885   9.096  0.2453  0.3538 -0.2352
  135MPD2    C4 2059   4.652   0.887   9.035  0.7896  0.4635  0.2360
  135MPD2    C5 2060   4.542   0.907   9.116  0.1485 -0.2593 -0.5196
  135MPD2     H 2061   0.176   0.882   9.276  0.0142  1.5968  0.9597
  135MPD2    H1 2062   4.640   0.889   8.927 -2.2126  0.9934  0.5838
  135MPD2    H2 2063   4.465   0.889   9.317 -0.3013  0.2422  0.1448
  135MPD2    H3 2064   4.443   0.905   9.071  0.4684  0.2613 -1.2294
  135MPD2     N 2065   0.167   0.853   9.009  0.1103 -0.0428 -0.2926
  135MPD2    H5 2066   0.148   0.822   8.915  1.8751 -1.8635 -0.0509
  135MPD2    N1 2067   4.706   0.877   9.450 -0.5812  0.7009 -0.3757
  135MPD2    H7 2068   0.080   0.885   9.479 -1.2145 -0.3014  2.0281
  136TCq2    C1 2069   4.612   0.865   9.551 -0.1662  0.7900 -0.6684
  136TCq2    O2 2070   4.490   0.879   9.542  0.7001  0.1496  0.3178
  136TCq2    C2 2071   4.668   0.807   9.674  0.8144  0.5047 -0.5051
  136TCq2    C3 2072   0.086   0.777   9.680 -0.6754 -0.1184  0.0729
  136TCq2    C4 2073   0.142   0.757   9.803  0.2927 -0.3179  0.2786
  136TCq2    C5 2074   0.061   0.762   9.912 -0.4613 -0.0782 -0.0856
  136TCq2    C6 2075   4.647   0.791   9.909  0.9394 -0.2872 -0.1687
  136TCq2    C7 2076   4.585   0.815   9.787 -0.1229  0.2629 -0.1479
  136TCq2    C8 2077   4.555   0.789  10.023  0.4276 -0.0047  0.0635
  136TCq2    O4 2078   4.449   0.844  10.013  0.2684 -0.4510  0.1741
  136TCq2    C9 2079   0.282   0.743   9.817 -0.4036  0.2714  1.2414
  136TCq2    O5 2080   0.334   0.730   9.932 -0.2908 -0.6290  0.4530
  136TCq2    O6 2081   0.346   0.756   9.709 -0.5532  0.3326 -0.1880
  136TCq2    H2 2082   0.145   0.784   9.588  1.9412 -2.2764  1.5763
  136TCq2    H3 2083   0.115   0.757  10.006  0.7687  0.2308 -0.7767
  136TCq2    H4 2084   4.478   0.829   9.785 -0.0454  0.9408  0.4760
  137MPD2     C 2085   0.607   4.400   9.573 -0.6209  0.8981 -0.4369
  137MPD2    C1 2086   0.637   4.536   9.533  1.1833 -0.0179  0.3372
  137MPD2    C2 2087   0.710   4.618   9.619  0.0784 -0.8929  0.1820
  137MPD2    C3 2088   0.754   4.566   9.741  0.0387  0.4779  0.3585
  137MPD2    C4 2089   0.731   4.436   9.782  0.3528  0.1065  0.1678
  137MPD2    C5 2090   0.649   4.354   9.698  0.1367 -0.5078 -0.8238
  137MPD2     H 2091   0.734   4.720   9.589  3.4006 -1.1153  2.0477
  137MPD2    H1 2092   0.766   4.392   9.875 -0.8167 -0.0558  0.5297
  137MPD2    H2 2093   0.556   4.330   9.507  0.5805  2.2754 -2.8583
  137MPD2    H3 2094   0.616   4.253   9.716 -1.6995  0.3056  0.3284
  137MPD2     N 2095   0.807   4.658   9.831  0.1168 -0.3827  0.0300
  137MPD2    H5 2096   0.828   0.027   9.793 -2.4053 -0.0533 -0.6042
  137MPD2    N1 2097   0.565   4.579   9.422 -0.2237  0.0230  0.2671
  137MPD2    H7 2098   0.500   4.515   9.376 -0.0103 -1.4471  2.0270
  138TCq2    C1 2099   0.589   4.693   9.348  0.1576  0.0266  1.1406
  138TCq2    O2 2100   0.679   0.050   9.366  0.2771 -0.5064 -0.3739
  138TCq2    C2 2101   0.495   4.721   9.243  0.4029  0.6343  0.6396
  138TCq2    C3 2102   0.544   0.040   9.126  0.1461  0.3050  0.7911
  138TCq2    C4 2103   0.453   0.083   9.032 -0.1073  0.4930 -0.0653
  138TCq2    C5 2104   0.319   0.103   9.068 -0.3721 -0.1822  0.4535
  138TCq2    C6 2105   0.271   0.060   9.194  0.6239  0.6124 -0.7457
  138TCq2    C7 2106   0.361   0.014   9.284  0.9072  0.1427  0.2184
  138TCq2    C8 2107   0.130   0.071   9.234  0.1076 -0.1268 -0.6528
  138TCq2    O4 2108   0.102   0.018   9.342 -0.2349 -0.4624 -0.0578
  138TCq2    C9 2109   0.504   0.101   8.899  0.2177  1.0541 -0.0976
  138TCq2    O5 2110   0.427   0.166   8.821  0.1198 -0.0348  0.5993
  138TCq2    O6 2111   0.615   0.049   8.870 -0.3335  0.4529  0.0082
  138TCq2    H2 2112   0.650   0.023   9.113 -0.2218 -0.1171 -1.6931
  138TCq2    H3 2113   0.250   0.128   8.988 -0.8666 -1.9282  0.3298
  138TCq2    H4 2114   0.334   4.722   9.388  1.8707 -0.4290  0.3875
  139TMC2    C1 2115   0.836   3.153  13.269 -0.1292  0.3331 -0.6882
  139TMC2    C2 2116   0.852   3.175  13.133  0.1472  0.2646  0.1172
  139TMC2    C3 2117   0.824   3.305  13.087  0.3520  0.0904 -0.5532
  139TMC2    C4 2118   0.791   3.252  13.353 -1.0997 -0.0960  0.0444
  139TMC2    C5 2119   0.749   3.368  13.301  1.0858 -0.0554 -0.3934
  139TMC2    C6 2120   0.775   3.404  13.168 -0.0549 -0.1596  0.1800
  139TMC2     C 2121   0.863   3.015  13.322 -0.6445 -0.2255  0.3492
  139TMC2     O 2122   0.902   2.932  13.240  0.1677 -0.0728 -0.1795
  139TMC2     H 2123   0.881   3.094  13.068  1.9968  1.7412 -0.8843
  139TMC2    H1 2124   0.763   3.233  13.456  1.8509  0.3913  0.9345
  139TMC2    H2 2125   0.750   3.502  13.128 -1.4768 -0.4384  0.3866
  139TMC2    C7 2126   0.717   3.466  13.397 -0.0350 -0.0829 -0.3559
  139TMC2    C8 2127   0.866   3.332  12.943 -0.6871 -1.1228 -0.4140
  139TMC2    O1 2128   0.737   3.438  13.514 -0.5539  0.0267  0.7860
  139TMC2    O2 2129   0.862   3.240  12.864 -0.2204 -0.3976  0.0422
  139TMC2    O5 2130   0.970   3.408  12.967  0.1994 -0.5526 -0.4879
  139TMC2    H5 2131   1.038   3.409  12.897  1.0771  0.0238  0.3724
  140MPD2     C 2132   0.728   2.807  13.578  0.2666 -0.1931  0.1990
  140MPD2    C1 2133   0.835   2.849  13.499 -0.5435  0.1743  0.3382
  140MPD2    C2 2134   0.935   2.761  13.464 -0.4458  0.1941 -0.4391
  140MPD2    C3 2135   0.932   2.630  13.498  0.2538  0.2531 -0.1194
  140MPD2    C4 2136   0.829   2.595  13.578  0.0921 -0.0915 -0.6808
  140MPD2    C5 2137   0.728   2.680  13.620  0.3204  0.0064  0.1485
  140MPD2     H 2138   1.011   2.785  13.390 -1.1475 -0.6872 -1.4320
  140MPD2    H1 2139   0.821   2.493  13.614  0.8988 -0.2491 -0.9543
  140MPD2    H2 2140   0.645   2.865  13.619  0.7031  0.5410  0.0431
  140MPD2    H3 2141   0.642   2.655  13.683  0.1266  1.1197  0.3196
  140MPD2     N 2142   1.026   2.542  13.443  0.6431 -0.1612  0.0028
  140MPD2    H5 2143   1.094   2.585  13.382  1.0483  1.4354  1.5727
  140MPD2    N1 2144   0.813   2.983  13.443 -0.3684  0.9823 -0.0532
  140MPD2    H7 2145   0.741   3.043  13.482  0.8444  1.2265  1.8054
  141TCq2    C1 2146   1.123   4.268  14.118  0.0738  0.1852  0.1517
  141TCq2    O2 2147   1.117   4.382  14.072  0.3035  0.2580 -0.5520
  141TCq2    C2 2148   1.099   4.270  14.263  0.5966  0.3654 -0.5460
  141TCq2    C3 2149   1.109   4.149  14.324  0.6091 -0.3958  0.2896
  141TCq2    C4 2150   1.104   4.147  14.459 -0.7676 -0.0416 -0.1262
  141TCq2    C5 2151   1.085   4.255  14.536 -0.6131 -1.1437 -1.1807
  141TCq2    C6 2152   1.085   4.381  14.477  0.4310  0.0918 -0.3859
  141TCq2    C7 2153   1.095   4.387  14.341 -0.3100  0.5164  0.9192
  141TCq2    C8 2154   1.070   4.492  14.568 -0.4390  0.0178  0.5440
  141TCq2    O4 2155   1.073   4.469  14.687 -0.6492 -0.3064  0.1310
  141TCq2    C9 2156   1.096   4.021  14.525  0.1120  0.1964 -0.0438
  141TCq2    O5 2157   1.023   4.005  14.623  0.2273 -0.4311 -0.0738
  141TCq2    O6 2158   1.164   3.927  14.472 -0.0194 -0.1683  0.1790
  141TCq2    H2 2159   1.118   4.053  14.275  0.0977  0.0140 -0.6152
  141TCq2    H3 2160   1.055   4.247  14.639 -1.3105  1.1081 -1.2061
  141TCq2    H4 2161   1.105   4.483  14.292  1.7531 -0.2256 -0.1218
  142MPD2     C 2162   3.752   3.274  10.323  0.3996  0.3794 -0.3587
  142MPD2    C1 2163   3.665   3.209  10.240 -0.4137  0.1047  0.2981
  142MPD2    C2 2164   3.598   3.272  10.139  0.2152  0.3978 -0.3528
  142MPD2    C3 2165   3.622   3.409  10.113 -0.3197  0.1432  0.0114
  142MPD2    C4 2166   3.721   3.468  10.187 -0.0893  0.4151  0.3820
  142MPD2    C5 2167   3.774   3.405  10.292 -0.0580 -0.3118  0.5305
  142MPD2     H 2168   3.532   3.211  10.079  0.4118 -0.3484  0.2044
  142MPD2    H1 2169   3.743   3.573  10.169 -0.6709 -0.0127 -2.8105
  142MPD2    H2 2170   3.795   3.242  10.417  0.3734  2.2268  0.2908
  142MPD2    H3 2171   3.828   3.466  10.363  0.0177 -0.8599  0.9479
  142MPD2     N 2172   3.564   3.485  10.009  1.0529  0.1128 -0.2510
  142MPD2    H5 2173   3.577   3.585  10.016  2.1169  0.0196 -0.8926
  142MPD2    N1 2174   3.652   3.069  10.264 -0.8638 -0.1214 -1.0486
  142MPD2    H7 2175   3.700   3.041  10.349  1.1983  2.1965 -1.4478
  143TCq2    C1 2176   3.468   3.441   9.916  0.1082 -0.1153 -0.6800
  143TCq2    O2 2177   3.406   3.336   9.917 -0.2851  0.0328 -0.1712
  143TCq2    C2 2178   3.433   3.547   9.822  0.2452  0.6551 -0.6110
  143TCq2    C3 2179   3.308   3.548   9.772 -0.5385 -0.3019  0.4742
  143TCq2    C4 2180   3.257   3.645   9.694 -0.1080 -0.6850  0.2796
  143TCq2    C5 2181   3.346   3.758   9.667 -0.2201 -0.5211  0.1576
  143TCq2    C6 2182   3.466   3.758   9.718 -0.7108 -0.2276 -0.1605
  143TCq2    C7 2183   3.510   3.656   9.798  0.8245  0.8208 -0.2593
  143TCq2    C8 2184   3.545   3.887   9.721 -0.1899 -0.6196 -0.7229
  143TCq2    O4 2185   3.656   3.868   9.765  0.2538  0.3609  0.0093
  143TCq2    C9 2186   3.127   3.641   9.635 -0.0967  0.3688 -0.1339
  143TCq2    O5 2187   3.056   3.536   9.650  0.1798  0.0226 -0.5162
  143TCq2    O6 2188   3.106   3.729   9.549  0.0429 -0.0131  0.5990
  143TCq2    H2 2189   3.245   3.463   9.795  2.4628 -3.0668 -1.5240
  143TCq2    H3 2190   3.311   3.842   9.609  2.9047  1.1791  0.7772
  143TCq2    H4 2191   3.610   3.655   9.841  1.7756  0.1506 -2.4599
  144MPD2     C 2192   1.486   2.323   0.774  0.5526 -0.4475 -0.3133
  144MPD2    C1 2193   1.561   2.251   0.688  0.0803  0.3402 -0.7960
  144MPD2    C2 2194   1.695   2.233   0.715 -0.4686  0.0461 -0.5795
  144MPD2    C3 2195   1.748   2.287   0.828 -0.3554 -0.1837  0.9612
  144MPD2    C4 2196   1.673   2.359   0.918 -0.4803  0.4304  0.0060
  144MPD2    C5 2197   1.538   2.381   0.889  0.6189  0.7665 -0.5050
  144MPD2     H 2198   1.751   2.163   0.654  0.1038  0.8339 -0.9627
  144MPD2    H1 2199   1.724   2.404   1.002 -0.5687  0.7005 -0.0828
  144MPD2    H2 2200   1.379   2.323   0.757  0.2662  1.3773  1.5336
  144MPD2    H3 2201   1.474   2.446   0.948 -0.7324 -0.5810 -0.4800
  144MPD2     N 2202   1.883   2.274   0.877 -0.0592  0.5773  0.2600
  144MPD2    H5 2203   1.914   2.316   0.964  0.6772  1.3665 -0.3869
  144MPD2    N1 2204   1.490   2.204   0.573  0.1663 -0.0868  0.5359
  144MPD2    H7 2205   1.404   2.254   0.553  0.7854  0.3658 -1.0609
  145TCq2    C1 2206   1.983   2.225   0.799  0.0586 -0.2976 -0.4885
  145TCq2    O2 2207   1.973   2.166   0.690  0.7852  0.4422 -0.1454
  145TCq2    C2 2208   2.115   2.217   0.862 -0.9474 -0.6750 -0.0794
  145TCq2    C3 2209   2.222   2.242   0.782 -0.4678  0.8818 -0.1447
  145TCq2    C4 2210   2.342   2.270   0.848 -0.3668 -0.1473 -0.0926
  145TCq2    C5 2211   2.356   2.275   0.990  0.3882 -0.1132 -0.6633
  145TCq2    C6 2212   2.240   2.252   1.059 -1.1750 -0.0635 -0.4365
  145TCq2    C7 2213   2.120   2.230   0.995  0.1965  0.0199 -0.1941
  145TCq2    C8 2214   2.245   2.268   1.208 -0.2025 -0.1338 -0.1565
  145TCq2    O4 2215   2.355   2.289   1.266  0.3750 -0.2039  0.5379
  145TCq2    C9 2216   2.462   2.299   0.775 -0.6451  0.5287 -0.5653
  145TCq2    O5 2217   2.562   2.334   0.840  0.2335  0.4436 -0.3954
  145TCq2    O6 2218   2.466   2.250   0.658 -0.1474 -0.7519  0.4469
  145TCq2    H2 2219   2.224   2.256   0.674 -2.4017 -0.3668 -0.3393
  145TCq2    H3 2220   2.447   2.295   1.045  1.6094  1.4199 -3.2236
  145TCq2    H4 2221   2.040   2.198   1.061  0.4644  0.9606  0.5799
  146TMC2    C1 2222   3.092   0.901  12.776  0.3988  0.5319  0.6636
  146TMC2    C2 2223   3.059   1.010  12.702 -0.2675  1.2413 -0.3041
  146TMC2    C3 2224   3.166   1.069  12.640 -0.2674 -0.1731 -0.6228
  146TMC2    C4 2225   3.220   0.854  12.791  0.5023 -0.7091 -0.1940
  146TMC2    C5 2226   3.326   0.926  12.742  1.0501  0.5773 -0.1455
  146TMC2    C6 2227   3.299   1.035  12.664 -0.0712 -0.3390 -0.4848
  146TMC2     C 2228   2.982   0.859  12.858 -0.4366 -0.5071  0.1525
  146TMC2     O 2229   2.868   0.878  12.812 -0.7355  0.6958  0.5239
  146TMC2     H 2230   2.961   1.053  12.691  0.0926  2.2960  0.6550
  146TMC2    H1 2231   3.240   0.767  12.853 -3.1251 -1.5574 -0.1580
  146TMC2    H2 2232   3.387   1.077  12.617  0.3289  0.3357  0.8472
  146TMC2    C7 2233   3.467   0.880  12.768 -0.4854  0.0973 -0.8506
  146TMC2    C8 2234   3.134   1.154  12.526  0.1684  0.0254 -0.0951
  146TMC2    O1 2235   3.548   0.915  12.689  0.1165  0.5947  0.1642
  146TMC2    O2 2236   3.049   1.244  12.521  0.6846  0.1160 -0.0507
  146TMC2    O5 2237   3.229   1.127  12.441 -0.2035 -0.5250 -0.8289
  146TMC2    H5 2238   3.268   1.038  12.457  0.4875  0.1336  1.2616
  147MPD2     C 2239   3.815   0.584  12.995  0.3029  0.1253  0.1154
  147MPD2    C1 2240   3.701   0.570  13.068  0.0058 -0.0855  0.7784
  147MPD2    C2 2241   3.586   0.631  13.024 -0.3495 -0.1299 -0.1060
  147MPD2    C3 2242   3.597   0.734  12.928  0.5791  0.5297  0.0451
  147MPD2    C4 2243   3.720   0.764  12.869 -0.3428  0.0114 -0.3975
  147MPD2    C5 2244   3.822   0.678  12.896  0.5227  0.2435 -0.0797
  147MPD2     H 2245   3.492   0.614  13.074 -1.6224  2.5015 -1.6359
  147MPD2    H1 2246   3.738   0.852  12.809 -0.5490  1.4910  1.6965
  147MPD2    H2 2247   3.899   0.517  13.010  0.4254 -0.0174 -1.1816
  147MPD2    H3 2248   3.916   0.703  12.849 -0.9895 -0.3288 -3.4264
  147MPD2     N 2249   3.481   0.812  12.889  0.4442 -0.9034  0.7680
  147MPD2    H5 2250   3.401   0.798  12.950  0.9441 -3.3884  0.8561
  147MPD2    N1 2251   3.706   0.468  13.167 -0.3366  0.5318 -0.3220
  147MPD2    H7 2252   3.796   0.430  13.194  0.5768  3.2129  0.3823
  148MPD2     C 2253   3.718   4.034  11.235 -0.0657 -0.5894 -0.6768
  148MPD2    C1 2254   3.670   4.095  11.119  0.0477  0.0945  0.0207
  148MPD2    C2 2255   3.544   4.069  11.070  0.2277  0.5971  0.4330
  148MPD2    C3 2256   3.465   3.971  11.121  0.4456 -0.1948 -0.4635
  148MPD2    C4 2257   3.519   3.904  11.231 -0.0373  0.2842 -0.2872
  148MPD2    C5 2258   3.641   3.932  11.294  0.1050 -0.0878 -0.3263
  148MPD2     H 2259   3.513   4.115  10.977 -0.2852  0.4807  0.5474
  148MPD2    H1 2260   3.453   3.840  11.288  0.5428 -1.7794 -1.9212
  148MPD2    H2 2261   3.818   4.042  11.276  0.1374 -0.4501 -1.1991
  148MPD2    H3 2262   3.675   3.884  11.384 -5.5783 -1.2574  1.2220
  148MPD2     N 2263   3.336   3.934  11.076  0.1351 -0.5516  0.1120
  148MPD2    H5 2264   3.293   3.863  11.135  0.1586 -0.8934 -0.2810
  148MPD2    N1 2265   3.748   4.190  11.047  0.3444 -0.2447  0.0955
  148MPD2    H7 2266   3.708   4.229  10.962  1.3952 -2.0085 -1.2198
  149TCq2    C1 2267   3.876   4.231  11.082 -0.2382  0.0976 -0.2790
  149TCq2    O2 2268   3.959   4.211  11.169 -0.5487 -0.0377 -0.2254
  149TCq2    C2 2269   3.918   4.320  10.975 -0.2864 -0.5325 -0.1224
  149TCq2    C3 2270   4.046   4.380  10.987 -0.3192  0.2137 -0.6355
  149TCq2    C4 2271   4.074   4.482  10.904 -0.4739  0.8994  0.6080
  149TCq2    C5 2272   4.003   4.509  10.784  0.3099  0.3191 -0.3547
  149TCq2    C6 2273   3.877   4.460  10.790  0.3521 -0.2121  0.0532
  149TCq2    C7 2274   3.828   4.372  10.888  0.3074 -0.6219  0.0156
  149TCq2    C8 2275   3.797   4.474  10.672  0.8075  0.5027  0.1556
  149TCq2    O4 2276   3.717   4.381  10.657  0.4398  0.2666  0.0444
  149TCq2    C9 2277   4.202   4.542  10.902 -0.3688 -0.1914 -0.2323
  149TCq2    O5 2278   4.223   4.637  10.829 -0.0970 -0.0212  0.0100
  149TCq2    O6 2279   4.287   4.469  10.960  0.0766 -0.0350 -0.6219
  149TCq2    H2 2280   4.127   4.347  11.051 -2.1618 -1.6726  0.6909
  149TCq2    H3 2281   4.033   4.579  10.707 -1.3518  0.5554 -0.7742
  149TCq2    H4 2282   3.726   4.339  10.875 -0.1494  0.4557  0.9039
  150MPD2     C 2283   0.310   3.487  12.163 -0.5463  0.3409 -0.3022
  150MPD2    C1 2284   0.375   3.509  12.042 -0.6615 -0.0861 -0.1907
  150MPD2    C2 2285   0.462   3.616  12.035 -0.0957  0.0629 -0.4473
  150MPD2    C3 2286   0.469   3.716  12.126 -0.1099 -0.2480 -0.5574
  150MPD2    C4 2287   0.394   3.704  12.238  0.5888 -0.0189  0.0463
  150MPD2    C5 2288   0.318   3.587  12.259 -0.6855 -0.1222 -0.7674
  150MPD2     H 2289   0.508   3.634  11.939  1.1034  1.0254  0.3193
  150MPD2    H1 2290   0.398   3.775  12.320  0.8126 -0.1221  0.1231
  150MPD2    H2 2291   0.250   3.399  12.184 -1.5144  0.7718 -1.2451
  150MPD2    H3 2292   0.261   3.577  12.351  0.8805 -1.7397  0.0430
  150MPD2     N 2293   0.520   3.846  12.102  0.6265  0.2872  0.3928
  150MPD2    H5 2294   0.502   3.920  12.169  1.8198  0.6618  0.3004
  150MPD2    N1 2295   0.338   3.426  11.933 -0.1768  0.1592  0.1093
  150MPD2    H7 2296   0.287   3.344  11.963  1.7232 -1.3052 -0.6760
  151TCq2    C1 2297   0.594   3.889  11.994  0.3449 -0.3353  0.1206
  151TCq2    O2 2298   0.622   3.840  11.888 -0.3416  0.0274  0.4323
  151TCq2    C2 2299   0.641   4.027  12.015 -0.6796  0.9262  0.2336
  151TCq2    C3 2300   0.584   4.124  11.937  0.3741  0.0155  0.1322
  151TCq2    C4 2301   0.597   4.247  11.990  0.6218  0.6073  1.1592
  151TCq2    C5 2302   0.671   4.266  12.103  0.1856 -0.0147  0.0031
  151TCq2    C6 2303   0.730   4.160  12.170  0.0754  0.2434  0.0048
  151TCq2    C7 2304   0.708   4.032  12.130  0.4296 -0.0159 -0.0815
  151TCq2    C8 2305   0.794   4.170  12.302  0.3106 -0.0933 -0.4829
  151TCq2    O4 2306   0.754   4.269  12.365 -0.2378  0.4096 -0.5214
  151TCq2    C9 2307   0.540   4.361  11.932  0.1770  0.1923  0.0530
  151TCq2    O5 2308   0.465   4.334  11.836 -0.0519  0.3498  0.1964
  151TCq2    O6 2309   0.565   4.478  11.978 -0.2296 -0.4022  0.0347
  151TCq2    H2 2310   0.519   4.105  11.852  0.4869 -1.0709  0.2819
  151TCq2    H3 2311   0.678   4.367  12.144 -0.6360  0.6094 -1.3765
  151TCq2    H4 2312   0.752   3.944  12.175  0.1283 -1.5141 -2.7119
  152MPD2     C 2313   4.719   3.445  12.979 -0.1613  0.8632 -0.4360
  152MPD2    C1 2314   0.037   3.427  12.851 -0.0535  0.5721  0.2988
  152MPD2    C2 2315   4.672   3.360  12.761  0.6786 -0.2552  0.2509
  152MPD2    C3 2316   4.545   3.324  12.801  0.2419  0.6668 -0.2099
  152MPD2    C4 2317   4.499   3.356  12.928 -0.0579 -0.5878 -0.3189
  152MPD2    C5 2318   4.586   3.415  13.011 -0.7677  0.0291 -0.3874
  152MPD2     H 2319   4.697   3.327  12.661  0.0014  0.3176 -0.1087
  152MPD2    H1 2320   4.396   3.354  12.961  0.1977  2.4556  0.7129
  152MPD2    H2 2321   0.052   3.503  13.052  0.9106 -1.5873  0.6602
  152MPD2    H3 2322   4.540   3.445  13.105  2.0991 -0.3610  1.1499
  152MPD2     N 2323   4.462   3.267  12.698 -0.1907 -0.0220 -0.0313
  152MPD2    H5 2324   4.493   3.283  12.603  1.7261 -3.4117  0.0432
  152MPD2    N1 2325   0.163   3.469  12.819  0.3803 -0.2276 -0.3392
  152MPD2    H7 2326   0.209   3.520  12.893  0.5684  0.9650 -1.2650
  153TCq2    C1 2327   0.234   3.459  12.698  0.1296  1.4178  0.5030
  153TCq2    O2 2328   0.194   3.421  12.591 -0.2236  0.3467 -0.2379
  153TCq2    C2 2329   0.373   3.501  12.701  0.1773 -0.1710 -0.5206
  153TCq2    C3 2330   0.456   3.443  12.609 -0.4741 -0.1234  0.3564
  153TCq2    C4 2331   0.587   3.454  12.625  0.8103  0.0290  0.4929
  153TCq2    C5 2332   0.645   3.525  12.725  0.4408  0.0698 -0.4046
  153TCq2    C6 2333   0.555   3.592  12.815 -0.0548  0.0117  0.0349
  153TCq2    C7 2334   0.421   3.580  12.806  0.1299  0.2416  0.4619
  153TCq2    C8 2335   0.613   3.642  12.941 -0.5862  0.8720 -0.1694
  153TCq2    O4 2336   0.553   3.616  13.046  0.4552 -0.2375 -0.6862
  153TCq2    C9 2337   0.673   3.361  12.550  0.7037 -0.2898  0.1909
  153TCq2    O5 2338   0.632   3.269  12.475  0.1661  0.5874 -0.2504
  153TCq2    O6 2339   0.798   3.369  12.571  0.4847 -0.0049  0.3453
  153TCq2    H2 2340   0.420   3.379  12.529 -1.2754 -0.0298  0.6458
  153TCq2    H3 2341   0.753   3.530  12.738  0.4976  1.1907 -1.3085
  153TCq2    H4 2342   0.357   3.643  12.867  1.7510  1.9094  0.4355
  154MPD2     C 2343   1.565   3.813   0.695 -0.3918  0.0389  0.6375
  154MPD2    C1 2344   1.540   3.686   0.741 -0.8179  0.3160  0.7811
  154MPD2    C2 2345   1.410   3.650   0.758 -0.4586 -0.3487  0.4167
  154MPD2    C3 2346   1.306   3.716   0.704  0.6582  0.2178  0.1574
  154MPD2    C4 2347   1.334   3.839   0.649  0.0171 -0.2839  0.2869
  154MPD2    C5 2348   1.460   3.895   0.666  0.0993 -0.1431 -0.3866
  154MPD2     H 2349   1.382   3.553   0.798 -0.6656  0.1839  1.5568
  154MPD2    H1 2350   1.258   3.909   0.618 -0.1990  0.7796  3.1536
  154MPD2    H2 2351   1.664   3.853   0.677 -0.5746 -0.5076 -1.6025
  154MPD2    H3 2352   1.482   3.999   0.648 -0.0653 -0.1519 -0.6336
  154MPD2     N 2353   1.179   3.667   0.710  0.2302 -0.0973  0.5445
  154MPD2    H5 2354   1.160   3.599   0.783  1.7882  0.1298  1.1517
  154MPD2    N1 2355   1.648   3.595   0.762  0.5359  0.3660  0.0824
  154MPD2    H7 2356   1.738   3.621   0.723  0.6037  1.4788  0.9767
  155TCq2    C1 2357   1.643   3.472   0.833 -0.4603  0.2019 -0.0980
  155TCq2    O2 2358   1.561   3.433   0.915  0.0065 -0.4787  0.1688
  155TCq2    C2 2359   1.776   3.413   0.842 -0.3506 -0.0308  0.2047
  155TCq2    C3 2360   1.816   3.359   0.954 -0.5491  0.0821 -0.2708
  155TCq2    C4 2361   1.927   3.280   0.959  0.2148  0.3569 -0.5984
  155TCq2    C5 2362   2.001   3.265   0.847  0.0527  0.1732 -0.8274
  155TCq2    C6 2363   1.971   3.335   0.737  0.3682  0.1486 -0.2559
  155TCq2    C7 2364   1.860   3.413   0.734 -0.0092 -0.2870 -0.6155
  155TCq2    C8 2365   2.068   3.320   0.630  0.4489  0.1796  0.2740
  155TCq2    O4 2366   2.155   3.237   0.649 -0.1780  0.0685  0.1982
  155TCq2    C9 2367   1.970   3.205   1.081  0.3255  0.7141  0.2623
  155TCq2    O5 2368   2.058   3.113   1.067  0.4898  0.6949 -0.0339
  155TCq2    O6 2369   1.888   3.210   1.177  0.2277 -0.1933  0.2152
  155TCq2    H2 2370   1.753   3.371   1.042  0.6669  2.0592  0.3290
  155TCq2    H3 2371   2.089   3.202   0.858  0.4036  0.6116 -1.0889
  155TCq2    H4 2372   1.811   3.443   0.642 -2.4585 -2.2625  0.0327
  156MPD2     C 2373   0.683   0.844  12.391  0.3952 -0.1918 -0.2234
  156MPD2    C1 2374   0.561   0.842  12.336  0.0810  0.5926  0.3302
  156MPD2    C2 2375   0.469   0.939  12.378  0.0396  0.2506  0.2592
  156MPD2    C3 2376   0.511   1.048  12.457 -0.0569 -0.1129 -0.4122
  156MPD2    C4 2377   0.648   1.056  12.482 -0.5453  0.3375 -0.4429
  156MPD2    C5 2378   0.729   0.952  12.451 -0.6048  0.3513 -0.5986
  156MPD2     H 2379   0.365   0.916  12.362 -0.3607  1.1613  1.6067
  156MPD2    H1 2380   0.692   1.137  12.538 -1.7738  1.5431 -1.2017
  156MPD2    H2 2381   0.761   0.772  12.370  1.1517  0.4604  0.3919
  156MPD2    H3 2382   0.832   0.962  12.482 -1.6357  3.1295  1.9831
  156MPD2     N 2383   0.417   1.148  12.482 -0.3754 -0.2939 -0.2451
  156MPD2    H5 2384   0.321   1.141  12.448 -0.8084 -1.3700  1.1958
  156MPD2    N1 2385   0.531   0.746  12.244  0.6334 -0.3046  0.5097
  156MPD2    H7 2386   0.609   0.683  12.227  1.5738  1.5001 -1.8350
  157TCq2    C1 2387   0.418   0.742  12.169 -0.1159  0.6752  0.3885
  157TCq2    O2 2388   0.316   0.808  12.178  0.0502  0.2489 -0.6144
  157TCq2    C2 2389   0.442   0.679  12.035 -0.4777 -0.0704  0.3435
  157TCq2    C3 2390   0.550   0.597  12.007  0.2402 -0.0831 -0.1585
  157TCq2    C4 2391   0.606   0.603  11.878 -0.0464 -0.6419  0.3911
  157TCq2    C5 2392   0.543   0.664  11.771 -0.2489 -0.6291  0.2226
  157TCq2    C6 2393   0.437   0.746  11.809  0.2523 -1.2830  0.1626
  157TCq2    C7 2394   0.377   0.743  11.936  0.0571 -0.8907  0.1758
  157TCq2    C8 2395   0.396   0.852  11.719 -0.3076 -0.4835  0.0313
  157TCq2    O4 2396   0.334   0.943  11.763  0.3816 -0.0892 -0.3364
  157TCq2    C9 2397   0.727   0.536  11.857  0.2508  0.0287  0.2472
  157TCq2    O5 2398   0.791   0.563  11.751 -0.5295  0.1056 -0.4015
  157TCq2    O6 2399   0.777   0.472  11.955  0.1309  0.2351  0.1022
  157TCq2    H2 2400   0.614   0.553  12.083  0.4327 -0.3381 -0.4696
  157TCq2    H3 2401   0.596   0.683  11.678 -0.7288  1.1992  0.3268
  157TCq2    H4 2402   0.314   0.827  11.961  1.2222  0.7512 -2.3932
  158TMC2    C1 2403   1.035   0.042  13.204 -0.4416 -0.2852  0.5457
  158TMC2    C2 2404   1.112   0.072  13.092 -0.7988  0.2286 -1.2678
  158TMC2    C3 2405   1.053   0.088  12.972  0.7745 -1.2066 -0.0080
  158TMC2    C4 2406   0.898   0.027  13.200  0.1457 -0.7109  0.1470
  158TMC2    C5 2407   0.844   0.041  13.072  0.5277 -0.0627 -0.4013
  158TMC2    C6 2408   0.923   0.068  12.964 -0.0255 -0.1208  1.3651
  158TMC2     C 2409   1.112   0.002  13.318 -0.0099  0.1120  0.2022
  158TMC2     O 2410   1.231   0.028  13.317 -0.1799  0.0450 -0.1694
  158TMC2     H 2411   1.220   0.068  13.103 -0.8573 -0.2689 -0.8774
  158TMC2    H1 2412   0.836   0.009  13.287 -2.7276 -1.3500 -2.0496
  158TMC2    H2 2413   0.876   0.060  12.867 -0.2803 -0.2979  1.5024
  158TMC2    C7 2414   0.702   0.047  13.042  0.0918 -0.2838 -0.3252
  158TMC2    C8 2415   1.126   0.091  12.844  0.2579 -0.0372  0.1693
  158TMC2    O1 2416   0.668   0.100  12.941 -0.2273  0.8699  0.1321
  158TMC2    O2 2417   1.063   0.089  12.740  0.0187  0.2653 -0.0849
  158TMC2    O5 2418   1.253   0.129  12.860  0.6175 -0.2637  0.2610
  158TMC2    H5 2419   1.278   0.159  12.949  0.3586 -2.3113  1.0389
  159MPD2     C 2420   1.170   4.546  13.804 -0.5638  0.0961  0.1338
  159MPD2    C1 2421   1.042   4.514  13.757  0.2205  0.2135 -0.2106
  159MPD2    C2 2422   1.002   4.534  13.627 -0.4058  0.2603 -0.6043
  159MPD2    C3 2423   1.090   4.610  13.544  0.2599 -0.1891  0.1828
  159MPD2    C4 2424   1.218   4.644  13.595 -0.1777  0.2077 -0.3293
  159MPD2    C5 2425   1.258   4.615  13.724 -0.8717 -0.4849 -0.5199
  159MPD2     H 2426   0.906   4.504  13.585 -0.6415 -1.1909  0.9792
  159MPD2    H1 2427   1.282   4.716  13.544  0.8526  0.4176  1.2319
  159MPD2    H2 2428   1.210   4.516  13.900  0.8252  1.4556 -0.0072
  159MPD2    H3 2429   1.361   4.636  13.749 -0.5626 -1.0932 -1.2697
  159MPD2     N 2430   1.043   4.658  13.422  0.5412 -0.4602  0.2889
  159MPD2    H5 2431   0.943   4.652  13.406  0.5091  0.3127  0.2166
  159MPD2    N1 2432   0.956   4.450  13.849 -0.2051  0.3333 -0.2761
  159MPD2    H7 2433   0.993   4.426  13.941 -0.0695 -1.7458 -0.8616
  160TMC2    C1 2434   0.684   1.825   1.125  0.0446  0.6440 -0.2080
  160TMC2    C2 2435   0.778   1.725   1.160 -0.3941  0.4820 -0.8364
  160TMC2    C3 2436   0.873   1.695   1.065  0.1712  0.7020  0.8043
  160TMC2    C4 2437   0.687   1.892   1.004  0.3039 -0.0583  0.1253
  160TMC2    C5 2438   0.801   1.864   0.935  0.5782  0.0890 -0.4259
  160TMC2    C6 2439   0.884   1.765   0.947 -0.3664 -0.3449 -0.2137
  160TMC2     C 2440   0.557   1.828   1.188  0.7678 -0.0692  0.4264
  160TMC2     O 2441   0.510   1.719   1.226 -0.3289 -0.0292  0.4910
  160TMC2     H 2442   0.754   1.655   1.240 -0.6066  0.3970 -0.9744
  160TMC2    H1 2443   0.607   1.954   0.965 -0.5135 -1.8084 -0.9645
  160TMC2    H2 2444   0.972   1.751   0.886 -0.2342 -0.1570 -0.0651
  160TMC2    C7 2445   0.836   1.957   0.831 -0.8841  0.2345  0.3022
  160TMC2    C8 2446   0.963   1.587   1.089  0.4027 -0.2418 -0.1234
  160TMC2    O1 2447   0.908   1.913   0.744  0.4690 -0.0614 -0.0541
  160TMC2    O2 2448   1.026   1.536   0.998  0.5078  0.1430 -0.1972
  160TMC2    O5 2449   1.018   1.614   1.207  0.1895  0.8982  0.1612
  160TMC2    H5 2450   0.964   1.673   1.264 -0.1922  0.1356  0.5825
  161MPD2     C 2451   0.265   1.860   1.152  0.6863 -0.1914 -0.2778
  161MPD2    C1 2452   0.350   1.964   1.188  0.4345  0.3023  0.2590
  161MPD2    C2 2453   0.303   2.094   1.212 -0.1986  0.1725 -0.1192
  161MPD2    C3 2454   0.167   2.114   1.200  0.9343  0.5510  0.5857
  161MPD2    C4 2455   0.081   2.004   1.170 -0.2790  0.2960 -0.0617
  161MPD2    C5 2456   0.130   1.881   1.154  0.2216 -0.2725  0.7198
  161MPD2     H 2457   0.369   2.177   1.234 -0.0433 -0.0676  0.3346
  161MPD2    H1 2458   4.699   2.028   1.160 -0.2690  0.7254  0.9307
  161MPD2    H2 2459   0.302   1.761   1.131 -0.0927 -0.6903  0.6577
  161MPD2    H3 2460   0.058   1.804   1.129  0.1655 -0.3815  1.2211
  161MPD2     N 2461   0.111   2.245   1.216 -0.3960  0.2189  0.1111
  161MPD2    H5 2462   0.010   2.246   1.204 -0.5047 -1.8581  0.9056
  161MPD2    N1 2463   0.493   1.948   1.189  0.2935 -0.2735  0.0738
  161MPD2    H7 2464   0.551   2.031   1.193  0.8868 -0.6376 -1.0066
  162TMC2    C1 2465   2.547   4.360   0.927 -0.6014 -0.6744  0.1177
  162TMC2    C2 2466   2.462   4.419   0.839 -0.4854  0.2087 -0.4366
  162TMC2    C3 2467   2.354   4.485   0.887  0.7992 -0.2468  0.8720
  162TMC2    C4 2468   2.539   4.378   1.059  0.0737  0.1817 -0.0712
  162TMC2    C5 2469   2.436   4.458   1.111 -0.5486  0.6047  0.7561
  162TMC2    C6 2470   2.341   4.508   1.024  0.3460  0.5315  0.3863
  162TMC2     C 2471   2.659   4.288   0.875  0.4062  0.3785 -0.3153
  162TMC2     O 2472   2.709   4.315   0.767 -0.2442  0.1509 -0.3243
  162TMC2     H 2473   2.490   4.412   0.734 -0.8155  1.2042 -0.5950
  162TMC2    H1 2474   2.606   4.329   1.128 -0.3996  1.0586  1.0229
  162TMC2    H2 2475   2.258   4.569   1.060  1.0822  2.5440 -1.3331
  162TMC2    C7 2476   2.441   4.496   1.256  0.6826 -0.1236 -0.0972
  162TMC2    C8 2477   2.287   4.565   0.795 -0.0199 -1.1202 -0.2885
  162TMC2    O1 2478   2.345   4.559   1.300 -0.5070 -0.3473  0.0562
  162TMC2    O2 2479   2.230   4.671   0.824 -0.0832 -0.7914  0.1090
  162TMC2    O5 2480   2.276   4.499   0.674  0.0365  0.0492  0.1370
  162TMC2    H5 2481   2.295   4.402   0.669  0.7848  0.1001  1.9078
  163MPD2     C 2482   3.002   3.930   0.980 -0.7955  0.5021  0.1202
  163MPD2    C1 2483   3.016   4.051   0.919 -0.1904 -0.3737  0.3396
  163MPD2    C2 2484   2.899   4.121   0.880 -0.1655 -0.7148 -0.0078
  163MPD2    C3 2485   2.780   4.089   0.950  0.2995  0.0043  0.4402
  163MPD2    C4 2486   2.770   3.973   1.034 -0.3526  0.0703 -0.0563
  163MPD2    C5 2487   2.879   3.889   1.037 -0.1030  0.0980 -0.2642
  163MPD2     H 2488   2.906   4.207   0.815  0.3069  0.1252  1.1503
  163MPD2    H1 2489   2.682   3.951   1.094 -1.0794  0.1564 -1.0994
  163MPD2    H2 2490   3.094   3.873   0.990  0.9244  2.9972 -1.4514
  163MPD2    H3 2491   2.864   3.806   1.105 -0.6164 -0.0626 -0.5756
  163MPD2     N 2492   2.672   4.174   0.949  0.3221 -0.2942 -0.3971
  163MPD2    H5 2493   2.594   4.148   1.008  0.9588 -0.2316  0.4606
  163MPD2    N1 2494   3.148   4.084   0.868 -0.1456 -0.2660  0.3054
  163MPD2    H7 2495   3.214   4.013   0.897  1.0443  0.8662  0.3685
  164TCq2    C1 2496   4.173   4.504  11.335  0.7907 -0.2248 -0.1902
  164TCq2    O2 2497   4.125   4.465  11.440  0.1525  0.0342  0.1519
  164TCq2    C2 2498   4.148   4.639  11.291  0.2781 -0.5231  0.4731
  164TCq2    C3 2499   4.235   4.703  11.205  0.0452 -0.1097 -0.1199
  164TCq2    C4 2500   4.225   0.113  11.185 -0.0530 -0.0885  0.0983
  164TCq2    C5 2501   4.119   0.186  11.235 -0.6322 -0.7633 -0.4873
  164TCq2    C6 2502   4.033   0.119  11.315 -0.1065  0.0915 -0.4981
  164TCq2    C7 2503   4.043   4.710  11.347 -0.2104  0.3755  0.2109
  164TCq2    C8 2504   3.903   0.179  11.331  0.2110 -1.0318 -0.1366
  164TCq2    O4 2505   3.885   0.278  11.263 -0.1564 -0.0425  0.5472
  164TCq2    C9 2506   4.330   0.178  11.110 -0.6390  0.9018 -0.2359
  164TCq2    O5 2507   4.436   0.110  11.097 -0.1071 -0.1203  0.1833
  164TCq2    O6 2508   4.291   0.266  11.028  0.1997  0.2677 -0.8536
  164TCq2    H2 2509   4.325   4.652  11.174 -0.8509 -0.8296 -1.5363
  164TCq2    H3 2510   4.109   0.288  11.198  0.8261  0.0855  1.4373
  164TCq2    H4 2511   3.967   4.658  11.405 -0.4251 -0.5320 -0.8796
  165MPD2     C 2512   4.189   2.398   1.192  0.0393 -0.3712  0.0489
  165MPD2    C1 2513   4.306   2.340   1.235  0.1101 -0.0672 -0.1471
  165MPD2    C2 2514   4.394   2.413   1.316  0.4232 -0.1160 -0.4250
  165MPD2    C3 2515   4.357   2.544   1.358 -0.0630  0.6166  0.0173
  165MPD2    C4 2516   4.240   2.597   1.311  0.3036 -0.0539  0.1107
  165MPD2    C5 2517   4.157   2.524   1.229 -0.1767 -0.2211 -0.4497
  165MPD2     H 2518   4.482   2.363   1.354 -0.3178 -0.1915  1.1738
  165MPD2    H1 2519   4.202   2.695   1.335  0.1999 -0.2916  0.9077
  165MPD2    H2 2520   4.106   2.344   1.147  1.6598 -2.4976 -0.4097
  165MPD2    H3 2521   4.070   2.573   1.188 -0.2969  0.7187  0.9110
  165MPD2     N 2522   4.439   2.612   1.454 -0.3213  0.5005 -1.1788
  165MPD2    H5 2523   4.399   2.695   1.495  1.4003  0.3638  0.7850
  165MPD2    N1 2524   4.326   2.203   1.199  0.2898  0.1470 -0.5617
  165MPD2    H7 2525   4.247   2.154   1.158  0.2696 -0.2350 -0.0649
  166TCq2    C1 2526   4.554   2.568   1.512  0.0742 -0.0460  0.2022
  166TCq2    O2 2527   4.608   2.459   1.503  0.1357 -0.4706  0.0927
  166TCq2    C2 2528   4.627   2.666   1.598  0.0922  0.0062 -0.1370
  166TCq2    C3 2529   4.570   2.791   1.605 -0.0676  1.0530 -0.5260
  166TCq2    C4 2530   4.642   2.889   1.679  1.3565 -0.3259 -0.1343
  166TCq2    C5 2531   0.045   2.862   1.731 -0.0983 -0.1820  0.9877
  166TCq2    C6 2532   0.096   2.735   1.704  0.1441  0.2971  0.8234
  166TCq2    C7 2533   0.028   2.630   1.645  0.3742  0.1816  0.2695
  166TCq2    C8 2534   0.237   2.699   1.733  0.7525  0.0953  0.1396
  166TCq2    O4 2535   0.271   2.589   1.697 -0.6929  0.1152 -0.4014
  166TCq2    C9 2536   4.587   3.022   1.689  0.7663  0.8513  0.2797
  166TCq2    O5 2537   4.489   3.053   1.612  0.0628 -0.2275 -0.2367
  166TCq2    O6 2538   4.628   3.089   1.789 -0.3569 -0.3048 -0.3492
  166TCq2    H2 2539   4.477   2.823   1.560 -1.6611 -1.4273  0.9712
  166TCq2    H3 2540   0.086   2.921   1.813 -0.1872 -0.4517  1.2280
  166TCq2    H4 2541   0.065   2.528   1.640  0.2768  0.3036 -2.8907
  167TMC2    C1 2542   3.118   4.593  12.933 -0.3218 -0.6118  0.1309
  167TMC2    C2 2543   3.044   4.642  13.037 -0.1287  0.3698  0.1977
  167TMC2    C3 2544   2.986   4.547  13.121  0.3313  0.4985 -0.8371
  167TMC2    C4 2545   3.133   4.459  12.910 -0.5974 -0.4588  0.3734
  167TMC2    C5 2546   3.074   4.372  12.998  0.3081  0.1158 -0.6571
  167TMC2    C6 2547   3.000   4.417  13.107  0.8960 -0.7125 -0.0055
  167TMC2     C 2548   3.169   4.688  12.836 -0.4647  0.2880 -0.0149
  167TMC2     O 2549   3.162   0.088  12.847  0.6445 -0.0219  0.1247
  167TMC2     H 2550   3.025   0.026  13.032 -0.9452  0.1783 -0.8715
  167TMC2    H1 2551   3.209   4.415  12.846  1.4046  1.0948  1.6614
  167TMC2    H2 2552   2.937   4.348  13.163  0.7241  0.1184  0.8250
  167TMC2    C7 2553   3.067   4.228  12.972 -0.0455 -0.3434  0.6939
  167TMC2    C8 2554   2.882   4.592  13.220  0.0012 -0.0065  0.4835
  167TMC2    O1 2555   2.979   4.167  13.026 -0.0803  0.1086 -0.8240
  167TMC2    O2 2556   2.799   4.507  13.250  0.1811 -0.5057  0.0151
  167TMC2    O5 2557   2.861   0.005  13.216  0.0403  0.0215 -0.0147
  167TMC2    H5 2558   2.947   0.052  13.216  0.5278 -0.8503  0.1910
  168MPD2     C 2559   3.312   0.100  12.603 -0.5659  0.0166  0.0880
  168MPD2    C1 2560   3.263   4.690  12.609  0.0705 -0.7208  0.5426
  168MPD2    C2 2561   3.252   4.619  12.490  0.0148  0.5998  0.2883
  168MPD2    C3 2562   3.290   4.671  12.372  0.0514  0.6910  1.1146
  168MPD2    C4 2563   3.332   0.078  12.367  0.1432  0.1622  0.3698
  168MPD2    C5 2564   3.345   0.152  12.485  0.2909 -0.2124  0.4428
  168MPD2     H 2565   3.212   4.519  12.492 -0.6797  0.8740 -0.2069
  168MPD2    H1 2566   3.373   0.116  12.274 -0.3607 -0.3738 -0.0786
  168MPD2    H2 2567   3.311   0.164  12.690  0.4443  1.3864 -0.9024
  168MPD2    H3 2568   3.393   0.249  12.480 -2.1839  1.0236  0.7764
  168MPD2     N 2569   3.266   4.587  12.265 -0.3666 -0.8795 -0.2927
  168MPD2    H5 2570   3.234   4.492  12.285 -1.4116 -0.7449 -1.3491
  168MPD2    N1 2571   3.205   4.627  12.719 -0.7340  0.0258  0.0328
  168MPD2    H7 2572   3.172   4.530  12.719  2.7368 -1.1478  2.7811
  169MPD1     C 2573   0.567   3.270  10.298  0.2636  0.3109 -0.1703
  169MPD1    C1 2574   0.614   3.167  10.216 -0.0953 -0.2617 -0.8618
  169MPD1    C2 2575   0.739   3.179  10.158 -0.0303 -0.0605  0.2927
  169MPD1    C3 2576   0.813   3.294  10.166 -0.5573  0.1144  0.3199
  169MPD1    C4 2577   0.764   3.391  10.255  0.1502 -0.2753 -0.0312
  169MPD1    C5 2578   0.638   3.381  10.302 -0.1754  0.3109 -0.4218
  169MPD1     H 2579   0.789   3.094  10.113 -1.3782 -1.5149  1.5544
  169MPD1    H1 2580   0.811   3.487  10.270  0.0827 -0.1749 -0.4655
  169MPD1    H2 2581   0.470   3.280  10.346  1.4724  1.9797  1.9128
  169MPD1    H3 2582   0.589   3.454  10.365  1.1662  2.1283 -1.4712
  169MPD1     N 2583   0.940   3.303  10.098 -0.2564  0.1892 -0.7248
  169MPD1    H5 2584   0.969   3.230  10.035  1.4042  0.6301 -0.4666
  169MPD1    N1 2585   0.547   3.039  10.228 -0.0498  0.3932  0.0716
  169MPD1    H6 2586   0.560   2.982  10.145 -0.7211  1.2112 -0.6033
  169MPD1    H7 2587   0.446   3.050  10.241  0.1605  2.6939 -0.1187
  170MPD1     C 2588   3.421   1.856  12.809  0.8389  0.0763 -0.2568
  170MPD1    C1 2589   3.438   1.985  12.833  0.2441  0.5076 -0.1983
  170MPD1    C2 2590   3.499   2.025  12.958  0.7830 -0.0045  0.3128
  170MPD1    C3 2591   3.545   1.934  13.050  0.8757  0.1269 -0.3108
  170MPD1    C4 2592   3.537   1.794  13.013 -0.6708  0.7237 -0.1512
  170MPD1    C5 2593   3.477   1.762  12.896  0.4319 -0.1888 -0.7453
  170MPD1     H 2594   3.486   2.130  12.982  0.8833 -0.5607  2.8421
  170MPD1    H1 2595   3.579   1.717  13.077 -1.6422  1.6159  1.5192
  170MPD1    H2 2596   3.342   1.829  12.739 -1.1752 -1.6667  2.6658
  170MPD1    H3 2597   3.472   1.658  12.865  1.0217 -0.7963  1.2074
  170MPD1     N 2598   3.602   1.978  13.172  0.1279  0.2160  0.6311
  170MPD1    H5 2599   3.603   2.078  13.191 -0.5829 -0.0166  1.9630
  170MPD1    N1 2600   3.388   2.082  12.751 -0.3150 -0.0147 -0.3246
  170MPD1    H6 2601   3.427   2.059  12.660  2.2491 -0.3597  0.8553
  170MPD1    H7 2602   3.420   2.173  12.784  1.8209 -0.8815  0.0095
  171MPD1     C 2603   3.111   3.054  15.530 -0.1667 -0.4223  0.5790
  171MPD1    C1 2604   3.017   2.987  15.454  0.4451  0.1738  0.5422
  171MPD1    C2 2605   2.980   2.861  15.499 -0.5101  0.4358  0.5392
  171MPD1    C3 2606   3.066   2.790  15.583  1.0997 -0.0629  0.4195
  171MPD1    C4 2607   3.170   2.851  15.646  0.7533 -0.2297 -0.5809
  171MPD1    C5 2608   3.181   2.990  15.627  0.5502 -0.1602  0.4584
  171MPD1     H 2609   2.885   2.828  15.459 -1.4585  1.1112  2.2499
  171MPD1    H1 2610   3.241   2.806  15.714 -0.7400 -4.0945 -1.5301
  171MPD1    H2 2611   3.122   3.161  15.520  2.5065 -0.7004  0.5682
  171MPD1    H3 2612   3.252   3.042  15.690 -0.5907 -0.2903  1.8632
  171MPD1     N 2613   3.056   2.654  15.618  0.1652 -0.3971 -0.7041
  171MPD1    H5 2614   3.116   2.621  15.693  1.0926  0.8200 -0.9016
  171MPD1    N1 2615   2.941   3.056  15.371 -0.5498 -0.2689 -0.0245
  171MPD1    H6 2616   2.911   2.993  15.297  0.1654  2.8921 -3.0193
  171MPD1    H7 2617   2.998   3.123  15.318 -1.4390  2.7021  2.7908
  172MPD1     C 2618   1.552   2.286   0.079 -0.4532  0.4730  0.4438
  172MPD1    C1 2619   1.677   2.231   0.085 -0.4178 -0.0125 -0.8050
  172MPD1    C2 2620   1.753   2.257   0.197 -0.1544  0.1277  0.1802
  172MPD1    C3 2621   1.707   2.344   0.294  0.4078  0.0507  0.1705
  172MPD1    C4 2622   1.577   2.386   0.287 -0.4577 -0.5216  0.7997
  172MPD1    C5 2623   1.499   2.363   0.179 -0.6334  0.0996 -0.3855
  172MPD1     H 2624   1.858   2.228   0.197  0.0095  0.7107  2.2118
  172MPD1    H1 2625   1.554   2.459   0.364  0.6963  1.4139 -0.6940
  172MPD1    H2 2626   1.493   2.264  17.682  1.5616 -0.5745 -0.6167
  172MPD1    H3 2627   1.398   2.403   0.176  0.0618  1.9671  0.9691
  172MPD1     N 2628   1.791   2.396   0.402 -0.0567  0.1754  0.4383
  172MPD1    H5 2629   1.750   2.463   0.466 -1.5458 -0.8193  0.5344
  172MPD1    N1 2630   1.719   2.184  17.646 -0.2900  0.2392  0.2585
  172MPD1    H6 2631   1.645   2.146  17.588 -1.1702  0.2898  1.3536
  172MPD1    H7 2632   1.783   2.107  17.667  0.4959  0.7333 -0.3469
  173MPD1     C 2633   3.063   2.267  14.429  0.3604 -0.7835  0.1123
  173MPD1    C1 2634   3.164   2.182  14.393 -0.4244  0.1692 -0.0888
  173MPD1    C2 2635   3.159   2.047  14.438  1.0222 -0.4977 -0.3196
  173MPD1    C3 2636   3.057   2.005  14.515  0.5404 -0.3619  0.1288
  173MPD1    C4 2637   2.952   2.092  14.540  0.0042  0.0619 -0.2936
  173MPD1    C5 2638   2.957   2.221  14.495 -0.9915  0.1538  0.1237
  173MPD1     H 2639   3.243   1.981  14.420  0.3554 -1.2273 -0.7645
  173MPD1    H1 2640   2.861   2.064  14.592 -0.2423 -0.3661 -0.9559
  173MPD1    H2 2641   3.055   2.366  14.387 -0.6931 -0.1704  1.7682
  173MPD1    H3 2642   2.873   2.289  14.503 -2.1205 -1.3590  1.1143
  173MPD1     N 2643   3.053   1.865  14.554  0.3433  0.0502 -0.1336
  173MPD1    H5 2644   3.132   1.813  14.517 -0.0821 -1.1281  0.6008
  173MPD1    N1 2645   3.284   2.234  14.337  0.2442 -0.2164  0.1317
  173MPD1    H6 2646   3.334   2.160  14.288 -0.1723  0.1483 -0.8398
  173MPD1    H7 2647   3.268   2.305  14.267 -1.9265 -1.1110 -0.2912
  174MPD1     C 2648   3.209   1.362  13.934  0.4541 -0.6101  0.2455
  174MPD1    C1 2649   3.133   1.265  14.007 -0.2726  0.3063 -0.2497
  174MPD1    C2 2650   3.083   1.306  14.130  0.1932  0.6565  0.0594
  174MPD1    C3 2651   3.103   1.428  14.185 -1.1926 -0.2255 -0.5791
  174MPD1    C4 2652   3.164   1.522  14.109 -0.4700  0.3473 -0.7053
  174MPD1    C5 2653   3.215   1.487  13.988 -0.8240 -0.7246  0.0906
  174MPD1     H 2654   3.027   1.233  14.187 -0.3740  1.3799  0.4324
  174MPD1    H1 2655   3.178   1.623  14.144  2.7897 -0.0788 -0.7763
  174MPD1    H2 2656   3.259   1.338  13.840  2.4946  0.2370  1.1103
  174MPD1    H3 2657   3.274   1.567  13.945  1.9216 -0.8404  3.5960
  174MPD1     N 2658   3.051   1.464  14.313 -0.3781 -0.0727  0.0174
  174MPD1    H5 2659   3.073   1.554  14.353  3.6011 -1.8838  1.9566
  174MPD1    N1 2660   3.120   1.129  13.968  0.1622 -0.2242  0.5041
  174MPD1    H6 2661   3.144   1.126  13.869 -1.7751 -0.7062  0.0432
  174MPD1    H7 2662   3.030   1.086  13.991 -0.0173  1.5002  3.0334
  175MPD1     C 2663   1.493   2.818  15.661 -0.2609 -0.9640  0.7168
  175MPD1    C1 2664   1.533   2.701  15.720  0.2860  0.7682  0.1349
  175MPD1    C2 2665   1.542   2.697  15.860  0.0652 -0.6326  0.0186
  175MPD1    C3 2666   1.479   2.799  15.931  0.5209  0.8919  0.0676
  175MPD1    C4 2667   1.427   2.908  15.863  0.4070 -0.0236  0.3293
  175MPD1    C5 2668   1.433   2.912  15.729  0.2613  0.6158  0.1657
  175MPD1     H 2669   1.595   2.612  15.902 -0.3606 -0.9895 -0.1594
  175MPD1    H1 2670   1.379   2.990  15.915  2.0290 -0.3483  2.3445
  175MPD1    H2 2671   1.502   2.822  15.553 -1.8799 -0.1686  0.6108
  175MPD1    H3 2672   1.392   2.996  15.674  0.0956  0.2936 -0.2079
  175MPD1     N 2673   1.477   2.799  16.075  0.4049 -0.3702  0.6679
  175MPD1    H5 2674   1.410   2.861  16.119  0.9979 -0.1505  1.2795
  175MPD1    N1 2675   1.606   2.603  15.653 -0.2538 -0.1712  0.0831
  175MPD1    H6 2676   1.574   2.596  15.557  2.5999  2.4861 -1.0550
  175MPD1    H7 2677   1.610   2.507  15.687 -2.1452  0.3916  1.8954
  176MPD1     C 2678   3.550   3.829  16.238 -0.1043 -0.1398  0.7317
  176MPD1    C1 2679   3.441   3.894  16.190 -0.5884 -0.7065 -0.2249
  176MPD1    C2 2680   3.388   3.995  16.267 -0.2131 -0.8434 -0.5628
  176MPD1    C3 2681   3.449   4.044  16.385 -0.4606  0.7725  0.3619
  176MPD1    C4 2682   3.552   3.968  16.435 -1.0445 -0.2786 -0.3565
  176MPD1    C5 2683   3.602   3.862  16.362 -0.4382 -0.9488 -0.4368
  176MPD1     H 2684   3.303   4.055  16.236 -0.1094 -1.0062 -1.1622
  176MPD1    H1 2685   3.602   3.986  16.530 -2.2167 -0.0813  0.2357
  176MPD1    H2 2686   3.601   3.748  16.186 -0.2509 -0.2867  0.8145
  176MPD1    H3 2687   3.686   3.809  16.406  0.7088  2.7396  1.7972
  176MPD1     N 2688   3.402   4.156  16.451 -0.4263 -0.2214 -0.3536
  176MPD1    H5 2689   3.324   4.203  16.406 -0.5755 -0.4347 -0.3161
  176MPD1    N1 2690   3.377   3.849  16.067 -0.2881 -0.2460  0.5086
  176MPD1    H6 2691   3.342   3.927  16.011  1.5531  0.9518  1.0535
  176MPD1    H7 2692   3.453   3.802  16.018 -1.0699 -1.7360  0.7311
  177MPD1     C 2693   2.632   0.233  10.243  0.4065 -1.0047 -0.0426
  177MPD1    C1 2694   2.593   0.137  10.148  0.0984 -0.2111  0.1701
  177MPD1    C2 2695   2.472   0.168  10.093 -0.2127  0.5901 -0.3232
  177MPD1    C3 2696   2.400   0.284  10.109  0.3362  0.3944 -0.7208
  177MPD1    C4 2697   2.450   0.377  10.198 -0.6109  0.4380 -0.6283
  177MPD1    C5 2698   2.560   0.350  10.270 -0.2502  0.1462 -0.7781
  177MPD1     H 2699   2.432   0.091  10.028 -1.1825 -0.0336  1.0226
  177MPD1    H1 2700   2.399   0.471  10.215 -1.8563 -0.1426 -1.1565
  177MPD1    H2 2701   2.725   0.223  10.298 -0.0729 -1.3242  0.7118
  177MPD1    H3 2702   2.589   0.416  10.350  0.2655 -0.6588 -0.3073
  177MPD1     N 2703   2.277   0.294  10.039 -0.0905 -0.5488 -0.4493
  177MPD1    H5 2704   2.260   0.220   9.972 -2.3636 -0.2650 -0.1904
  177MPD1    N1 2705   2.656   0.016  10.141  0.5071  0.1172  0.1386
  177MPD1    H6 2706   2.755   0.021  10.165  0.0482  0.6229  1.9170
  177MPD1    H7 2707   2.650   4.694  10.049  0.0462  0.6546 -0.0889
  178MPD1     C 2708   3.651   1.406   0.328 -0.2652  0.3661  0.3503
  178MPD1    C1 2709   3.776   1.437   0.281  0.2582  0.2938  0.3360
  178MPD1    C2 2710   3.857   1.355   0.203 -0.2512 -0.0322  0.0048
  178MPD1    C3 2711   3.805   1.238   0.163  0.1089 -0.5939  0.1915
  178MPD1    C4 2712   3.673   1.209   0.193  0.8550  0.0494 -0.6943
  178MPD1    C5 2713   3.600   1.295   0.269 -0.1177  0.3389 -0.4957
  178MPD1     H 2714   3.953   1.389   0.167  0.8322 -1.6565  1.3736
  178MPD1    H1 2715   3.622   1.120   0.157  1.1761  0.3573 -1.9004
  178MPD1    H2 2716   3.590   1.481   0.378  1.2876  2.0174 -0.2397
  178MPD1    H3 2717   3.494   1.275   0.285 -0.7377  4.2157  0.2865
  178MPD1     N 2718   3.879   1.135   0.101 -0.5279  0.4776  0.1398
  178MPD1    H5 2719   3.831   1.050   0.073  1.2549 -0.2388 -0.7597
  178MPD1    N1 2720   3.838   1.561   0.319 -0.7670 -0.3497  0.6424
  178MPD1    H6 2721   3.760   1.625   0.331 -0.2554  0.2080  0.9725
  178MPD1    H7 2722   3.894   1.603   0.245  1.5861 -0.8590  2.1253
  179MPD1     C 2723   4.052   3.817  15.801 -0.1555 -0.6607  0.0079
  179MPD1    C1 2724   4.071   3.683  15.782 -0.3722  0.1563  0.5344
  179MPD1    C2 2725   3.969   3.595  15.815  0.9413  0.7386  0.0732
  179MPD1    C3 2726   3.839   3.641  15.840  0.2051 -1.0218 -0.4275
  179MPD1    C4 2727   3.824   3.775  15.848  0.5768  0.9415 -0.0210
  179MPD1    C5 2728   3.926   3.862  15.823  0.9258 -0.3661  0.0810
  179MPD1     H 2729   3.993   3.489  15.809 -3.7461 -0.2713 -0.9173
  179MPD1    H1 2730   3.729   3.819  15.876  0.6081 -0.1065  1.6926
  179MPD1    H2 2731   4.136   3.885  15.797  0.8124 -1.7886  1.1113
  179MPD1    H3 2732   3.903   3.968  15.830 -0.1195 -0.5324 -0.7972
  179MPD1     N 2733   3.741   3.550  15.865  0.5944  0.5803  0.0429
  179MPD1    H5 2734   3.769   3.456  15.889 -1.5903 -0.0063  0.3182
  179MPD1    N1 2735   4.202   3.628  15.764  0.4823 -0.1625  0.1814
  179MPD1    H6 2736   4.194   3.540  15.713  2.5013 -0.2070 -0.0662
  179MPD1    H7 2737   4.264   3.678  15.701 -0.0215 -2.1530 -1.9016
  180MPD1     C 2738   0.304   0.271  14.263 -0.0482 -0.8957 -0.4533
  180MPD1    C1 2739   0.219   0.230  14.166 -0.1028  0.8111 -0.0794
  180MPD1    C2 2740   0.085   0.263  14.180 -0.1089 -0.0752  0.1489
  180MPD1    C3 2741   0.039   0.345  14.277 -0.2261 -0.5767 -0.3961
  180MPD1    C4 2742   0.124   0.400  14.365  0.7059  0.3361 -0.0384
  180MPD1    C5 2743   0.256   0.370  14.349 -0.4467  0.2238 -0.4201
  180MPD1     H 2744   0.021   0.216  14.106 -1.3103  0.3019  0.9448
  180MPD1    H1 2745   0.097   0.469  14.445  0.1394  2.6008 -2.2009
  180MPD1    H2 2746   0.407   0.239  14.257  0.0774 -0.5789  0.0484
  180MPD1    H3 2747   0.320   0.415  14.424  0.7035  2.2386 -2.6564
  180MPD1     N 2748   4.624   0.366  14.279  0.4117  0.4131 -0.4392
  180MPD1    H5 2749   4.574   0.314  14.208  1.6294 -0.0326 -0.9679
  180MPD1    N1 2750   0.256   0.130  14.077 -0.4820 -0.2195 -0.1829
  180MPD1    H6 2751   0.354   0.135  14.050  0.0977  1.9446  2.2990
  180MPD1    H7 2752   0.198   0.120  13.994 -0.3650 -0.5320 -0.2267
  181MPD1     C 2753   0.373   2.675  10.601 -0.0185 -0.4088  0.0591
  181MPD1    C1 2754   0.416   2.562  10.540  0.7931  0.0258  0.0938
  181MPD1    C2 2755   0.530   2.563  10.464 -0.3731  0.8027  0.0237
  181MPD1    C3 2756   0.594   2.678  10.434  0.0066 -0.5549 -0.4295
  181MPD1    C4 2757   0.540   2.790  10.489  0.0929 -0.7044  0.0936
  181MPD1    C5 2758   0.432   2.791  10.572 -0.3319 -0.3226 -0.1594
  181MPD1     H 2759   0.566   2.467  10.430 -0.4429  0.7307  0.1532
  181MPD1    H1 2760   0.583   2.889  10.477  0.1894 -1.0966 -2.8925
  181MPD1    H2 2761   0.283   2.673  10.662  1.0616 -1.5197  1.6240
  181MPD1    H3 2762   0.406   2.886  10.617 -1.4801 -2.5621  3.8902
  181MPD1     N 2763   0.723   2.694  10.380 -0.2033 -0.3835 -0.0779
  181MPD1    H5 2764   0.759   2.788  10.371  2.1435 -1.1189  1.6920
  181MPD1    N1 2765   0.353   2.444  10.579  0.1433  0.7081 -0.4184
  181MPD1    H6 2766   0.384   2.365  10.523  0.3737  0.8205 -0.4510
  181MPD1    H7 2767   0.254   2.446  10.603  0.0603 -1.2896 -0.5886
  182MPD1     C 2768   2.376   0.761   0.716 -0.2782 -0.5597  1.3549
  182MPD1    C1 2769   2.416   0.800   0.839  0.2950 -0.0539 -0.5749
  182MPD1    C2 2770   2.340   0.878   0.926  0.2226  0.8147 -0.1310
  182MPD1    C3 2771   2.212   0.907   0.880  0.2717 -0.5659  0.3811
  182MPD1    C4 2772   2.165   0.857   0.763  0.3608  0.1076 -0.1470
  182MPD1    C5 2773   2.241   0.785   0.675 -0.2689  0.0495 -0.0322
  182MPD1     H 2774   2.383   0.896   1.024 -0.3326  1.6442 -0.0396
  182MPD1    H1 2775   2.068   0.891   0.729  0.2542 -1.1883 -1.1183
  182MPD1    H2 2776   2.442   0.713   0.645 -2.3915  0.5769 -1.3713
  182MPD1    H3 2777   2.217   0.765   0.571 -0.8403 -0.8417  0.2724
  182MPD1     N 2778   2.123   0.981   0.955 -0.1161 -0.7100 -0.2542
  182MPD1    H5 2779   2.030   1.000   0.917 -1.1188 -0.9155  2.1299
  182MPD1    N1 2780   2.545   0.769   0.878  0.0289  0.1005  0.6803
  182MPD1    H6 2781   2.553   0.789   0.977 -0.8119  1.9870  0.3869
  182MPD1    H7 2782   2.572   0.675   0.852 -1.2458 -0.1093  0.0881
  183MPD1     C 2783   2.792   2.667   9.352 -0.2936 -0.8227  0.0938
  183MPD1    C1 2784   2.778   2.532   9.347 -0.7770  0.8416 -0.8425
  183MPD1    C2 2785   2.648   2.484   9.350 -0.0042 -0.3143 -0.5947
  183MPD1    C3 2786   2.540   2.562   9.307 -0.1965  0.0307 -0.3012
  183MPD1    C4 2787   2.571   2.695   9.280  0.3174  0.2821  0.6449
  183MPD1    C5 2788   2.693   2.745   9.314  0.1768 -0.0263 -0.1653
  183MPD1     H 2789   2.633   2.378   9.368  1.6663 -0.7660 -1.8504
  183MPD1    H1 2790   2.492   2.765   9.255  0.0201 -0.5515 -0.7782
  183MPD1    H2 2791   2.888   2.715   9.365 -0.5895 -0.2367  0.1240
  183MPD1    H3 2792   2.706   2.853   9.313  2.5778 -0.2914  1.1000
  183MPD1     N 2793   2.410   2.508   9.309 -1.3368 -0.0732 -0.2708
  183MPD1    H5 2794   2.394   2.420   9.357  0.2821  0.1597  0.6925
  183MPD1    N1 2795   2.884   2.453   9.402 -0.3829 -0.4653 -0.1569
  183MPD1    H6 2796   2.978   2.485   9.381 -0.2590 -1.0203 -0.4345
  183MPD1    H7 2797   2.883   2.353   9.386 -1.5733 -0.2457 -1.3967
  184MPD1     C 2798   0.934   4.201  10.067 -0.6896 -0.1651  0.3915
  184MPD1    C1 2799   0.974   4.319  10.129 -0.5070 -0.4053  0.1144
  184MPD1    C2 2800   1.059   4.398  10.053 -0.6532  0.0758 -0.8177
  184MPD1    C3 2801   1.093   4.368   9.923  0.0354  0.3122  0.6328
  184MPD1    C4 2802   1.053   4.247   9.865 -0.2754  0.2431  0.4517
  184MPD1    C5 2803   0.981   4.161   9.939  0.0934 -0.3278 -0.5338
  184MPD1     H 2804   1.097   4.487  10.102  0.5394 -2.0252  2.0504
  184MPD1    H1 2805   1.073   4.222   9.762  2.8453 -0.3112  1.1938
  184MPD1    H2 2806   0.871   4.133  10.123  0.2772 -0.0447  1.6239
  184MPD1    H3 2807   0.944   4.067   9.901  2.6541 -1.6020  0.1331
  184MPD1     N 2808   1.184   4.451   9.847 -0.1883 -0.3768  0.1692
  184MPD1    H5 2809   1.191   4.427   9.748  1.0741  2.3043 -0.4041
  184MPD1    N1 2810   0.954   4.343  10.264  0.1892 -0.6421 -0.5275
  184MPD1    H6 2811   0.951   4.443  10.282  3.3457 -0.3977 -1.3814
  184MPD1    H7 2812   0.870   4.300  10.300 -0.1485  1.0263  0.6824
  185MPD1     C 2813   1.353   4.701   8.925 -0.4736 -0.7149 -0.2626
  185MPD1    C1 2814   1.247   4.648   9.000 -0.3355  0.1860  0.3451
  185MPD1    C2 2815   1.231   4.680   9.139  0.4388 -0.4568 -0.2045
  185MPD1    C3 2816   1.330   0.026   9.202  0.6807  0.4319  0.0223
  185MPD1    C4 2817   1.431   0.088   9.126  0.4536  0.8311  0.5873
  185MPD1    C5 2818   1.430   0.064   8.991  0.4810  0.2209  0.3058
  185MPD1     H 2819   1.146   4.639   9.193  1.5787 -0.3216  1.6831
  185MPD1    H1 2820   1.502   0.162   9.163  1.2048 -0.1869  1.1969
  185MPD1    H2 2821   1.371   4.677   8.821 -1.8234  0.6956 -0.8220
  185MPD1    H3 2822   1.515   0.096   8.932  0.1733  0.6388  0.0943
  185MPD1     N 2823   1.319   0.056   9.333  0.4097  0.8069 -0.1190
  185MPD1    H5 2824   1.388   0.118   9.375  0.9288  0.5170 -0.5528
  185MPD1    N1 2825   1.176   4.539   8.944 -0.3519 -0.3717 -0.2232
  185MPD1    H6 2826   1.180   4.539   8.843  0.8247 -3.1219 -0.1981
  185MPD1    H7 2827   1.082   4.531   8.983  1.0405  2.1986  3.6596
  186MPD1     C 2828   3.468   4.216  15.874  0.2974 -0.6122 -0.2199
  186MPD1    C1 2829   3.594   4.178  15.836  0.5172 -0.6368  0.3119
  186MPD1    C2 2830   3.703   4.178  15.931  0.3566  0.7087 -0.5355
  186MPD1    C3 2831   3.669   4.208  16.063 -0.9501  0.1167  0.6497
  186MPD1    C4 2832   3.543   4.257  16.088  0.2135  0.1888 -0.3754
  186MPD1    C5 2833   3.446   4.259  15.994  0.1734  0.1786  0.2932
  186MPD1     H 2834   3.800   4.136  15.906 -0.7222 -2.1799  0.2236
  186MPD1    H1 2835   3.519   4.293  16.187 -0.1277 -1.0116 -0.0243
  186MPD1    H2 2836   3.382   4.223  15.808  0.8120  0.5633 -0.7807
  186MPD1    H3 2837   3.352   4.300  16.028 -0.9495 -0.0075 -2.6414
  186MPD1     N 2838   3.752   4.188  16.169  0.0839  0.3330  0.6009
  186MPD1    H5 2839   3.726   4.219  16.262 -1.5456  0.5921  0.0456
  186MPD1    N1 2840   3.601   4.124  15.705 -0.5038 -0.0209 -0.2637
  186MPD1    H6 2841   3.545   4.174  15.636  0.7463  0.4751 -0.9188
  186MPD1    H7 2842   3.699   4.123  15.681 -0.3739  1.8791  0.1926
  187MPD1     C 2843   2.595   0.525   0.257 -0.3960  0.4417  0.6052
  187MPD1    C1 2844   2.554   0.657   0.273 -0.0231 -1.3478 -0.6065
  187MPD1    C2 2845   2.610   0.753   0.184  0.1938 -0.5414 -0.9366
  187MPD1    C3 2846   2.695   0.718   0.076  0.5686  0.0655  0.3330
  187MPD1    C4 2847   2.721   0.584   0.058 -0.3494 -0.0958  0.3177
  187MPD1    C5 2848   2.670   0.492   0.145  0.0523  0.2344  0.7032
  187MPD1     H 2849   2.581   0.856   0.204 -1.9579 -1.0684 -1.3217
  187MPD1    H1 2850   2.785   0.557  17.666 -2.2680  0.2102 -1.2315
  187MPD1    H2 2851   2.558   0.439   0.312 -1.1790  0.8342  0.6860
  187MPD1    H3 2852   2.699   0.389   0.133  0.7883  0.2318  2.3990
  187MPD1     N 2853   2.740   0.813  17.675 -0.3054  0.1453  0.0480
  187MPD1    H5 2854   2.777   0.776  17.589 -1.7091  2.4124 -1.5383
  187MPD1    N1 2855   2.492   0.693   0.390  0.4383 -0.0674  0.4294
  187MPD1    H6 2856   2.434   0.622   0.435  0.4809 -0.4601 -0.1467
  187MPD1    H7 2857   2.443   0.782   0.395  0.2582 -0.2026  1.0920
  188MPD1     C 2858   2.645   2.041   9.625 -0.4697 -0.1456 -0.2839
  188MPD1    C1 2859   2.747   1.995   9.705  0.1962 -0.6096 -0.3851
  188MPD1    C2 2860   2.754   1.861   9.731  0.4076 -0.5224  0.0444
  188MPD1    C3 2861   2.668   1.771   9.672 -0.1825 -0.6339 -0.7191
  188MPD1    C4 2862   2.574   1.816   9.584  0.5072 -0.4838 -0.5348
  188MPD1    C5 2863   2.578   1.950   9.550 -0.2050 -0.1420 -0.2579
  188MPD1     H 2864   2.837   1.834   9.795 -1.2039  1.5075  2.9775
  188MPD1    H1 2865   2.520   1.740   9.527 -1.5620 -0.1344  0.9342
  188MPD1    H2 2866   2.630   2.146   9.602 -0.4510 -0.1983 -0.5316
  188MPD1    H3 2867   2.501   1.986   9.483 -0.4270 -1.8639 -0.9488
  188MPD1     N 2868   2.665   1.635   9.704 -0.1508 -0.0570 -0.2550
  188MPD1    H5 2869   2.594   1.571   9.668 -1.5394  1.1164  0.4353
  188MPD1    N1 2870   2.824   2.085   9.769 -0.1734  0.1414 -0.6399
  188MPD1    H6 2871   2.806   2.079   9.869  0.3252  1.1660 -0.4908
  188MPD1    H7 2872   2.793   2.177   9.739 -1.7943  0.4136  1.8678
  189MPD1     C 2873   4.643   1.504   0.475 -0.0534 -0.2758  0.1661
  189MPD1    C1 2874   4.521   1.460   0.430 -0.2738 -0.1293  0.3604
  189MPD1    C2 2875   4.427   1.555   0.393  0.9402 -0.5341  0.2288
  189MPD1    C3 2876   4.452   1.682   0.372  0.7016  0.5598 -0.2307
  189MPD1    C4 2877   4.582   1.724   0.406 -0.3519 -0.6294  0.5331
  189MPD1    C5 2878   4.668   1.633   0.467  0.0873 -0.2594  0.0971
  189MPD1     H 2879   4.325   1.530   0.366  0.7508 -0.0771  0.5121
  189MPD1    H1 2880   4.610   1.828   0.405  4.3393 -1.8566  1.8519
  189MPD1    H2 2881   4.711   1.436   0.527  1.3884  1.2109  0.2346
  189MPD1    H3 2882   0.040   1.678   0.497 -1.4050  1.4295  2.2958
  189MPD1     N 2883   4.348   1.765   0.333  0.1635 -0.1180 -1.0679
  189MPD1    H5 2884   4.255   1.727   0.318 -0.3272  0.4939  0.4300
  189MPD1    N1 2885   4.478   1.328   0.455 -0.7386  0.8365  0.0621
  189MPD1    H6 2886   4.395   1.309   0.400 -1.0774 -0.8341  1.1378
  189MPD1    H7 2887   4.545   1.253   0.437 -0.8629  0.8851 -0.5873
  190MPD1     C 2888   3.426   1.055  15.398 -0.3697 -0.0417 -0.3651
  190MPD1    C1 2889   3.555   1.020  15.351 -0.0040 -0.2431 -0.6107
  190MPD1    C2 2890   3.627   0.930  15.432  0.4420 -0.3979 -0.2263
  190MPD1    C3 2891   3.566   0.853  15.529  0.6226 -0.2443  0.4624
  190MPD1    C4 2892   3.431   0.868  15.553 -0.1012 -0.1144  0.8404
  190MPD1    C5 2893   3.367   0.973  15.492  0.5080 -1.4336  0.3121
  190MPD1     H 2894   3.734   0.935  15.421  0.4057  3.5194  1.1352
  190MPD1    H1 2895   3.373   0.810  15.623 -1.3409  0.0124 -0.0836
  190MPD1    H2 2896   3.366   1.130  15.348 -0.6708 -0.2006 -0.2420
  190MPD1    H3 2897   3.268   1.009  15.519  1.0197 -0.2911  0.6885
  190MPD1     N 2898   3.651   0.762  15.602 -0.6621 -1.1445  0.5258
  190MPD1    H5 2899   3.751   0.766  15.587 -0.7780  2.6706  0.8002
  190MPD1    N1 2900   3.617   1.111  15.265  0.2137  0.4372  0.3652
  190MPD1    H6 2901   3.700   1.072  15.219 -0.8837  0.9998 -2.0706
  190MPD1    H7 2902   3.557   1.145  15.190  1.3229  1.2553 -0.1636
  191MPD1     C 2903   3.720   1.912  11.605 -0.0051  0.4622 -0.2240
  191MPD1    C1 2904   3.708   2.047  11.604 -0.3016  0.0325  0.0451
  191MPD1    C2 2905   3.635   2.106  11.704 -0.8507  0.7582  0.1479
  191MPD1    C3 2906   3.542   2.032  11.779 -0.0405  0.7973  0.8733
  191MPD1    C4 2907   3.551   1.895  11.779  0.5250 -0.5660  0.2672
  191MPD1    C5 2908   3.642   1.843  11.695  0.6226  0.0518  1.1817
  191MPD1     H 2909   3.638   2.214  11.712 -0.8413  0.7895 -0.2849
  191MPD1    H1 2910   3.494   1.831  11.845 -0.9265  2.6166  2.1205
  191MPD1    H2 2911   3.783   1.851  11.542 -1.8655  0.8002 -2.4281
  191MPD1    H3 2912   3.653   1.735  11.693 -1.0304 -0.0735 -1.8561
  191MPD1     N 2913   3.451   2.102  11.858  0.2700 -0.2774  0.3523
  191MPD1    H5 2914   3.436   2.199  11.832  4.1349  0.3168  0.3144
  191MPD1    N1 2915   3.793   2.120  11.521  0.0235  0.1697 -0.1936
  191MPD1    H6 2916   3.764   2.217  11.516 -0.3915 -0.0401 -1.8778
  191MPD1    H7 2917   3.803   2.093  11.424  1.9204  2.0381 -0.5239
  192MPD1     C 2918   2.687   1.744  12.415  0.1127 -0.3236 -0.4042
  192MPD1    C1 2919   2.672   1.879  12.432  0.0342  0.9325 -0.6460
  192MPD1    C2 2920   2.763   1.965  12.363 -0.3182  0.0146  0.9991
  192MPD1    C3 2921   2.861   1.921  12.279  0.2379 -0.7933  0.4784
  192MPD1    C4 2922   2.870   1.784  12.273 -0.3689 -0.1396  0.4442
  192MPD1    C5 2923   2.780   1.699  12.332 -0.6610  0.3177  0.0820
  192MPD1     H 2924   2.744   2.071  12.375 -0.9654  0.4876 -4.0941
  192MPD1    H1 2925   2.937   1.739  12.200  0.4532 -1.7196  2.1681
  192MPD1    H2 2926   2.621   1.673  12.464 -1.6775  2.0541  0.6308
  192MPD1    H3 2927   2.793   1.592  12.322 -0.7637  0.5756 -2.9980
  192MPD1     N 2928   2.959   2.001  12.217 -0.1029 -0.0948  0.9373
  192MPD1    H5 2929   3.039   1.955  12.174  0.6339  1.2533  0.8955
  192MPD1    N1 2930   2.565   1.931  12.505  0.1636 -0.3759  0.0247
  192MPD1    H6 2931   2.531   1.876  12.583 -0.5249  0.5121  0.3597
  192MPD1    H7 2932   2.577   2.029  12.530 -0.9643 -0.3997  0.6327
  193MPD1     C 2933   2.753   1.798  16.457 -0.3004 -0.3588  0.2864
  193MPD1    C1 2934   2.704   1.918  16.413  0.4503 -0.5307 -0.5498
  193MPD1    C2 2935   2.782   2.031  16.439 -0.0385 -0.2117 -0.3902
  193MPD1    C3 2936   2.911   2.018  16.489 -0.9841 -0.2589  0.4961
  193MPD1    C4 2937   2.962   1.897  16.520  0.0724  0.0347  0.7237
  193MPD1    C5 2938   2.878   1.785  16.506 -0.2299  0.4497  0.4188
  193MPD1     H 2939   2.748   2.130  16.411 -0.3371 -0.4037 -0.7042
  193MPD1    H1 2940   3.065   1.892  16.555  0.7756  0.0847 -1.3810
  193MPD1    H2 2941   2.699   1.704  16.452 -2.5790  1.1579 -3.2543
  193MPD1    H3 2942   2.913   1.686  16.533 -3.4301 -0.4407  1.3198
  193MPD1     N 2943   2.988   2.139  16.520 -0.3402 -0.2454  0.7899
  193MPD1    H5 2944   3.087   2.124  16.532  0.1474  1.6061 -1.0275
  193MPD1    N1 2945   2.571   1.932  16.378  0.0688  0.9484 -0.4582
  193MPD1    H6 2946   2.529   1.848  16.338 -3.6627  2.4560  0.2837
  193MPD1    H7 2947   2.563   2.003  16.306  1.9425  2.0020  0.3694
  194MPD1     C 2948   0.233   0.360  17.365  0.2753  0.3727  0.2507
  194MPD1    C1 2949   0.194   0.264  17.279  0.7524 -0.1448  0.6343
  194MPD1    C2 2950   0.287   0.166  17.238 -0.3579 -0.4505  0.5253
  194MPD1    C3 2951   0.418   0.164  17.294 -0.8838 -0.4433  0.9306
  194MPD1    C4 2952   0.452   0.270  17.382  0.3650  0.3532  0.6040
  194MPD1    C5 2953   0.367   0.375  17.414  0.7971 -0.2179  0.2367
  194MPD1     H 2954   0.255   0.079  17.183 -0.7604  0.3977 -0.5902
  194MPD1    H1 2955   0.554   0.290  17.412  0.4010  2.3509 -0.8222
  194MPD1    H2 2956   0.164   0.438  17.395 -0.4478 -1.0845  2.3081
  194MPD1    H3 2957   0.387   0.455  17.484 -0.8184 -2.4727  3.2772
  194MPD1     N 2958   0.509   0.061  17.258  0.3604  0.3363  0.5368
  194MPD1    H5 2959   0.596   0.066  17.311  0.3500 -0.2618  0.6019
  194MPD1    N1 2960   0.064   0.237  17.234  0.3151  0.1659 -0.2113
  194MPD1    H6 2961   0.064   0.204  17.138 -2.1030 -2.0701  0.5650
  194MPD1    H7 2962   4.721   0.315  17.236  0.5363  0.3567 -0.4642
  195MPD1     C 2963   3.149   0.345   0.179 -0.1033  0.9972 -0.0311
  195MPD1    C1 2964   3.160   0.409   0.056  0.9436 -0.0713  0.1304
  195MPD1    C2 2965   3.068   0.379  17.653 -0.4828  0.2889 -0.6714
  195MPD1    C3 2966   2.951   0.306  17.680  0.0810  0.7533 -0.3904
  195MPD1    C4 2967   2.935   0.256   0.117  0.0527 -0.1003 -0.4875
  195MPD1    C5 2968   3.038   0.269   0.213 -0.1177 -0.6466  0.8845
  195MPD1     H 2969   3.075   0.432  17.559  0.7727  0.1395 -0.6658
  195MPD1    H1 2970   2.842   0.208   0.145 -0.0326  0.0846 -0.4545
  195MPD1    H2 2971   3.231   0.341   0.249  0.9814  1.0611 -1.3002
  195MPD1    H3 2972   3.024   0.223   0.310  0.3835  0.3006  1.4119
  195MPD1     N 2973   2.863   0.277  17.580 -0.2738  0.7542  1.1478
  195MPD1    H5 2974   2.778   0.234  17.614 -1.6901  0.2064 -2.9854
  195MPD1    N1 2975   3.272   0.483   0.021 -0.0116  0.2832 -0.0590
  195MPD1    H6 2976   3.316   0.518   0.106 -1.4252  0.2060  0.7211
  195MPD1    H7 2977   3.247   0.565  17.657  0.9586  0.6878  0.0980
  196MPD1     C 2978   3.100   1.893   1.366 -1.0047  0.2234 -0.2621
  196MPD1    C1 2979   3.124   1.820   1.254  0.1302 -0.4649  0.3202
  196MPD1    C2 2980   3.022   1.792   1.173  0.4612  0.6573  0.4065
  196MPD1    C3 2981   2.894   1.844   1.197  0.1840  0.2105  0.2601
  196MPD1    C4 2982   2.870   1.926   1.305 -1.2755 -0.2857 -1.1999
  196MPD1    C5 2983   2.976   1.947   1.395 -1.0524  0.0323 -0.0713
  196MPD1     H 2984   3.032   1.726   1.087  2.3332  1.1124  0.2685
  196MPD1    H1 2985   2.769   1.944   1.337 -1.6251 -2.8635 -0.8199
  196MPD1    H2 2986   3.188   1.919   1.424 -0.1296  0.9461 -1.9219
  196MPD1    H3 2987   2.955   2.006   1.483 -2.0654  0.4282 -0.5859
  196MPD1     N 2988   2.780   1.820   1.116  0.1641  0.0223  0.7744
  196MPD1    H5 2989   2.693   1.863   1.147  0.0176  0.3801 -0.1384
  196MPD1    N1 2990   3.263   1.793   1.221  0.0997 -0.0236 -0.6528
  196MPD1    H6 2991   3.322   1.802   1.303 -1.0679  0.9198  0.0721
  196MPD1    H7 2992   3.275   1.702   1.176  3.0593 -0.7108  1.5259
  197MPD1     C 2993   1.513   3.879   0.157  0.4789  0.0011  0.2081
  197MPD1    C1 2994   1.525   3.745   0.118 -0.2733 -0.1447  0.0539
  197MPD1    C2 2995   1.569   3.724  17.680  0.2221  0.0851 -0.2195
  197MPD1    C3 2996   1.586   3.825  17.591  0.0547 -0.3577  0.5496
  197MPD1    C4 2997   1.567   3.953  17.632  0.3168  0.2510 -0.6209
  197MPD1    C5 2998   1.533   3.981   0.064 -0.6754 -0.0234 -0.0350
  197MPD1     H 2999   1.593   3.621  17.657 -2.0480  0.1486 -2.8943
  197MPD1    H1 3000   1.578   4.031  17.557 -0.3090  1.4558  0.5284
  197MPD1    H2 3001   1.487   3.899   0.260 -1.4043 -1.7246  0.0769
  197MPD1    H3 3002   1.521   4.081   0.104  1.4301 -0.1808  1.0266
  197MPD1     N 3003   1.608   3.800  17.457 -0.1655 -0.6012 -0.6136
  197MPD1    H5 3004   1.587   3.872  17.389 -0.1568  0.0270  0.0456
  197MPD1    N1 3005   1.513   3.632   0.204  0.2523  0.2078 -0.2755
  197MPD1    H6 3006   1.454   3.657   0.283 -1.1430  1.4175 -1.7135
  197MPD1    H7 3007   1.469   3.561   0.147  2.7134 -1.4478 -0.1285
  198MPD1     C 3008   3.023   1.650  15.631  0.7766  0.3283 -0.4435
  198MPD1    C1 3009   3.136   1.721  15.610 -0.6768 -0.2635  0.3640
  198MPD1    C2 3010   3.259   1.655  15.607 -0.2759 -0.0848 -0.6271
  198MPD1    C3 3011   3.268   1.520  15.612  0.0334  0.0351  1.2214
  198MPD1    C4 3012   3.147   1.449  15.607 -0.0286  0.2405 -0.0649
  198MPD1    C5 3013   3.027   1.509  15.619  0.3068  0.6111 -0.1792
  198MPD1     H 3014   3.349   1.715  15.618  1.5601 -3.4716  2.9615
  198MPD1    H1 3015   3.139   1.341  15.617  3.6599 -0.1143 -0.8871
  198MPD1    H2 3016   2.929   1.698  15.657 -0.5456 -3.2327  1.3028
  198MPD1    H3 3017   2.933   1.455  15.622  0.4476  0.2206 -2.5420
  198MPD1     N 3018   3.384   1.445  15.617 -0.0163  0.1583 -0.4189
  198MPD1    H5 3019   3.473   1.490  15.600 -0.6152  1.5412  0.1227
  198MPD1    N1 3020   3.126   1.863  15.633 -0.0303  0.2636  0.0836
  198MPD1    H6 3021   3.201   1.907  15.581 -0.6815  0.2071 -0.9050
  198MPD1    H7 3022   3.033   1.899  15.612 -0.0496  0.6512  0.8086
  199MPD1     C 3023   4.719   2.981   8.896 -0.1479  0.2667  0.4059
  199MPD1    C1 3024   4.678   2.888   8.988  0.1404  0.4358 -0.6679
  199MPD1    C2 3025   0.031   2.861   9.097 -0.3173 -1.1482  0.0493
  199MPD1    C3 3026   0.153   2.930   9.120 -0.2508  0.2338 -0.5496
  199MPD1    C4 3027   0.198   3.017   9.023 -0.1141 -0.2137 -0.1829
  199MPD1    C5 3028   0.113   3.050   8.916 -0.1005  0.5349  0.1448
  199MPD1     H 3029   4.711   2.796   9.173  0.9152 -1.9534  0.0388
  199MPD1    H1 3030   0.291   3.072   9.030  0.3941 -0.9872 -0.8951
  199MPD1    H2 3031   4.660   3.003   8.807 -0.2220  1.7121  0.8141
  199MPD1    H3 3032   0.137   3.133   8.851  0.3403 -0.9202 -1.5462
  199MPD1     N 3033   0.226   2.917   9.240  0.2655 -0.2063  0.3965
  199MPD1    H5 3034   0.309   2.974   9.253  1.0782 -0.8116 -1.9358
  199MPD1    N1 3035   4.562   2.818   8.970  0.3283  0.5358 -0.3551
  199MPD1    H6 3036   4.512   2.785   9.052  0.1714  0.5241 -0.4562
  199MPD1    H7 3037   4.503   2.879   8.914  2.1819  0.2697 -2.6322
  200MPD1     C 3038   3.956   2.225  14.686  0.1433 -0.2540 -0.0683
  200MPD1    C1 3039   3.959   2.360  14.724  0.0967 -0.0551 -0.4995
  200MPD1    C2 3040   4.079   2.429  14.717 -0.5895 -0.4266  0.6430
  200MPD1    C3 3041   4.197   2.367  14.683  0.7367 -0.4937  0.0916
  200MPD1    C4 3042   4.196   2.231  14.646  0.1704  0.7495  0.8565
  200MPD1    C5 3043   4.072   2.167  14.648  0.4239  0.1203 -0.3399
  200MPD1     H 3044   4.074   2.536  14.736 -1.0906 -0.3440  0.0505
  200MPD1    H1 3045   4.295   2.186  14.636  0.3270  1.4911 -1.0157
  200MPD1    H2 3046   3.863   2.170  14.694 -1.1535  2.0588  0.8000
  200MPD1    H3 3047   4.073   2.060  14.630 -0.3574 -0.0172  0.4340
  200MPD1     N 3048   4.314   2.441  14.684  0.5801 -0.3689 -1.2060
  200MPD1    H5 3049   4.306   2.538  14.713  0.3732 -0.5339 -0.7108
  200MPD1    N1 3050   3.844   2.429  14.742  0.0304  0.0174 -0.1818
  200MPD1    H6 3051   3.771   2.364  14.773 -1.7104  1.9269 -0.2744
  200MPD1    H7 3052   3.866   2.497  14.814  1.1269 -1.1154  0.5457
  201MPD1     C 3053   2.100   1.121  12.610 -0.2051 -0.1948  0.6588
  201MPD1    C1 3054   2.040   1.000  12.652 -0.0470 -0.4320  0.4344
  201MPD1    C2 3055   2.064   0.968  12.783  0.0109  0.3377 -0.1986
  201MPD1    C3 3056   2.175   1.016  12.853 -0.5448  0.6446  0.0502
  201MPD1    C4 3057   2.247   1.120  12.802 -0.0871 -0.4655  0.0186
  201MPD1    C5 3058   2.212   1.169  12.677  0.3279  0.6876  0.7330
  201MPD1     H 3059   2.001   0.897  12.835  1.4264 -0.4622  0.4439
  201MPD1    H1 3060   2.327   1.169  12.857 -1.0627  0.9929  0.1509
  201MPD1    H2 3061   2.057   1.166  12.521 -0.4196  1.6316  1.6821
  201MPD1    H3 3062   2.273   1.255  12.653  0.8100  0.0917 -0.1643
  201MPD1     N 3063   2.194   0.965  12.984 -0.1377 -0.3324 -0.1772
  201MPD1    H5 3064   2.121   0.897  13.001  0.7479 -1.5971 -1.4903
  201MPD1    N1 3065   1.921   0.958  12.592 -0.0975 -0.3639 -0.0912
  201MPD1    H6 3066   1.896   0.862  12.617 -1.2869  0.2347  1.0007
  201MPD1    H7 3067   1.913   0.977  12.492 -0.4287 -3.2439 -0.6266
  202MPD1     C 3068   3.218   2.104  10.248 -0.1359 -0.0834 -0.4105
  202MPD1    C1 3069   3.119   2.182  10.196 -0.5995 -0.1517  0.0160
  202MPD1    C2 3070   3.003   2.109  10.156  0.3088 -0.1309 -0.3546
  202MPD1    C3 3071   2.983   1.974  10.186  0.2923  0.3117 -0.0538
  202MPD1    C4 3072   3.092   1.913  10.234  0.9301  0.2168 -0.2877
  202MPD1    C5 3073   3.207   1.969  10.267  1.0830  0.0330 -0.6519
  202MPD1     H 3074   2.917   2.166  10.123 -0.0912 -1.6628 -1.9635
  202MPD1    H1 3075   3.100   1.806  10.245 -0.1307  0.1112 -0.6103
  202MPD1    H2 3076   3.307   2.155  10.284 -0.5954  1.6877 -1.7824
  202MPD1    H3 3077   3.280   1.906  10.316  0.5251 -0.2147 -0.1364
  202MPD1     N 3078   2.868   1.896  10.162 -0.2302  0.2725 -0.1122
  202MPD1    H5 3079   2.876   1.797  10.183 -0.6174  0.4219  0.7314
  202MPD1    N1 3080   3.103   2.322  10.228  0.5617  0.5870  0.2486
  202MPD1    H6 3081   3.037   2.377  10.173  1.7731 -1.3207 -3.1330
  202MPD1    H7 3082   3.195   2.365  10.237  1.5445 -0.8923 -2.7026
  203MPD1     C 3083   0.654   2.347  12.933  0.6099  0.4364  0.0402
  203MPD1    C1 3084   0.684   2.225  12.981  0.7996  0.0570 -0.1455
  203MPD1    C2 3085   0.794   2.158  12.924  0.0308  0.5725  0.7177
  203MPD1    C3 3086   0.873   2.227  12.832 -0.0755  0.6406 -0.9570
  203MPD1    C4 3087   0.841   2.354  12.790  0.6685  0.4073  0.0441
  203MPD1    C5 3088   0.729   2.410  12.837 -0.1269  0.1354  0.0242
  203MPD1     H 3089   0.817   2.053  12.942 -0.3829  0.2376 -0.6873
  203MPD1    H1 3090   0.887   2.415  12.713 -0.6151 -2.2764 -2.8159
  203MPD1    H2 3091   0.568   2.401  12.969  1.6317  0.5282  2.3216
  203MPD1    H3 3092   0.699   2.506  12.798  2.8934  2.1882  2.8444
  203MPD1     N 3093   0.973   2.155  12.759 -0.2614 -0.3430 -0.4678
  203MPD1    H5 3094   0.994   2.060  12.791  1.0783  0.2055  0.2993
  203MPD1    N1 3095   0.595   2.162  13.070 -0.0936  0.2675 -0.3096
  203MPD1    H6 3096   0.643   2.101  13.135 -1.5949  0.1813  0.7305
  203MPD1    H7 3097   0.535   2.224  13.124  1.3623  0.2810  1.2646
  204MPD1     C 3098   4.387   3.041   0.168  0.6383 -0.2693  0.3010
  204MPD1    C1 3099   4.488   3.107   0.099 -0.4599  0.7952 -0.3118
  204MPD1    C2 3100   4.582   3.030   0.036 -0.6625 -0.0875 -0.5041
  204MPD1    C3 3101   4.589   2.895   0.046  0.0649  0.4283 -0.3782
  204MPD1    C4 3102   4.484   2.831   0.111 -0.4773 -0.4027  0.8235
  204MPD1    C5 3103   4.389   2.902   0.176  0.3458  0.0017 -0.6913
  204MPD1     H 3104   4.658   3.078  17.667 -1.5734 -0.7454 -2.1463
  204MPD1    H1 3105   4.472   2.724   0.104 -0.5989 -0.3305 -0.1088
  204MPD1    H2 3106   4.301   3.090   0.214  0.2512  0.7405 -1.4905
  204MPD1    H3 3107   4.310   2.852   0.232  0.7426 -0.3904 -0.4831
  204MPD1     N 3108   4.700   2.825  17.676  0.0040 -0.1539 -0.2681
  204MPD1    H5 3109   0.044   2.890  17.633  0.1481 -0.7821 -0.9950
  204MPD1    N1 3110   4.465   3.249   0.077  0.2274  0.4700 -0.3609
  204MPD1    H6 3111   4.416   3.306   0.146 -0.2141  3.1324 -2.8936
  204MPD1    H7 3112   4.540   3.312   0.049 -0.2067  0.7916 -0.8002
  205MPD1     C 3113   0.165   1.564  16.592  0.3019 -0.2939  0.2490
  205MPD1    C1 3114   0.301   1.557  16.604 -0.7306 -0.0600 -0.3915
  205MPD1    C2 3115   0.363   1.576  16.726  0.2474  0.7457 -0.1410
  205MPD1    C3 3116   0.286   1.602  16.839 -0.0610 -0.0452 -0.1013
  205MPD1    C4 3117   0.154   1.620  16.821 -0.4346 -0.7940 -0.3349
  205MPD1    C5 3118   0.092   1.596  16.701  0.0425 -0.2648  0.4942
  205MPD1     H 3119   0.471   1.562  16.728  0.3142  0.8194 -3.2135
  205MPD1    H1 3120   0.080   1.642  16.897  1.9048  2.1737  1.1025
  205MPD1    H2 3121   0.117   1.536  16.498  0.3761 -0.0656  0.1426
  205MPD1    H3 3122   4.707   1.592  16.697 -0.0055  1.9205 -0.4082
  205MPD1     N 3123   0.347   1.614  16.963 -0.4885  0.3006 -0.1961
  205MPD1    H5 3124   0.287   1.648  17.038  1.9270  0.8245  1.4894
  205MPD1    N1 3125   0.380   1.503  16.496  0.0709 -0.0593  0.0235
  205MPD1    H6 3126   0.471   1.545  16.513 -0.7597  0.3086  3.7167
  205MPD1    H7 3127   0.339   1.536  16.409 -1.3409 -2.6135 -0.2889
  206MPD1     C 3128   0.940   4.685  17.003 -0.1578  0.2463  0.4749
  206MPD1    C1 3129   0.934   4.576  16.918  0.7085 -0.1956 -0.4212
  206MPD1    C2 3130   0.863   4.581  16.806  0.2176 -0.4742  0.4487
  206MPD1    C3 3131   0.763   4.679  16.782  0.2276  0.2254  0.4784
  206MPD1    C4 3132   0.756   0.060  16.871 -0.1502 -0.1577  0.2384
  206MPD1    C5 3133   0.853   0.067  16.971  0.2897  0.0516 -0.6004
  206MPD1     H 3134   0.872   4.502  16.733 -1.5610 -0.2859  0.0194
  206MPD1    H1 3135   0.690   0.145  16.859 -0.7477 -0.6317  0.1802
  206MPD1    H2 3136   1.006   4.695  17.088 -1.2420 -1.4010  1.5026
  206MPD1    H3 3137   0.845   0.151  17.039 -1.5769 -0.6849  0.0742
  206MPD1     N 3138   0.666   4.674  16.681 -0.2278  0.3466 -0.3466
  206MPD1    H5 3139   0.602   0.030  16.672 -3.3874 -2.3819 -1.6427
  206MPD1    N1 3140   1.038   4.475  16.922  0.1730 -0.0915  0.0413
  206MPD1    H6 3141   1.000   4.383  16.900 -0.7636  0.2815  0.0622
  206MPD1    H7 3142   1.088   4.472  17.010 -2.0583  1.9628  1.3892
  207MPD1     C 3143   3.154   2.322   9.759 -0.3389  0.1560 -0.1953
  207MPD1    C1 3144   3.209   2.273   9.876  0.1341 -0.2733 -0.7602
  207MPD1    C2 3145   3.278   2.354   9.960 -0.3494  0.3440 -0.2292
  207MPD1    C3 3146   3.282   2.488   9.945 -1.3577  0.4461  0.5852
  207MPD1    C4 3147   3.229   2.541   9.828 -0.1545  0.1640  0.4598
  207MPD1    C5 3148   3.171   2.453   9.738 -0.2989  0.6390 -0.7152
  207MPD1     H 3149   3.323   2.303  10.044 -1.4651 -0.0686  0.1154
  207MPD1    H1 3150   3.227   2.644   9.795  4.6054  0.1400  0.0899
  207MPD1    H2 3151   3.106   2.267   9.679  0.2630  0.1705 -0.5655
  207MPD1    H3 3152   3.133   2.498   9.646 -0.3845 -0.6603 -1.3085
  207MPD1     N 3153   3.341   2.574  10.043 -0.1593 -0.3477  0.4701
  207MPD1    H5 3154   3.354   2.672  10.017 -0.9650 -0.0030  1.3553
  207MPD1    N1 3155   3.203   2.136   9.895 -0.5025  0.2172  0.4263
  207MPD1    H6 3156   3.221   2.113   9.992  2.3956 -1.3265 -0.4583
  207MPD1    H7 3157   3.115   2.097   9.861 -0.1128  0.7198 -1.1788
  208MPD1     C 3158   0.492   1.517   0.971  0.2404 -0.2291  0.2859
  208MPD1    C1 3159   0.598   1.453   1.034 -0.0993  0.0163 -0.1925
  208MPD1    C2 3160   0.706   1.422   0.955 -0.1864  0.3625  0.0642
  208MPD1    C3 3161   0.729   1.482   0.835 -0.0976 -1.3138  0.3381
  208MPD1    C4 3162   0.635   1.572   0.781  0.1586 -0.8460  0.2368
  208MPD1    C5 3163   0.515   1.580   0.851 -0.4327  1.0039  0.6589
  208MPD1     H 3164   0.767   1.350   1.008  0.8740  0.6819 -0.6972
  208MPD1    H1 3165   0.634   1.620   0.684  1.7171  0.0960  0.6760
  208MPD1    H2 3166   0.394   1.523   1.017  0.8940  0.0479  1.6731
  208MPD1    H3 3167   0.439   1.641   0.803 -0.4753 -0.6526 -1.3557
  208MPD1     N 3168   0.843   1.444   0.763  0.2209  0.2043 -0.1351
  208MPD1    H5 3169   0.903   1.372   0.803  2.6875  2.2486 -0.1876
  208MPD1    N1 3170   0.567   1.385   1.158  0.0942 -0.2101 -0.0709
  208MPD1    H6 3171   0.504   1.439   1.216  0.6372  0.6299 -0.2626
  208MPD1    H7 3172   0.646   1.380   1.222  0.1142  0.4604 -0.0477
  209MPD1     C 3173   3.624   3.038  11.898  0.4112  0.5672  0.5269
  209MPD1    C1 3174   3.731   3.113  11.861  0.2914  0.2473 -0.1880
  209MPD1    C2 3175   3.779   3.099  11.730  0.1304 -0.1108  0.1183
  209MPD1    C3 3176   3.724   3.015  11.640 -0.3417 -0.0165 -1.1332
  209MPD1    C4 3177   3.611   2.938  11.675  1.0942 -0.4626  0.4833
  209MPD1    C5 3178   3.565   2.954  11.810  0.5333  0.2860  0.7437
  209MPD1     H 3179   3.877   3.137  11.706  0.2382 -1.4095 -1.5722
  209MPD1    H1 3180   3.560   2.864  11.615  0.8819 -0.0939  0.2099
  209MPD1    H2 3181   3.574   3.034  11.994  0.9022 -0.9555  0.7208
  209MPD1    H3 3182   3.482   2.897  11.850  0.8475 -0.1489  0.7746
  209MPD1     N 3183   3.791   3.004  11.513  0.4579 -0.3488  0.2619
  209MPD1    H5 3184   3.859   3.077  11.498  1.9523 -1.7056  0.4074
  209MPD1    N1 3185   3.806   3.182  11.957  0.2986 -0.7203  0.5453
  209MPD1    H6 3186   3.840   3.264  11.906 -1.2165  0.2470  1.0870
  209MPD1    H7 3187   3.749   3.215  12.034  0.5058 -3.2656  1.7852
  210MPD1     C 3188   4.519   3.368  10.986  0.2617 -0.0411  0.3201
  210MPD1    C1 3189   4.395   3.418  11.017  1.3250 -0.0453 -0.3509
  210MPD1    C2 3190   4.308   3.328  11.075 -0.3571 -0.6051  0.1120
  210MPD1    C3 3191   4.327   3.190  11.080  0.2601 -0.5863  0.7078
  210MPD1    C4 3192   4.451   3.142  11.037  0.8954 -0.1223  0.1197
  210MPD1    C5 3193   4.549   3.232  10.988  0.0739  0.5296 -0.0761
  210MPD1     H 3194   4.222   3.381  11.115  0.4428 -0.4508  1.6420
  210MPD1    H1 3195   4.488   3.040  11.036  0.3821 -0.3099  0.4205
  210MPD1    H2 3196   4.588   3.427  10.926 -1.9271  1.8743 -0.3215
  210MPD1    H3 3197   4.643   3.193  10.951  0.2524  0.4452  0.4637
  210MPD1     N 3198   4.225   3.097  11.110  0.3847  0.6815 -0.6783
  210MPD1    H5 3199   4.244   3.002  11.080 -2.3579 -0.3759  0.8752
  210MPD1    N1 3200   4.377   3.555  11.021  0.1804 -0.5636  0.1353
  210MPD1    H6 3201   4.282   3.589  11.009  0.6877  0.8773  0.1858
  210MPD1    H7 3202   4.444   3.607  10.964 -0.3463  1.9957  1.9068
  211MPD1     C 3203   1.222   1.644  16.922 -0.2080 -0.0167  0.4767
  211MPD1    C1 3204   1.102   1.633  16.991 -0.1406  0.6855  0.8294
  211MPD1    C2 3205   1.004   1.722  16.960  0.0869 -0.0291  0.6776
  211MPD1    C3 3206   1.019   1.828  16.875 -0.0067  0.0267  0.5921
  211MPD1    C4 3207   1.143   1.848  16.816  0.1359 -0.5407 -0.2304
  211MPD1    C5 3208   1.240   1.750  16.837 -1.0378  0.0411  0.5976
  211MPD1     H 3209   0.903   1.703  16.992 -0.8522  0.3016 -2.0305
  211MPD1    H1 3210   1.162   1.930  16.749 -0.5049  0.1238  0.4032
  211MPD1    H2 3211   1.304   1.573  16.923  1.2460  1.6658  1.4199
  211MPD1    H3 3212   1.334   1.752  16.784 -2.1332  0.1202 -1.3181
  211MPD1     N 3213   0.905   1.908  16.842  0.0463 -0.8265 -0.0954
  211MPD1    H5 3214   0.822   1.884  16.895  0.5856 -0.5830  0.8611
  211MPD1    N1 3215   1.071   1.515  17.048 -1.4851  0.3203  0.8812
  211MPD1    H6 3216   1.147   1.468  17.098 -2.4426 -0.1380  1.8916
  211MPD1    H7 3217   0.995   1.523  17.115 -3.1730 -1.1829 -0.8583
  212MPD1     C 3218   0.150   0.258  16.480 -0.1969 -0.8729 -0.3728
  212MPD1    C1 3219   0.183   0.293  16.605  0.2313 -0.4614 -0.9751
  212MPD1    C2 3220   0.140   0.200  16.699  0.3335 -0.6931  0.4679
  212MPD1    C3 3221   0.079   0.078  16.664  0.0719 -0.1573 -0.0290
  212MPD1    C4 3222   0.053   0.048  16.529 -0.2785  0.3452 -0.4017
  212MPD1    C5 3223   0.088   0.143  16.442 -0.1818 -0.4895  0.1442
  212MPD1     H 3224   0.171   0.215  16.802  0.2859  0.4777  0.3101
  212MPD1    H1 3225   4.715   4.683  16.504 -1.3054  0.7389  0.7322
  212MPD1    H2 3226   0.176   0.331  16.404  1.9773  0.5834  1.7415
  212MPD1    H3 3227   0.060   0.125  16.339  1.5272 -2.1239 -0.0339
  212MPD1     N 3228   0.040   4.712  16.769  0.1272 -0.0759  0.1800
  212MPD1    H5 3229   0.013   4.620  16.736  1.0462 -0.0536 -0.6520
  212MPD1    N1 3230   0.269   0.403  16.634  0.3892 -0.2111  0.3606
  212MPD1    H6 3231   0.227   0.455  16.710  1.8504  0.2837  0.8283
  212MPD1    H7 3232   0.283   0.469  16.558 -1.9910  0.8243  0.8432
  213MPD1     C 3233   3.060   0.452  15.632  0.3385  0.0135  0.6491
  213MPD1    C1 3234   2.982   0.366  15.558  0.0004 -0.0333 -0.2768
  213MPD1    C2 3235   2.949   0.411  15.434 -0.1435  0.1364  0.0862
  213MPD1    C3 3236   2.974   0.543  15.393 -0.0501 -0.4356 -0.2681
  213MPD1    C4 3237   3.039   0.632  15.476  0.1799 -0.0564  0.3716
  213MPD1    C5 3238   3.078   0.583  15.600 -0.7448 -0.2857 -0.2196
  213MPD1     H 3239   2.898   0.340  15.371 -0.3170 -1.8983  2.5384
  213MPD1    H1 3240   3.054   0.736  15.451  0.9339  0.1491  1.6412
  213MPD1    H2 3241   3.089   0.411  15.728 -2.4732 -0.9655  1.1024
  213MPD1    H3 3242   3.136   0.647  15.665  1.9727 -1.4809 -1.4862
  213MPD1     N 3243   2.920   0.588  15.268  0.8842 -0.8324  0.2153
  213MPD1    H5 3244   2.842   0.533  15.233 -0.2597 -0.2110  1.7649
  213MPD1    N1 3245   2.991   0.230  15.567 -0.4038  0.2798  0.1651
  213MPD1    H6 3246   2.989   0.186  15.660 -2.1947 -2.2722 -1.0824
  213MPD1    H7 3247   2.926   0.184  15.504 -1.8372  0.7158  1.3274
  214MPD1     C 3248   2.114   0.418  15.072  0.6506 -0.4949 -0.2207
  214MPD1    C1 3249   2.157   0.457  14.943 -0.2650  0.2206  0.7033
  214MPD1    C2 3250   2.286   0.506  14.937  0.2444 -0.6815 -0.2129
  214MPD1    C3 3251   2.370   0.522  15.049 -1.0992  0.1002  0.0489
  214MPD1    C4 3252   2.321   0.477  15.166 -0.3146  1.0732  0.8941
  214MPD1    C5 3253   2.192   0.434  15.185 -0.1318 -0.1873  0.2931
  214MPD1     H 3254   2.306   0.546  14.838  1.8165 -1.8154 -0.3581
  214MPD1    H1 3255   2.383   0.484  15.255 -1.0923 -0.8504  1.5829
  214MPD1    H2 3256   2.018   0.368  15.084  1.3050 -1.4667  0.9541
  214MPD1    H3 3257   2.158   0.383  15.274 -0.5630 -3.3757 -1.6711
  214MPD1     N 3258   2.496   0.584  15.042 -0.2973 -0.0107  0.5448
  214MPD1    H5 3259   2.551   0.582  15.127  1.4190  0.0957 -0.5730
  214MPD1    N1 3260   2.090   0.424  14.823  0.3878 -1.0579 -0.3919
  214MPD1    H6 3261   2.132   0.469  14.742 -2.6114  1.1780 -0.7079
  214MPD1    H7 3262   1.989   0.435  14.823  0.6469  1.4045 -2.0841
  215MPD1     C 3263   2.520   1.791  10.460  0.0281  0.3625 -0.1266
  215MPD1    C1 3264   2.560   1.906  10.395  0.4370 -0.3603  0.2813
  215MPD1    C2 3265   2.691   1.948  10.421 -0.0685 -0.5197  0.3420
  215MPD1    C3 3266   2.770   1.883  10.509 -0.3504  0.7248 -0.0206
  215MPD1    C4 3267   2.729   1.760  10.569 -0.3242 -0.2560 -0.4418
  215MPD1    C5 3268   2.604   1.720  10.539 -0.2666  0.3406  0.8160
  215MPD1     H 3269   2.731   2.040  10.380 -4.2366 -0.1693 -2.9326
  215MPD1    H1 3270   2.799   1.701  10.627  2.3557  1.9321 -1.4080
  215MPD1    H2 3271   2.419   1.752  10.451 -0.0342  0.3800  0.4527
  215MPD1    H3 3272   2.567   1.630  10.587 -0.9787  0.1601 -0.0558
  215MPD1     N 3273   2.897   1.943  10.537  0.4329  0.5443 -0.2509
  215MPD1    H5 3274   2.914   2.034  10.495 -0.1470  0.6913 -0.1707
  215MPD1    N1 3275   2.461   1.991  10.328 -0.0457 -0.1452  0.3626
  215MPD1    H6 3276   2.380   1.948  10.283  0.6670 -0.7670 -0.3470
  215MPD1    H7 3277   2.477   2.083  10.288  2.4727 -1.2464 -1.2017
  216MPD1     C 3278   0.218   4.453  16.658 -0.2538 -0.1958 -0.4516
  216MPD1    C1 3279   0.174   4.347  16.580 -0.1198 -0.4777 -0.4323
  216MPD1    C2 3280   0.172   4.220  16.638  0.8778 -0.1036 -0.2520
  216MPD1    C3 3281   0.245   4.192  16.759  0.4143  0.0679  1.2661
  216MPD1    C4 3282   0.303   4.298  16.826  0.0136 -0.2626 -0.2762
  216MPD1    C5 3283   0.292   4.422  16.776  0.5865  0.4895  0.0698
  216MPD1     H 3284   0.135   4.138  16.577  1.8535 -0.1776 -0.7528
  216MPD1    H1 3285   0.358   4.300  16.920 -1.4899 -1.7429  0.6349
  216MPD1    H2 3286   0.211   4.558  16.633 -0.0207 -0.0608  0.0564
  216MPD1    H3 3287   0.342   4.500  16.833 -0.5787  0.2075  1.4653
  216MPD1     N 3288   0.252   4.060  16.797  0.8035 -0.6324 -0.7399
  216MPD1    H5 3289   0.222   3.992  16.728  1.8873 -0.5691 -1.2814
  216MPD1    N1 3290   0.085   4.372  16.477 -0.0552 -0.0831  0.7029
  216MPD1    H6 3291   0.091   4.462  16.428  0.8230 -1.3445 -1.5230
  216MPD1    H7 3292   0.068   4.294  16.414  3.0673  0.3946 -0.7592
  217MPD1     C 3293   0.509   0.563   8.110  0.1816  0.5293  0.7925
  217MPD1    C1 3294   0.405   0.644   8.163 -0.1929 -0.7677 -0.1958
  217MPD1    C2 3295   0.395   0.648   8.304  0.3085 -0.0714  0.4041
  217MPD1    C3 3296   0.497   0.604   8.385 -0.7647  0.7927  0.0910
  217MPD1    C4 3297   0.595   0.523   8.329  0.0714 -0.4795 -0.9842
  217MPD1    C5 3298   0.606   0.514   8.197 -0.1804 -0.8079 -0.1618
  217MPD1     H 3299   0.315   0.702   8.353 -0.8194 -1.2188 -0.1752
  217MPD1    H1 3300   0.678   0.491   8.391 -0.6658  0.6395  0.5647
  217MPD1    H2 3301   0.515   0.542   8.004 -0.6981  0.2859  0.7880
  217MPD1    H3 3302   0.679   0.455   8.142  1.1372  1.4601 -0.8642
  217MPD1     N 3303   0.496   0.622   8.525 -0.6864 -0.6536  0.1957
  217MPD1    H5 3304   0.576   0.588   8.576 -1.3639 -1.8173  0.4651
  217MPD1    N1 3305   0.297   0.689   8.082  0.1041  0.1697 -1.0133
  217MPD1    H6 3306   0.236   0.763   8.115 -2.5756 -1.6092 -1.9734
  217MPD1    H7 3307   0.324   0.717   7.988 -0.3701  1.3432 -0.7957
  218MPD1     C 3308   2.329   0.200  12.878 -0.0909 -0.0908  0.0331
  218MPD1    C1 3309   2.336   0.225  12.742  1.1112  0.2572  0.5754
  218MPD1    C2 3310   2.388   0.343  12.701 -0.2537 -0.5784 -0.1741
  218MPD1    C3 3311   2.426   0.441  12.783 -0.2892 -0.2202  0.3816
  218MPD1    C4 3312   2.415   0.418  12.913  0.0972  0.1669  1.0909
  218MPD1    C5 3313   2.369   0.302  12.962 -0.0234 -0.5338  0.2468
  218MPD1     H 3314   2.397   0.361  12.594 -0.5268  0.4575 -0.0206
  218MPD1    H1 3315   2.451   0.493  12.982 -1.5836  2.5089 -0.5878
  218MPD1    H2 3316   2.280   0.107  12.907  1.1254 -0.6275  0.3662
  218MPD1    H3 3317   2.375   0.288  13.069 -0.7908 -2.3794  0.0313
  218MPD1     N 3318   2.474   0.563  12.733  0.1533  0.0759  0.3623
  218MPD1    H5 3319   2.481   0.570  12.632 -2.0840  0.9602  0.2832
  218MPD1    N1 3320   2.320   0.124  12.646  0.4320  0.7545  0.3497
  218MPD1    H6 3321   2.246   0.057  12.665  0.4400  0.4491 -0.7262
  218MPD1    H7 3322   2.310   0.162  12.552 -2.7877 -1.0383 -0.0497
  219MPD1     C 3323   3.116   0.893  12.055  0.5350  0.2444 -0.0553
  219MPD1    C1 3324   3.103   0.788  12.137  0.4182 -1.2333  0.1313
  219MPD1    C2 3325   3.002   0.797  12.235  0.9428 -0.4181  0.8487
  219MPD1    C3 3326   2.939   0.917  12.273  0.8431 -0.1018  0.9742
  219MPD1    C4 3327   2.965   1.029  12.192 -0.0089  0.0879  0.2646
  219MPD1    C5 3328   3.051   1.014  12.086  0.6929 -0.5128 -0.4618
  219MPD1     H 3329   2.990   0.708  12.294  0.5602  0.2041  1.7076
  219MPD1    H1 3330   2.914   1.123  12.213  1.1095  0.3339  1.8793
  219MPD1    H2 3331   3.173   0.886  11.963 -1.6915 -0.3820 -1.3850
  219MPD1    H3 3332   3.068   1.101  12.024  1.5746  1.1051  2.0055
  219MPD1     N 3333   2.830   0.929  12.371  0.2423 -0.2721 -0.1420
  219MPD1    H5 3334   2.777   1.015  12.364  3.8549  1.8882 -0.9909
  219MPD1    N1 3335   3.162   0.664  12.111 -0.5010  0.0447  0.2867
  219MPD1    H6 3336   3.155   0.604  12.193  0.4777 -0.4258  0.0280
  219MPD1    H7 3337   3.258   0.662  12.078 -1.1484  0.0529 -1.6106
  220MPD1     C 3338   2.093   3.385  10.551 -0.1285 -0.2181  0.4622
  220MPD1    C1 3339   2.225   3.374  10.586  0.0511 -0.7207 -0.1453
  220MPD1    C2 3340   2.328   3.328  10.502  0.2804  0.2174  0.1653
  220MPD1    C3 3341   2.294   3.267  10.381  0.0858  0.7328 -0.2526
  220MPD1    C4 3342   2.162   3.274  10.339 -0.1385  0.2911 -0.1114
  220MPD1    C5 3343   2.070   3.339  10.422 -0.0834 -0.0888  0.9001
  220MPD1     H 3344   2.431   3.329  10.535  0.5470 -4.9227 -0.4441
  220MPD1    H1 3345   2.121   3.228  10.249 -0.0744 -0.4282  0.2258
  220MPD1    H2 3346   2.012   3.432  10.607 -0.6189 -0.5792  0.0554
  220MPD1    H3 3347   1.969   3.344  10.384  0.3510  0.7352 -0.1251
  220MPD1     N 3348   2.397   3.200  10.311  0.4607  1.0813  0.5790
  220MPD1    H5 3349   2.494   3.199  10.342  0.8341  1.2618 -0.5607
  220MPD1    N1 3350   2.250   3.430  10.709  0.0713  0.4771 -0.3118
  220MPD1    H6 3351   2.314   3.374  10.765  1.3151 -1.0480 -3.2043
  220MPD1    H7 3352   2.164   3.431  10.763  1.7816  0.0413  2.4211
  221MPD1     C 3353   0.070   0.929  16.849  0.3458  0.6452 -0.8100
  221MPD1    C1 3354   0.159   0.924  16.952 -0.5954  0.9022  1.0291
  221MPD1    C2 3355   0.291   0.895  16.931 -0.5266 -0.2326 -0.3024
  221MPD1    C3 3356   0.336   0.882  16.803 -0.6292 -0.1355  0.1506
  221MPD1    C4 3357   0.252   0.878  16.697 -0.3358  0.2629 -0.3982
  221MPD1    C5 3358   0.120   0.907  16.723 -0.3214 -0.0163 -0.5830
  221MPD1     H 3359   0.359   0.879  17.014  0.3335  2.3224 -0.5145
  221MPD1    H1 3360   0.280   0.874  16.593  1.5796 -1.6289  0.1939
  221MPD1    H2 3361   4.686   0.927  16.864  0.1376  0.8599 -2.2409
  221MPD1    H3 3362   0.040   0.893  16.652 -0.5809 -1.8721  0.0800
  221MPD1     N 3363   0.472   0.864  16.764  0.2434 -0.1207 -0.4836
  221MPD1    H5 3364   0.486   0.828  16.670 -0.8997  0.2476 -0.8013
  221MPD1    N1 3365   0.106   0.908  17.083 -0.0219 -0.2022 -0.4590
  221MPD1    H6 3366   0.014   0.950  17.095  1.1984  2.6334 -0.9541
  221MPD1    H7 3367   0.167   0.938  17.160  0.8481 -1.4714 -0.6565
  222MPD1     C 3368   0.268   4.352  17.241 -0.0223 -0.1694  0.7086
  222MPD1    C1 3369   0.368   4.286  17.307  0.1341 -0.0063  0.7266
  222MPD1    C2 3370   0.413   4.349  17.421 -0.8114 -0.6330  0.1256
  222MPD1    C3 3371   0.373   4.473  17.458 -0.1488 -0.1593 -0.3426
  222MPD1    C4 3372   0.282   4.538  17.389 -0.3137  0.0857  0.6354
  222MPD1    C5 3373   0.220   4.471  17.285 -0.5146 -0.1223 -0.3405
  222MPD1     H 3374   0.487   4.294  17.477 -0.3501 -0.3497 -0.2127
  222MPD1    H1 3375   0.239   4.635  17.413 -0.4936 -0.1137  1.1209
  222MPD1    H2 3376   0.222   4.304  17.156 -1.2745  0.7137  0.8836
  222MPD1    H3 3377   0.128   4.506  17.238  0.4881  1.4390 -1.1250
  222MPD1     N 3378   0.433   4.550  17.560 -0.2340  0.2232 -0.1031
  222MPD1    H5 3379   0.384   4.636  17.580  1.2760  1.2011 -0.5580
  222MPD1    N1 3380   0.403   4.152  17.282  0.7251  0.4738 -0.6059
  222MPD1    H6 3381   0.495   4.125  17.318  0.2152  1.1414  1.2165
  222MPD1    H7 3382   0.408   4.134  17.182 -0.6536 -0.3780 -0.5128
  223MPD1     C 3383   1.159   4.378   0.564  0.2411 -0.0723 -0.2087
  223MPD1    C1 3384   1.041   4.317   0.532 -0.4302  0.3276  0.3205
  223MPD1    C2 3385   0.947   4.379   0.448 -0.0038  0.5344  0.3865
  223MPD1    C3 3386   0.989   4.494   0.387 -0.8515  0.4146 -0.0852
  223MPD1    C4 3387   1.118   4.540   0.397 -0.3062  0.2667 -0.1079
  223MPD1    C5 3388   1.198   4.483   0.489 -0.1141  0.4401 -0.3284
  223MPD1     H 3389   0.847   4.338   0.440 -0.6384  1.7603  2.2050
  223MPD1    H1 3390   1.155   4.625   0.341 -0.5137 -0.4764 -1.3699
  223MPD1    H2 3391   1.221   4.332   0.640  1.2302  1.6317  0.0208
  223MPD1    H3 3392   1.297   4.524   0.506 -1.1011  1.6090  2.5217
  223MPD1     N 3393   0.889   4.555   0.311  0.9377 -0.0546 -0.4711
  223MPD1    H5 3394   0.799   4.509   0.321  0.8113 -0.3982 -3.0730
  223MPD1    N1 3395   0.996   4.209   0.610  0.3579 -0.1664  0.0272
  223MPD1    H6 3396   0.945   4.139   0.557 -0.2002  1.6208 -1.7603
  223MPD1    H7 3397   1.067   4.149   0.651  1.6497  1.5163  0.2708
  224MPD1     C 3398   0.159   2.303   9.288  0.1379  0.3941  0.4448
  224MPD1    C1 3399   0.193   2.183   9.348  0.7876 -1.1173 -0.5273
  224MPD1    C2 3400   0.328   2.153   9.334 -0.5048  0.3049 -0.4775
  224MPD1    C3 3401   0.428   2.250   9.309 -0.2045 -0.9338  0.1401
  224MPD1    C4 3402   0.387   2.378   9.281  1.1968  0.3705  0.3050
  224MPD1    C5 3403   0.254   2.403   9.269 -0.0218  0.2734 -0.1275
  224MPD1     H 3404   0.350   2.048   9.348  1.1055  0.5836 -1.0180
  224MPD1    H1 3405   0.460   2.455   9.255  0.5758  0.3890 -1.3810
  224MPD1    H2 3406   0.058   2.340   9.302 -0.2866  0.4592 -2.7845
  224MPD1    H3 3407   0.225   2.498   9.226  2.1069  1.2519  0.5985
  224MPD1     N 3408   0.567   2.226   9.307 -0.2768  0.4972  0.5465
  224MPD1    H5 3409   0.629   2.306   9.293  0.0208 -0.2631 -2.4462
  224MPD1    N1 3410   0.094   2.092   9.393 -0.1777  0.3143 -0.2317
  224MPD1    H6 3411   0.135   2.015   9.446  2.1314  1.3992 -0.3970
  224MPD1    H7 3412   0.013   2.130   9.441 -0.1858  0.5443 -0.4235
  225MPD1     C 3413   1.600   2.722  12.844  0.4836  0.7256  0.5462
  225MPD1    C1 3414   1.689   2.619  12.810  0.0640  0.1048  0.3750
  225MPD1    C2 3415   1.730   2.620  12.675 -0.3574  0.6875 -0.1401
  225MPD1    C3 3416   1.678   2.709  12.579 -0.8757 -0.0929  0.5826
  225MPD1    C4 3417   1.585   2.803  12.622 -0.1008 -0.3608 -0.1248
  225MPD1    C5 3418   1.549   2.810  12.752  0.4038  0.1181  0.4360
  225MPD1     H 3419   1.795   2.540  12.641 -0.2567  1.8660 -2.7131
  225MPD1    H1 3420   1.547   2.881  12.556 -1.1225  0.2611  1.1858
  225MPD1    H2 3421   1.560   2.732  12.945  0.8673  0.2225  0.7459
  225MPD1    H3 3422   1.480   2.882  12.794  0.2859  1.2447 -1.7039
  225MPD1     N 3423   1.726   2.709  12.442  1.3136  0.3792 -0.1537
  225MPD1    H5 3424   1.694   2.787  12.386  0.0449  1.2141  1.7276
  225MPD1    N1 3425   1.742   2.530  12.902  0.0360  0.9869 -0.1865
  225MPD1    H6 3426   1.768   2.440  12.863 -0.0064  0.2488  1.4940
  225MPD1    H7 3427   1.673   2.521  12.977 -1.6975 -3.0576 -2.2486
  226MPD1     C 3428   1.535   3.206   9.926  0.1673 -0.2043  0.0714
  226MPD1    C1 3429   1.565   3.192   9.797 -0.4194 -0.5972  0.0745
  226MPD1    C2 3430   1.500   3.094   9.726 -0.2206 -0.0747 -0.0398
  226MPD1    C3 3431   1.390   3.029   9.781  0.3410 -0.4071  0.4965
  226MPD1    C4 3432   1.356   3.059   9.910 -0.1612 -0.3337 -0.3266
  226MPD1    C5 3433   1.431   3.141   9.986  1.1593  0.5111 -0.0383
  226MPD1     H 3434   1.539   3.067   9.629 -0.0276  2.3447 -0.6457
  226MPD1    H1 3435   1.266   3.028   9.963  0.1779  1.1984  1.1557
  226MPD1    H2 3436   1.591   3.269   9.993  0.8152 -0.8966  0.1823
  226MPD1    H3 3437   1.414   3.161  10.091 -1.0682 -0.7734 -0.1467
  226MPD1     N 3438   1.310   2.943   9.698 -0.1094  0.7019 -0.2807
  226MPD1    H5 3439   1.347   2.918   9.607  0.6430 -1.2062  0.5462
  226MPD1    N1 3440   1.683   3.248   9.750  0.3534 -0.6831 -0.0023
  226MPD1    H6 3441   1.701   3.346   9.773  0.7741 -0.6115 -0.6133
  226MPD1    H7 3442   1.699   3.225   9.652  0.8943 -0.6603  0.0797
  227MPD1     C 3443   0.423   2.415   9.868 -0.2525 -0.6312  0.6191
  227MPD1    C1 3444   0.526   2.446   9.959 -0.3000 -0.9235 -0.1309
  227MPD1    C2 3445   0.641   2.504   9.913  0.4964 -0.0296  0.6985
  227MPD1    C3 3446   0.656   2.536   9.775  0.0227  0.2036  0.3159
  227MPD1    C4 3447   0.553   2.511   9.691 -0.2922 -0.1118 -0.5788
  227MPD1    C5 3448   0.439   2.446   9.736  0.4239  0.6096 -0.3126
  227MPD1     H 3449   0.724   2.514   9.982  0.1115  0.3151  1.1130
  227MPD1    H1 3450   0.549   2.529   9.585  1.0250  1.8138 -0.3043
  227MPD1    H2 3451   0.333   2.363   9.899  0.4397 -2.0535  0.2185
  227MPD1    H3 3452   0.352   2.431   9.672 -0.3620 -1.6204  1.2700
  227MPD1     N 3453   0.775   2.601   9.729 -0.5372  0.1754  0.7547
  227MPD1    H5 3454   0.846   2.612   9.800  0.5340  1.2926 -0.4820
  227MPD1    N1 3455   0.530   2.388  10.084 -0.5391 -0.0809 -0.3854
  227MPD1    H6 3456   0.436   2.373  10.120 -0.3770  0.3269  0.1983
  227MPD1    H7 3457   0.577   2.446  10.153 -0.3818 -1.0196  0.2986
  228MPD1     C 3458   4.214   4.576  13.004  0.4148 -0.5233  0.4925
  228MPD1    C1 3459   4.240   4.694  13.057  0.5790 -0.8367  0.0726
  228MPD1    C2 3460   4.139   0.035  13.128 -0.5644 -0.3731  0.2882
  228MPD1    C3 3461   4.025   4.694  13.164 -0.4232  0.9449  0.5553
  228MPD1    C4 3462   4.006   4.562  13.125 -0.0302 -1.0781  0.0693
  228MPD1    C5 3463   4.097   4.505  13.043 -0.2792 -0.4620  0.0689
  228MPD1     H 3464   4.149   0.130  13.180 -3.8829 -0.8148  1.7334
  228MPD1    H1 3465   3.919   4.501  13.144 -0.0403 -1.0431  0.1351
  228MPD1    H2 3466   4.292   4.530  12.944  0.7577 -0.6713  1.0527
  228MPD1    H3 3467   4.074   4.404  13.010 -0.2794 -0.4710  0.0973
  228MPD1     N 3468   3.920   0.043  13.234  0.2142  0.1567 -0.4608
  228MPD1    H5 3469   3.935   0.142  13.249  3.7131 -0.4302 -0.1829
  228MPD1    N1 3470   4.351   0.040  13.014  0.2831  0.0856 -0.5042
  228MPD1    H6 3471   4.380   0.110  13.081  0.5121 -0.9649  0.5000
  228MPD1    H7 3472   4.429   4.700  12.994  0.0661 -0.3238 -0.0878
  229MPD1     C 3473   3.383   4.147  14.127  0.6461  0.5416  0.1482
  229MPD1    C1 3474   3.441   4.025  14.101 -0.1847 -0.4923  0.1210
  229MPD1    C2 3475   3.532   3.984  14.189  0.1195  0.1489 -0.5702
  229MPD1    C3 3476   3.559   4.043  14.314 -0.6424  0.3965  0.1136
  229MPD1    C4 3477   3.477   4.150  14.347  0.6492  0.6628 -0.0852
  229MPD1    C5 3478   3.400   4.206  14.252  0.1065 -0.2938  0.4669
  229MPD1     H 3479   3.591   3.896  14.163 -0.6662 -0.1906 -1.1976
  229MPD1    H1 3480   3.492   4.191  14.446 -2.0497 -2.3744  1.5456
  229MPD1    H2 3481   3.320   4.196  14.055 -1.7620 -2.2154  0.3882
  229MPD1    H3 3482   3.336   4.288  14.278  0.8379  0.6180 -0.5867
  229MPD1     N 3483   3.649   3.991  14.411 -0.3311  0.0925 -0.2473
  229MPD1    H5 3484   3.651   4.045  14.497 -1.8313 -2.4152  1.3748
  229MPD1    N1 3485   3.424   3.960  13.975  0.2000 -0.3307 -0.1670
  229MPD1    H6 3486   3.430   3.858  13.977  0.6892 -0.3425 -2.2412
  229MPD1    H7 3487   3.343   3.998  13.926  0.1672  0.1601  0.2682
  230MPD1     C 3488   3.637   4.003  15.280 -0.8393 -0.4879  0.4732
  230MPD1    C1 3489   3.611   4.107  15.186 -0.5415  0.3492  0.0861
  230MPD1    C2 3490   3.655   4.086  15.058 -0.9302 -0.3443  0.0108
  230MPD1    C3 3491   3.743   3.987  15.032 -0.7134 -0.5882  0.4092
  230MPD1    C4 3492   3.777   3.892  15.127  0.0252 -0.1174 -0.1224
  230MPD1    C5 3493   3.721   3.898  15.251 -0.0021 -0.5615 -0.0293
  230MPD1     H 3494   3.613   4.154  14.984 -0.0639 -0.1304 -0.2777
  230MPD1    H1 3495   3.837   3.803  15.112  0.3746  0.5176 -2.4363
  230MPD1    H2 3496   3.587   4.004  15.376  0.7814  1.1262  1.3172
  230MPD1    H3 3497   3.749   3.825  15.325  0.2914 -1.9123 -1.4598
  230MPD1     N 3498   3.786   3.960  14.901  0.4779 -0.1854 -0.0956
  230MPD1    H5 3499   3.749   4.023  14.831 -0.5800 -0.5431  0.1384
  230MPD1    N1 3500   3.514   4.204  15.215  0.0244  0.4585  0.2767
  230MPD1    H6 3501   3.515   4.240  15.311 -1.0228 -1.1782  0.8963
  230MPD1    H7 3502   3.529   4.285  15.155  0.0765  0.9684  0.9704
  231MPD1     C 3503   1.475   0.599  15.371 -0.6563 -0.0517 -0.6977
  231MPD1    C1 3504   1.475   0.547  15.249 -0.2319  0.4126  0.0977
  231MPD1    C2 3505   1.586   0.560  15.173  0.3410  0.1899  0.0046
  231MPD1    C3 3506   1.685   0.646  15.207  0.6177  0.2118 -0.2745
  231MPD1    C4 3507   1.688   0.705  15.328  0.6209 -0.0850  0.0500
  231MPD1    C5 3508   1.576   0.676  15.410  0.1021 -0.0891  0.1287
  231MPD1     H 3509   1.575   0.528  15.069  0.6293 -0.7977  0.2777
  231MPD1    H1 3510   1.750   0.791  15.351  2.5373 -1.4150 -0.2058
  231MPD1    H2 3511   1.393   0.589  15.442 -1.1178 -0.3763 -1.2703
  231MPD1    H3 3512   1.574   0.731  15.503  1.0703  1.5804 -0.8310
  231MPD1     N 3513   1.795   0.657  15.117  0.4472 -0.0852 -0.2130
  231MPD1    H5 3514   1.786   0.613  15.026  0.8203  0.6941 -0.6163
  231MPD1    N1 3515   1.377   0.450  15.228  0.0044 -0.2093  0.5566
  231MPD1    H6 3516   1.293   0.469  15.282  0.9623  0.2154  1.8949
  231MPD1    H7 3517   1.346   0.450  15.131  0.6562 -0.3815  0.3531
  232MPD1     C 3518   4.372   4.336   0.644  0.4987 -0.0518 -0.4893
  232MPD1    C1 3519   4.405   4.206   0.636 -0.6467  0.6097  0.4788
  232MPD1    C2 3520   4.310   4.114   0.606 -0.0301 -0.3252 -0.5373
  232MPD1    C3 3521   4.184   4.151   0.556 -0.2184  0.3618 -0.2752
  232MPD1    C4 3522   4.157   4.284   0.558 -0.0006 -1.1755 -0.8319
  232MPD1    C5 3523   4.253   4.371   0.600 -0.8737 -0.2366  0.1224
  232MPD1     H 3524   4.328   4.008   0.622  2.2765  0.3714  1.5337
  232MPD1    H1 3525   4.063   4.321   0.519 -0.3909 -1.9663 -0.6465
  232MPD1    H2 3526   4.437   4.410   0.689  0.1889 -0.7916  1.1544
  232MPD1    H3 3527   4.219   4.473   0.616 -0.8995  0.0321 -1.7364
  232MPD1     N 3528   4.093   4.047   0.524 -0.0085  0.1448  0.3895
  232MPD1    H5 3529   4.137   3.957   0.511  0.2294  0.0842  1.6953
  232MPD1    N1 3530   4.517   4.170   0.706 -0.4171 -0.0483 -0.1097
  232MPD1    H6 3531   4.595   4.231   0.679 -0.6293  0.5110  0.5605
  232MPD1    H7 3532   4.547   4.075   0.684  2.0554  0.6695  0.1756
  233MPD1     C 3533   2.860   1.640   2.525  0.7459  0.8981 -0.2374
  233MPD1    C1 3534   2.731   1.676   2.496  0.0323 -0.6155 -0.0670
  233MPD1    C2 3535   2.658   1.598   2.406 -0.0382  0.2641 -0.1426
  233MPD1    C3 3536   2.718   1.499   2.335 -0.0576  0.0112 -0.6604
  233MPD1    C4 3537   2.852   1.478   2.353 -1.1937 -0.1280 -0.5056
  233MPD1    C5 3538   2.926   1.546   2.445 -0.0408  0.7646  0.5234
  233MPD1     H 3539   2.559   1.629   2.374 -0.0848  1.2894  0.9824
  233MPD1    H1 3540   2.901   1.408   2.286 -0.2729 -0.1318  0.1807
  233MPD1    H2 3541   2.908   1.697   2.604  1.7813 -0.0230 -0.2082
  233MPD1    H3 3542   3.033   1.528   2.455  0.4142  4.2566  1.8732
  233MPD1     N 3543   2.662   1.415   2.235  0.5293  0.4696  0.1892
  233MPD1    H5 3544   2.726   1.349   2.191  0.2447 -0.3196  0.9579
  233MPD1    N1 3545   2.662   1.759   2.585 -0.3477 -0.6518  0.0214
  233MPD1    H6 3546   2.575   1.798   2.549 -1.2846 -1.1414  1.7636
  233MPD1    H7 3547   2.717   1.836   2.622 -0.3755  0.2986 -1.9335
  234MPD1     C 3548   2.180   1.004   9.348  0.1329 -0.2110  0.6024
  234MPD1    C1 3549   2.121   1.121   9.390 -0.6519 -0.3673  0.1163
  234MPD1    C2 3550   1.983   1.123   9.380 -0.3860  0.2460  0.0063
  234MPD1    C3 3551   1.908   1.016   9.330 -0.9699 -0.0344  1.0917
  234MPD1    C4 3552   1.971   0.899   9.298 -0.1290 -0.6226  0.0995
  234MPD1    C5 3553   2.107   0.896   9.301 -0.1737 -0.4122 -0.1398
  234MPD1     H 3554   1.931   1.209   9.421 -0.0258  1.1958 -1.5430
  234MPD1    H1 3555   1.917   0.812   9.264 -0.5227 -0.5053  0.4395
  234MPD1    H2 3556   2.288   0.996   9.345  0.1940  0.6620  0.4848
  234MPD1    H3 3557   2.162   0.807   9.271  2.2613  0.7058  0.9673
  234MPD1     N 3558   1.769   1.040   9.325  0.8626 -0.8904 -0.1491
  234MPD1    H5 3559   1.739   1.129   9.364 -0.8496 -1.6988  0.3938
  234MPD1    N1 3560   2.186   1.221   9.464 -0.8105 -0.1710 -0.8661
  234MPD1    H6 3561   2.285   1.225   9.440 -0.8048 -0.0877 -0.8287
  234MPD1    H7 3562   2.145   1.314   9.457 -0.9223 -0.3944 -3.0008
  235MPD1     C 3563   3.295   2.869  10.626  0.3686  0.1813  0.0212
  235MPD1    C1 3564   3.252   2.903  10.503  0.0640 -0.0935 -0.6754
  235MPD1    C2 3565   3.298   3.027  10.458  0.2622 -0.1888  0.3395
  235MPD1    C3 3566   3.372   3.120  10.538 -0.3788  0.0101 -0.1817
  235MPD1    C4 3567   3.413   3.076  10.666  0.4998 -0.6965 -0.1075
  235MPD1    C5 3568   3.364   2.955  10.706  0.1009  0.4669 -0.9709
  235MPD1     H 3569   3.278   3.059  10.357  1.4410  4.1210  1.4732
  235MPD1    H1 3570   3.478   3.138  10.726 -0.0276  1.4484 -1.7423
  235MPD1    H2 3571   3.267   2.772  10.665  2.0192  0.9319  3.1459
  235MPD1    H3 3572   3.406   2.923  10.801 -0.7785 -0.0866 -0.7631
  235MPD1     N 3573   3.403   3.249  10.489 -0.5423  0.5329 -0.0239
  235MPD1    H5 3574   3.371   3.268  10.395  0.0706 -0.8511 -0.5165
  235MPD1    N1 3575   3.196   2.811  10.416 -0.3909  0.2990 -0.4072
  235MPD1    H6 3576   3.152   2.838  10.328 -2.6344 -2.0188 -0.0054
  235MPD1    H7 3577   3.147   2.739  10.468  0.7126  1.3845  2.1624
  236MPD1     C 3578   2.764   4.369  10.338 -0.4084  1.1575  0.1875
  236MPD1    C1 3579   2.673   4.300  10.412 -0.9067  0.5628 -0.3521
  236MPD1    C2 3580   2.724   4.208  10.513 -0.2056 -0.4203 -0.7768
  236MPD1    C3 3581   2.864   4.207  10.549 -0.1865  0.2281 -0.3799
  236MPD1    C4 3582   2.940   4.297  10.485  0.0032  0.5084  0.3849
  236MPD1    C5 3583   2.895   4.365  10.376 -0.0734  0.5122  0.7265
  236MPD1     H 3584   2.660   4.138  10.565 -1.1597 -0.0261 -1.4228
  236MPD1    H1 3585   3.040   4.330  10.511 -0.6130  1.4548  1.5608
  236MPD1    H2 3586   2.736   4.419  10.247 -1.9631 -0.8999 -0.4549
  236MPD1    H3 3587   2.962   4.437  10.329  0.9248  0.0329  1.4112
  236MPD1     N 3588   2.920   4.125  10.649 -0.0714 -0.5251 -0.0753
  236MPD1    H5 3589   3.019   4.142  10.662 -0.3511 -0.4125  1.9040
  236MPD1    N1 3590   2.547   4.280  10.362 -0.1855  0.6906  0.9594
  236MPD1    H6 3591   2.524   4.372  10.325 -1.7900 -0.7734 -1.7163
  236MPD1    H7 3592   2.483   4.256  10.437 -0.1681  0.5059  0.9139
  237MPD1     C 3593   3.055   2.235  14.925 -0.1062  0.1416  0.5030
  237MPD1    C1 3594   3.034   2.287  15.046  0.0373  0.8417 -0.9210
  237MPD1    C2 3595   2.914   2.264  15.112 -0.1665  0.0843 -0.2301
  237MPD1    C3 3596   2.837   2.155  15.071 -0.3347 -0.3233 -0.1540
  237MPD1    C4 3597   2.874   2.084  14.960 -0.6551  0.3862  0.1965
  237MPD1    C5 3598   2.977   2.129  14.885 -0.3986 -0.7891  0.3921
  237MPD1     H 3599   2.890   2.318  15.202  0.7106 -0.2446  0.2052
  237MPD1    H1 3600   2.829   1.995  14.917 -0.9252  0.1928  0.8845
  237MPD1    H2 3601   3.150   2.248  14.873  0.1991 -1.1842  0.7453
  237MPD1    H3 3602   3.002   2.066  14.801  0.7322  0.6176 -0.3121
  237MPD1     N 3603   2.710   2.127  15.134  0.0804  0.2136  0.4450
  237MPD1    H5 3604   2.656   2.050  15.096  0.2729 -0.1284  0.8637
  237MPD1    N1 3605   3.122   2.382  15.094  1.4089 -0.9570 -0.6832
  237MPD1    H6 3606   3.132   2.367  15.195 -2.3926  2.8989  0.2709
  237MPD1    H7 3607   3.215   2.381  15.054  1.6136  1.5416 -0.2685
  238MPD1     C 3608   4.339   1.248  15.204 -0.7450  0.1467 -0.0627
  238MPD1    C1 3609   4.210   1.261  15.237  0.1477 -0.2851 -0.1857
  238MPD1    C2 3610   4.111   1.201  15.158 -0.1984  0.2738  0.1324
  238MPD1    C3 3611   4.146   1.132  15.041 -0.1824 -0.3292 -0.1243
  238MPD1    C4 3612   4.276   1.131  15.008  0.0127  0.2500  0.3768
  238MPD1    C5 3613   4.372   1.196  15.083  0.1354  1.1970 -0.4212
  238MPD1     H 3614   4.006   1.221  15.179 -0.1650  0.1367  0.4257
  238MPD1    H1 3615   4.304   1.071  14.922  1.6186  0.1048  1.0122
  238MPD1    H2 3616   4.411   1.276  15.280 -0.5220  0.3191 -0.3359
  238MPD1    H3 3617   4.475   1.184  15.052 -0.1263  0.0401 -0.8396
  238MPD1     N 3618   4.063   1.042  14.966  0.4068 -0.4075  0.0357
  238MPD1    H5 3619   4.100   0.988  14.888  0.9078  1.1656 -0.7949
  238MPD1    N1 3620   4.182   1.317  15.369  0.4137 -0.5095  0.1088
  238MPD1    H6 3621   4.089   1.357  15.375  0.2780 -0.8578  0.2956
  238MPD1    H7 3622   4.244   1.396  15.386  1.7029 -1.6574  0.8360
  239MPD1     C 3623   4.194   1.348  14.704 -0.2380 -0.0838  0.2230
  239MPD1    C1 3624   4.324   1.406  14.694  0.6058 -0.5840 -0.4103
  239MPD1    C2 3625   4.340   1.504  14.602 -0.4847  0.0123 -0.1058
  239MPD1    C3 3626   4.235   1.545  14.520 -0.0268 -0.0727 -0.1894
  239MPD1    C4 3627   4.112   1.480  14.527 -0.2867 -0.2288 -0.0390
  239MPD1    C5 3628   4.088   1.386  14.625 -0.1919  0.6666 -0.3977
  239MPD1     H 3629   4.431   1.563  14.594  0.0486 -0.5753  1.8187
  239MPD1    H1 3630   4.033   1.504  14.457 -0.0603  0.6522  0.0096
  239MPD1    H2 3631   4.173   1.287  14.791  0.8615  1.4317  1.5433
  239MPD1    H3 3632   3.993   1.337  14.640  0.4221 -0.3871  0.0343
  239MPD1     N 3633   4.237   1.659  14.435  0.5548 -0.5734 -0.0870
  239MPD1    H5 3634   4.149   1.680  14.388  0.3425 -3.0903 -0.7946
  239MPD1    N1 3635   4.414   1.396  14.799  0.4702  0.5753 -0.1265
  239MPD1    H6 3636   4.419   1.300  14.833 -1.2652  1.0523  1.4390
  239MPD1    H7 3637   4.512   1.417  14.780  0.1911  1.0906 -1.0064
  240MPD1     C 3638   4.012   1.196  14.161 -0.1376  0.3373 -0.6457
  240MPD1    C1 3639   3.879   1.218  14.137  0.1064  0.0762  0.3032
  240MPD1    C2 3640   3.790   1.220  14.241 -0.1309 -0.1344  0.4995
  240MPD1    C3 3641   3.832   1.174  14.370  0.1810 -0.2702 -0.9567
  240MPD1    C4 3642   3.966   1.164  14.398  0.4368  0.0825  1.3047
  240MPD1    C5 3643   4.053   1.161  14.292 -0.0172 -0.6291 -0.0460
  240MPD1     H 3644   3.684   1.222  14.218 -0.4174 -2.0552  1.6236
  240MPD1    H1 3645   4.000   1.123  14.493  0.2659 -0.9185  0.9339
  240MPD1    H2 3646   4.074   1.192  14.072  0.9662 -2.2985  0.2525
  240MPD1    H3 3647   4.156   1.134  14.309 -0.4843 -0.8150  2.6099
  240MPD1     N 3648   3.728   1.157  14.460  0.2965 -0.1898 -0.4958
  240MPD1    H5 3649   3.631   1.154  14.430  0.3904  1.3706 -0.9368
  240MPD1    N1 3650   3.832   1.267  14.011  0.1208  0.6136 -0.3095
  240MPD1    H6 3651   3.740   1.231  13.988  0.1648 -1.2439  2.3961
  240MPD1    H7 3652   3.902   1.229  13.947  1.7076 -0.8755  2.2630
  241MPD1     C 3653   3.084   1.276  15.274 -0.6164 -0.0789  0.1589
  241MPD1    C1 3654   3.192   1.344  15.234  0.2346  0.1755 -0.2144
  241MPD1    C2 3655   3.263   1.285  15.134 -0.7867 -0.5700  0.4814
  241MPD1    C3 3656   3.256   1.148  15.107 -0.0124  0.3120  0.2406
  241MPD1    C4 3657   3.150   1.075  15.166  0.2702 -0.0160 -0.8466
  241MPD1    C5 3658   3.069   1.139  15.259  0.3749 -0.1826 -0.5462
  241MPD1     H 3659   3.334   1.346  15.078  0.2772 -1.8236  0.4813
  241MPD1    H1 3660   3.132   0.969  15.151  0.4986 -0.2157  0.2684
  241MPD1    H2 3661   3.013   1.322  15.341 -0.3878  1.4941 -0.6722
  241MPD1    H3 3662   3.001   1.081  15.321  0.7267  0.1625  0.1643
  241MPD1     N 3663   3.335   1.081  15.016 -0.4078  0.5190  0.3481
  241MPD1    H5 3664   3.304   0.986  14.996  1.4398 -0.4119  1.8574
  241MPD1    N1 3665   3.218   1.477  15.268  0.3719  0.4231 -0.0533
  241MPD1    H6 3666   3.315   1.506  15.255  0.9098 -1.0869  0.5990
  241MPD1    H7 3667   3.185   1.497  15.362  3.2397  1.8472  0.6538
  242MPD1     C 3668   2.856   4.567  15.866  0.2997 -0.0912  0.2567
  242MPD1    C1 3669   2.939   4.676  15.866 -1.0081 -0.1371  0.8326
  242MPD1    C2 3670   3.030   4.689  15.760  0.2682 -0.4488  0.8423
  242MPD1    C3 3671   3.015   4.611  15.646 -0.1046 -0.6075 -0.1453
  242MPD1    C4 3672   2.920   4.513  15.643 -0.0646 -0.3855  1.4564
  242MPD1    C5 3673   2.848   4.485  15.759 -0.4659 -0.1554  0.1148
  242MPD1     H 3674   3.102   0.047  15.765 -0.3077  0.0478  1.0964
  242MPD1    H1 3675   2.904   4.445  15.560 -1.9397 -0.0597  1.5422
  242MPD1    H2 3676   2.790   4.541  15.948  0.3536 -0.4240  0.1922
  242MPD1    H3 3677   2.776   4.404  15.760  2.1427 -2.4876  0.9092
  242MPD1     N 3678   3.104   4.617  15.537 -0.7041 -0.4055  0.3860
  242MPD1    H5 3679   3.085   4.546  15.468 -0.2240 -0.3607  0.2080
  242MPD1    N1 3680   2.957   0.029  15.983 -0.3225  0.6990  0.1348
  242MPD1    H6 3681   2.875   0.038  16.043  0.4322 -0.7841  1.3782
  242MPD1    H7 3682   2.992   0.124  15.976  2.5845 -0.5360 -2.0415
  243MPD1     C 3683   3.583   2.959   0.074 -0.4517 -0.8292 -0.7350
  243MPD1    C1 3684   3.605   3.051  17.667  0.0103  0.0237  0.1594
  243MPD1    C2 3685   3.733   3.049  17.607 -0.5122  0.3975 -0.6012
  243MPD1    C3 3686   3.833   2.962  17.643 -0.2547 -0.1491  0.0608
  243MPD1    C4 3687   3.811   2.881   0.058  0.1439 -0.1504  0.0491
  243MPD1    C5 3688   3.683   2.875   0.113  0.3390 -0.6930  0.0997
  243MPD1     H 3689   3.754   3.124  17.532 -1.4508  0.0953 -1.1728
  243MPD1    H1 3690   3.881   2.804   0.090 -1.8137 -1.6709  0.6581
  243MPD1    H2 3691   3.489   2.951   0.126 -0.7329  0.5475 -1.0304
  243MPD1    H3 3692   3.657   2.799   0.186 -1.5756  1.1754  1.3705
  243MPD1     N 3693   3.947   2.961  17.559  0.7598 -0.0470 -0.1190
  243MPD1    H5 3694   3.932   3.020  17.477  2.8453 -1.7077 -1.7038
  243MPD1    N1 3695   3.499   3.128  17.608 -0.7640  0.5063 -0.0325
  243MPD1    H6 3696   3.542   3.214  17.574  0.7594 -0.8023 -1.4027
  243MPD1    H7 3697   3.425   3.149  17.674 -1.1090 -1.9450  0.3436
  244MPD1     C 3698   4.673   2.297  17.384 -0.0207  0.4083 -0.6767
  244MPD1    C1 3699   4.610   2.312  17.506  0.6263  0.7392  0.2935
  244MPD1    C2 3700   4.556   2.438  17.529 -0.4090  0.0616  0.4240
  244MPD1    C3 3701   4.556   2.536  17.432  0.8099 -0.3303 -1.0003
  244MPD1    C4 3702   4.606   2.508  17.308 -0.0459  0.2481 -0.7059
  244MPD1    C5 3703   4.663   2.385  17.284  0.3130 -0.0635  0.6878
  244MPD1     H 3704   4.508   2.460  17.623  3.6681  1.4034  2.1883
  244MPD1    H1 3705   4.591   2.576  17.224 -0.2569 -0.5009 -1.2803
  244MPD1    H2 3706   0.005   2.206  17.361 -0.9761 -0.3385  0.0013
  244MPD1    H3 3707   4.680   2.347  17.184  2.2900  2.3875  0.0782
  244MPD1     N 3708   4.493   2.662  17.463  0.4049 -0.0380 -0.1425
  244MPD1    H5 3709   4.445   2.665  17.553  0.5406  1.0298 -0.1095
  244MPD1    N1 3710   4.619   2.222  17.622  0.3563  0.6440  0.6228
  244MPD1    H6 3711   4.624   2.124  17.595  1.5181  0.6207  0.9073
  244MPD1    H7 3712   4.535   2.241  17.676 -1.4465 -1.4554 -1.4419
  245MPD1     C 3713   1.277   3.459  13.131 -0.6167  0.1338 -0.0617
  245MPD1    C1 3714   1.273   3.530  13.252  0.2548  0.3549 -0.1347
  245MPD1    C2 3715   1.394   3.572  13.307 -0.3411  0.0207 -0.0433
  245MPD1    C3 3716   1.515   3.565  13.231  0.5165 -0.3224 -0.2991
  245MPD1    C4 3717   1.508   3.511  13.108 -0.3282 -0.5424  0.2303
  245MPD1    C5 3718   1.392   3.449  13.061  0.4265 -0.5252  0.2068
  245MPD1     H 3719   1.392   3.620  13.404 -0.0893  1.4530 -0.7415
  245MPD1    H1 3720   1.591   3.524  13.039 -1.3149 -0.4725 -0.9543
  245MPD1    H2 3721   1.187   3.413  13.092 -0.6595 -1.6742  2.1615
  245MPD1    H3 3722   1.379   3.416  12.958  0.6378  2.4531 -0.7981
  245MPD1     N 3723   1.636   3.624  13.282  0.2203  0.1903 -0.0787
  245MPD1    H5 3724   1.629   3.664  13.375 -0.6357  0.1619 -0.1380
  245MPD1    N1 3725   1.170   3.516  13.338 -0.3538 -0.3044  0.1484
  245MPD1    H6 3726   1.081   3.504  13.291  0.1042 -1.4693 -0.4055
  245MPD1    H7 3727   1.162   3.581  13.416  1.0548 -0.2811  0.2787
  246MPD1     C 3728   0.708   3.878   9.586  0.6921  1.0635  0.1780
  246MPD1    C1 3729   0.709   3.847   9.453  0.4255 -0.7238 -0.3874
  246MPD1    C2 3730   0.829   3.879   9.379  0.0763 -0.1332 -0.0129
  246MPD1    C3 3731   0.945   3.913   9.438 -0.2800 -0.1227  0.6548
  246MPD1    C4 3732   0.946   3.930   9.580  0.5068  0.0208  0.1704
  246MPD1    C5 3733   0.830   3.900   9.651  0.1740 -0.0668 -0.2571
  246MPD1     H 3734   0.827   3.872   9.271  2.3157 -1.2520  0.0169
  246MPD1    H1 3735   1.037   3.937   9.638  0.6189 -0.4523  0.0512
  246MPD1    H2 3736   0.619   3.858   9.645  1.3201  1.1722  1.1603
  246MPD1    H3 3737   0.832   3.912   9.759 -2.7209 -1.2350 -0.0818
  246MPD1     N 3738   1.051   3.945   9.358  0.8517 -0.7537 -0.1086
  246MPD1    H5 3739   1.053   3.901   9.267 -1.2410  3.1348 -2.0536
  246MPD1    N1 3740   0.586   3.826   9.385 -0.0124 -0.1574  0.8066
  246MPD1    H6 3741   0.527   3.768   9.444 -0.7150  1.5620  1.7964
  246MPD1    H7 3742   0.602   3.765   9.305  0.2385 -1.6350  1.9723
  247MPD1     C 3743   1.592   4.620  15.986 -0.2715 -0.1540 -0.2161
  247MPD1    C1 3744   1.634   4.557  16.101  0.5876 -0.4140 -0.6741
  247MPD1    C2 3745   1.602   4.428  16.123 -0.2282 -0.3446 -0.6890
  247MPD1    C3 3746   1.530   4.355  16.028 -0.2312 -0.4830  0.5091
  247MPD1    C4 3747   1.483   4.424  15.920 -0.1208 -0.4326 -0.6665
  247MPD1    C5 3748   1.520   4.549  15.898 -0.0996 -0.1730 -0.7288
  247MPD1     H 3749   1.631   4.378  16.214  0.8143 -0.0129 -0.8455
  247MPD1    H1 3750   1.420   4.372  15.848 -0.4590 -0.9093 -0.0264
  247MPD1    H2 3751   1.617   0.000  15.963  0.7191 -0.6336 -1.2793
  247MPD1    H3 3752   1.488   4.589  15.802  0.6039  2.1590  0.0147
  247MPD1     N 3753   1.482   4.222  16.043  0.1707  0.2440 -0.2156
  247MPD1    H5 3754   1.454   4.175  15.957  0.4962 -2.6607  1.2598
  247MPD1    N1 3755   1.683   4.643  16.208 -0.0070 -0.1500 -0.4046
  247MPD1    H6 3756   1.745   4.713  16.167 -0.0498 -0.7075 -1.4295
  247MPD1    H7 3757   1.750   4.591  16.265  0.8277 -0.9660 -2.1443
  248MPD1     C 3758   2.264   3.466   0.173  0.0057  0.0961 -0.6740
  248MPD1    C1 3759   2.162   3.553   0.204  0.4166 -0.1435  0.0484
  248MPD1    C2 3760   2.110   3.544   0.332  0.5311  0.0224 -0.2003
  248MPD1    C3 3761   2.143   3.441   0.420  0.3223  0.6556  0.6370
  248MPD1    C4 3762   2.242   3.353   0.382 -0.4931  1.0608  0.4306
  248MPD1    C5 3763   2.304   3.368   0.262  0.0522  0.2369  0.0234
  248MPD1     H 3764   2.032   3.613   0.363  1.4178  1.4448 -1.2015
  248MPD1    H1 3765   2.273   3.267   0.439 -3.0636 -0.9883 -1.2985
  248MPD1    H2 3766   2.307   3.475   0.074 -0.7194  0.7318 -0.9299
  248MPD1    H3 3767   2.385   3.298   0.246  0.1625  0.3619  0.0388
  248MPD1     N 3768   2.063   3.421   0.535 -0.4271  0.0072  0.3197
  248MPD1    H5 3769   1.986   3.485   0.549 -0.0819  0.9442 -2.2654
  248MPD1    N1 3770   2.149   3.659   0.115  0.3753  0.2932  0.3992
  248MPD1    H6 3771   2.172   3.647   0.017 -1.0729 -0.7369  0.1886
  248MPD1    H7 3772   2.056   3.701   0.119 -0.4187 -1.5444  1.1824
  249MPD1     C 3773   3.581   2.084   9.086 -0.3885  0.8476  0.0744
  249MPD1    C1 3774   3.577   2.222   9.088 -0.5465  0.0161 -0.6380
  249MPD1    C2 3775   3.568   2.291   9.206 -0.3223  0.2396 -0.3074
  249MPD1    C3 3776   3.548   2.222   9.328 -0.1280 -0.5588 -0.6201
  249MPD1    C4 3777   3.547   2.084   9.323 -0.0084  0.2035  0.0713
  249MPD1    C5 3778   3.556   2.017   9.204  0.1807  0.0825 -0.4041
  249MPD1     H 3779   3.568   2.399   9.202 -0.8937  0.2730  0.6964
  249MPD1    H1 3780   3.530   2.032   9.417 -3.0103  1.4747  0.2452
  249MPD1    H2 3781   3.585   2.032   8.991  1.5295  2.8340 -0.9152
  249MPD1    H3 3782   3.542   1.909   9.199 -0.3561  0.2288 -2.2215
  249MPD1     N 3783   3.557   2.297   9.450  0.4752 -1.1952 -0.1249
  249MPD1    H5 3784   3.570   2.398   9.446  3.6991 -1.5876  0.5758
  249MPD1    N1 3785   3.613   2.285   8.974  0.1476 -0.0074  0.6176
  249MPD1    H6 3786   3.591   2.230   8.891 -1.4150  3.7889 -1.4981
  249MPD1    H7 3787   3.565   2.375   8.966  0.1424 -0.1247 -0.6745
  250MPD2     C 3788   0.716   2.092  13.475  0.6878 -0.2752 -0.9825
  250MPD2    C1 3789   0.627   2.183  13.432  0.9753 -0.1271  0.2219
  250MPD2    C2 3790   0.494   2.155  13.450  0.3201 -1.0697  0.3252
  250MPD2    C3 3791   0.450   2.035  13.500 -0.4270  0.0355  0.3297
  250MPD2    C4 3792   0.545   1.950  13.552  1.2271 -0.1609  0.4991
  250MPD2    C5 3793   0.678   1.978  13.540 -0.3059 -0.5167  0.1829
  250MPD2     H 3794   0.427   2.232  13.414  1.4059 -0.5022 -0.5031
  250MPD2    H1 3795   0.506   1.862  13.602  0.7851  0.3481  1.0564
  250MPD2    H2 3796   0.822   2.114  13.461  0.1338  2.2219 -1.3713
  250MPD2    H3 3797   0.749   1.900  13.565 -0.0235 -0.4051 -0.2780
  250MPD2     N 3798   0.314   2.001  13.526  0.3136 -0.0489 -0.3908
  250MPD2    H5 3799   0.299   1.910  13.567  0.9852  0.8924  1.9563
  250MPD2    N1 3800   0.681   2.303  13.375 -0.0245 -0.2332 -1.1647
  250MPD2    H7 3801   0.778   2.329  13.390 -0.0490  0.7266 -2.6698
  251TMC3    C1 3802   0.673   2.505  13.260  0.0705 -0.9628 -0.5178
  251TMC3    C2 3803   0.595   2.614  13.250  0.5761 -0.5685 -0.4412
  251TMC3    C3 3804   0.634   2.715  13.174 -0.3103  0.0367 -0.5382
  251TMC3    C4 3805   0.794   2.491  13.200  0.1810  0.2544 -0.4433
  251TMC3    C5 3806   0.835   2.606  13.131 -0.5613 -0.2372  0.1387
  251TMC3    C6 3807   0.763   2.716  13.125  0.7485 -0.2916 -0.3252
  251TMC3     C 3808   0.598   2.395  13.307 -0.5245  0.1414  0.0807
  251TMC3     O 3809   0.488   2.382  13.256  0.1683  0.0272 -0.2068
  251TMC3     H 3810   0.500   2.616  13.303  0.5603  0.7439 -0.5196
  251TMC3    H1 3811   0.857   2.403  13.200  2.0634  1.6073  2.0238
  251TMC3    H2 3812   0.801   2.813  13.092  1.9235 -0.1659  1.3781
  251TMC3    C7 3813   0.978   2.606  13.101  0.2725 -0.1054 -0.2571
  251TMC3    C8 3814   0.559   2.839  13.174  0.3533 -0.4330  0.0387
  251TMC3    O1 3815   1.029   2.496  13.072  0.4806  0.0689 -0.5138
  251TMC3    O2 3816   0.487   2.845  13.272 -0.5435  0.1284  0.0885
  252TMC3    C1 3817   1.128   3.393  10.010  0.3065  0.1454 -0.4790
  252TMC3    C2 3818   1.240   3.472  10.022 -0.5820 -0.2301  0.0765
  252TMC3    C3 3819   1.327   3.472   9.914  0.0155 -0.4453  1.1078
  252TMC3    C4 3820   1.091   3.341   9.889  0.3599 -0.4873  0.6576
  252TMC3    C5 3821   1.188   3.329   9.792  0.0717 -0.0879 -0.2876
  252TMC3    C6 3822   1.307   3.394   9.803  0.0224  0.4949 -0.1082
  252TMC3     C 3823   1.029   3.410  10.105 -0.1209 -0.3525 -0.6304
  252TMC3     O 3824   1.044   3.497  10.192 -0.4040  0.1907  0.1021
  252TMC3     H 3825   1.267   3.518  10.117 -0.2590  2.3982 -1.2714
  252TMC3    H1 3826   0.989   3.311   9.870  0.2007  1.0061 -0.8497
  252TMC3    H2 3827   1.373   3.381   9.718 -0.9731  2.0108 -1.1141
  252TMC3    C7 3828   1.167   3.265   9.663  0.3088  0.5109 -0.1635
  252TMC3    C8 3829   1.443   3.558   9.909  0.7023  0.1565 -0.2502
  252TMC3    O1 3830   1.255   3.269   9.579 -0.4153  0.4330  0.0237
  252TMC3    O2 3831   1.523   3.530   9.819 -0.4607 -0.1840 -0.0080
  253MPD2     C 3832   1.762   2.122  15.430 -0.9551 -0.3368  0.1165
  253MPD2    C1 3833   1.626   2.112  15.453  0.1547 -0.4673 -0.0948
  253MPD2    C2 3834   1.573   2.176  15.564  0.0080 -0.1429  0.5381
  253MPD2    C3 3835   1.649   2.252  15.652 -0.1820 -0.8461  0.3763
  253MPD2    C4 3836   1.786   2.266  15.630 -0.6590 -0.4308  0.0329
  253MPD2    C5 3837   1.837   2.201  15.514 -0.7715  0.0835  0.7032
  253MPD2     H 3838   1.466   2.191  15.567  0.1711  1.4251 -1.9022
  253MPD2    H1 3839   1.857   2.305  15.702  0.0054 -1.8403  0.1433
  253MPD2    H2 3840   1.821   2.082  15.349  2.8436  0.4725  2.4987
  253MPD2    H3 3841   1.942   2.196  15.489 -0.9789  4.4201 -0.8846
  253MPD2     N 3842   1.601   2.316  15.768 -0.6080  0.0498 -0.2423
  253MPD2    H5 3843   1.669   2.367  15.823 -0.7444  0.8295 -0.8032
  253MPD2    N1 3844   1.536   2.058  15.358 -0.1732 -0.3132 -0.2363
  253MPD2    H7 3845   1.436   2.057  15.378  0.5914  1.3330  3.6555
  254TMC3    C1 3846   1.444   2.364  15.940 -0.1128 -0.0244  0.4613
  254TMC3    C2 3847   1.318   2.423  15.967 -0.3214  0.0393 -0.5265
  254TMC3    C3 3848   1.293   2.462  16.096 -0.2673  0.0555  0.4397
  254TMC3    C4 3849   1.537   2.338  16.034  0.4748  0.0479 -0.2607
  254TMC3    C5 3850   1.496   2.365  16.161 -0.0312  0.7131  0.3598
  254TMC3    C6 3851   1.376   2.430  16.199  0.5128 -0.5670 -0.5409
  254TMC3     C 3852   1.470   2.308  15.807  0.4843 -0.1511 -0.2850
  254TMC3     O 3853   1.378   2.238  15.769 -0.2023  0.2436 -0.0391
  254TMC3     H 3854   1.245   2.433  15.888  0.0294 -2.1219 -1.1295
  254TMC3    H1 3855   1.633   2.294  16.010  1.0885  1.2082  0.0763
  254TMC3    H2 3856   1.364   2.460  16.303 -1.1557  2.2148 -1.5311
  254TMC3    C7 3857   1.603   2.388  16.267  0.3050  0.1124 -0.3968
  254TMC3    C8 3858   1.169   2.539  16.127  0.0507 -0.3213  0.3795
  254TMC3    O1 3859   1.564   2.406  16.378  0.2629 -0.0292 -0.1918
  254TMC3    O2 3860   1.130   2.532  16.244 -0.2123  0.6061  0.1762
  255MPD2     C 3861   0.515   0.315  10.683  0.5017 -0.3883 -0.4496
  255MPD2    C1 3862   0.459   0.240  10.582  0.0553 -0.1246  0.0490
  255MPD2    C2 3863   0.540   0.200  10.474  0.3097 -0.3188  0.3931
  255MPD2    C3 3864   0.673   0.234  10.470 -0.0013 -0.4791 -0.5790
  255MPD2    C4 3865   0.729   0.314  10.568 -0.2470  0.1523  0.6331
  255MPD2    C5 3866   0.642   0.347  10.669  0.3795 -0.7304 -1.2193
  255MPD2     H 3867   0.496   0.159  10.384 -0.7637  1.5272  0.0645
  255MPD2    H1 3868   0.829   0.354  10.578 -0.4881  0.8613  0.1765
  255MPD2    H2 3869   0.471   0.353  10.774  0.3449  0.1801 -0.7641
  255MPD2    H3 3870   0.691   0.407  10.745 -3.0956 -0.5060  0.8569
  255MPD2     N 3871   0.751   0.194  10.353 -0.1564 -0.7398 -0.7473
  255MPD2    H5 3872   0.704   0.138  10.284 -1.2035  0.4025 -0.9548
  255MPD2    N1 3873   0.322   0.210  10.584  1.1888 -0.0612 -0.0905
  255MPD2    H7 3874   0.271   0.262  10.654  0.4892  0.3542 -0.9051
  256TMC3    C1 3875   0.117   0.124  10.504 -0.1888 -0.1385  0.0522
  256TMC3    C2 3876   0.051   0.215  10.581  0.2603 -0.0180  0.5211
  256TMC3    C3 3877   4.639   0.206  10.598 -0.2033 -0.4199 -0.2043
  256TMC3    C4 3878   0.044   0.023  10.434  0.1900  0.0620 -0.4650
  256TMC3    C5 3879   4.631   0.020  10.446 -0.1088  0.3099 -0.4011
  256TMC3    C6 3880   4.572   0.108  10.530 -0.0440  0.7373  0.3982
  256TMC3     C 3881   0.264   0.120  10.504  0.2860 -0.2661  0.8886
  256TMC3     O 3882   0.320   0.044  10.425  0.3616  0.0933 -0.0499
  256TMC3     H 3883   0.105   0.297  10.627 -0.8820  1.5698 -0.9659
  256TMC3    H1 3884   0.095   4.657  10.398  1.6745  0.2833  1.0833
  256TMC3    H2 3885   4.465   0.107  10.547  0.2300  0.5127  2.1288
  256TMC3    C7 3886   4.554   4.673  10.343  0.2123  0.2700  0.1727
  256TMC3    C8 3887   4.565   0.331  10.598  0.8807  1.1560  0.3499
  256TMC3    O1 3888   4.599   4.662  10.224 -0.1386 -0.1525  0.2727
  256TMC3    O2 3889   4.453   0.330  10.647 -0.6086 -0.2556 -0.5570
  257MPD2     C 3890   4.030   2.712  13.169 -0.4874  0.6095 -0.2847
  257MPD2    C1 3891   3.986   2.616  13.084 -0.1403 -0.0423  0.3347
  257MPD2    C2 3892   3.944   2.494  13.144 -0.4660  0.4433  0.3020
  257MPD2    C3 3893   3.965   2.464  13.276  0.0640 -0.1301 -0.4327
  257MPD2    C4 3894   4.012   2.559  13.364 -0.0492 -0.4161 -0.2840
  257MPD2    C5 3895   4.040   2.679  13.305  0.2895  0.2808  0.3889
  257MPD2     H 3896   3.901   2.420  13.078  0.0316 -1.2392  1.8605
  257MPD2    H1 3897   4.027   2.534  13.468  3.1447 -1.1618 -0.9048
  257MPD2    H2 3898   4.062   2.810  13.135  2.9012  0.1790  1.5999
  257MPD2    H3 3899   4.097   2.746  13.369 -1.0281  1.8121 -0.0352
  257MPD2     N 3900   3.915   2.331  13.315 -0.0446 -0.2800  0.3036
  257MPD2    H5 3901   3.885   2.279  13.234  1.0646  1.2814 -1.1188
  257MPD2    N1 3902   3.975   2.654  12.954 -0.6177 -0.2384 -1.0729
  257MPD2    H7 3903   4.015   2.744  12.931 -0.3923 -0.3355 -1.0515
  258TMC3    C1 3904   3.866   2.131  13.447 -0.5528 -0.2908  0.0034
  258TMC3    C2 3905   3.789   2.083  13.349 -0.3366  0.0496 -0.1509
  258TMC3    C3 3906   3.724   1.968  13.372  0.9598  0.1893  0.9101
  258TMC3    C4 3907   3.891   2.063  13.566 -0.6663 -0.3212 -0.0741
  258TMC3    C5 3908   3.835   1.946  13.582 -0.6768 -0.8226  0.1173
  258TMC3    C6 3909   3.748   1.901  13.489  0.5462  0.6887  0.5841
  258TMC3     C 3910   3.925   2.265  13.438 -0.6995  0.6799 -0.3420
  258TMC3     O 3911   3.983   2.310  13.536  0.0546 -0.2337 -0.3205
  258TMC3     H 3912   3.791   2.130  13.251  0.2116  0.9484  0.2879
  258TMC3    H1 3913   3.942   2.106  13.651 -3.1333 -0.6558  1.5659
  258TMC3    H2 3914   3.686   1.816  13.515  0.1917  0.3976 -1.2006
  258TMC3    C7 3915   3.853   1.872  13.704 -0.9609  0.4521  0.1542
  258TMC3    C8 3916   3.653   1.895  13.268 -0.3424  0.2719 -0.2082
  258TMC3    O1 3917   3.744   1.826  13.751  0.2155  0.4847  0.3289
  258TMC3    O2 3918   3.640   1.775  13.282  0.5946 -0.0733 -0.0616
  259MPD2     C 3919   2.201   4.030   1.154 -0.6966  0.5096  0.4520
  259MPD2    C1 3920   2.270   3.911   1.182 -0.4575 -0.6815  0.2594
  259MPD2    C2 3921   2.348   3.859   1.079 -0.3597 -0.0798  0.2483
  259MPD2    C3 3922   2.369   3.928   0.962 -0.3137  0.0379  0.2462
  259MPD2    C4 3923   2.302   4.046   0.937 -0.1663 -0.0904 -0.1273
  259MPD2    C5 3924   2.217   4.096   1.032  0.0313  0.1958 -0.5943
  259MPD2     H 3925   2.402   3.765   1.083 -0.5322 -0.1930 -0.1488
  259MPD2    H1 3926   2.294   4.106   0.847  2.0144 -0.2560 -0.4373
  259MPD2    H2 3927   2.144   4.076   1.234 -1.4183  0.7822 -0.2221
  259MPD2    H3 3928   2.169   4.192   1.022 -0.7032 -0.0677  0.5098
  259MPD2     N 3929   2.460   3.875   0.873 -0.9075 -0.7045  0.6073
  259MPD2    H5 3930   2.516   3.794   0.898  0.2135  0.1556  0.8459
  259MPD2    N1 3931   2.259   3.838   1.304 -0.6659  0.0244 -0.3345
  259MPD2    H7 3932   2.195   3.881   1.369  1.1684  0.9558  0.8377
  260TMC3    C1 3933   2.620   3.887   0.702 -0.9433 -0.1344  0.2854
  260TMC3    C2 3934   2.691   3.979   0.629  0.3030  0.5036  0.4008
  260TMC3    C3 3935   2.825   3.964   0.620  0.8318  0.2500  0.2222
  260TMC3    C4 3936   2.662   3.766   0.747  0.0394 -0.4839  0.6885
  260TMC3    C5 3937   2.796   3.751   0.717 -0.1642 -0.5138 -0.0375
  260TMC3    C6 3938   2.876   3.848   0.664 -0.4323  0.1426 -0.1289
  260TMC3     C 3939   2.494   3.931   0.754 -0.2447 -0.8526  0.1963
  260TMC3     O 3940   2.443   4.024   0.695  0.8584 -0.2758 -0.2740
  260TMC3     H 3941   2.654   4.077   0.601  0.7237 -0.0801 -2.1574
  260TMC3    H1 3942   2.610   3.692   0.808 -0.6586 -1.2892 -0.8809
  260TMC3    H2 3943   2.978   3.823   0.635 -1.1607 -1.9421 -0.8702
  260TMC3    C7 3944   2.867   3.632   0.761 -0.1189  0.4097 -0.0720
  260TMC3    C8 3945   2.900   4.062   0.537  0.1236  0.2481  0.1557
  260TMC3    O1 3946   2.986   3.625   0.745 -0.0564 -0.7525 -0.7375
  260TMC3    O2 3947   2.839   4.149   0.476  0.0346  0.1140  0.0104
  261MPD2     C 3948   4.701   2.574  13.156  0.0228 -0.0923 -0.5607
  261MPD2    C1 3949   4.688   2.450  13.094  0.4077  0.0808  0.2950
  261MPD2    C2 3950   4.700   2.440  12.959 -0.1325  0.9414  0.0203
  261MPD2    C3 3951   4.713   2.554  12.883 -0.5297 -0.0836 -0.3689
  261MPD2    C4 3952   0.008   2.676  12.939  0.8400 -0.1539 -0.2711
  261MPD2    C5 3953   0.004   2.686  13.077  0.3429  0.1345  0.4934
  261MPD2     H 3954   4.701   2.347  12.903 -0.8618  0.4738  0.7746
  261MPD2    H1 3955   0.028   2.766  12.881 -0.2585  0.5804  0.5004
  261MPD2    H2 3956   4.694   2.585  13.264  0.0873  0.2969 -0.5961
  261MPD2    H3 3957   0.025   2.777  13.132  0.5303  0.9514 -0.9576
  261MPD2     N 3958   4.722   2.539  12.745  0.6217 -0.2054  0.0896
  261MPD2    H5 3959   0.030   2.445  12.724 -1.7417 -1.4518  2.2092
  261MPD2    N1 3960   4.678   2.324  13.168 -0.5068 -0.5646  0.4393
  261MPD2    H7 3961   4.669   2.234  13.122  2.2496 -0.3744 -0.4564
  262TMC3    C1 3962   0.009   2.590  12.511  0.5376  0.2268 -0.5654
  262TMC3    C2 3963   0.021   2.678  12.402  0.5327 -0.8768  0.2506
  262TMC3    C3 3964   0.006   2.633  12.275  0.4128 -0.5306  0.4077
  262TMC3    C4 3965   4.721   2.453  12.486  0.3081 -0.3435 -0.0377
  262TMC3    C5 3966   4.711   2.412  12.358 -0.2194 -0.2278 -0.8681
  262TMC3    C6 3967   4.715   2.502  12.252  0.0135 -0.0813  0.4111
  262TMC3     C 3968   0.002   2.644  12.650  0.9614 -0.5449 -0.0130
  262TMC3     O 3969   4.717   2.765  12.662 -0.5378  0.4580 -0.2514
  262TMC3     H 3970   0.044   2.782  12.426 -0.5478 -0.6052  0.0853
  262TMC3    H1 3971   0.012   2.376  12.560 -1.6958 -1.0006 -0.3650
  262TMC3    H2 3972   0.007   2.460  12.153  0.3852  1.6011 -0.2454
  262TMC3    C7 3973   4.715   2.265  12.335 -0.1476  0.0169  0.2440
  262TMC3    C8 3974   0.003   2.731  12.166 -0.0427 -0.3727  1.1454
  262TMC3    O1 3975   0.044   2.207  12.426  0.1073 -0.0573 -0.1237
  262TMC3    O2 3976   0.055   2.838  12.196  0.0037 -0.1656 -0.1666
  263MPD2     C 3977   0.814   1.775  11.222  0.0539  0.4014 -0.0612
  263MPD2    C1 3978   0.951   1.765  11.207 -0.6970  0.3230 -0.0039
  263MPD2    C2 3979   1.000   1.818  11.078 -0.8362 -0.6631 -0.5422
  263MPD2    C3 3980   0.920   1.870  10.978 -0.4039  0.3665 -0.7547
  263MPD2    C4 3981   0.786   1.872  11.003  0.1746 -0.0770  0.0534
  263MPD2    C5 3982   0.730   1.826  11.121 -0.6822 -0.6619 -0.7509
  263MPD2     H 3983   1.106   1.813  11.060 -0.9859 -0.7794 -1.4144
  263MPD2    H1 3984   0.714   1.913  10.934  3.0178  2.4785 -1.3946
  263MPD2    H2 3985   0.766   1.737  11.311 -1.6665  0.3427 -1.0131
  263MPD2    H3 3986   0.624   1.844  11.136 -0.8811  0.2122 -3.1573
  263MPD2     N 3987   0.985   1.904  10.858  0.1431  0.4465  0.8984
  263MPD2    H5 3988   1.086   1.897  10.856  0.1365 -0.5606  4.6776
  263MPD2    N1 3989   1.033   1.738  11.315  0.3624  0.3978 -0.0619
  263MPD2    H7 3990   0.990   1.717  11.405 -0.7131 -0.2054 -0.7251
  264TMC3    C1 3991   1.016   2.047  10.664  0.7817  1.0505  0.4849
  264TMC3    C2 3992   0.981   2.177  10.674  0.0085 -0.6741 -0.0162
  264TMC3    C3 3993   1.039   2.263  10.591 -0.2464  0.1671 -0.4055
  264TMC3    C4 3994   1.116   1.994  10.583  0.3337  0.2339  0.2629
  264TMC3    C5 3995   1.170   2.089  10.501  0.4168 -0.0788  0.3263
  264TMC3    C6 3996   1.135   2.221  10.507  0.2249 -0.4992 -0.0169
  264TMC3     C 3997   0.927   1.968  10.744  0.3954 -0.2315 -0.0093
  264TMC3     O 3998   0.809   2.008  10.738  0.2614 -0.3020 -0.2946
  264TMC3     H 3999   0.918   2.208  10.756 -0.6564 -2.7344  0.2458
  264TMC3    H1 4000   1.135   1.889  10.566  0.2929  0.7482 -2.9971
  264TMC3    H2 4001   1.192   2.284  10.440  2.3684 -0.1740  2.0951
  264TMC3    C7 4002   1.264   2.058  10.389 -0.1931 -0.3013  0.0695
  264TMC3    C8 4003   1.008   2.403  10.602  0.7975 -0.0058  0.5160
  264TMC3    O1 4004   1.372   2.008  10.420  0.0698  0.9266  0.4543
  264TMC3    O2 4005   1.081   2.469  10.532  0.2841 -0.1556  0.7185
  265MPD2     C 4006   2.822   1.847  15.446  0.7128  0.3136 -0.1803
  265MPD2    C1 4007   2.901   1.957  15.409  0.2820  0.3151  0.2682
  265MPD2    C2 4008   2.970   1.936  15.289 -0.4173 -0.4076 -0.1845
  265MPD2    C3 4009   2.969   1.816  15.221 -0.0858 -0.8128 -0.3261
  265MPD2    C4 4010   2.888   1.714  15.262 -0.4434  0.0783  0.0864
  265MPD2    C5 4011   2.821   1.724  15.379 -0.0938  0.0239 -0.1895
  265MPD2     H 4012   3.044   2.011  15.261  0.2033 -0.7045  0.6587
  265MPD2    H1 4013   2.888   1.627  15.197 -0.0296 -1.6999  2.4826
  265MPD2    H2 4014   2.746   1.846  15.524  2.5422 -0.7047  1.6164
  265MPD2    H3 4015   2.757   1.641  15.408  0.2741 -0.3600 -0.4769
  265MPD2     N 4016   3.055   1.772  15.111 -0.4124 -0.3543 -1.2176
  265MPD2    H5 4017   3.047   1.679  15.072  1.2166 -1.1021  0.2642
  265MPD2    N1 4018   2.900   2.083  15.482 -0.6046 -0.6649  0.0640
  265MPD2    H7 4019   2.954   2.159  15.443 -1.6018 -0.4045 -0.8191
  266TMC3    C1 4020   2.854   2.237  15.665  0.2338 -0.1659  0.4309
  266TMC3    C2 4021   2.878   2.241  15.800  0.8346 -0.2745 -0.0913
  266TMC3    C3 4022   2.938   2.345  15.853  0.2824  0.0862 -0.0122
  266TMC3    C4 4023   2.886   2.338  15.576 -0.1964  0.2150 -0.2414
  266TMC3    C5 4024   2.949   2.446  15.640  0.3767  0.3203  0.3910
  266TMC3    C6 4025   2.969   2.451  15.772 -0.3217  0.3878  0.6187
  266TMC3     C 4026   2.837   2.102  15.608 -0.2294 -0.1697  0.2325
  266TMC3     O 4027   2.764   2.020  15.666 -0.0030  0.0994 -0.0896
  266TMC3     H 4028   2.851   2.158  15.865 -3.1318  1.8391  0.8822
  266TMC3    H1 4029   2.873   2.335  15.469  3.5656 -1.2283 -0.6419
  266TMC3    H2 4030   3.021   2.533  15.819  1.4993 -1.2923  1.5343
  266TMC3    C7 4031   2.962   2.569  15.566 -0.0342  0.1307  0.1604
  266TMC3    C8 4032   3.017   2.318  15.971 -0.1698 -0.9771  0.1568
  266TMC3    O1 4033   2.904   2.577  15.458  0.3546  0.4418  0.3055
  266TMC3    O2 4034   3.060   2.206  15.978 -0.6520  0.1020 -0.0448
  267MPD2     C 4035   0.694   3.224  17.351  0.3313 -0.0372 -1.3806
  267MPD2    C1 4036   0.704   3.357  17.384 -0.1761 -0.2328 -0.3025
  267MPD2    C2 4037   0.616   3.450  17.334  0.1033  0.6159 -0.2634
  267MPD2    C3 4038   0.541   3.409  17.225 -0.0868  0.3154 -0.5381
  267MPD2    C4 4039   0.527   3.270  17.199  0.4321 -0.3496 -0.6014
  267MPD2    C5 4040   0.598   3.181  17.272  0.9753 -0.4323  0.5171
  267MPD2     H 4041   0.627   3.554  17.362 -2.8167  0.8775 -0.0662
  267MPD2    H1 4042   0.468   3.242  17.112 -2.0545  1.3425  0.5476
  267MPD2    H2 4043   0.767   3.154  17.390 -1.0178 -1.2321 -1.0105
  267MPD2    H3 4044   0.607   3.078  17.240  0.8592  0.6175 -2.8632
  267MPD2     N 4045   0.472   3.503  17.143  0.1588 -0.1330 -0.2687
  267MPD2    H5 4046   0.413   3.471  17.067 -1.5544  0.6266  0.7425
  267MPD2    N1 4047   0.804   3.391  17.479 -0.2346  0.2067 -0.3315
  267MPD2    H7 4048   0.859   3.313  17.513  1.1598  0.7207 -1.4198
  268TMC3    C1 4049   0.925   3.548  17.610  0.1094 -0.4144 -0.8879
  268TMC3    C2 4050   0.977   3.673  17.622  0.3157  0.1080  0.3266
  268TMC3    C3 4051   1.011   3.723   0.053 -0.0865 -0.9082 -0.1884
  268TMC3    C4 4052   0.913   3.469   0.033  0.9383 -0.7303 -0.0324
  268TMC3    C5 4053   0.949   3.519   0.157  0.2966 -1.0370  0.3828
  268TMC3    C6 4054   1.004   3.648   0.170  0.8982 -1.0640 -0.0046
  268TMC3     C 4055   0.843   3.523  17.497 -0.5213  0.2849  0.1623
  268TMC3     O 4056   0.814   3.623  17.434  0.0968 -0.3607 -0.3826
  268TMC3     H 4057   0.992   3.745  17.542 -0.5036 -0.2950 -0.1957
  268TMC3    H1 4058   0.855   3.378   0.034  1.1073 -0.8158  2.3127
  268TMC3    H2 4059   1.029   3.688   0.267  3.2006  2.0286 -1.8691
  268TMC3    C7 4060   0.975   3.428   0.263  0.9652  0.0401  1.3629
  268TMC3    C8 4061   1.046   3.862   0.070  0.3164  0.4803 -0.3485
  268TMC3    O1 4062   0.907   3.324   0.261 -0.0835 -0.0021 -0.1036
  268TMC3    O2 4063   1.113   3.888   0.170 -0.2255 -0.1767 -0.2903
  269MPD2     C 4064   1.044   2.979  15.575  0.2166  0.0934 -0.2713
  269MPD2    C1 4065   0.910   2.964  15.607 -0.3028 -0.3315 -0.1926
  269MPD2    C2 4066   0.824   3.063  15.567  0.0649 -0.4366 -0.0155
  269MPD2    C3 4067   0.875   3.181  15.503  0.3195  0.7314 -0.8565
  269MPD2    C4 4068   1.007   3.183  15.463  0.4262  0.9052  0.4304
  269MPD2    C5 4069   1.086   3.081  15.498 -0.1074 -0.0795 -0.0304
  269MPD2     H 4070   0.716   3.061  15.574 -0.0334  0.6429 -1.2095
  269MPD2    H1 4071   1.055   3.265  15.412  2.1956 -0.2463  0.2306
  269MPD2    H2 4072   1.102   2.891  15.599  1.3514  1.2272  1.1860
  269MPD2    H3 4073   1.189   3.098  15.467  0.6251 -0.1170  2.3561
  269MPD2     N 4074   0.778   3.282  15.463 -0.5978 -0.2890  0.3415
  269MPD2    H5 4075   0.679   3.260  15.472 -1.2107  1.7895 -1.4035
  269MPD2    N1 4076   0.872   2.840  15.658  0.0445  0.3066 -0.5785
  269MPD2    H7 4077   0.948   2.774  15.673 -0.7254 -0.6020 -0.5949
  270TMC3    C1 4078   0.737   2.669  15.749 -0.0851  0.1013  0.1314
  270TMC3    C2 4079   0.611   2.621  15.756 -0.1548  0.6100  0.0635
  270TMC3    C3 4080   0.579   2.496  15.806 -0.4947  0.4546 -0.0205
  270TMC3    C4 4081   0.839   2.608  15.805  0.1955 -1.0102  0.9733
  270TMC3    C5 4082   0.809   2.487  15.864  0.2295 -0.2532 -0.4007
  270TMC3    C6 4083   0.682   2.441  15.872  0.2196  0.0240 -0.1484
  270TMC3     C 4084   0.745   2.810  15.706 -0.1719  0.4070  0.5540
  270TMC3     O 4085   0.642   2.880  15.696 -0.3671  0.0125  0.5720
  270TMC3     H 4086   0.530   2.667  15.701 -0.4456  0.5283  0.4212
  270TMC3    H1 4087   0.942   2.641  15.803  0.2682 -1.2912  0.2757
  270TMC3    H2 4088   0.668   2.342  15.914  3.3766  0.1721  1.2549
  270TMC3    C7 4089   0.925   2.402  15.906  0.3339 -0.2972  1.4874
  270TMC3    C8 4090   0.539   2.413  15.690  0.2474 -0.5152 -0.2603
  270TMC3    O1 4091   1.025   2.416  15.839 -0.2128  0.1267  0.2778
  270TMC3    O2 4092   0.598   2.304  15.674 -0.4984 -0.2306 -0.2096
  271MPD2     C 4093   4.603   2.286  14.107 -0.0208  0.0321  0.2959
  271MPD2    C1 4094   4.522   2.267  14.216 -0.3706  0.3498  0.1144
  271MPD2    C2 4095   4.404   2.343  14.223 -0.2634 -0.1501  0.1908
  271MPD2    C3 4096   4.368   2.419  14.109  0.2778 -0.1123  0.4529
  271MPD2    C4 4097   4.441   2.409  13.991 -0.4473 -0.0031  0.5093
  271MPD2    C5 4098   4.560   2.351  13.994  0.1176 -0.1477  0.6761
  271MPD2     H 4099   4.343   2.335  14.312 -0.0224 -1.8613  0.2027
  271MPD2    H1 4100   4.419   2.440  13.890  1.6340 -0.2626 -0.0339
  271MPD2    H2 4101   4.691   2.223  14.098  0.2723  0.6972 -1.4725
  271MPD2    H3 4102   4.623   2.349  13.906  1.3092  0.6405  1.5188
  271MPD2     N 4103   4.251   2.490  14.113  0.2845  0.3135  0.5962
  271MPD2    H5 4104   4.184   2.471  14.187  3.8542 -2.0360  3.2606
  271MPD2    N1 4105   4.558   2.182  14.327  0.3930  0.2469  0.6031
  271MPD2    H7 4106   4.524   2.202  14.420 -1.1513 -0.4521  0.1781
  272TMC3    C1 4107   4.682   2.005  14.427  0.1916 -0.5595 -0.0928
  272TMC3    C2 4108   0.091   1.968  14.440  0.0135 -0.1616  0.4412
  272TMC3    C3 4109   0.130   1.945  14.569 -0.6270  0.0059 -0.0187
  272TMC3    C4 4110   4.599   2.019  14.526  0.0102 -0.8605  0.4694
  272TMC3    C5 4111   4.641   1.984  14.652  0.0577 -0.3458 -0.6222
  272TMC3    C6 4112   0.048   1.942  14.676 -0.5216  0.3912 -0.3151
  272TMC3     C 4113   4.653   2.080  14.303 -0.0833 -0.2708 -0.1435
  272TMC3     O 4114   4.698   2.032  14.201  0.1606 -0.3188 -0.1688
  272TMC3     H 4115   0.161   1.979  14.358 -1.1429  0.1958 -0.5014
  272TMC3    H1 4116   4.495   2.044  14.509 -0.2073 -2.8341 -1.1115
  272TMC3    H2 4117   0.070   1.896  14.771  1.5783  1.6375 -0.2013
  272TMC3    C7 4118   4.573   2.064  14.747 -0.3499  0.0849  0.5500
  272TMC3    C8 4119   0.260   1.871  14.567 -0.0838 -0.2998 -0.3010
  272TMC3    O1 4120   4.455   2.039  14.770 -0.2878  1.1064 -0.4488
  272TMC3    O2 4121   0.300   1.843  14.454 -0.6135 -0.2393 -0.0714
  273MPD2     C 4122   2.222   0.557  11.679  0.4608 -0.2047 -0.5712
  273MPD2    C1 4123   2.204   0.685  11.712  0.1411 -0.3122 -0.0169
  273MPD2    C2 4124   2.208   0.780  11.608  0.0866 -0.2937 -1.1150
  273MPD2    C3 4125   2.209   0.745  11.476  0.2788  0.2258  0.4130
  273MPD2    C4 4126   2.219   0.615  11.446  0.4204 -0.1392  0.2039
  273MPD2    C5 4127   2.234   0.523  11.545  0.4184  0.1065  0.5328
  273MPD2     H 4128   2.210   0.883  11.641  0.4546  0.1922 -2.6745
  273MPD2    H1 4129   2.223   0.575  11.345 -0.0155 -1.0440  0.5449
  273MPD2    H2 4130   2.233   0.473  11.747  0.2257 -0.0070 -0.2886
  273MPD2    H3 4131   2.252   0.418  11.529 -0.6973  0.2700 -1.6777
  273MPD2     N 4132   2.209   0.835  11.371  0.3200 -0.3903 -0.5643
  273MPD2    H5 4133   2.223   0.801  11.277  0.0787 -2.4640  0.1549
  273MPD2    N1 4134   2.204   0.733  11.847 -0.1074  0.1640  0.3528
  273MPD2    H7 4135   2.200   0.833  11.862 -1.3332 -0.2508  2.8882
  274TMC3    C1 4136   2.148   1.044  11.275 -0.2425  0.4307  0.3642
  274TMC3    C2 4137   2.072   0.983  11.183  0.0463 -0.1101  0.3387
  274TMC3    C3 4138   1.981   1.060  11.118 -0.0668 -0.2961 -0.3364
  274TMC3    C4 4139   2.141   1.183  11.291 -0.2191  0.4834  0.2593
  274TMC3    C5 4140   2.044   1.261  11.218  0.0331 -0.4886  0.0175
  274TMC3    C6 4141   1.966   1.199  11.128 -0.0089  0.2466 -0.7643
  274TMC3     C 4142   2.197   0.970  11.389  0.3912  0.1561  0.8552
  274TMC3     O 4143   2.197   1.046  11.483  0.2292 -0.5520 -0.0629
  274TMC3     H 4144   2.058   0.876  11.173 -2.1392  0.1730  0.2294
  274TMC3    H1 4145   2.198   1.230  11.370 -2.0253  0.1604  1.7621
  274TMC3    H2 4146   1.873   1.242  11.094  0.3397 -1.1448 -3.4988
  274TMC3    C7 4147   1.991   1.379  11.280  0.0638  0.4274 -0.3122
  274TMC3    C8 4148   1.882   0.989  11.033  0.5153  0.0976 -0.1704
  274TMC3    O1 4149   1.896   1.429  11.222  0.2751  0.8056 -0.2357
  274TMC3    O2 4150   1.851   0.872  11.056 -0.6760 -0.3011  0.2704
  275MPD2     C 4151   1.111   3.269  14.273 -0.1007  0.0215  0.4019
  275MPD2    C1 4152   1.169   3.146  14.283  0.0778 -0.0334  0.3612
  275MPD2    C2 4153   1.083   3.041  14.244  0.1701  0.3698 -0.1198
  275MPD2    C3 4154   0.951   3.059  14.220 -0.6269  0.5734  0.1496
  275MPD2    C4 4155   0.900   3.186  14.215  0.1608  0.5676 -0.3826
  275MPD2    C5 4156   0.982   3.293  14.236 -0.0173 -0.0218  0.4073
  275MPD2     H 4157   1.120   2.939  14.245 -1.1929 -0.1296 -0.2257
  275MPD2    H1 4158   0.797   3.209  14.192 -0.6487 -1.7404  0.9663
  275MPD2    H2 4159   1.168   3.354  14.307 -0.0495 -0.6612  1.9945
  275MPD2    H3 4160   0.948   3.392  14.209 -1.0966 -0.4867  0.0461
  275MPD2     N 4161   0.849   2.956  14.198 -0.0999 -0.0555 -0.2076
  275MPD2    H5 4162   0.749   2.973  14.192 -0.3357 -1.9800 -1.4464
  275MPD2    N1 4163   1.297   3.126  14.341  0.0037  0.5100 -0.5221
  275MPD2    H7 4164   1.325   3.205  14.399  0.4318  0.9106 -1.2810
  276TMC3    C1 4165   1.483   3.010  14.430  0.1770 -0.0974 -0.2635
  276TMC3    C2 4166   1.546   2.886  14.418  0.0528  0.4526 -0.0700
  276TMC3    C3 4167   1.621   2.853  14.530 -0.5040 -0.1565  0.5019
  276TMC3    C4 4168   1.500   3.095  14.544 -0.2416 -0.7564  0.7492
  276TMC3    C5 4169   1.580   3.047  14.642  0.5104 -0.3089 -0.1062
  276TMC3    C6 4170   1.641   2.929  14.641  0.1939 -0.1555  0.4892
  276TMC3     C 4171   1.373   3.013  14.339 -0.1121 -0.3444  0.6306
  276TMC3     O 4172   1.345   2.911  14.272 -0.4987  0.1691 -0.1101
  276TMC3     H 4173   1.533   2.825  14.330 -0.5864 -0.2945  0.5453
  276TMC3    H1 4174   1.441   3.185  14.550 -0.2869 -0.6779 -0.8292
  276TMC3    H2 4175   1.711   2.901  14.719  0.2299  0.5106  0.6983
  276TMC3    C7 4176   1.631   3.150  14.725 -0.0891 -0.0354  0.3389
  276TMC3    C8 4177   1.683   2.718  14.523  0.1709  0.6270 -0.3718
  276TMC3    O1 4178   1.680   3.110  14.829 -0.0142 -1.0047 -0.0101
  276TMC3    O2 4179   1.733   2.686  14.417  0.1537 -0.1734 -0.1469
  277MPD2     C 4180   3.293   2.108  13.235 -0.8720 -0.6325 -0.0869
  277MPD2    C1 4181   3.247   1.987  13.203 -0.2956  0.3889  0.2559
  277MPD2    C2 4182   3.243   1.884  13.298 -0.0508  0.6904 -0.0192
  277MPD2    C3 4183   3.284   1.909  13.424  0.0704 -0.2726 -0.0535
  277MPD2    C4 4184   3.333   2.034  13.457  0.0758  0.3065 -0.3121
  277MPD2    C5 4185   3.334   2.128  13.365 -0.3793 -0.0046 -0.2546
  277MPD2     H 4186   3.222   1.783  13.266  3.0965 -0.6410  2.1114
  277MPD2    H1 4187   3.362   2.062  13.557  0.5780  1.1288 -0.6892
  277MPD2    H2 4188   3.291   2.199  13.175 -0.5660 -1.2034 -0.9569
  277MPD2    H3 4189   3.377   2.225  13.386 -2.9191  1.0743 -0.0083
  277MPD2     N 4190   3.274   1.815  13.534 -0.2608  0.4474 -0.4697
  277MPD2    H5 4191   3.291   1.859  13.624  2.7541 -2.1051  0.2257
  277MPD2    N1 4192   3.201   1.979  13.070 -0.1744  0.8040 -0.1207
  277MPD2    H7 4193   3.208   2.062  13.011 -3.3241 -0.3171 -2.0389
  278TMC3    C1 4194   3.161   1.646  13.637 -0.8830  0.3005  0.3631
  278TMC3    C2 4195   3.139   1.514  13.634  0.2153 -0.1207  0.4147
  278TMC3    C3 4196   3.011   1.467  13.658 -0.0653  0.2478 -0.0756
  278TMC3    C4 4197   3.072   1.730  13.693 -0.2252 -0.7400  0.0351
  278TMC3    C5 4198   2.948   1.678  13.736 -0.0291  0.0433 -0.7756
  278TMC3    C6 4199   2.913   1.548  13.710 -0.2903 -0.3361  0.3215
  278TMC3     C 4200   3.222   1.692  13.519  0.1493 -0.1636 -0.4950
  278TMC3     O 4201   3.211   1.617  13.421  0.6658  0.4707  0.1448
  278TMC3     H 4202   3.209   1.448  13.584 -1.9393 -1.7133 -0.5417
  278TMC3    H1 4203   3.080   1.838  13.689 -0.2972 -0.7206  0.4269
  278TMC3    H2 4204   2.824   1.503  13.751 -0.7002 -0.8463 -1.1195
  278TMC3    C7 4205   2.858   1.764  13.809 -0.0129  0.2324 -0.6072
  278TMC3    C8 4206   2.991   1.325  13.657 -0.3174  0.5677  0.1772
  278TMC3    O1 4207   2.907   1.866  13.858  1.3265  0.5340 -0.1747
  278TMC3    O2 4208   3.086   1.260  13.628 -0.7089  0.1293 -0.2407
  279MPD2     C 4209   2.419   3.006   0.574 -0.0789 -0.2227 -0.3121
  279MPD2    C1 4210   2.366   2.925   0.481 -0.3175 -0.4825 -0.6112
  279MPD2    C2 4211   2.402   2.942   0.352 -0.3205  0.1805  0.2419
  279MPD2    C3 4212   2.496   3.036   0.315 -0.1100 -0.2422 -0.5795
  279MPD2    C4 4213   2.559   3.115   0.413  0.7977 -0.4995 -0.5282
  279MPD2    C5 4214   2.520   3.094   0.546  0.2517  0.5904 -0.5061
  279MPD2     H 4215   2.364   2.870   0.280  0.1998  0.6016 -0.4498
  279MPD2    H1 4216   2.638   3.187   0.395 -0.8012  1.8039  1.7000
  279MPD2    H2 4217   2.408   2.996   0.681  0.7079  3.4814  0.0961
  279MPD2    H3 4218   2.565   3.156   0.622 -0.5217  0.6808 -0.1252
  279MPD2     N 4219   2.532   3.057   0.178 -0.9070  0.1412 -0.1707
  279MPD2    H5 4220   2.602   3.127   0.157  0.4637 -1.4199 -0.8263
  279MPD2    N1 4221   2.295   2.814   0.524 -0.3676 -0.4509  0.1682
  279MPD2    H7 4222   2.292   2.816   0.626 -0.6471 -2.3241  0.1910
  280TMC3    C1 4223   2.178   2.607   0.541  0.6383 -0.1852 -1.0144
  280TMC3    C2 4224   2.128   2.507   0.472  0.4102 -0.1975  0.7426
  280TMC3    C3 4225   2.000   2.460   0.511 -0.0709 -0.5685 -1.0308
  280TMC3    C4 4226   2.113   2.647   0.654  1.2040  0.1924  0.1749
  280TMC3    C5 4227   1.992   2.593   0.690  0.2979  0.1487  0.0153
  280TMC3    C6 4228   1.921   2.514   0.607  0.2700  0.0922 -0.3405
  280TMC3     C 4229   2.244   2.706   0.461  0.1231 -0.2492  0.4346
  280TMC3     O 4230   2.263   2.674   0.342  0.5611  0.3258  1.0159
  280TMC3     H 4231   2.183   2.466   0.388 -1.2635 -0.1759 -0.3908
  280TMC3    H1 4232   2.155   2.719   0.724 -0.0080 -1.0527  2.1632
  280TMC3    H2 4233   1.824   2.473   0.634  0.4132  0.7283  1.1635
  280TMC3    C7 4234   1.913   2.678   0.779 -0.4118 -0.0382 -0.1634
  280TMC3    C8 4235   1.928   2.387   0.405 -0.6037 -0.4947 -0.8359
  280TMC3    O1 4236   1.938   2.694   0.898 -0.0886  0.3663  0.0041
  280TMC3    O2 4237   2.001   2.344   0.317 -0.2639  0.1039  0.1102
  281TMC3    C1 4238   1.114   2.345  13.369 -0.4657 -0.0685  0.8873
  281TMC3    C2 4239   1.232   2.406  13.343 -0.0955 -0.1427 -0.4815
  281TMC3    C3 4240   1.310   2.355  13.245 -0.5573 -0.6112  0.0394
  281TMC3    C4 4241   1.077   2.231  13.305 -0.5810  0.5007 -0.2506
  281TMC3    C5 4242   1.159   2.178  13.210  0.4025 -0.3073 -0.2790
  281TMC3    C6 4243   1.278   2.236  13.183 -0.0505  0.4664 -0.0007
  281TMC3     C 4244   1.025   2.404  13.455  0.0579  0.8817  1.1442
  281TMC3     O 4245   0.936   2.334  13.499 -0.0535  0.0588  0.1125
  281TMC3     H 4246   1.268   2.487  13.405  2.0011 -0.8979 -0.7112
  281TMC3    H1 4247   0.975   2.200  13.326 -0.8047  2.5742  1.7981
  281TMC3    H2 4248   1.349   2.191  13.115  0.2919  1.6159 -0.4109
  281TMC3    C7 4249   1.110   2.057  13.143  0.2397 -0.9604  0.2375
  281TMC3    C8 4250   1.445   2.408  13.209  0.5994 -0.1566  1.2186
  281TMC3    O1 4251   1.144   2.023  13.026 -0.2670  0.3242  0.0203
  281TMC3    O2 4252   1.521   2.334  13.145 -0.4197  0.8027 -0.0634
  282MPD2     C 4253   2.905   3.791  14.984 -0.5649 -0.3963  0.1808
  282MPD2    C1 4254   2.777   3.846  14.986 -0.7042  0.2857 -0.5163
  282MPD2    C2 4255   2.728   3.894  14.865 -0.1730  0.0085  0.1870
  282MPD2    C3 4256   2.785   3.860  14.745 -0.2086 -0.7715  0.4329
  282MPD2    C4 4257   2.896   3.784  14.742 -0.2494  0.6239 -0.5143
  282MPD2    C5 4258   2.958   3.748  14.860 -0.3113 -0.5645  0.4777
  282MPD2     H 4259   2.638   3.955  14.872 -0.2597 -0.2365  1.1815
  282MPD2    H1 4260   2.951   3.767  14.650  0.1767 -2.3754  0.2790
  282MPD2    H2 4261   2.956   3.768  15.076 -0.5572  1.3584  0.6107
  282MPD2    H3 4262   3.049   3.690  14.851  0.0031  0.1905 -1.1543
  282MPD2     N 4263   2.724   3.908  14.621 -0.4475  0.0401  0.1544
  282MPD2    H5 4264   2.653   3.981  14.623 -0.3857  0.2424 -4.0355
  282MPD2    N1 4265   2.699   3.867  15.101  0.1878 -0.1598 -0.0873
  282MPD2    H7 4266   2.611   3.918  15.094  1.2345  1.5833 -0.3914
  283TMC3    C1 4267   2.638   3.863  15.323 -0.2032 -0.3423 -0.1623
  283TMC3    C2 4268   2.614   3.998  15.333 -0.6508 -0.1724  0.0947
  283TMC3    C3 4269   2.548   4.040  15.451  0.0183 -0.1904  0.3446
  283TMC3    C4 4270   2.590   3.772  15.414 -0.1722 -0.0538  0.0977
  283TMC3    C5 4271   2.519   3.814  15.518 -0.1442 -0.0301 -0.0877
  283TMC3    C6 4272   2.505   3.945  15.544  0.2330 -0.2280  0.2475
  283TMC3     C 4273   2.731   3.814  15.224 -0.1170 -0.2477 -0.7822
  283TMC3     O 4274   2.805   3.726  15.263  1.0460 -0.7312  0.1923
  283TMC3     H 4275   2.675   4.064  15.272  1.7060 -2.6364 -0.1805
  283TMC3    H1 4276   2.615   3.669  15.393 -2.0113 -0.4979  0.0855
  283TMC3    H2 4277   2.453   3.976  15.634  1.2997  0.1445  0.7383
  283TMC3    C7 4278   2.424   3.720  15.588  0.3170  0.4680 -0.2793
  283TMC3    C8 4279   2.570   4.172  15.505  0.0750 -0.2229 -0.3168
  283TMC3    O1 4280   2.356   3.768  15.681  0.2646 -0.0343 -0.2433
  283TMC3    O2 4281   2.584   4.181  15.625 -0.6015  0.4343  0.4872
  284MPD2     C 4282   0.732   3.418  12.045  0.0074  0.1163  0.0302
  284MPD2    C1 4283   0.762   3.398  11.914 -0.4132 -0.3292  0.2285
  284MPD2    C2 4284   0.709   3.295  11.848 -0.4318  0.1917 -0.4640
  284MPD2    C3 4285   0.639   3.194  11.917  0.7539  0.4490  0.6931
  284MPD2    C4 4286   0.610   3.219  12.052 -0.1102  0.4104 -0.5292
  284MPD2    C5 4287   0.645   3.337  12.112 -0.0018  0.4750  0.0625
  284MPD2     H 4288   0.736   3.297  11.743 -2.7410 -1.3930 -1.0723
  284MPD2    H1 4289   0.559   3.140  12.107  0.4362  1.8163  1.9803
  284MPD2    H2 4290   0.771   3.500  12.105  1.1504 -0.5905  0.2540
  284MPD2    H3 4291   0.641   3.361  12.218 -1.4996 -0.3677  0.1866
  284MPD2     N 4292   0.610   3.070  11.861  0.0338  1.0905 -0.0924
  284MPD2    H5 4293   0.585   2.992  11.922 -0.1093  1.5932  0.4920
  284MPD2    N1 4294   0.864   3.470  11.838 -0.0675  0.6214  0.1581
  284MPD2    H7 4295   0.866   3.451  11.738  1.8797 -0.9440  0.4953
  285TMC3    C1 4296   1.066   3.569  11.791  0.0506  0.4845  0.2511
  285TMC3    C2 4297   1.065   3.515  11.665  0.1140  0.3622  0.1653
  285TMC3    C3 4298   1.168   3.553  11.584 -0.0489 -0.1527 -0.0947
  285TMC3    C4 4299   1.168   3.652  11.830  0.5907 -0.2354  0.0231
  285TMC3    C5 4300   1.278   3.666  11.753  0.4697  0.0621  0.8211
  285TMC3    C6 4301   1.276   3.621  11.624  0.5376 -0.0493 -0.0764
  285TMC3     C 4302   0.964   3.542  11.888 -0.2340  0.5295 -0.2654
  285TMC3     O 4303   0.983   3.566  12.007 -0.7166  0.2788 -0.2437
  285TMC3     H 4304   1.001   3.434  11.635  0.7056  0.1327 -0.4821
  285TMC3    H1 4305   1.181   3.689  11.931  0.6649 -1.5654  0.4965
  285TMC3    H2 4306   1.347   3.654  11.549  1.1500 -0.3551  0.3726
  285TMC3    C7 4307   1.382   3.759  11.798 -0.4558  0.3359  0.1911
  285TMC3    C8 4308   1.153   3.534  11.443 -0.2789  0.0359  0.1526
  285TMC3    O1 4309   1.343   3.843  11.881  0.1578  0.3769 -0.1863
  285TMC3    O2 4310   1.108   3.426  11.407 -0.3963  0.5297 -0.1344
  286MPD2     C 4311   1.445   2.060   2.101  0.3290  0.0048 -0.2313
  286MPD2    C1 4312   1.393   2.032   1.979 -0.1922 -0.4383  0.3316
  286MPD2    C2 4313   1.466   1.946   1.896  0.4466  0.0625  0.0178
  286MPD2    C3 4314   1.587   1.887   1.937  0.2891  0.2987  0.0539
  286MPD2    C4 4315   1.629   1.914   2.063 -0.1425  0.4344  0.4090
  286MPD2    C5 4316   1.558   2.000   2.140 -0.3258 -0.1418  0.4088
  286MPD2     H 4317   1.438   1.935   1.792  1.9302  1.1380 -0.4937
  286MPD2    H1 4318   1.718   1.881   2.114  1.3311  3.4051 -0.2446
  286MPD2    H2 4319   1.397   2.126   2.173 -1.2829 -0.3543 -0.9646
  286MPD2    H3 4320   1.584   2.027   2.241 -0.9353  2.3503 -0.0946
  286MPD2     N 4321   1.665   1.791   1.860 -0.1538  0.3089  0.1453
  286MPD2    H5 4322   1.755   1.762   1.896  0.3569  0.5753 -0.9212
  286MPD2    N1 4323   1.271   2.074   1.923 -0.0287  0.2548  0.3912
  286MPD2    H7 4324   1.256   2.043   1.828 -2.1737 -0.3180  0.9121
  287TMC3    C1 4325   1.755   1.689   1.665  0.5210 -0.2745  0.2309
  287TMC3    C2 4326   1.736   1.677   1.532 -0.1405 -0.8211  0.1886
  287TMC3    C3 4327   1.848   1.650   1.455 -0.1269 -0.8185 -0.2311
  287TMC3    C4 4328   1.880   1.695   1.721 -0.3011  0.0142 -0.2554
  287TMC3    C5 4329   1.987   1.674   1.639  0.8831  0.1986 -0.1484
  287TMC3    C6 4330   1.976   1.651   1.506 -0.0031  0.6836 -0.2249
  287TMC3     C 4331   1.639   1.740   1.735  0.1029  0.1419  0.2509
  287TMC3     O 4332   1.526   1.739   1.684 -0.3490 -0.3361  0.0190
  287TMC3     H 4333   1.635   1.666   1.495  0.3003 -1.4054 -0.8571
  287TMC3    H1 4334   1.901   1.702   1.827  2.0183  0.4542 -0.7343
  287TMC3    H2 4335   2.059   1.637   1.438 -0.5703 -0.0114 -0.7731
  287TMC3    C7 4336   2.119   1.696   1.696 -0.1018  0.3650 -0.2500
  287TMC3    C8 4337   1.827   1.603   1.314 -0.5440 -0.3616 -0.0766
  287TMC3    O1 4338   2.132   1.795   1.770 -0.0275 -0.2294  0.1176
  287TMC3    O2 4339   1.912   1.531   1.266 -0.6241  0.3175 -0.3097
  288TMC3    C1 4340   2.933   1.472  14.513  0.2457 -0.1140 -0.5955
  288TMC3    C2 4341   2.875   1.407  14.618 -0.1444  0.2309  0.0429
  288TMC3    C3 4342   2.848   1.484  14.731 -0.2956  0.4683  0.1072
  288TMC3    C4 4343   2.971   1.606  14.517  0.1392  0.6367 -0.2589
  288TMC3    C5 4344   2.942   1.672  14.632  0.1066 -0.3167  0.4256
  288TMC3    C6 4345   2.888   1.615  14.741 -0.3060 -0.2739 -0.2107
  288TMC3     C 4346   2.953   1.400  14.387  0.5027 -0.0810 -0.1574
  288TMC3     O 4347   2.909   1.286  14.370 -0.4704 -0.0155  0.1759
  288TMC3     H 4348   2.859   1.300  14.613 -0.3347  0.3918 -2.3996
  288TMC3    H1 4349   2.989   1.675  14.435  0.1451  0.5719 -0.3126
  288TMC3    H2 4350   2.857   1.667  14.831  0.6841  1.0372 -0.6152
  288TMC3    C7 4351   2.958   1.815  14.641 -0.3189  0.6034  0.1844
  288TMC3    C8 4352   2.818   1.411  14.857 -0.1985 -0.1545 -0.2492
  288TMC3    O1 4353   2.895   1.874  14.727  0.1120 -0.1172  0.7576
  288TMC3    O2 4354   2.861   1.453  14.959  0.2259  0.1925  0.2222
  289MPD2     C 4355   3.113   0.591  14.721 -0.2817  0.5704 -0.5645
  289MPD2    C1 4356   3.178   0.681  14.640 -0.1320  0.1184 -0.1350
  289MPD2    C2 4357   3.120   0.715  14.516 -0.0846  0.3574  0.4435
  289MPD2    C3 4358   2.985   0.677  14.487 -0.7010 -0.0036 -0.3645
  289MPD2    C4 4359   2.924   0.581  14.572  0.0883  0.0532 -0.1490
  289MPD2    C5 4360   2.992   0.540  14.687 -0.3813  0.0396 -0.4375
  289MPD2     H 4361   3.177   0.776  14.447  2.2421 -1.0104  1.1504
  289MPD2    H1 4362   2.827   0.536  14.558 -0.6933  1.4208  0.9706
  289MPD2    H2 4363   3.158   0.553  14.812 -0.0750  3.1390  0.4235
  289MPD2    H3 4364   2.936   0.477  14.756 -1.1573 -1.0315 -2.0204
  289MPD2     N 4365   2.907   0.738  14.384  0.3045  0.3621 -0.0379
  289MPD2    H5 4366   2.814   0.705  14.363  0.6771  0.2594 -1.5347
  289MPD2    N1 4367   3.307   0.723  14.682  0.2380 -0.8693  0.6823
  289MPD2    H7 4368   3.337   0.697  14.776  4.1997 -2.1401 -0.9175
  290TMC3    C1 4369   2.831   0.892  14.238  0.1120  0.2094  0.2622
  290TMC3    C2 4370   2.818   1.024  14.204  0.2548  0.8353 -0.1913
  290TMC3    C3 4371   2.771   1.055  14.077  0.7672  0.5256 -0.3680
  290TMC3    C4 4372   2.784   0.782  14.155 -0.7293 -0.1799 -0.0436
  290TMC3    C5 4373   2.719   0.826  14.046  0.7842  0.7758 -0.2704
  290TMC3    C6 4374   2.719   0.955  13.997 -0.5086 -0.8018 -0.0350
  290TMC3     C 4375   2.937   0.857  14.329  0.3307  0.1073 -0.7476
  290TMC3     O 4376   3.038   0.926  14.336  0.0247 -0.2669  0.3543
  290TMC3     H 4377   2.859   1.100  14.270 -2.6813  0.0574  2.5677
  290TMC3    H1 4378   2.767   0.682  14.194  2.4483  0.1140  2.0722
  290TMC3    H2 4379   2.664   0.974  13.905  1.2996  0.3218 -0.8818
  290TMC3    C7 4380   2.640   0.717  13.971 -0.7191 -0.0260  0.2865
  290TMC3    C8 4381   2.700   1.184  14.063  0.5266 -0.5307 -0.6521
  290TMC3    O1 4382   2.571   0.764  13.883 -1.0048 -0.6516 -0.5292
  290TMC3    O2 4383   2.634   1.194  13.962 -0.3099  0.0729 -0.1157
  291MPD2     C 4384   2.084   0.527   0.125  0.4065  0.2584  0.0750
  291MPD2    C1 4385   2.061   0.429   0.030  0.4959 -0.7728 -0.2035
  291MPD2    C2 4386   2.151   0.396  17.627 -0.0001 -0.0241 -0.0841
  291MPD2    C3 4387   2.282   0.443  17.642  0.1193 -0.0270  0.2918
  291MPD2    C4 4388   2.304   0.529   0.056  0.5653 -0.4109  0.4261
  291MPD2    C5 4389   2.209   0.575   0.139  0.6205 -0.0314 -0.2695
  291MPD2     H 4390   2.124   0.333  17.544 -0.0848 -0.5029  0.3064
  291MPD2    H1 4391   2.399   0.579   0.073  0.1056  1.0647 -1.2929
  291MPD2    H2 4392   2.010   0.574   0.188 -2.8036 -0.0054 -3.5006
  291MPD2    H3 4393   2.225   0.659   0.207 -0.7777 -1.0292  1.2695
  291MPD2     N 4394   2.391   0.423  17.556  0.1212  0.7377  0.1100
  291MPD2    H5 4395   2.480   0.462  17.584  1.8044 -3.0104 -0.0114
  291MPD2    N1 4396   1.933   0.371   0.012 -0.1520 -0.3607 -0.2787
  291MPD2    H7 4397   1.913   0.314  17.623  1.7299 -1.3429 -0.0523
  292TMC3    C1 4398   1.699   0.322   0.069  0.1304 -0.3797  0.3678
  292TMC3    C2 4399   1.587   0.394   0.103  0.1912 -0.2889 -0.3081
  292TMC3    C3 4400   1.470   0.336   0.065 -0.2417  0.9732 -0.5947
  292TMC3    C4 4401   1.698   0.198   0.009  0.0810 -1.1077  0.7309
  292TMC3    C5 4402   1.575   0.147  17.664  0.5349 -0.0319 -0.1947
  292TMC3    C6 4403   1.462   0.215   0.001 -0.1157  0.8649  0.6988
  292TMC3     C 4404   1.825   0.387   0.104 -0.2689  0.6303  0.1795
  292TMC3     O 4405   1.819   0.461   0.198  0.6320 -0.2842 -0.3651
  292TMC3     H 4406   1.587   0.495   0.143 -1.8564 -0.2946 -0.3141
  292TMC3    H1 4407   1.791   0.149  17.673 -0.2055 -1.2505  0.0073
  292TMC3    H2 4408   1.365   0.195  17.649 -0.3267  0.0172  1.5345
  292TMC3    C7 4409   1.581   0.030  17.583  0.3395 -0.1474  0.7403
  292TMC3    C8 4410   1.348   0.398   0.105 -0.4376  0.1694  0.2457
  292TMC3    O1 4411   1.685   4.715  17.527 -0.0871 -0.1261  0.0162
  292TMC3    O2 4412   1.327   0.515   0.067  0.7975  0.3717 -0.1864
  293MPD2     C 4413   4.264   2.483  12.444 -1.1765  0.1313  0.2852
  293MPD2    C1 4414   4.168   2.411  12.516  0.0368 -0.2787 -0.2854
  293MPD2    C2 4415   4.199   2.396  12.654 -0.5514 -0.7117  0.3637
  293MPD2    C3 4416   4.295   2.464  12.723  0.2076 -0.5763 -0.4434
  293MPD2    C4 4417   4.383   2.544  12.649 -0.3915  0.2360 -0.4112
  293MPD2    C5 4418   4.369   2.546  12.507 -0.4620 -0.1040  0.1931
  293MPD2     H 4419   4.121   2.343  12.708 -1.1611  0.7352  0.9127
  293MPD2    H1 4420   4.465   2.598  12.695 -1.2647 -0.5335  2.0325
  293MPD2    H2 4421   4.259   2.504  12.338  0.0570  1.7332  0.5519
  293MPD2    H3 4422   4.426   2.622  12.456 -0.9844  2.6485  3.6906
  293MPD2     N 4423   4.286   2.469  12.866 -0.2111 -0.0104  0.2324
  293MPD2    H5 4424   4.242   2.390  12.911 -1.3188  0.5706  0.1542
  293MPD2    N1 4425   4.054   2.361  12.445  0.8896  0.0762 -0.1365
  293MPD2    H7 4426   4.046   2.379  12.345 -0.5362 -0.4279 -0.1128
  294TMC3    C1 4427   3.863   2.230  12.399  0.2849  1.1455 -0.5692
  294TMC3    C2 4428   3.769   2.153  12.455 -0.2508  0.3543 -0.4674
  294TMC3    C3 4429   3.668   2.120  12.365  0.9761 -0.3427 -0.1104
  294TMC3    C4 4430   3.852   2.291  12.279  0.0907 -0.1996  0.0552
  294TMC3    C5 4431   3.756   2.250  12.197  0.1618  0.2097 -0.9639
  294TMC3    C6 4432   3.664   2.170  12.237 -0.3426  0.1477  0.4519
  294TMC3     C 4433   3.962   2.279  12.499 -0.2546 -0.3119  0.0770
  294TMC3     O 4434   3.950   2.248  12.615  0.5160  0.1550 -0.1245
  294TMC3     H 4435   3.751   2.121  12.557  0.6914  0.6098 -0.2218
  294TMC3    H1 4436   3.926   2.356  12.234 -0.5209 -0.7373 -1.7003
  294TMC3    H2 4437   3.584   2.142  12.170 -1.0504  3.2181  0.0468
  294TMC3    C7 4438   3.724   2.328  12.075 -0.4316  0.4074 -0.1044
  294TMC3    C8 4439   3.546   2.043  12.414  0.1208 -0.3559  0.1125
  294TMC3    O1 4440   3.607   2.334  12.044 -0.6499  0.7971 -0.1560
  294TMC3    O2 4441   3.532   2.034  12.533 -0.2043  0.2108 -0.3091
  295MPD2     C 4442   4.308   0.726   0.181  0.0980 -0.4800 -0.3582
  295MPD2    C1 4443   4.356   0.836   0.246  0.8737  0.1604  0.0071
  295MPD2    C2 4444   4.269   0.916   0.313 -0.3059  0.1367  0.4522
  295MPD2    C3 4445   4.134   0.895   0.322 -0.1867  0.4469 -0.3404
  295MPD2    C4 4446   4.082   0.790   0.249 -0.2969 -0.2023  0.3215
  295MPD2    C5 4447   4.169   0.704   0.185 -0.1538  0.0650  0.5237
  295MPD2     H 4448   4.312   1.000   0.365 -1.4439  1.2294 -0.3634
  295MPD2    H1 4449   3.975   0.771   0.247  0.1051 -2.6235  2.2352
  295MPD2    H2 4450   4.367   0.660   0.119 -1.2241 -0.4316 -1.6760
  295MPD2    H3 4451   4.133   0.624   0.123 -0.9393  0.3278  0.6389
  295MPD2     N 4452   4.040   0.972   0.391 -0.2530 -0.3670  0.3036
  295MPD2    H5 4453   3.942   0.945   0.388 -0.6675  0.7153  3.5859
  295MPD2    N1 4454   4.495   0.869   0.242 -0.2435  0.1152 -0.0313
  295MPD2    H7 4455   4.517   0.963   0.274  0.3722  0.0333 -0.2229
  296TMC3    C1 4456   3.965   1.100   0.574  0.2010 -0.0733  0.7264
  296TMC3    C2 4457   3.960   1.238   0.579 -0.1086  0.4084 -0.5725
  296TMC3    C3 4458   3.840   1.289   0.615 -0.7419  0.2440  0.2778
  296TMC3    C4 4459   3.856   1.021   0.586  0.0751 -0.0297  0.1405
  296TMC3    C5 4460   3.735   1.078   0.622 -0.4533 -0.3089 -0.0238
  296TMC3    C6 4461   3.728   1.217   0.627 -0.2761 -0.3648 -0.3179
  296TMC3     C 4462   4.073   1.065   0.486 -0.1061  0.7823 -0.3358
  296TMC3     O 4463   4.174   1.138   0.491  0.0801 -0.6725 -0.1279
  296TMC3     H 4464   4.044   1.301   0.551  0.6719 -0.4247 -0.1233
  296TMC3    H1 4465   3.870   0.914   0.593 -0.4597 -0.0037  1.4144
  296TMC3    H2 4466   3.630   1.263   0.625 -0.2524 -0.3142 -0.3130
  296TMC3    C7 4467   3.612   1.000   0.665  0.5949  0.4524 -1.0673
  296TMC3    C8 4468   3.820   1.425   0.667  0.0166  0.2256  0.7235
  296TMC3    O1 4469   3.504   1.034   0.628 -0.3332 -0.3127 -0.6849
  296TMC3    O2 4470   3.702   1.460   0.693  0.6272  0.3756 -0.2554
  297MPD2     C 4471   1.974   2.806  16.729  0.1694  0.6256 -0.0480
  297MPD2    C1 4472   1.937   2.844  16.604 -0.6747 -0.2295 -0.3159
  297MPD2    C2 4473   2.029   2.908  16.519 -0.6050  0.0249  0.9552
  297MPD2    C3 4474   2.147   2.941  16.574 -0.4769  0.3518  0.6869
  297MPD2    C4 4475   2.185   2.903  16.699  0.3080 -0.1480 -0.4986
  297MPD2    C5 4476   2.098   2.833  16.780 -0.1473 -0.5935  0.0076
  297MPD2     H 4477   2.002   2.946  16.421  1.2798 -0.5527  0.2215
  297MPD2    H1 4478   2.276   2.916  16.756  1.3248  1.1854 -2.3974
  297MPD2    H2 4479   1.905   2.752  16.793  1.9089 -0.0235  1.2661
  297MPD2    H3 4480   2.128   2.804  16.880 -0.2650 -0.4279  0.0900
  297MPD2     N 4481   2.231   3.012  16.488  0.0228  0.1226 -0.0126
  297MPD2    H5 4482   2.195   3.038  16.397  0.9900  1.0301 -0.1358
  297MPD2    N1 4483   1.815   2.826  16.544 -0.7554  0.4005 -0.4552
  297MPD2    H7 4484   1.796   2.859  16.450  0.5988 -1.7459 -1.5005
  298TMC3    C1 4485   1.597   2.763  16.511  0.5149  0.3288 -0.4059
  298TMC3    C2 4486   1.625   2.731  16.381 -0.2338  0.0763 -0.3432
  298TMC3    C3 4487   1.522   2.746  16.293  0.0345  0.9847 -0.2904
  298TMC3    C4 4488   1.483   2.827  16.548  0.7214 -0.2878 -0.2353
  298TMC3    C5 4489   1.384   2.843  16.458 -0.4310 -0.2912 -0.6666
  298TMC3    C6 4490   1.400   2.791  16.333  0.2911 -0.4813  0.7132
  298TMC3     C 4491   1.705   2.768  16.604 -0.0680  0.1237 -0.8957
  298TMC3     O 4492   1.680   2.754  16.721 -0.2384 -0.1360  0.4250
  298TMC3     H 4493   1.721   2.690  16.350 -0.9868 -0.7705 -1.5577
  298TMC3    H1 4494   1.486   2.870  16.647 -0.5371  1.6638 -1.0428
  298TMC3    H2 4495   1.316   2.783  16.265  1.2204  0.2367 -0.5055
  298TMC3    C7 4496   1.261   2.912  16.505  0.4415  0.0545 -0.2164
  298TMC3    C8 4497   1.558   2.731  16.156 -0.7756 -0.6832 -0.1607
  298TMC3    O1 4498   1.232   2.908  16.622  0.3468  0.4630 -0.0627
  298TMC3    O2 4499   1.667   2.688  16.122 -0.3420 -0.0391  0.3068
  299MPD2     C 4500   2.763   3.285  10.059  0.6806 -0.0763 -0.1098
  299MPD2    C1 4501   2.727   3.340  10.179  0.0748  0.9193 -0.2644
  299MPD2    C2 4502   2.606   3.406  10.190 -0.8026 -0.5811  0.1465
  299MPD2    C3 4503   2.533   3.423  10.071 -0.0132  0.0956 -0.2954
  299MPD2    C4 4504   2.574   3.373   9.947  0.4160  0.4778  0.4405
  299MPD2    C5 4505   2.695   3.306   9.943  0.2155 -0.1909  0.2019
  299MPD2     H 4506   2.572   3.454  10.282 -0.1624 -0.1445  0.1560
  299MPD2    H1 4507   2.516   3.380   9.855  0.3225 -0.9672  0.3884
  299MPD2    H2 4508   2.857   3.232  10.053  0.3966 -0.6843  0.7756
  299MPD2    H3 4509   2.727   3.253   9.854  1.1934  0.2532  0.2946
  299MPD2     N 4510   2.413   3.498  10.079  0.2275 -0.2505  0.0464
  299MPD2    H5 4511   2.349   3.499  10.000  0.6149 -1.2732 -0.2859
  299MPD2    N1 4512   2.816   3.323  10.286  0.4954 -0.1571 -0.3959
  299MPD2    H7 4513   2.911   3.292  10.267  0.6960  1.1927 -1.6075
  300TMC3    C1 4514   2.222   3.605  10.175  0.4286 -0.1273  0.7244
  300TMC3    C2 4515   2.182   3.699  10.268  0.1323  0.0332  0.4135
  300TMC3    C3 4516   2.047   3.703  10.302  0.2722  0.1242  0.4701
  300TMC3    C4 4517   2.133   3.528  10.110 -0.4800 -0.7951  0.2981
  300TMC3    C5 4518   2.000   3.535  10.141  0.7803  0.1298 -0.3020
  300TMC3    C6 4519   1.957   3.622  10.234 -0.2222  0.3759 -0.0513
  300TMC3     C 4520   2.366   3.564  10.187  0.0342  0.7826  0.0584
  300TMC3     O 4521   2.426   3.611  10.282 -0.5473 -0.2293  0.2628
  300TMC3     H 4522   2.245   3.777  10.311  2.6407 -0.4944 -2.3514
  300TMC3    H1 4523   2.164   3.447  10.046 -1.1191 -0.3503 -0.5660
  300TMC3    H2 4524   1.850   3.642  10.235  0.0228  1.6589 -1.3678
  300TMC3    C7 4525   1.928   3.410  10.113 -0.2658  0.2071 -0.7134
  300TMC3    C8 4526   2.017   3.743  10.442  0.5666  0.2704  0.3375
  300TMC3    O1 4527   1.963   3.338  10.019  0.0014  0.3751  0.0279
  300TMC3    O2 4528   2.114   3.755  10.516  0.4753 -0.1714  0.5804
  301MPD2     C 4529   0.326   3.179   1.612 -0.1425 -0.4858  0.8311
  301MPD2    C1 4530   0.194   3.169   1.565 -0.8815 -0.0081  0.2806
  301MPD2    C2 4531   0.161   3.060   1.503 -0.3539  0.0395 -0.1668
  301MPD2    C3 4532   0.252   2.958   1.479 -0.0167 -0.2045  0.0294
  301MPD2    C4 4533   0.380   2.962   1.535  0.6405  0.3653 -0.1829
  301MPD2    C5 4534   0.409   3.077   1.599 -0.6639 -0.4461 -0.2825
  301MPD2     H 4535   0.054   3.061   1.482  0.1810 -1.7463 -3.0733
  301MPD2    H1 4536   0.445   2.876   1.536 -0.6762 -0.6506 -1.5331
  301MPD2    H2 4537   0.366   3.265   1.665  1.3075 -1.3296  1.1041
  301MPD2    H3 4538   0.498   3.092   1.658 -1.0549 -1.6302  0.5966
  301MPD2     N 4539   0.217   2.844   1.396  0.2416 -0.2480  0.1702
  301MPD2    H5 4540   0.288   2.772   1.385  1.4979  1.2622 -1.4717
  301MPD2    N1 4541   0.095   3.274   1.582 -0.1692 -0.1674  0.4095
  301MPD2    H7 4542   4.722   3.254   1.552  0.4285 -0.3555 -1.3445
  302TMC3    C1 4543   0.068   2.712   1.262  0.3789  0.3928  0.2550
  302TMC3    C2 4544   0.144   2.602   1.285  0.8825  0.2997 -0.2770
  302TMC3    C3 4545   0.098   2.480   1.241  0.5447 -0.3196 -0.1942
  302TMC3    C4 4546   4.672   2.707   1.185  0.8032  0.2323  0.0377
  302TMC3    C5 4547   4.641   2.585   1.120  0.3066  0.1319 -0.3257
  302TMC3    C6 4548   4.714   2.473   1.148  0.7062 -0.6276  0.7704
  302TMC3     C 4549   0.102   2.842   1.319  0.3780  0.0521 -0.3319
  302TMC3     O 4550   0.011   2.922   1.312 -0.1618  0.1507  0.4590
  302TMC3     H 4551   0.232   2.609   1.349  0.1599  0.6280  0.6865
  302TMC3    H1 4552   4.611   2.796   1.175 -2.9300 -2.4308 -1.2968
  302TMC3    H2 4553   4.691   2.380   1.098 -1.6332 -0.1579  0.9606
  302TMC3    C7 4554   4.533   2.578   1.026 -0.5546  0.4970  0.2486
  302TMC3    C8 4555   0.181   2.358   1.258  0.2581 -0.1102  0.5703
  302TMC3    O1 4556   4.502   2.465   0.979  0.4462  0.1326 -0.1619
  302TMC3    O2 4557   0.289   2.382   1.315  0.0599 -0.0272 -0.4216
  303MPD2     C 4558   4.536   1.626  10.703 -0.1534 -0.1386  0.0909
  303MPD2    C1 4559   4.570   1.608  10.571  0.4955 -0.2554  0.4143
  303MPD2    C2 4560   4.554   1.706  10.479  0.6026 -0.7782 -0.0627
  303MPD2    C3 4561   4.514   1.833  10.532  0.8986  0.8477  0.8439
  303MPD2    C4 4562   4.484   1.851  10.666 -0.6396  0.1315  0.2030
  303MPD2    C5 4563   4.487   1.749  10.749  0.2409  0.4936  0.5081
  303MPD2     H 4564   4.590   1.700  10.377  0.9561 -0.9999  0.0716
  303MPD2    H1 4565   4.458   1.949  10.703  4.7708  1.2986  0.8859
  303MPD2    H2 4566   4.545   1.548  10.777 -1.1930 -1.0038 -0.7060
  303MPD2    H3 4567   4.446   1.751  10.849  0.4629  0.3170  0.6029
  303MPD2     N 4568   4.495   1.944  10.445 -0.1007 -0.7021 -0.0339
  303MPD2    H5 4569   4.493   2.034  10.492 -0.7998  0.0810 -1.5522
  303MPD2    N1 4570   4.616   1.480  10.538 -0.1654 -0.6810 -0.9526
  303MPD2    H7 4571   4.626   1.408  10.609 -0.3084 -1.5709 -1.8163
  304TMC3    C1 4572   4.655   1.292  10.395  0.3503 -0.1759  0.6605
  304TMC3    C2 4573   4.538   1.230  10.435  0.5119 -0.3273  0.4630
  304TMC3    C3 4574   4.489   1.123  10.368  0.6973 -0.0926 -0.3380
  304TMC3    C4 4575   0.010   1.238  10.291  0.0945 -0.2769 -0.0851
  304TMC3    C5 4576   4.688   1.128  10.225  0.5629  0.3724 -0.1729
  304TMC3    C6 4577   4.561   1.080  10.262 -0.7186  0.1275  0.1727
  304TMC3     C 4578   4.652   1.434  10.409 -0.1504 -0.2183  0.0302
  304TMC3     O 4579   4.665   1.492  10.299  0.3381  0.2276 -0.2709
  304TMC3     H 4580   4.479   1.279  10.512  0.0449 -0.5194  0.2306
  304TMC3    H1 4581   0.083   1.302  10.243 -0.4454 -0.2871 -0.9175
  304TMC3    H2 4582   4.513   1.006  10.198 -1.7115  1.1430 -0.2658
  304TMC3    C7 4583   4.677   1.161  10.080 -0.0356  0.1468 -0.2659
  304TMC3    C8 4584   4.353   1.156  10.342 -0.1960  0.0126  0.5393
  304TMC3    O1 4585   4.562   1.186  10.047 -0.4895 -0.2127 -0.3300
  304TMC3    O2 4586   4.287   1.187  10.438  1.2842  0.5973 -0.7808
  305MPD2     C 4587   2.610   4.035  14.011  0.3582 -0.3727 -0.4338
  305MPD2    C1 4588   2.751   4.034  13.998  0.2482  0.1706 -0.2164
  305MPD2    C2 4589   2.807   4.010  13.876 -0.2879 -0.8050 -1.0538
  305MPD2    C3 4590   2.735   3.974  13.762 -0.0000  0.0118 -0.7521
  305MPD2    C4 4591   2.599   3.969  13.774 -0.6184 -0.2884  0.2952
  305MPD2    C5 4592   2.541   4.003  13.896 -0.4218  1.1219  0.1621
  305MPD2     H 4593   2.915   4.009  13.871 -0.2059 -0.6336  0.5162
  305MPD2    H1 4594   2.541   3.940  13.687 -0.9896 -0.0723  0.4664
  305MPD2    H2 4595   2.566   4.052  14.108 -0.1400  2.2846 -1.1489
  305MPD2    H3 4596   2.433   4.001  13.900 -0.4790  0.9124 -1.8061
  305MPD2     N 4597   2.786   3.929  13.633 -0.1608 -0.0700  0.4444
  305MPD2    H5 4598   2.725   3.893  13.560  1.2026 -0.8010 -0.3509
  305MPD2    N1 4599   2.820   4.061  14.115  0.3791 -0.2738 -0.0201
  305MPD2    H7 4600   2.767   4.089  14.196 -1.9716 -0.8153 -1.3776
  306TMC3    C1 4601   2.990   4.051  14.274 -0.0064 -0.1123  0.5177
  306TMC3    C2 4602   3.114   4.001  14.306 -0.2208  0.0887 -0.1519
  306TMC3    C3 4603   3.142   4.002  14.435 -0.2430 -0.2595 -0.6346
  306TMC3    C4 4604   2.916   4.135  14.360  0.2028  0.2568  0.3360
  306TMC3    C5 4605   2.971   4.156  14.476 -0.2406  0.7274 -0.0706
  306TMC3    C6 4606   3.074   4.082  14.526 -0.6701  0.1179  0.6989
  306TMC3     C 4607   2.954   4.051  14.135 -0.2525 -0.6671  0.2671
  306TMC3     O 4608   3.043   4.027  14.058  0.0311 -0.2231  0.1703
  306TMC3     H 4609   3.159   3.928  14.240  1.4300  0.6580  0.3596
  306TMC3    H1 4610   2.829   4.192  14.327  0.7882  1.7219  1.3187
  306TMC3    H2 4611   3.100   4.093  14.631 -0.2937 -1.4700  0.7631
  306TMC3    C7 4612   2.896   4.235  14.567  0.2186  0.2165  0.0948
  306TMC3    C8 4613   3.260   3.932  14.482 -0.1156 -0.2657  0.1275
  306TMC3    O1 4614   2.777   4.236  14.550 -0.0957 -0.0072  0.0646
  306TMC3    O2 4615   3.294   3.826  14.423  0.5201 -0.3102  0.4600
  307MPD2     C 4616   0.668   2.171   0.180 -0.7577 -0.1637 -0.0580
  307MPD2    C1 4617   0.596   2.264   0.238 -0.1797  0.6333  0.1117
  307MPD2    C2 4618   0.549   2.233   0.364 -0.0502  0.6819  0.1625
  307MPD2    C3 4619   0.565   2.113   0.427 -0.0184  0.0705  0.6845
  307MPD2    C4 4620   0.636   2.010   0.366 -0.4361  0.0789  0.1255
  307MPD2    C5 4621   0.689   2.042   0.241  0.7230  0.4022  0.2002
  307MPD2     H 4622   0.476   2.301   0.407  1.0268  1.5570  0.6006
  307MPD2    H1 4623   0.664   1.921   0.422 -1.1294 -0.6360 -0.6720
  307MPD2    H2 4624   0.707   2.184   0.080  0.7776 -0.5241  0.4831
  307MPD2    H3 4625   0.743   1.969   0.181  0.7964 -1.3981  2.4375
  307MPD2     N 4626   0.517   2.103   0.561 -0.4092 -0.1485  0.2758
  307MPD2    H5 4627   0.486   2.192   0.599  0.7883  0.1957  0.4388
  307MPD2    N1 4628   0.554   2.383   0.176 -0.9200 -0.3363  0.3689
  307MPD2    H7 4629   0.489   2.446   0.224 -1.2491  1.0138 -1.8466
  308TMC3    C1 4630   0.201   1.979   0.825  0.1630 -0.0079  1.1038
  308TMC3    C2 4631   0.202   2.110   0.864  0.0338  0.1784 -0.5219
  308TMC3    C3 4632   0.317   2.181   0.858 -0.0431  0.5140  0.0044
  308TMC3    C4 4633   0.315   1.926   0.764  0.1177  0.1742  0.2621
  308TMC3    C5 4634   0.424   2.006   0.752 -0.3659 -0.2943 -0.5074
  308TMC3    C6 4635   0.435   2.127   0.823 -0.2546 -0.1383 -0.1405
  308TMC3     C 4636   0.084   1.898   0.832 -0.3242 -0.4204 -0.8224
  308TMC3     O 4637   0.109   1.778   0.844  0.2170 -0.2944 -0.2431
  308TMC3     H 4638   0.115   2.152   0.913  0.4980  0.8093 -0.2402
  308TMC3    H1 4639   0.304   1.827   0.720 -3.9345  0.3366  0.9881
  308TMC3    H2 4640   0.522   2.188   0.806 -1.5668  1.8165  0.2044
  308TMC3    C7 4641   0.501   1.988   0.632  0.1280  0.4833  0.2804
  308TMC3    C8 4642   0.327   2.320   0.903  0.4840  0.3554 -0.4100
  308TMC3    O1 4643   0.536   1.870   0.609  0.1733  0.0943 -0.3007
  308TMC3    O2 4644   0.429   2.344   0.964  0.0868 -0.3637 -0.3252
  309MPD2     C 4645   4.282   2.457  17.271  0.0531 -0.3928 -0.6689
  309MPD2    C1 4646   4.210   2.552  17.196 -0.0225 -0.1266  0.5004
  309MPD2    C2 4647   4.092   2.606  17.253  0.2306  0.0096  0.2804
  309MPD2    C3 4648   4.047   2.559  17.381 -0.0068  0.3654  0.0968
  309MPD2    C4 4649   4.121   2.459  17.448  0.1426 -0.0200  0.0220
  309MPD2    C5 4650   4.235   2.412  17.394  0.3542 -0.2592 -0.1608
  309MPD2     H 4651   4.037   2.682  17.199 -1.8148 -1.4237  0.3392
  309MPD2    H1 4652   4.091   2.415  17.542 -0.0633  0.3068  0.1126
  309MPD2    H2 4653   4.366   2.398  17.235  0.1222  0.0795 -1.2906
  309MPD2    H3 4654   4.284   2.335  17.453 -0.0169  0.9212  1.6844
  309MPD2     N 4655   3.937   2.603  17.445  0.1374 -0.1407 -0.2705
  309MPD2    H5 4656   3.914   2.548  17.526 -0.4231  0.2129 -0.1882
  309MPD2    N1 4657   4.266   2.608  17.080  0.3088 -0.0905  0.3037
  309MPD2    H7 4658   4.239   2.699  17.044 -0.6159  0.0474  1.3493
  310TMC3    C1 4659   4.440   2.643  16.922  0.7080 -0.1563  0.8252
  310TMC3    C2 4660   4.374   2.744  16.845  0.4593  0.4972 -0.2661
  310TMC3    C3 4661   4.455   2.800  16.743  0.3111 -0.1201 -0.0903
  310TMC3    C4 4662   4.570   2.609  16.897 -0.3185  0.6175 -0.0636
  310TMC3    C5 4663   4.634   2.663  16.787  0.2085 -0.1592  0.3385
  310TMC3    C6 4664   4.574   2.753  16.704  0.1470 -0.9617 -0.4953
  310TMC3     C 4665   4.378   2.560  17.020  0.1018  0.5524 -0.2208
  310TMC3     O 4666   4.427   2.448  17.037 -0.1473  0.4123  0.3428
  310TMC3     H 4667   4.270   2.771  16.858  0.2971  0.6144 -1.8132
  310TMC3    H1 4668   4.610   2.517  16.937 -2.6498 -1.5669 -2.7899
  310TMC3    H2 4669   4.623   2.813  16.629  2.6221 -1.0794  1.0284
  310TMC3    C7 4670   0.042   2.603  16.752  0.0485 -0.0231  0.1455
  310TMC3    C8 4671   4.401   2.902  16.650  0.6951  0.0722  0.0640
  310TMC3    O1 4672   0.072   2.499  16.810  0.2217  0.0847  0.3874
  310TMC3    O2 4673   4.426   2.884  16.532  0.2403 -0.0251 -0.0683
  311MPD2     C 4674   2.140   3.643  12.542 -0.8767 -0.7283  0.1713
  311MPD2    C1 4675   2.167   3.738  12.635 -0.1557  0.5335 -0.2776
  311MPD2    C2 4676   2.064   3.810  12.697 -0.0879 -0.1584  0.8006
  311MPD2    C3 4677   1.929   3.773  12.676 -0.9584 -0.5017  0.6331
  311MPD2    C4 4678   1.909   3.676  12.576  0.1156  0.1857  0.2671
  311MPD2    C5 4679   2.011   3.618  12.511 -0.3369 -0.2586 -0.1729
  311MPD2     H 4680   2.081   3.877  12.781 -0.1319  2.0534 -0.9503
  311MPD2    H1 4681   1.809   3.640  12.555  0.4785  0.4684 -1.9197
  311MPD2    H2 4682   2.221   3.590  12.494 -0.3834 -0.4699  0.7168
  311MPD2    H3 4683   1.988   3.538  12.441  0.9311  0.8519 -1.8779
  311MPD2     N 4684   1.822   3.819  12.766  0.4859  0.0887 -0.5785
  311MPD2    H5 4685   1.855   3.884  12.837 -0.1068  1.5445 -1.6317
  311MPD2    N1 4686   2.299   3.772  12.668 -0.7782  0.0403 -0.1009
  311MPD2    H7 4687   2.309   3.852  12.729 -0.3218 -0.2763  0.2449
  312TMC3    C1 4688   1.603   3.818  12.877 -0.2690  0.6775  0.3768
  312TMC3    C2 4689   1.467   3.784  12.875  0.1287 -0.4973  0.4851
  312TMC3    C3 4690   1.376   3.837  12.970 -0.5005 -0.5000  0.2500
  312TMC3    C4 4691   1.645   3.901  12.982 -0.4656 -0.5590 -0.6634
  312TMC3    C5 4692   1.557   3.934  13.087  0.3305  0.3586 -0.1698
  312TMC3    C6 4693   1.424   3.905  13.077  0.3015  0.5536  0.4320
  312TMC3     C 4694   1.691   3.776  12.772 -0.5643  0.1607 -0.5331
  312TMC3     O 4695   1.631   3.703  12.692  0.0036 -0.7120 -0.2599
  312TMC3     H 4696   1.431   3.713  12.802 -0.9756  2.6599 -2.0282
  312TMC3    H1 4697   1.751   3.924  12.989 -0.3952 -0.9359 -0.4675
  312TMC3    H2 4698   1.358   3.959  13.144  2.2947  0.1332  2.7381
  312TMC3    C7 4699   1.618   3.957  13.213 -0.7427 -0.8266 -0.1160
  312TMC3    C8 4700   1.234   3.797  12.956 -0.7370 -0.8027 -0.1404
  312TMC3    O1 4701   1.736   3.997  13.207  0.2443  0.0476 -0.0666
  312TMC3    O2 4702   1.196   3.746  12.852  0.6728 -0.1984 -0.1155
  313MPD2     C 4703   0.921   3.931  11.488 -0.5707  0.0632  0.2600
  313MPD2    C1 4704   0.944   4.004  11.375 -0.2229  0.3608  0.5751
  313MPD2    C2 4705   0.933   3.943  11.253  0.0816 -0.4779 -0.2841
  313MPD2    C3 4706   0.882   3.808  11.246 -0.0086 -0.1129  0.0598
  313MPD2    C4 4707   0.848   3.740  11.363 -0.1047  0.0246 -0.0595
  313MPD2    C5 4708   0.874   3.800  11.483 -0.3750 -0.5382  0.1988
  313MPD2     H 4709   0.954   3.990  11.157 -0.9733 -0.7441 -0.6347
  313MPD2    H1 4710   0.819   3.636  11.362 -0.7665  0.2107 -0.5344
  313MPD2    H2 4711   0.939   3.969  11.588 -1.5742 -0.4514  0.6300
  313MPD2    H3 4712   0.850   3.752  11.578  0.3218 -0.1455  0.5688
  313MPD2     N 4713   0.850   3.762  11.114  0.3275  0.0910 -0.9967
  313MPD2    H5 4714   0.890   3.813  11.036 -1.3886 -0.9325 -2.5254
  313MPD2    N1 4715   0.988   4.141  11.371 -1.1140 -0.3605 -0.3295
  313MPD2    H7 4716   0.974   4.186  11.281 -1.2765  1.5582  0.6625
  314TMC3    C1 4717   1.048   4.348  11.446  0.9740 -0.9459 -0.0089
  314TMC3    C2 4718   1.171   4.390  11.481  0.0659  0.1830  0.4734
  314TMC3    C3 4719   1.218   4.498  11.409  0.1190 -0.7109  0.4125
  314TMC3    C4 4720   0.971   4.394  11.348  0.4687  0.5003 -0.4097
  314TMC3    C5 4721   1.030   4.488  11.270  0.0773 -0.7989  0.0912
  314TMC3    C6 4722   1.151   4.547  11.300  0.0771  0.4559  0.9232
  314TMC3     C 4723   1.026   4.208  11.482 -0.1655 -0.2296  0.9640
  314TMC3     O 4724   1.075   4.161  11.582  0.0180  0.4359  0.0838
  314TMC3     H 4725   1.228   4.339  11.559  0.7402 -2.1816 -1.5915
  314TMC3    H1 4726   0.878   4.349  11.316  0.3935 -0.9184  1.8098
  314TMC3    H2 4727   1.189   4.620  11.230  2.3534 -0.5831  1.0725
  314TMC3    C7 4728   0.987   4.502  11.130 -0.0445 -0.3252  0.3512
  314TMC3    C8 4729   1.359   4.525  11.402 -0.3699 -0.7678 -0.1310
  314TMC3    O1 4730   0.869   4.486  11.100 -0.1320 -0.0777  0.2514
  314TMC3    O2 4731   1.397   4.583  11.298  0.1237  0.1191 -0.6095
  315MPD2     C 4732   0.968   2.457   0.178  0.3558 -0.5567  0.0707
  315MPD2    C1 4733   1.090   2.459   0.242  0.6934  1.0905 -0.4273
  315MPD2    C2 4734   1.143   2.583   0.266 -0.0814 -1.2849  0.0774
  315MPD2    C3 4735   1.077   2.702   0.225 -0.4345  0.0145 -0.0426
  315MPD2    C4 4736   0.951   2.698   0.173 -0.2283  0.3733  0.5670
  315MPD2    C5 4737   0.901   2.576   0.146  0.0665 -0.4332  0.1425
  315MPD2     H 4738   1.236   2.594   0.320  1.1976 -2.6946 -1.8747
  315MPD2    H1 4739   0.892   2.786   0.150 -0.7033 -0.8403 -2.8532
  315MPD2    H2 4740   0.914   2.364   0.161  0.1151 -0.0399 -1.9587
  315MPD2    H3 4741   0.803   2.563   0.103  1.0193 -2.9414 -1.3464
  315MPD2     N 4742   1.147   2.821   0.234 -0.1178  0.3510  0.2170
  315MPD2    H5 4743   1.236   2.811   0.283 -0.2198 -4.1189 -0.5374
  315MPD2    N1 4744   1.161   2.349   0.281  0.1442  0.0557 -0.4712
  315MPD2    H7 4745   1.244   2.355   0.340  0.8538 -0.9097 -1.3605
  316TMC3    C1 4746   1.212   3.049   0.199  0.6060  0.2809  0.1808
  316TMC3    C2 4747   1.290   3.043   0.312 -0.3129  0.4255  0.8160
  316TMC3    C3 4748   1.396   3.137   0.318  0.7389 -0.2608 -0.2097
  316TMC3    C4 4749   1.232   3.136   0.101  0.3592  0.3079 -0.0509
  316TMC3    C5 4750   1.337   3.226   0.113  0.0674 -0.3776 -0.2244
  316TMC3    C6 4751   1.410   3.236   0.226 -0.8355 -0.1140 -0.5534
  316TMC3     C 4752   1.118   2.941   0.175 -0.5697  0.6006  0.1905
  316TMC3     O 4753   1.018   2.969   0.109  0.1855 -0.1807  0.5022
  316TMC3     H 4754   1.270   2.972   0.391  0.9832 -0.5944  0.2380
  316TMC3    H1 4755   1.172   3.133   0.011 -0.2535  0.0783  0.3673
  316TMC3    H2 4756   1.478   3.321   0.234  0.6906 -1.2186 -1.6926
  316TMC3    C7 4757   1.346   3.336   0.020 -0.0522  0.0009  0.2254
  316TMC3    C8 4758   1.483   3.144   0.437 -0.2723  0.2634 -0.4070
  316TMC3    O1 4759   1.385   3.438   0.076  0.0691  0.0645  0.1680
  316TMC3    O2 4760   1.532   3.255   0.464  0.3415 -0.2704 -0.3415
  317MPD2     C 4761   2.785   0.751  13.062  0.0836 -0.6069  0.4929
  317MPD2    C1 4762   2.929   0.753  13.077  0.3854 -0.0586 -0.0904
  317MPD2    C2 4763   2.985   0.696  13.190 -0.0830 -0.6370 -0.2873
  317MPD2    C3 4764   2.899   0.669  13.299 -0.8217  0.2928  0.5406
  317MPD2    C4 4765   2.771   0.688  13.286 -0.5645 -0.2134 -0.1528
  317MPD2    C5 4766   2.716   0.719  13.168 -0.2565 -0.4731  0.5475
  317MPD2     H 4767   3.093   0.695  13.206  0.1777  1.7986 -1.8776
  317MPD2    H1 4768   2.706   0.672  13.371 -0.4700 -1.1887 -0.2580
  317MPD2    H2 4769   2.730   0.800  12.983  0.4142  0.0965  0.6970
  317MPD2    H3 4770   2.608   0.714  13.163 -0.4421  2.4006  1.6694
  317MPD2     N 4771   2.972   0.634  13.413 -0.6566 -1.2615 -0.5411
  317MPD2    H5 4772   3.073   0.621  13.406 -0.3139  1.7086 -1.1878
  317MPD2    N1 4773   3.016   0.799  12.975 -0.1005 -0.0055 -0.3095
  317MPD2    H7 4774   3.112   0.811  13.005 -0.2707  1.7983 -0.4779
  318TMC3    C1 4775   3.032   0.583  13.632  0.0739 -0.2879 -0.9432
  318TMC3    C2 4776   3.017   0.483  13.723 -0.2131  0.4441 -0.3251
  318TMC3    C3 4777   3.121   0.434  13.795  0.2445 -0.1136  0.3133
  318TMC3    C4 4778   3.159   0.637  13.611  0.3615  0.2599  0.0724
  318TMC3    C5 4779   3.266   0.574  13.676 -0.7556  0.9069 -0.3755
  318TMC3    C6 4780   3.244   0.481  13.773 -0.5783 -0.4668  0.3889
  318TMC3     C 4781   2.928   0.576  13.530 -0.4225 -0.0429  0.0073
  318TMC3     O 4782   2.810   0.553  13.560  0.6767 -1.0341  0.0836
  318TMC3     H 4783   2.915   0.451  13.737  0.5051 -1.6958  0.1489
  318TMC3    H1 4784   3.175   0.716  13.539 -0.2612  1.0815  0.8343
  318TMC3    H2 4785   3.325   0.429  13.824 -0.2104 -0.6339 -0.3554
  318TMC3    C7 4786   3.396   0.621  13.631 -0.0942  0.3523  0.1690
  318TMC3    C8 4787   3.096   0.303  13.868 -0.2174  0.0502 -0.1815
  318TMC3    O1 4788   3.401   0.729  13.571 -0.1466  0.1777  0.3090
  318TMC3    O2 4789   3.184   0.277  13.952 -0.0309  0.2165 -0.2177
  319MPD2     C 4790   4.202   2.217  16.296  0.0879  0.3393  0.4629
  319MPD2    C1 4791   4.115   2.112  16.315 -0.2781  1.0332 -0.2910
  319MPD2    C2 4792   4.106   2.010  16.216 -0.6163  0.1123 -0.5890
  319MPD2    C3 4793   4.176   2.024  16.100 -0.3854  0.4976  0.4612
  319MPD2    C4 4794   4.268   2.123  16.091  0.5955  0.0153  0.9832
  319MPD2    C5 4795   4.280   2.215  16.186 -0.2263 -0.4596 -0.2881
  319MPD2     H 4796   4.028   1.936  16.228  1.3112 -1.9913 -1.0755
  319MPD2    H1 4797   4.326   2.130  16.000 -1.0664 -0.2615 -0.0997
  319MPD2    H2 4798   4.205   2.305  16.359  2.1257  1.6067 -1.4117
  319MPD2    H3 4799   4.357   2.289  16.172  0.9041 -1.6471 -0.3470
  319MPD2     N 4800   4.147   1.945  15.993  0.0803 -0.4300 -0.0984
  319MPD2    H5 4801   4.193   1.959  15.903 -0.4087  0.8239 -0.1445
  319MPD2    N1 4802   4.035   2.098  16.437 -0.1321  0.0195  0.1565
  319MPD2    H7 4803   3.964   2.025  16.431  0.2599 -0.3625  0.1568
  320TMC3    C1 4804   4.007   1.815  15.843  0.4571  0.1561  0.8030
  320TMC3    C2 4805   3.957   1.926  15.778  0.1019 -0.6446 -0.0599
  320TMC3    C3 4806   3.834   1.916  15.715  0.2627  0.2647  0.3515
  320TMC3    C4 4807   3.934   1.699  15.837 -0.1643 -0.9634  0.1485
  320TMC3    C5 4808   3.819   1.687  15.768 -1.1452 -0.2695 -0.8574
  320TMC3    C6 4809   3.757   1.798  15.713 -0.7196 -0.3507  0.3699
  320TMC3     C 4810   4.043   1.843  15.980  0.4140  0.2801 -0.4912
  320TMC3     O 4811   3.975   1.779  16.061 -0.0025  0.5725 -0.2008
  320TMC3     H 4812   4.015   2.018  15.784  1.8703 -1.7606  0.1270
  320TMC3    H1 4813   3.977   1.611  15.882  2.0580  0.4557  0.8061
  320TMC3    H2 4814   3.660   1.794  15.665 -1.5049 -1.1470  2.0665
  320TMC3    C7 4815   3.715   1.619  15.846 -0.3872  0.4959 -0.3672
  320TMC3    C8 4816   3.758   2.035  15.713  0.8995 -0.4133  0.2519
  320TMC3    O1 4817   3.619   1.574  15.784 -0.5374 -0.1327 -0.0742
  320TMC3    O2 4818   3.816   2.137  15.712  0.3020 -0.0974 -0.5347
  321TMC3    C1 4819   3.948   2.141  16.652  0.2376 -0.2050  0.3704
  321TMC3    C2 4820   3.919   2.006  16.655 -0.1878 -0.6342  0.7704
  321TMC3    C3 4821   3.843   1.963  16.767  0.3092  0.0727 -0.2686
  321TMC3    C4 4822   3.910   2.229  16.757  0.2453  0.3895 -0.1993
  321TMC3    C5 4823   3.853   2.177  16.871 -0.3822  0.1917 -0.4434
  321TMC3    C6 4824   3.813   2.044  16.873 -0.2603 -0.7531 -0.5971
  321TMC3     C 4825   4.026   2.193  16.540  0.1768 -0.0894  0.6709
  321TMC3     O 4826   4.085   2.296  16.565 -0.4640  0.1341 -0.1450
  321TMC3     H 4827   3.949   1.933  16.581 -0.8775 -2.3575  2.1631
  321TMC3    H1 4828   3.953   2.328  16.758  0.2129  0.3929  1.6367
  321TMC3    H2 4829   3.782   1.997  16.966  0.3971 -1.1553 -0.5803
  321TMC3    C7 4830   3.901   2.238  16.993 -0.1039  0.1335  0.1793
  321TMC3    C8 4831   3.855   1.823  16.810  0.0608 -0.2712 -0.3205
  321TMC3    O1 4832   4.020   2.273  16.992  0.2422  0.4835  0.2661
  321TMC3    O2 4833   3.765   1.741  16.809  0.1604  0.2620 -0.0710
  322MPD2     C 4834   2.627   3.296  13.881 -0.1715  0.0566 -0.5882
  322MPD2    C1 4835   2.715   3.295  13.990  0.0691 -0.2343 -0.7440
  322MPD2    C2 4836   2.743   3.176  14.054 -0.2666  0.5645  0.3634
  322MPD2    C3 4837   2.688   3.055  14.010 -0.6719  0.6722  0.4218
  322MPD2    C4 4838   2.603   3.055  13.904 -0.7291 -0.0399  0.1558
  322MPD2    C5 4839   2.575   3.173  13.835 -0.1443 -0.0422  0.3735
  322MPD2     H 4840   2.817   3.180  14.133  2.2066 -0.7195 -1.9040
  322MPD2    H1 4841   2.551   2.962  13.884 -0.7720 -0.5912  2.8179
  322MPD2    H2 4842   2.604   3.388  13.829  4.1842  0.9516 -0.8916
  322MPD2    H3 4843   2.501   3.175  13.755 -0.1299  3.1039  0.4459
  322MPD2     N 4844   2.721   2.941  14.082 -0.2189  0.5534  0.1504
  322MPD2    H5 4845   2.790   2.953  14.155  0.5603  0.1241 -0.5194
  322MPD2    N1 4846   2.768   3.410  14.050 -0.7257  0.4379 -0.2131
  322MPD2    H7 4847   2.805   3.394  14.143  1.0696  2.0062 -0.6555
  323TMC3    C1 4848   2.840   3.628  14.084  0.2063 -0.4101 -0.5548
  323TMC3    C2 4849   2.942   3.699  14.034  0.2082 -0.5332  0.0567
  323TMC3    C3 4850   3.058   3.723  14.105 -0.5530  0.0862  0.1499
  323TMC3    C4 4851   2.848   3.572  14.208 -0.0505 -0.4234 -0.5254
  323TMC3    C5 4852   2.967   3.588  14.280 -0.5344 -0.0487 -0.0590
  323TMC3    C6 4853   3.071   3.651  14.218  0.3631  0.3592 -0.4694
  323TMC3     C 4854   2.780   3.533  13.993  0.5958 -0.3701  0.0547
  323TMC3     O 4855   2.783   3.564  13.873 -0.3340  0.0836 -0.3489
  323TMC3     H 4856   2.921   3.749  13.940 -2.1069 -1.3094  0.1653
  323TMC3    H1 4857   2.763   3.525  14.257 -1.0805  1.9106 -0.0700
  323TMC3    H2 4858   3.169   3.640  14.263 -0.0108  1.8015  0.7023
  323TMC3    C7 4859   2.982   3.502  14.400 -0.1640  0.3805  0.2397
  323TMC3    C8 4860   3.179   3.730  14.019  0.4807  0.2197  0.0303
  323TMC3    O1 4861   2.908   3.403  14.403  0.3919 -0.0887 -0.0895
  323TMC3    O2 4862   3.287   3.708  14.073 -0.5542 -0.2634  0.1983
  324MPD2     C 4863   0.035   4.019  14.171 -0.0559 -0.0654  0.0171
  324MPD2    C1 4864   0.014   4.142  14.099  0.2655 -0.4578  0.0413
  324MPD2    C2 4865   4.617   4.165  14.036  0.4878  0.5030 -0.0435
  324MPD2    C3 4866   4.513   4.070  14.050  0.1853 -0.1055 -0.3636
  324MPD2    C4 4867   4.536   3.952  14.125  0.1749  0.1279 -0.3976
  324MPD2    C5 4868   4.658   3.920  14.176 -0.0009 -0.0882  0.5915
  324MPD2     H 4869   4.603   4.252  13.972 -1.5161  1.1051  1.1883
  324MPD2    H1 4870   4.458   3.877  14.134 -1.0098  1.2096 -1.4762
  324MPD2    H2 4871   0.129   4.005  14.223  0.3378  1.2377 -0.3508
  324MPD2    H3 4872   4.682   3.830  14.231 -0.3012  0.0788  1.0061
  324MPD2     N 4873   4.378   4.093  13.995 -0.3755 -0.6721 -0.5307
  324MPD2    H5 4874   4.311   4.017  14.006 -2.0284  0.5739 -2.0168
  324MPD2    N1 4875   0.111   4.248  14.091 -0.1367 -0.3224  0.2150
  324MPD2    H7 4876   0.089   4.333  14.040 -0.6724 -0.3927  0.3303
  325TMC3    C1 4877   4.194   4.210  13.900 -0.7919  0.5674 -0.3997
  325TMC3    C2 4878   4.129   4.099  13.853  0.3856 -0.4079 -0.6208
  325TMC3    C3 4879   4.002   4.111  13.814  0.3853  0.2784 -0.3449
  325TMC3    C4 4880   4.126   4.337  13.899 -0.4877  0.0763 -0.0536
  325TMC3    C5 4881   3.989   4.339  13.880 -0.2438 -0.6135 -0.3843
  325TMC3    C6 4882   3.924   4.224  13.831 -0.3459  0.2343  0.1981
  325TMC3     C 4883   4.333   4.215  13.944 -0.9686  0.1865  0.5772
  325TMC3     O 4884   4.386   4.324  13.930  0.2917 -0.2421 -0.7972
  325TMC3     H 4885   4.179   4.004  13.864  1.4505  0.1033 -1.0130
  325TMC3    H1 4886   4.170   4.434  13.922  0.1454 -0.4964  1.1477
  325TMC3    H2 4887   3.826   4.237  13.787  0.4345 -1.2464 -1.9808
  325TMC3    C7 4888   3.911   4.458  13.902 -0.3508  0.0116  0.0095
  325TMC3    C8 4889   3.965   4.013  13.705 -0.0667  0.1384  0.4154
  325TMC3    O1 4890   3.804   4.457  13.845  0.7508 -0.0084 -0.3218
  325TMC3    O2 4891   4.048   3.956  13.639 -0.1436 -0.4253  0.1380
  326MPD2     C 4892   1.482   0.967  11.173 -0.3677  0.6724  0.3071
  326MPD2    C1 4893   1.392   1.024  11.084  0.1019  0.2601 -0.0352
  326MPD2    C2 4894   1.414   1.155  11.054  0.3231 -0.5416 -0.3965
  326MPD2    C3 4895   1.518   1.231  11.098 -0.4141  0.1824 -0.2377
  326MPD2    C4 4896   1.603   1.179  11.191 -0.0550 -0.3486  0.4046
  326MPD2    C5 4897   1.583   1.046  11.225 -0.1340 -0.0646 -0.0303
  326MPD2     H 4898   1.347   1.195  10.979  0.2902 -0.7434 -0.4742
  326MPD2    H1 4899   1.693   1.229  11.225  1.6124 -2.3448 -1.0206
  326MPD2    H2 4900   1.477   0.871  11.223 -2.9964  0.8355  0.3270
  326MPD2    H3 4901   1.656   1.014  11.297 -1.5706 -0.4615  1.2386
  326MPD2     N 4902   1.538   1.362  11.050 -0.2223 -0.0106 -0.2520
  326MPD2    H5 4903   1.620   1.413  11.080  0.8665 -0.3732 -2.6380
  326MPD2    N1 4904   1.276   0.959  11.031 -0.3871 -0.4052 -0.7515
  326MPD2    H7 4905   1.215   1.017  10.973 -0.4108  2.7074  2.3621
  327TMC3    C1 4906   1.144   0.776  10.967  0.5004  0.1795  0.6030
  327TMC3    C2 4907   1.031   0.848  10.926 -0.7399  0.1829  0.2142
  327TMC3    C3 4908   1.015   0.858  10.788  0.0986  0.5547  0.7087
  327TMC3    C4 4909   1.234   0.730  10.876  0.9635 -0.3922  0.0961
  327TMC3    C5 4910   1.230   0.767  10.747  0.4370 -0.2533 -0.4560
  327TMC3    C6 4911   1.119   0.828  10.701 -0.0225  0.7859 -0.0956
  327TMC3     C 4912   1.228   0.832  11.071 -0.2107  0.1621  0.3896
  327TMC3     O 4913   1.280   0.744  11.139  0.0634 -0.1117 -0.0893
  327TMC3     H 4914   0.960   0.895  10.993  0.0685  1.1575  0.3649
  327TMC3    H1 4915   1.310   0.663  10.915  0.3203 -0.5893  1.0089
  327TMC3    H2 4916   1.115   0.855  10.596  0.5593 -0.7687 -0.5128
  327TMC3    C7 4917   1.351   0.813  10.678 -0.8958  0.2582 -0.5410
  327TMC3    C8 4918   0.912   0.938  10.736  0.3890 -0.2048  0.2416
  327TMC3    O1 4919   1.344   0.835  10.559 -0.6106 -0.0278 -0.0243
  327TMC3    O2 4920   0.920   0.976  10.619 -0.2331  0.1925 -0.0048
  328MPD2     C 4921   3.608   0.233  16.805 -0.0626 -0.0299 -0.2811
  328MPD2    C1 4922   3.472   0.202  16.805 -0.0679  0.3441  0.5714
  328MPD2    C2 4923   3.374   0.296  16.829 -0.3987  0.1012  0.1366
  328MPD2    C3 4924   3.419   0.430  16.859  0.3886 -0.3911  0.5031
  328MPD2    C4 4925   3.551   0.456  16.875  0.5502 -0.5195 -0.3660
  328MPD2    C5 4926   3.639   0.361  16.843  0.1688 -0.0610 -0.3046
  328MPD2     H 4927   3.270   0.267  16.829 -0.1950 -0.6172 -0.8684
  328MPD2    H1 4928   3.588   0.556  16.896 -1.9647  0.5551 -1.0286
  328MPD2    H2 4929   3.695   0.170  16.787 -0.6277 -0.6002 -1.0060
  328MPD2    H3 4930   3.738   0.401  16.825 -0.3671  2.0616  1.3759
  328MPD2     N 4931   3.333   0.542  16.871 -0.2145 -0.0721 -0.1758
  328MPD2    H5 4932   3.375   0.630  16.899  1.1892 -0.9280  0.3992
  328MPD2    N1 4933   3.425   0.074  16.764 -0.8404  0.0716  0.3247
  328MPD2    H7 4934   3.333   0.067  16.721 -0.7058 -0.6538  0.1530
  329TMC3    C1 4935   3.416   4.563  16.704  0.2392  0.4755 -0.1343
  329TMC3    C2 4936   3.278   4.567  16.720  0.6253 -0.3868  0.4772
  329TMC3    C3 4937   3.212   4.464  16.665  0.0045 -0.3310  0.1294
  329TMC3    C4 4938   3.480   4.456  16.643  0.3870 -0.1032 -0.4503
  329TMC3    C5 4939   3.403   4.356  16.585 -0.0035  0.6012  0.6670
  329TMC3    C6 4940   3.270   4.367  16.588  0.3152  0.2964  0.2761
  329TMC3     C 4941   3.494   4.677  16.750  0.6552  0.8558 -0.5685
  329TMC3     O 4942   3.610   4.657  16.780 -0.0580 -0.2871 -0.0743
  329TMC3     H 4943   3.220   4.652  16.755  2.0076  0.2859  1.1403
  329TMC3    H1 4944   3.586   4.447  16.665 -0.1761 -2.4395  1.3532
  329TMC3    H2 4945   3.209   4.294  16.536 -0.4951  1.2415 -0.1018
  329TMC3    C7 4946   3.474   4.234  16.540  0.1779 -0.1941 -0.3234
  329TMC3    C8 4947   3.065   4.488  16.645 -0.1468  0.1532 -0.7290
  329TMC3    O1 4948   3.589   4.224  16.576 -0.2349 -0.3802 -0.3056
  329TMC3    O2 4949   3.008   4.421  16.557 -0.2077 -0.1647 -0.0502
  330TMC3    C1 4950   1.918   0.498   9.827 -0.6123  0.3349  0.6285
  330TMC3    C2 4951   1.879   0.383   9.770 -0.1145 -0.3005 -0.9730
  330TMC3    C3 4952   1.923   0.267   9.828 -0.0108 -0.0578  0.8072
  330TMC3    C4 4953   2.023   0.508   9.922  0.4089 -0.5100  0.2373
  330TMC3    C5 4954   2.065   0.385   9.973  0.2382 -0.2015  0.3526
  330TMC3    C6 4955   2.010   0.262   9.930  0.1911 -0.2100  0.1356
  330TMC3     C 4956   1.866   0.628   9.786 -0.4726 -0.3962  0.4267
  330TMC3     O 4957   1.892   0.727   9.854  1.2358 -0.1325  0.0986
  330TMC3     H 4958   1.792   0.379   9.705  0.5022  3.1048 -2.0312
  330TMC3    H1 4959   2.049   0.602   9.969 -1.9638 -0.7828  2.0924
  330TMC3    H2 4960   2.032   0.167   9.977 -1.0750 -0.7844 -0.4374
  330TMC3    C7 4961   2.180   0.391  10.058  0.1264  0.0460  0.1102
  330TMC3    C8 4962   1.880   0.133   9.771  0.1634  0.6116 -0.5182
  330TMC3    O1 4963   2.186   0.494  10.121  0.2082  0.0656  0.4834
  330TMC3    O2 4964   1.913   0.038   9.843 -0.8420  0.1415 -0.1659
  331MPD2     C 4965   3.687   3.724  12.618  0.0178 -0.0186 -0.3761
  331MPD2    C1 4966   3.808   3.744  12.553 -0.1354 -0.8624 -0.1131
  331MPD2    C2 4967   3.874   3.632  12.510  0.3424 -0.2414 -0.2354
  331MPD2    C3 4968   3.848   3.503  12.545 -0.3922 -0.1354 -0.4692
  331MPD2    C4 4969   3.740   3.485  12.632 -0.6051 -0.4793 -0.0864
  331MPD2    C5 4970   3.659   3.593  12.666 -0.2981  0.4407 -0.1339
  331MPD2     H 4971   3.966   3.645  12.455  0.6672  1.8929  0.8120
  331MPD2    H1 4972   3.707   3.388  12.666 -0.6206  0.0849  1.5109
  331MPD2    H2 4973   3.624   3.805  12.652  0.7969  0.3284  0.2498
  331MPD2    H3 4974   3.562   3.573  12.709  0.3383  0.3013  1.2128
  331MPD2     N 4975   3.929   3.400  12.498  0.1841 -1.5538  0.0594
  331MPD2    H5 4976   4.003   3.429  12.435  0.4678  0.5480  1.3703
  331MPD2    N1 4977   3.846   3.874  12.516 -0.1596  0.1675  0.2268
  331MPD2    H7 4978   3.778   3.949  12.523 -0.2191  0.3076 -1.8510
  332TMC3    C1 4979   4.050   3.210  12.505 -0.5357  0.2219  0.4951
  332TMC3    C2 4980   4.096   3.257  12.386  0.8893  0.3134  0.2891
  332TMC3    C3 4981   4.230   3.262  12.372 -0.0058 -0.0877  0.6058
  332TMC3    C4 4982   4.134   3.173  12.607  0.3007 -0.2164 -0.2533
  332TMC3    C5 4983   4.273   3.199  12.594 -0.6373 -0.7854  0.6087
  332TMC3    C6 4984   4.319   3.240  12.471  0.1872 -0.2283 -0.7038
  332TMC3     C 4985   3.937   3.280  12.554 -0.4295  0.3885  0.5317
  332TMC3     O 4986   3.871   3.218  12.635 -0.4826  0.0224  0.1937
  332TMC3     H 4987   4.028   3.274  12.304  0.0372  2.0015  1.3408
  332TMC3    H1 4988   4.093   3.129  12.697  0.0593 -0.1922 -0.3494
  332TMC3    H2 4989   4.424   3.264  12.458  0.4205  0.2402  1.8519
  332TMC3    C7 4990   4.342   3.207  12.716 -0.4609  0.2723  0.3718
  332TMC3    C8 4991   4.273   3.290  12.237  0.6577 -0.4264 -0.4901
  332TMC3    O1 4992   4.295   3.157  12.818 -0.0899  0.0312 -0.3032
  332TMC3    O2 4993   4.193   3.262  12.149  0.2410 -0.2151 -0.5134
  333MPD2     C 4994   4.444   4.694  11.428  0.0379  0.6184  0.4781
  333MPD2    C1 4995   4.547   4.614  11.374 -0.3704 -0.5320  0.1717
  333MPD2    C2 4996   4.586   4.508  11.447 -0.0859 -0.3527 -0.2540
  333MPD2    C3 4997   4.520   4.480  11.566  0.4891  0.5414  0.0188
  333MPD2    C4 4998   4.437   4.576  11.621  0.0372 -0.2449  0.3103
  333MPD2    C5 4999   4.388   4.676  11.546 -0.1634  0.1341  0.0539
  333MPD2     H 5000   4.665   4.439  11.419 -1.0092 -1.8620  0.8658
  333MPD2    H1 5001   4.406   4.569  11.725 -1.0479 -3.2685 -0.1999
  333MPD2    H2 5002   4.418   0.062  11.375 -0.7790 -0.0577 -0.2709
  333MPD2    H3 5003   4.307   0.016  11.583 -0.0311  0.5174 -0.3069
  333MPD2     N 5004   4.547   4.362  11.631 -0.1386 -0.2097  0.1802
  333MPD2    H5 5005   4.623   4.316  11.582 -0.6400  0.4037 -1.1986
  333MPD2    N1 5006   4.593   4.642  11.244 -0.3653 -0.0660 -0.3947
  333MPD2    H7 5007   4.551   4.716  11.188 -0.4530 -0.5133 -0.9176
  334TMC3    C1 5008   0.008   4.643  11.062 -0.0748 -0.4471  0.5997
  334TMC3    C2 5009   0.090   4.571  10.974  0.3944 -0.1057  0.7835
  334TMC3    C3 5010   0.190   4.638  10.895 -0.0539  0.4636 -0.1952
  334TMC3    C4 5011   0.017   0.055  11.064 -0.2750  0.2847 -0.0871
  334TMC3    C5 5012   0.109   0.117  10.980 -0.2122 -0.0587 -0.7466
  334TMC3    C6 5013   0.198   0.051  10.890  0.2539 -0.1955 -0.4099
  334TMC3     C 5014   4.682   4.573  11.169  0.8214  0.0470  0.3738
  334TMC3     O 5015   0.007   4.462  11.194  0.1653  0.2348  0.0098
  334TMC3     H 5016   0.088   4.463  10.972  2.0161 -0.1472  1.6109
  334TMC3    H1 5017   4.705   0.113  11.149  2.6529  0.9105  0.6658
  334TMC3    H2 5018   0.274   0.110  10.841  1.1344 -2.6324 -1.9820
  334TMC3    C7 5019   0.071   0.247  10.925  0.4729 -0.5522 -0.1906
  334TMC3    C8 5020   0.269   4.571  10.793 -1.1574  0.0464 -0.0423
  334TMC3    O1 5021   0.172   0.306  10.886 -0.1430  0.2216 -0.5538
  334TMC3    O2 5022   0.212   4.478  10.738 -0.3427 -0.4278  0.6135
  335TMC3    C1 5023   4.065   1.027  17.690 -0.4605 -0.0725  0.3511
  335TMC3    C2 5024   3.981   0.933  17.635  0.1082  0.2366 -0.2696
  335TMC3    C3 5025   4.040   0.832  17.566  0.2591 -0.1217  0.3439
  335TMC3    C4 5026   4.203   1.010  17.683 -0.5130 -0.3891 -0.1140
  335TMC3    C5 5027   4.251   0.907  17.604  0.4662  0.2216  0.2410
  335TMC3    C6 5028   4.172   0.818  17.541 -0.7663 -0.4394 -0.2673
  335TMC3     C 5029   4.014   1.138   0.084  0.2352 -0.7865 -0.1819
  335TMC3     O 5030   4.094   1.225   0.106  0.1644 -0.0914 -0.5984
  335TMC3     H 5031   3.880   0.961  17.607  0.2359  2.3698  1.4424
  335TMC3    H1 5032   4.271   1.082   0.038 -1.6261 -0.8365  2.1907
  335TMC3    H2 5033   4.213   0.735  17.486 -1.8017 -1.5873  0.6970
  335TMC3    C7 5034   4.390   0.901  17.572  0.0836 -0.4172  0.5616
  335TMC3    C8 5035   3.966   0.785  17.454 -0.0778  0.3338 -0.1116
  335TMC3    O1 5036   4.428   0.807  17.506 -0.0268 -1.0829 -0.7015
  335TMC3    O2 5037   4.025   0.815  17.349 -0.2526  0.1341  0.4930
  336MPD2     C 5038   3.855   3.093  16.279  0.3352 -1.0285 -0.3946
  336MPD2    C1 5039   3.790   3.050  16.167  0.6546  0.3260  0.0843
  336MPD2    C2 5040   3.821   2.921  16.115  0.2016 -0.7421  0.1256
  336MPD2    C3 5041   3.906   2.839  16.184 -0.0741 -0.4284  0.5412
  336MPD2    C4 5042   3.948   2.884  16.309  0.1258  1.1460 -0.1273
  336MPD2    C5 5043   3.925   3.007  16.359  0.3871 -0.5979  0.3365
  336MPD2     H 5044   3.769   2.885  16.027  2.5197 -2.3029 -0.5989
  336MPD2    H1 5045   4.010   2.818  16.369 -0.1780  1.6051  0.6903
  336MPD2    H2 5046   3.828   3.190  16.317 -2.7253 -2.1275  0.2619
  336MPD2    H3 5047   3.963   3.030  16.458  1.8559 -0.7889 -0.1782
  336MPD2     N 5048   3.929   2.706  16.160 -0.4408 -0.4054  0.3316
  336MPD2    H5 5049   3.983   2.657  16.231 -1.3167 -0.3027  1.0673
  336MPD2    N1 5050   3.699   3.140  16.104  0.2025  0.5173 -0.5222
  336MPD2    H7 5051   3.692   3.226  16.158  2.3932  2.0943 -2.7413
  337TMC3    C1 5052   3.522   3.233  15.980 -0.1026  0.4574  0.0142
  337TMC3    C2 5053   3.415   3.211  15.896  0.1666 -0.0472 -0.4545
  337TMC3    C3 5054   3.358   3.314  15.831  0.2302  0.4817 -0.2924
  337TMC3    C4 5055   3.588   3.353  15.980 -0.0618  0.3636 -0.0412
  337TMC3    C5 5056   3.530   3.456  15.907 -0.0152  0.0848 -0.7725
  337TMC3    C6 5057   3.412   3.442  15.842  0.0240 -0.6326 -0.0253
  337TMC3     C 5058   3.604   3.116  16.006  0.1914 -0.1525 -0.5571
  337TMC3     O 5059   3.569   3.009  15.958  0.2378  0.3859  0.0084
  337TMC3     H 5060   3.361   3.117  15.894 -0.3406  0.1403  3.1764
  337TMC3    H1 5061   3.677   3.368  16.040  1.1714  0.7742 -1.9641
  337TMC3    H2 5062   3.359   3.526  15.799 -0.8274 -1.5458 -0.7549
  337TMC3    C7 5063   3.607   3.574  15.864  0.6900  0.6305 -0.9571
  337TMC3    C8 5064   3.224   3.306  15.785 -0.1168 -0.0345  0.5064
  337TMC3    O1 5065   3.545   3.675  15.833  0.4936 -0.2040  0.2135
  337TMC3    O2 5066   3.147   3.241  15.856 -0.2977 -0.7819 -0.2504
  338MPD2     C 5067   3.812   2.396   1.158  0.1420 -0.4973  0.0512
  338MPD2    C1 5068   3.811   2.479   1.041  0.0539 -0.2128 -0.3893
  338MPD2    C2 5069   3.781   2.613   1.053 -0.1725 -0.0000 -0.3127
  338MPD2    C3 5070   3.726   2.665   1.171 -0.4413 -0.2832 -0.8365
  338MPD2    C4 5071   3.711   2.581   1.279  0.4362  0.0351 -0.7825
  338MPD2    C5 5072   3.750   2.450   1.271 -0.7924 -0.8455 -0.1713
  338MPD2     H 5073   3.798   2.673   0.964 -1.4026 -1.6245 -1.6516
  338MPD2    H1 5074   3.681   2.618   1.377 -1.2886 -0.8665 -0.9633
  338MPD2    H2 5075   3.857   2.298   1.150  0.0102 -0.5146 -0.5473
  338MPD2    H3 5076   3.750   2.382   1.355 -1.1046 -2.5904 -1.5693
  338MPD2     N 5077   3.688   2.799   1.167  0.0382 -0.6305 -0.5414
  338MPD2    H5 5078   3.724   2.862   1.096  0.4201  0.7246  0.8665
  338MPD2    N1 5079   3.849   2.428   0.913 -0.5777 -0.2823  0.1239
  338MPD2    H7 5080   3.837   2.494   0.837 -3.3156  1.0590  1.7403
  339TMC3    C1 5081   3.546   2.978   1.208  0.0370 -0.6828 -0.8816
  339TMC3    C2 5082   3.468   3.043   1.301  0.4803 -0.8546 -0.2754
  339TMC3    C3 5083   3.409   3.164   1.259  0.4694  0.8437  0.4048
  339TMC3    C4 5084   3.579   3.036   1.090 -0.7083 -0.2165 -0.3965
  339TMC3    C5 5085   3.529   3.158   1.059  0.9013  0.1619  0.3821
  339TMC3    C6 5086   3.440   3.226   1.142 -0.3619  1.2925 -0.3090
  339TMC3     C 5087   3.602   2.849   1.252  0.0115 -0.2115 -0.3943
  339TMC3     O 5088   3.565   2.805   1.361  0.3416  0.1726 -0.5617
  339TMC3     H 5089   3.466   3.005   1.402 -0.1779 -0.1628 -0.0233
  339TMC3    H1 5090   3.644   2.983   1.021  1.1470  1.6325 -0.0557
  339TMC3    H2 5091   3.399   3.322   1.113 -0.4342  0.9578 -1.3071
  339TMC3    C7 5092   3.570   3.236   0.943  0.4970  0.4178 -0.4343
  339TMC3    C8 5093   3.310   3.232   1.340 -0.2902 -0.6840  0.2590
  339TMC3    O1 5094   3.524   3.347   0.922  0.7854  0.4549  0.3859
  339TMC3    O2 5095   3.294   3.351   1.315 -0.8369  0.0555  0.0161
  340MPD2     C 5096   4.071   0.036  10.227 -0.6222  0.3610 -0.7364
  340MPD2    C1 5097   4.184   0.056  10.149 -0.2272 -0.0605  0.4274
  340MPD2    C2 5098   4.308   0.017  10.202  0.0189  0.0682  0.1662
  340MPD2    C3 5099   4.312   4.675  10.326  0.2541 -0.3537 -0.2729
  340MPD2    C4 5100   4.202   4.645  10.393  0.1750 -0.2228 -0.0810
  340MPD2    C5 5101   4.085   4.692  10.344 -0.0549 -0.0193 -0.3252
  340MPD2     H 5102   4.399   0.026  10.144 -1.4674  0.9868 -2.0477
  340MPD2    H1 5103   4.199   4.584  10.482 -0.4525  0.6239  0.4731
  340MPD2    H2 5104   3.974   0.062  10.185 -1.0653  0.8646  0.6036
  340MPD2    H3 5105   4.001   4.701  10.412  0.3735 -1.9385  0.4549
  340MPD2     N 5106   4.431   4.649  10.392 -0.2669  0.0515  0.5858
  340MPD2    H5 5107   4.426   4.620  10.489  0.1879 -3.3143 -0.4158
  340MPD2    N1 5108   4.164   0.098  10.019 -0.1212 -0.3148 -0.0483
  340MPD2    H7 5109   4.069   0.115   9.987 -1.2416 -3.1816  1.6927
  341TMC3    C1 5110   4.203   0.126   9.798  0.1984 -0.5180  0.5967
  341TMC3    C2 5111   4.083   0.071   9.770  0.6029 -0.9412 -0.1272
  341TMC3    C3 5112   4.053   0.054   9.640 -0.4662 -0.1202 -0.3674
  341TMC3    C4 5113   4.290   0.173   9.703 -1.2180  0.9114  0.6074
  341TMC3    C5 5114   4.257   0.157   9.569  0.1349  0.5678  0.2682
  341TMC3    C6 5115   4.142   0.089   9.536 -0.1827  0.2439 -0.1607
  341TMC3     C 5116   4.259   0.117   9.927 -0.0710  0.2147  0.2102
  341TMC3     O 5117   4.382   0.126   9.938  0.1827 -0.0087  0.3521
  341TMC3     H 5118   4.023   0.022   9.846  1.6029 -0.6325  0.8620
  341TMC3    H1 5119   4.388   0.204   9.738 -1.0735  0.3152  0.7354
  341TMC3    H2 5120   4.111   0.073   9.433  0.6751  3.3504 -0.9028
  341TMC3    C7 5121   4.370   0.178   9.480 -0.1034 -0.4766 -0.2225
  341TMC3    C8 5122   3.923   0.013   9.607  0.2132  0.2210 -0.4690
  341TMC3    O1 5123   4.483   0.197   9.522  0.5718 -0.2879  0.5387
  341TMC3    O2 5124   3.856   4.668   9.684  0.0245 -0.5177 -0.0806
  342MPD2     C 5125   2.107   3.578  16.631  0.6987  0.1255 -0.3996
  342MPD2    C1 5126   2.078   3.548  16.762  0.3271  0.3107  0.9363
  342MPD2    C2 5127   2.008   3.648  16.833 -0.4169 -0.5658  0.4707
  342MPD2    C3 5128   2.000   3.780  16.782  0.4247  0.0173  0.1208
  342MPD2    C4 5129   2.039   3.805  16.654 -0.0263  0.6621 -0.1025
  342MPD2    C5 5130   2.084   3.701  16.578 -0.6330  0.6155 -0.3632
  342MPD2     H 5131   1.983   3.637  16.938 -0.1711  0.1422  0.5996
  342MPD2    H1 5132   2.034   3.905  16.612  1.5909  0.3355 -1.0700
  342MPD2    H2 5133   2.139   3.510  16.553 -0.4455 -2.5603  1.5000
  342MPD2    H3 5134   2.115   3.720  16.475 -0.5155  0.7442 -0.3048
  342MPD2     N 5135   1.952   3.890  16.859 -0.3979  0.0235  0.5226
  342MPD2    H5 5136   1.977   3.985  16.830  0.5451 -0.6277 -0.7923
  342MPD2    N1 5137   2.102   3.425  16.826  0.6671  0.2179  0.4213
  342MPD2    H7 5138   2.080   3.407  16.924  0.3165  0.2644  0.3507
  343TMC3    C1 5139   2.212   3.234  16.875  0.3997  0.1100 -0.4821
  343TMC3    C2 5140   2.342   3.193  16.881 -0.2092  0.3170  0.6311
  343TMC3    C3 5141   2.367   3.091  16.969 -0.1196  0.3227  0.6348
  343TMC3    C4 5142   2.108   3.180  16.946  0.4549  0.5543  0.1211
  343TMC3    C5 5143   2.139   3.085  17.031 -0.2310  0.5256 -0.1626
  343TMC3    C6 5144   2.271   3.036  17.050 -0.1480  0.7417 -0.3150
  343TMC3     C 5145   2.189   3.334  16.775 -0.1775  0.2965 -0.0087
  343TMC3     O 5146   2.251   3.320  16.670 -0.0934  0.7823  0.5893
  343TMC3     H 5147   2.427   3.241  16.834 -1.1595  0.4439 -0.9573
  343TMC3    H1 5148   2.003   3.205  16.933  0.6397  0.6065 -1.2321
  343TMC3    H2 5149   2.294   2.954  17.118  1.0384  0.5259 -0.9712
  343TMC3    C7 5150   2.031   3.013  17.098  0.5393  0.0650 -0.4439
  343TMC3    C8 5151   2.502   3.071  17.011  0.5431 -0.8718 -0.1335
  343TMC3    O1 5152   1.918   3.004  17.047 -0.1934 -0.3171  0.3356
  343TMC3    O2 5153   2.532   3.104  17.125  0.1137  0.4575  0.0861
  344MPD2     C 5154   3.295   3.722  10.724 -0.0860  0.6869 -0.2480
  344MPD2    C1 5155   3.206   3.710  10.619 -0.0660  0.5168  0.0437
  344MPD2    C2 5156   3.189   3.814  10.529  0.1841  0.9769  0.6740
  344MPD2    C3 5157   3.281   3.917  10.538 -0.8462  0.0370 -0.4552
  344MPD2    C4 5158   3.369   3.924  10.642 -0.0256  0.0837 -0.0857
  344MPD2    C5 5159   3.374   3.828  10.735 -0.6061  1.1216  0.4750
  344MPD2     H 5160   3.110   3.800  10.455 -0.7242 -0.3749  1.9021
  344MPD2    H1 5161   3.447   3.999  10.640 -0.8330  0.9435  1.0096
  344MPD2    H2 5162   3.307   3.643  10.797  2.3940 -1.0777 -2.5423
  344MPD2    H3 5163   3.433   3.827  10.826  0.2676  2.3928 -0.0770
  344MPD2     N 5164   3.296   4.021  10.447 -0.2506 -0.5851 -0.0031
  344MPD2    H5 5165   3.367   4.093  10.458  0.0963 -0.8272 -0.6128
  344MPD2    N1 5166   3.138   3.586  10.595  0.3208 -0.4929  0.0234
  344MPD2    H7 5167   3.049   3.592  10.548  0.1545  0.5656  0.4785
  345TMC3    C1 5168   3.236   4.139  10.252 -0.4052  0.0249  0.2971
  345TMC3    C2 5169   3.374   4.182  10.253 -1.2755  0.4314  0.0400
  345TMC3    C3 5170   3.406   4.295  10.183  0.4773  0.3531 -0.1323
  345TMC3    C4 5171   3.137   4.206  10.182 -0.5587 -0.2330  0.4349
  345TMC3    C5 5172   3.182   4.322  10.121  0.2382 -0.0024  0.2230
  345TMC3    C6 5173   3.311   4.372  10.131  0.4150 -0.4240 -0.0437
  345TMC3     C 5174   3.199   4.039  10.349 -0.1572 -0.3554 -0.0223
  345TMC3     O 5175   3.080   4.001  10.345 -0.6540 -0.2927  0.0431
  345TMC3     H 5176   3.453   4.119  10.293  0.4269  1.2665 -1.9742
  345TMC3    H1 5177   3.038   4.163  10.173  0.1146 -1.3136 -1.8074
  345TMC3    H2 5178   3.349   4.455  10.072  0.9318 -2.7847 -3.0710
  345TMC3    C7 5179   3.096   4.393  10.031 -0.8665 -1.0309 -0.9265
  345TMC3    C8 5180   3.524   4.352  10.245 -0.1949 -0.4336  0.0467
  345TMC3    O1 5181   3.134   4.502   9.991  0.1604 -0.0330  0.0678
  345TMC3    O2 5182   3.598   4.282  10.314  0.0196 -0.3127  0.1699
  346MPD2     C 5183   3.703   0.328  14.751  0.2457 -0.3719  0.6915
  346MPD2    C1 5184   3.674   0.350  14.618  0.1233  0.3518  0.2407
  346MPD2    C2 5185   3.767   0.416  14.543 -0.0689 -0.2891  0.1563
  346MPD2    C3 5186   3.889   0.445  14.592  0.3934 -0.1154  0.1856
  346MPD2    C4 5187   3.922   0.422  14.729  0.3300  0.5061 -0.5646
  346MPD2    C5 5188   3.827   0.360  14.802  0.0075 -0.0782 -0.7651
  346MPD2     H 5189   3.752   0.451  14.442 -0.5209  0.2949  0.4248
  346MPD2    H1 5190   4.016   0.449  14.775 -0.4953  1.5888  0.4921
  346MPD2    H2 5191   3.633   0.275  14.815  0.6557  1.0201  2.2984
  346MPD2    H3 5192   3.844   0.325  14.904 -1.5001 -0.1473 -0.5349
  346MPD2     N 5193   3.982   0.482  14.498 -0.1149 -0.3370  0.1799
  346MPD2    H5 5194   3.968   0.490  14.398  0.0178  2.1289  0.3618
  346MPD2    N1 5195   3.545   0.320  14.564 -0.6848 -0.7847  0.2596
  346MPD2    H7 5196   3.525   0.358  14.471  0.4078 -2.6238 -0.7265
  347TMC3    C1 5197   4.194   0.488  14.408  0.0551 -0.3289  0.1898
  347TMC3    C2 5198   4.143   0.437  14.287  0.0234  0.6805 -0.2138
  347TMC3    C3 5199   4.231   0.404  14.188  0.0879 -0.3131 -0.4371
  347TMC3    C4 5200   4.326   0.505  14.425  0.3711  0.0916 -0.2940
  347TMC3    C5 5201   4.414   0.477  14.327 -0.2896  0.6340  0.6158
  347TMC3    C6 5202   4.369   0.422  14.205 -0.9887 -0.5844 -0.4679
  347TMC3     C 5203   4.117   0.480  14.530 -0.3921  0.2601  0.1929
  347TMC3     O 5204   4.176   0.453  14.633  0.2916 -0.0847 -0.2701
  347TMC3     H 5205   4.048   0.385  14.281 -0.7660  2.0176  0.7289
  347TMC3    H1 5206   4.365   0.547  14.517  2.1699  1.6377 -1.7709
  347TMC3    H2 5207   4.440   0.407  14.124 -2.6117 -0.6004 -1.8946
  347TMC3    C7 5208   4.556   0.445  14.372  0.3087  0.1849 -0.0226
  347TMC3    C8 5209   4.183   0.297  14.098 -0.4257 -0.7396  0.0433
  347TMC3    O1 5210   4.589   0.479  14.487 -0.3228  0.6730  0.0095
  347TMC3    O2 5211   4.258   0.197  14.092 -0.0079  0.6617  0.1645
  348MPD2     C 5212   2.761   4.671  12.135  0.4120  0.0105  0.3181
  348MPD2    C1 5213   2.699   4.602  12.035 -0.4629 -0.0822 -0.4336
  348MPD2    C2 5214   2.634   4.669  11.932  0.4999 -0.3037  0.5061
  348MPD2    C3 5215   2.654   0.085  11.918  0.0154 -0.0317 -0.3100
  348MPD2    C4 5216   2.721   0.149  12.015 -0.4310 -0.3927  0.4183
  348MPD2    C5 5217   2.763   0.086  12.131  0.0722  0.1549  0.0645
  348MPD2     H 5218   2.584   4.610  11.856 -1.6725 -0.3885  2.0125
  348MPD2    H1 5219   2.727   0.257  12.009  2.1434 -0.4665  1.7479
  348MPD2    H2 5220   2.807   4.624  12.221  0.6475  0.7523  0.5932
  348MPD2    H3 5221   2.805   0.148  12.209  4.2084 -1.4435 -0.8863
  348MPD2     N 5222   2.592   0.163  11.825  0.0472 -0.5637  0.2275
  348MPD2    H5 5223   2.616   0.262  11.821 -2.1232 -0.0663 -0.7785
  348MPD2    N1 5224   2.697   4.463  12.034  0.6225 -0.2219  0.2642
  348MPD2    H7 5225   2.645   4.428  11.954  0.4111 -0.6778  0.6019
  349TMC3    C1 5226   2.765   4.247  12.061  0.4892 -0.2258 -0.9832
  349TMC3    C2 5227   2.729   4.153  12.145 -0.1077  0.2857 -0.0354
  349TMC3    C3 5228   2.675   4.038  12.101 -0.3027  0.5648 -0.6927
  349TMC3    C4 5229   2.725   4.235  11.929 -1.1034 -0.0375 -0.0501
  349TMC3    C5 5230   2.664   4.125  11.878  0.0023  0.2988 -0.2114
  349TMC3    C6 5231   2.636   4.020  11.966  0.3886  0.8585  0.1315
  349TMC3     C 5232   2.769   4.378  12.117 -0.2220 -0.3082  0.0495
  349TMC3     O 5233   2.858   4.399  12.199  0.1640 -0.7441 -0.2374
  349TMC3     H 5234   2.769   4.156  12.246  0.7416  2.5068 -0.4327
  349TMC3    H1 5235   2.768   4.305  11.858  0.4450 -0.4082  0.5361
  349TMC3    H2 5236   2.585   3.932  11.930 -2.1925  2.0571  0.8312
  349TMC3    C7 5237   2.554   4.140  11.790 -0.9402 -0.0710  0.7486
  349TMC3    C8 5238   2.668   3.919  12.176 -0.1291  0.0153  0.6895
  349TMC3    O1 5239   2.453   4.079  11.813 -0.4473  0.0731  0.3399
  349TMC3    O2 5240   2.618   3.927  12.288 -0.7085  0.0519 -0.0552
  350MPD2     C 5241   1.213   3.229  10.346  1.0155 -0.1604 -0.8300
  350MPD2    C1 5242   1.090   3.170  10.377  0.6166  0.0436 -0.0665
  350MPD2    C2 5243   1.011   3.237  10.463  0.4625  0.7222  0.4759
  350MPD2    C3 5244   1.049   3.357  10.512  0.0943 -0.2084  0.4204
  350MPD2    C4 5245   1.166   3.420  10.468  0.4365  0.0777  0.1177
  350MPD2    C5 5246   1.241   3.352  10.380 -0.0010  0.2376 -0.2682
  350MPD2     H 5247   0.922   3.191  10.505 -1.8218  3.6635 -1.1973
  350MPD2    H1 5248   1.199   3.516  10.504  1.1692 -0.6849  1.4949
  350MPD2    H2 5249   1.280   3.179  10.277  1.6739 -0.8180  0.3017
  350MPD2    H3 5250   1.333   3.394  10.342  1.1122 -1.2191  0.8134
  350MPD2     N 5251   0.971   3.408  10.622 -0.8099  0.9913 -0.2077
  350MPD2    H5 5252   0.889   3.359  10.658 -0.6020  1.4798  0.9201
  350MPD2    N1 5253   1.053   3.033  10.345 -0.1475 -0.1941  0.4935
  350MPD2    H7 5254   0.964   3.002  10.381 -1.2778  1.4375 -0.9092
  351TMC3    C1 5255   1.058   2.825  10.230 -1.1794 -0.6796 -0.4379
  351TMC3    C2 5256   1.125   2.760  10.128  0.1607  0.1004 -0.2235
  351TMC3    C3 5257   1.087   2.631  10.093  0.6400  0.9773 -0.5131
  351TMC3    C4 5258   0.971   2.771  10.318 -0.1193  0.0309  0.0683
  351TMC3    C5 5259   0.929   2.642  10.283  0.3965  0.3552  0.6433
  351TMC3    C6 5260   0.993   2.574  10.179 -0.0440 -0.0076  0.1856
  351TMC3     C 5261   1.126   2.948  10.267  0.3369 -0.0110 -0.2022
  351TMC3     O 5262   1.247   2.957  10.240 -0.2958 -0.2078 -0.7232
  351TMC3     H 5263   1.177   2.829  10.063 -0.6348  0.5999 -0.3293
  351TMC3    H1 5264   0.946   2.827  10.408 -2.3678  0.8438 -1.0788
  351TMC3    H2 5265   0.959   2.474  10.155 -0.4581  0.7892 -2.5621
  351TMC3    C7 5266   0.805   2.590  10.333 -0.0169 -0.0596 -0.2296
  351TMC3    C8 5267   1.100   2.579   9.963  0.1229 -0.1676  0.1980
  351TMC3    O1 5268   0.771   2.473  10.310 -0.2990  0.0195  0.0178
  351TMC3    O2 5269   1.006   2.511   9.922  0.2999 -0.2222  0.2998
  352MPD2     C 5270   4.655   4.029   1.203 -0.6692  0.0895  0.2994
  352MPD2    C1 5271   4.543   4.018   1.284 -0.0673 -0.0682 -0.4863
  352MPD2    C2 5272   4.541   3.931   1.398 -0.3373 -0.3539 -0.1444
  352MPD2    C3 5273   4.664   3.873   1.436 -0.5755 -0.0582  0.8779
  352MPD2    C4 5274   0.051   3.890   1.353 -0.6381  0.6255 -0.2908
  352MPD2    C5 5275   0.045   3.960   1.237  0.3913  0.6045 -0.4942
  352MPD2     H 5276   4.455   3.908   1.459  0.8365  1.3252  2.0954
  352MPD2    H1 5277   0.147   3.847   1.378  0.5605  3.1273 -0.6501
  352MPD2    H2 5278   4.660   4.088   1.112 -0.1596  0.7338  0.7443
  352MPD2    H3 5279   0.128   3.954   1.168  2.7884 -1.3741  2.5753
  352MPD2     N 5280   4.682   3.791   1.549 -0.4498  0.3953 -0.4000
  352MPD2    H5 5281   0.039   3.730   1.562 -0.8724  0.2135  1.2357
  352MPD2    N1 5282   4.426   4.087   1.235  0.1274 -0.2458  0.0839
  352MPD2    H7 5283   4.424   4.144   1.152 -0.6252  0.2213  0.4177
  353TMC3    C1 5284   4.605   3.665   1.728 -0.1841  0.0188 -0.3354
  353TMC3    C2 5285   0.000   3.596   1.710 -0.0113 -0.0604 -0.5171
  353TMC3    C3 5286   4.714   3.472   1.663 -0.5580  0.8526  0.2872
  353TMC3    C4 5287   4.480   3.601   1.723  0.4324  0.2888 -1.0620
  353TMC3    C5 5288   4.477   3.474   1.679 -0.7642 -0.0803 -0.2683
  353TMC3    C6 5289   4.591   3.409   1.656 -0.2032  0.2517  0.1082
  353TMC3     C 5290   4.597   3.790   1.657  0.4606 -0.7725 -0.0482
  353TMC3     O 5291   4.502   3.863   1.685 -0.0784 -0.4539  0.2990
  353TMC3     H 5292   0.101   3.634   1.716 -0.4759  0.7117  2.6165
  353TMC3    H1 5293   4.392   3.664   1.728  1.6963  2.1400 -2.1781
  353TMC3    H2 5294   4.577   3.306   1.625 -3.9653  0.2949  1.7104
  353TMC3    C7 5295   4.356   3.422   1.618 -0.4617  0.0521 -0.2583
  353TMC3    C8 5296   0.115   3.393   1.650  0.0764 -0.0974 -0.4393
  353TMC3    O1 5297   4.375   3.367   1.508  0.1439  0.8401  0.7796
  353TMC3    O2 5298   0.220   3.436   1.693  0.2201  0.8375  0.2792
  354TMC3    C1 5299   1.005   0.892  13.157 -0.3088  0.1081 -0.7456
  354TMC3    C2 5300   0.996   1.022  13.195 -0.2430 -0.1130  0.3850
  354TMC3    C3 5301   1.086   1.102  13.133  0.0745  0.0249  0.0322
  354TMC3    C4 5302   1.089   0.851  13.058  0.5503  0.2494  0.0673
  354TMC3    C5 5303   1.173   0.941  12.996  0.4735  0.5783  0.0350
  354TMC3    C6 5304   1.167   1.069  13.034 -0.6774  0.0612  0.2200
  354TMC3     C 5305   0.950   0.789  13.239 -0.8705  0.2048  0.8546
  354TMC3     O 5306   0.919   0.684  13.182 -0.0491 -0.3396 -0.2141
  354TMC3     H 5307   0.930   1.063  13.271  1.5073  1.4355  1.0772
  354TMC3    H1 5308   1.103   0.744  13.050  0.2859  0.1920  0.3888
  354TMC3    H2 5309   1.249   1.132  13.004  1.0828 -1.6201  1.5010
  354TMC3    C7 5310   1.269   0.889  12.900 -0.3732 -0.4820 -0.0532
  354TMC3    C8 5311   1.094   1.245  13.176 -0.5166 -0.0212  0.1659
  354TMC3    O1 5312   1.271   0.766  12.896  0.2963  0.1378 -0.1679
  354TMC3    O2 5313   1.060   1.264  13.292  0.4930 -0.1891 -0.3284
  355MPD2     C 5314   0.704   2.073  11.397  0.2992 -0.9131 -0.2244
  355MPD2    C1 5315   0.761   2.123  11.277 -0.6828 -0.0604  0.1781
  355MPD2    C2 5316   0.902   2.114  11.262 -0.4662  0.1917  0.5459
  355MPD2    C3 5317   0.985   2.081  11.365 -0.3035 -0.1347 -0.0025
  355MPD2    C4 5318   0.927   2.046  11.484 -0.4894  0.2952 -0.0032
  355MPD2    C5 5319   0.789   2.042  11.502 -0.6981 -0.8006  0.1617
  355MPD2     H 5320   0.948   2.131  11.165 -0.0461  0.9104  0.8745
  355MPD2    H1 5321   0.996   2.016  11.562  0.4195  0.2839 -0.8023
  355MPD2    H2 5322   0.597   2.061  11.407  0.2070  0.1738  0.0333
  355MPD2    H3 5323   0.756   2.002  11.597  1.0289  0.5177  1.3355
  355MPD2     N 5324   1.128   2.077  11.363 -0.3763  0.1300  0.5152
  355MPD2    H5 5325   1.181   2.058  11.448 -1.5452  0.9727  1.4368
  355MPD2    N1 5326   0.666   2.171  11.182  0.5323  0.3480  0.7488
  355MPD2    H7 5327   0.570   2.142  11.195  0.7321  0.2500  1.9604
  356TMC3    C1 5328   1.348   2.115  11.293 -0.2119 -0.2464 -0.2309
  356TMC3    C2 5329   1.423   2.202  11.216  0.2069  1.0450 -0.0957
  356TMC3    C3 5330   1.547   2.235  11.266  0.0344 -0.3336  0.0399
  356TMC3    C4 5331   1.390   2.050  11.402  0.1063 -0.6823 -1.2208
  356TMC3    C5 5332   1.521   2.075  11.432 -0.2115 -0.7333 -0.2047
  356TMC3    C6 5333   1.600   2.175  11.374  0.0264 -0.1868 -0.3110
  356TMC3     C 5334   1.209   2.124  11.265  0.1475 -0.4374 -0.4045
  356TMC3     O 5335   1.171   2.185  11.170 -0.2690 -0.0381  0.8957
  356TMC3     H 5336   1.381   2.243  11.125  0.9830 -2.9669 -2.2836
  356TMC3    H1 5337   1.331   1.970  11.444  0.5204 -0.9114 -1.0799
  356TMC3    H2 5338   1.707   2.182  11.393  0.1494 -0.8839 -0.7262
  356TMC3    C7 5339   1.569   2.000  11.543 -0.9575  0.2609  0.8570
  356TMC3    C8 5340   1.622   2.320  11.182 -0.5367  0.0056  0.1314
  356TMC3    O1 5341   1.489   1.930  11.600  0.7768 -0.5603  0.2851
  356TMC3    O2 5342   1.573   2.339  11.074 -0.2743  0.2041 -0.3603
  357MPD2     C 5343   1.751   1.374   1.724  0.5452  0.1964  0.8049
  357MPD2    C1 5344   1.869   1.340   1.660  0.7293  0.1813 -0.7299
  357MPD2    C2 5345   1.987   1.331   1.730  0.4199 -0.3565  0.3802
  357MPD2    C3 5346   1.988   1.358   1.870 -0.6966  0.0598  0.0320
  357MPD2    C4 5347   1.869   1.399   1.927  1.6566 -0.3237 -0.2436
  357MPD2    C5 5348   1.749   1.393   1.857  0.0642 -0.1362 -1.5632
  357MPD2     H 5349   2.080   1.300   1.683  0.0633 -2.8014  1.2997
  357MPD2    H1 5350   1.865   1.428   2.031 -1.8206 -0.1398 -0.4462
  357MPD2    H2 5351   1.654   1.381   1.674 -0.0344 -0.2637  1.8625
  357MPD2    H3 5352   1.658   1.425   1.906  1.0335 -0.8735  0.6965
  357MPD2     N 5353   2.099   1.331   1.948  0.3060 -0.1490 -0.1652
  357MPD2    H5 5354   2.109   1.367   2.042  2.6111  0.2809 -0.5750
  357MPD2    N1 5355   1.863   1.311   1.522 -0.2470  0.0284  0.1787
  357MPD2    H7 5356   1.774   1.278   1.486 -0.0015 -0.2625 -0.1596
  358TMC3    C1 5357   1.955   1.225   1.309  0.3963 -0.1650 -0.6141
  358TMC3    C2 5358   1.828   1.212   1.261 -0.2125 -0.1941 -0.5191
  358TMC3    C3 5359   1.805   1.112   1.168 -0.0223 -0.3491 -0.6184
  358TMC3    C4 5360   2.060   1.161   1.251  0.6235  0.3647 -0.2826
  358TMC3    C5 5361   2.034   1.089   1.140 -0.2814 -0.3698 -0.3163
  358TMC3    C6 5362   1.911   1.056   1.100  0.1504  0.3207  0.1964
  358TMC3     C 5363   1.975   1.295   1.434 -0.0395 -0.2939 -0.4644
  358TMC3     O 5364   2.094   1.324   1.452  0.2847 -0.2068 -0.2729
  358TMC3     H 5365   1.743   1.276   1.283  0.8132  1.1752 -0.5640
  358TMC3    H1 5366   2.161   1.182   1.283  1.4736 -0.7818 -2.1956
  358TMC3    H2 5367   1.896   0.970   1.037 -1.3903 -0.3942  1.5281
  358TMC3    C7 5368   2.140   1.025   1.086 -0.2241  0.3845  0.8182
  358TMC3    C8 5369   1.681   1.123   1.091  0.1742 -0.9024  0.0371
  358TMC3    O1 5370   2.240   1.021   1.153  0.3175 -0.2853  0.0582
  358TMC3    O2 5371   1.634   1.231   1.069 -0.4357 -0.3883 -0.3436
  359MPD2     C 5372   2.140   0.653  12.699  0.5165  0.3964  0.4782
  359MPD2    C1 5373   2.128   0.590  12.578 -0.3770  0.3375 -0.5474
  359MPD2    C2 5374   2.080   0.459  12.572 -0.2713 -0.0075  0.2470
  359MPD2    C3 5375   2.030   0.395  12.689  0.0322 -0.2422  0.2540
  359MPD2    C4 5376   2.021   0.468  12.798 -0.4145 -0.3290 -0.3093
  359MPD2    C5 5377   2.077   0.588  12.805  0.5429  0.2656  0.6127
  359MPD2     H 5378   2.075   0.416  12.472  2.1038  2.1544 -0.8112
  359MPD2    H1 5379   1.972   0.431  12.888  1.0858 -1.7188 -0.0802
  359MPD2    H2 5380   2.180   0.753  12.712 -0.4780  0.5184  2.6315
  359MPD2    H3 5381   2.096   0.634  12.902 -2.3394 -1.1804  1.8626
  359MPD2     N 5382   1.975   0.265  12.684  0.1091  0.7037 -0.1183
  359MPD2    H5 5383   1.931   0.235  12.770  0.8252 -1.7200 -0.5884
  359MPD2    N1 5384   2.178   0.651  12.454  0.0144 -0.4229 -0.4236
  359MPD2    H7 5385   2.184   0.588  12.375  1.7224  1.8604 -2.1110
  360TMC3    C1 5386   2.294   0.786  12.299 -0.2159  0.2594  0.8959
  360TMC3    C2 5387   2.400   0.871  12.278 -0.4377 -0.5813 -0.0735
  360TMC3    C3 5388   2.434   0.896  12.149  0.0342 -0.6145 -0.8452
  360TMC3    C4 5389   2.234   0.715  12.196 -0.4038 -0.2191 -0.1123
  360TMC3    C5 5390   2.271   0.737  12.069 -0.2947 -0.5983 -0.0155
  360TMC3    C6 5391   2.374   0.825  12.047 -0.5017 -0.3009 -0.2117
  360TMC3     C 5392   2.247   0.773  12.436  0.5730 -0.7764  0.1175
  360TMC3     O 5393   2.271   0.872  12.499 -0.3413 -0.1525  0.6815
  360TMC3     H 5394   2.452   0.920  12.360 -1.7506 -0.1601  0.5172
  360TMC3    H1 5395   2.160   0.637  12.208 -0.4073 -0.0803  0.8276
  360TMC3    H2 5396   2.398   0.838  11.943 -0.7404  0.9429 -0.1145
  360TMC3    C7 5397   2.217   0.659  11.958 -0.6361 -0.3315  0.0607
  360TMC3    C8 5398   2.539   0.990  12.107 -0.3712  0.8004  0.0336
  360TMC3    O1 5399   2.192   0.541  11.981  0.6971 -0.1264 -0.2413
  360TMC3    O2 5400   2.562   1.094  12.169  0.1835  0.3302  0.2191
  361MPD2     C 5401   3.033   4.083  16.643  0.5180  0.5120  0.1624
  361MPD2    C1 5402   2.990   4.117  16.772  0.0412 -0.5912 -0.4133
  361MPD2    C2 5403   3.064   4.069  16.884  0.6157  0.1177 -0.1161
  361MPD2    C3 5404   3.182   4.003  16.870  0.1360 -0.5229 -0.1520
  361MPD2    C4 5405   3.229   3.978  16.742 -0.7322  0.3154 -0.0065
  361MPD2    C5 5406   3.157   4.019  16.631 -0.5228  0.2135  0.6596
  361MPD2     H 5407   3.028   4.092  16.984  0.7104 -0.7315  0.1157
  361MPD2    H1 5408   3.318   3.919  16.728 -0.8002  0.1331  0.3318
  361MPD2    H2 5409   2.993   4.120  16.549  2.1829  1.0324 -0.3447
  361MPD2    H3 5410   3.183   4.003  16.527  0.3420  0.5994  0.8260
  361MPD2     N 5411   3.257   3.943  16.969 -0.4056  0.3405 -0.6291
  361MPD2    H5 5412   3.335   3.884  16.944 -1.2517 -0.4448 -1.4276
  361MPD2    N1 5413   2.873   4.187  16.786 -1.1349 -0.2668 -0.1997
  361MPD2    H7 5414   2.855   4.245  16.867 -0.8142 -0.8645  0.3045
  362TMC3    C1 5415   2.667   4.275  16.717 -0.3110 -0.5192 -0.4353
  362TMC3    C2 5416   2.655   4.335  16.844  0.2673 -0.7142  0.1909
  362TMC3    C3 5417   2.578   4.443  16.844 -0.0368 -0.3286 -0.0202
  362TMC3    C4 5418   2.605   4.319  16.603  0.2983  0.2551 -0.3116
  362TMC3    C5 5419   2.524   4.428  16.611 -0.1897 -0.0741  0.2173
  362TMC3    C6 5420   2.513   4.494  16.734 -0.3540 -0.5829 -0.3592
  362TMC3     C 5421   2.777   4.182  16.689 -0.6377 -0.0935 -0.0335
  362TMC3     O 5422   2.769   4.126  16.583 -0.3742  0.0135 -0.1803
  362TMC3     H 5423   2.698   4.296  16.935 -3.1227 -2.3661  1.0822
  362TMC3    H1 5424   2.617   4.271  16.506 -1.2039 -3.3510  1.3111
  362TMC3    H2 5425   2.458   4.587  16.743 -2.4870 -1.8532 -0.2104
  362TMC3    C7 5426   2.499   4.500  16.487 -0.3356 -0.1209  0.3499
  362TMC3    C8 5427   2.570   4.521  16.968 -0.0011  0.0359 -0.0077
  362TMC3    O1 5428   2.519   4.618  16.487 -0.0638  0.2884 -0.0737
  362TMC3    O2 5429   2.668   4.524  17.045  0.2716 -0.0231 -0.1816
  363TMC3    C1 5430   2.182   2.487   9.258 -0.5391  0.6305  0.2656
  363TMC3    C2 5431   2.174   2.361   9.302 -0.1763  0.0484 -0.5402
  363TMC3    C3 5432   2.052   2.307   9.307 -0.3626 -0.0867 -0.1422
  363TMC3    C4 5433   2.071   2.560   9.227  0.2446  0.3844  0.1039
  363TMC3    C5 5434   1.954   2.494   9.211  0.5816  0.4762 -0.2740
  363TMC3    C6 5435   1.940   2.376   9.264 -0.1257  0.2400  0.0593
  363TMC3     C 5436   2.307   2.564   9.237  0.7618  0.0593 -0.3034
  363TMC3     O 5437   2.310   2.669   9.173 -0.1215  0.0088  0.0415
  363TMC3     H 5438   2.251   2.293   9.336 -0.1264  0.0221 -0.7065
  363TMC3    H1 5439   2.078   2.660   9.185  0.0572  0.3229 -0.0756
  363TMC3    H2 5440   1.841   2.339   9.286 -0.7013  1.3189 -0.7563
  363TMC3    C7 5441   1.833   2.571   9.208 -0.7381  0.6373  0.2570
  363TMC3    C8 5442   2.026   2.189   9.390 -0.3527  0.0311  0.4581
  363TMC3    O1 5443   1.823   2.679   9.259 -0.0250  0.9423 -1.1114
  363TMC3    O2 5444   1.916   2.138   9.369  0.0816 -0.4303 -0.2897
  364MPD2     C 5445   0.509   1.241  10.838 -0.0128 -0.2853  0.3801
  364MPD2    C1 5446   0.593   1.246  10.733 -0.3274 -0.0869 -0.3974
  364MPD2    C2 5447   0.694   1.149  10.727  0.7059 -0.4285  0.6140
  364MPD2    C3 5448   0.706   1.052  10.828 -0.2165  0.1389  0.4122
  364MPD2    C4 5449   0.614   1.052  10.928  0.1279 -0.1987  0.4052
  364MPD2    C5 5450   0.507   1.137  10.935  0.0375  0.8786 -0.4855
  364MPD2     H 5451   0.777   1.167  10.659 -0.2076 -0.2068 -0.4220
  364MPD2    H1 5452   0.627   0.975  11.003  2.4109 -1.6300 -1.4595
  364MPD2    H2 5453   0.431   1.316  10.849 -1.0327 -1.4978  1.4849
  364MPD2    H3 5454   0.426   1.139  11.007  0.3865  0.6041 -0.0869
  364MPD2     N 5455   0.814   0.961  10.830  0.4039  0.2453  0.2327
  364MPD2    H5 5456   0.822   0.908  10.916 -1.9760  0.3215  0.4808
  364MPD2    N1 5457   0.589   1.361  10.647 -0.0064  0.1751  0.9050
  364MPD2    H7 5458   0.508   1.422  10.657 -0.0497  0.3530 -0.4575
  365TMC3    C1 5459   0.673   1.535  10.507 -0.9056  0.1848  0.8081
  365TMC3    C2 5460   0.766   1.574  10.415 -0.8687 -0.4513  0.3848
  365TMC3    C3 5461   0.772   1.717  10.397 -0.3537  0.4830  0.4632
  365TMC3    C4 5462   0.588   1.627  10.578 -0.0392  1.2067  0.3257
  365TMC3    C5 5463   0.604   1.762  10.555 -0.1566  0.9222 -0.2103
  365TMC3    C6 5464   0.697   1.810  10.467  0.3841 -0.2548 -0.3867
  365TMC3     C 5465   0.685   1.394  10.553  0.1021 -0.1026  0.4658
  365TMC3     O 5466   0.782   1.332  10.513 -0.4193 -0.3768  0.3317
  365TMC3     H 5467   0.822   1.501  10.359 -0.4056  1.1211 -1.1891
  365TMC3    H1 5468   0.504   1.594  10.638  0.2410  1.1491  0.6899
  365TMC3    H2 5469   0.699   1.917  10.450 -1.2556  0.2709  2.7299
  365TMC3    C7 5470   0.529   1.864  10.630  0.3450 -0.3375  0.0445
  365TMC3    C8 5471   0.869   1.781  10.307  0.6458 -0.3229  1.0462
  365TMC3    O1 5472   0.520   1.977  10.595 -0.0129 -0.3208  0.2307
  365TMC3    O2 5473   0.867   1.899  10.296  0.1592  0.0833  0.3510
  366MPD2     C 5474   3.288   2.068  15.407 -0.4932  0.1513  0.2493
  366MPD2    C1 5475   3.396   2.149  15.379  0.1794  0.0754  0.8158
  366MPD2    C2 5476   3.507   2.101  15.326 -0.0878  0.0518 -0.2583
  366MPD2    C3 5477   3.506   1.972  15.285 -0.3955 -0.4652 -0.2744
  366MPD2    C4 5478   3.400   1.894  15.306  0.1722  0.7266 -0.1530
  366MPD2    C5 5479   3.293   1.936  15.373  0.0820 -0.2292 -0.8524
  366MPD2     H 5480   3.599   2.158  15.317  0.6529 -1.0640  0.1983
  366MPD2    H1 5481   3.419   1.789  15.286 -1.9674  0.1603  0.8301
  366MPD2    H2 5482   3.207   2.107  15.468 -0.0834  0.9916  0.2542
  366MPD2    H3 5483   3.207   1.871  15.384 -0.9002  1.1005 -0.5211
  366MPD2     N 5484   3.614   1.922  15.210  0.1092  0.3687 -0.2535
  366MPD2    H5 5485   3.698   1.979  15.212 -0.0257  0.4756  2.6292
  366MPD2    N1 5486   3.404   2.289  15.404  0.0615  0.1866 -0.4368
  366MPD2    H7 5487   3.493   2.338  15.411  0.2460 -0.4970  2.0708
  367TMC3    C1 5488   3.312   2.506  15.427  0.2232 -0.1103 -0.2321
  367TMC3    C2 5489   3.427   2.555  15.468  0.3397  0.9454 -0.4995
  367TMC3    C3 5490   3.456   2.685  15.429  0.3067 -0.0560  0.1775
  367TMC3    C4 5491   3.217   2.576  15.351  0.1503 -0.3034 -0.6476
  367TMC3    C5 5492   3.254   2.699  15.309 -0.5740  0.7668 -0.3613
  367TMC3    C6 5493   3.374   2.753  15.334  0.3516  0.0879  0.5478
  367TMC3     C 5494   3.289   2.364  15.432 -0.3656  0.2490  0.0643
  367TMC3     O 5495   3.172   2.333  15.417 -0.0595 -0.0356 -0.1676
  367TMC3     H 5496   3.478   2.495  15.543 -1.8041  0.7274  0.7885
  367TMC3    H1 5497   3.123   2.525  15.338 -1.4003  2.0376  1.4008
  367TMC3    H2 5498   3.390   2.856  15.304 -2.7507  0.1159 -1.0936
  367TMC3    C7 5499   3.159   2.788  15.237  0.2311 -0.0099 -0.2314
  367TMC3    C8 5500   3.546   2.764  15.518  0.1879 -0.2883  0.0564
  367TMC3    O1 5501   3.193   2.906  15.219 -0.4770  0.1260 -0.2772
  367TMC3    O2 5502   3.630   2.712  15.589  0.4919 -0.4379 -0.3061
  368MPD2     C 5503   0.107   4.326  12.821 -0.3071  0.4673 -0.1724
  368MPD2    C1 5504   0.134   4.441  12.752  0.0167  0.1706  0.2107
  368MPD2    C2 5505   0.264   4.492  12.758  0.7403 -0.1302  0.5175
  368MPD2    C3 5506   0.368   4.419  12.816  0.5375  0.4793  0.4609
  368MPD2    C4 5507   0.342   4.300  12.884  0.3266 -0.0004 -0.1452
  368MPD2    C5 5508   0.209   4.254  12.885 -0.6150 -0.0317 -0.7848
  368MPD2     H 5509   0.289   4.585  12.708  3.4859 -0.9922  0.2997
  368MPD2    H1 5510   0.425   4.252  12.935  1.3215  0.4548 -1.3138
  368MPD2    H2 5511   0.006   4.286  12.827 -1.3077  2.8198 -1.5871
  368MPD2    H3 5512   0.195   4.161  12.939  0.0788  0.9559  1.0928
  368MPD2     N 5513   0.509   4.447  12.798 -0.4856 -0.1151  0.8089
  368MPD2    H5 5514   0.580   4.392  12.846  0.7375 -0.4859 -1.4265
  368MPD2    N1 5515   0.027   4.504  12.685 -0.0509 -0.8697  0.3502
  368MPD2    H7 5516   4.669   4.443  12.686 -1.7785  1.3885 -0.5699
  369TMC3    C1 5517   4.626   4.657  12.552 -0.0139 -0.6671 -0.1437
  369TMC3    C2 5518   4.587   0.061  12.571 -0.2178  0.3018  0.0766
  369TMC3    C3 5519   4.452   0.089  12.582  0.3754 -0.0796  0.0274
  369TMC3    C4 5520   4.537   4.558  12.537 -0.8391 -0.3209 -0.2714
  369TMC3    C5 5521   4.403   4.591  12.555 -0.3084 -0.1271 -0.2552
  369TMC3    C6 5522   4.359   4.716  12.578 -0.1218  0.2679 -0.3682
  369TMC3     C 5523   0.031   4.624  12.616  0.5173  0.7648 -0.1234
  369TMC3     O 5524   0.125   4.707  12.619  0.3860 -0.0715  0.0113
  369TMC3     H 5525   4.656   0.144  12.577 -0.1234  0.2448 -0.2203
  369TMC3    H1 5526   4.557   4.451  12.534 -0.7524 -0.2581 -1.6430
  369TMC3    H2 5527   4.258   0.034  12.578 -0.6064 -0.9403 -0.3602
  369TMC3    C7 5528   4.321   4.478  12.586 -0.1218 -0.5036  0.1339
  369TMC3    C8 5529   4.415   0.225  12.546 -0.0198  0.3417  0.0015
  369TMC3    O1 5530   4.367   4.382  12.639  0.3242 -0.0832  0.1340
  369TMC3    O2 5531   4.485   0.293  12.467 -0.1230 -0.3606  0.1909
  370TMC3    C1 5532   4.212   0.345  16.338 -0.4349  0.2725  0.0346
  370TMC3    C2 5533   4.136   0.277  16.429  0.3461 -0.0873  0.2275
  370TMC3    C3 5534   4.060   0.176  16.377  0.3109  0.3543 -0.4914
  370TMC3    C4 5535   4.209   0.326  16.200 -0.2552  0.7336  0.5158
  370TMC3    C5 5536   4.117   0.237  16.156 -0.0834 -0.3551  1.1285
  370TMC3    C6 5537   4.053   0.154  16.241 -0.5773  0.5378 -0.1090
  370TMC3     C 5538   4.332   0.405  16.397 -0.0779 -0.2812 -0.1425
  370TMC3     O 5539   4.346   0.397  16.513 -0.2402  0.3902  0.1431
  370TMC3     H 5540   4.145   0.306  16.533 -0.3648 -0.8085  0.4939
  370TMC3    H1 5541   4.256   0.389  16.125 -1.6315 -0.2214 -1.1551
  370TMC3    H2 5542   3.979   0.085  16.201 -1.0721  0.5179  0.8217
  370TMC3    C7 5543   4.146   0.179  16.023 -0.0847 -0.0735 -0.2381
  370TMC3    C8 5544   4.018   0.078  16.481 -0.4526  0.0042 -0.0658
  370TMC3    O1 5545   4.190   0.256  15.939 -0.3214 -0.4409 -0.5187
  370TMC3    O2 5546   4.004   4.684  16.449 -0.1049 -0.5584 -0.3709
  371TMC3    C1 5547   0.683   3.502  15.421  0.0729 -0.0170 -1.0899
  371TMC3    C2 5548   0.565   3.459  15.476 -0.7138 -0.0159 -0.2610
  371TMC3    C3 5549   0.475   3.555  15.491  0.2722 -0.0975 -0.8569
  371TMC3    C4 5550   0.708   3.629  15.369 -0.2159 -0.9475 -0.1246
  371TMC3    C5 5551   0.610   3.720  15.384 -0.5060 -0.3060  0.6058
  371TMC3    C6 5552   0.493   3.688  15.453  0.1062  0.2652 -0.1188
  371TMC3     C 5553   0.802   3.412  15.413  0.3851 -0.3430  0.1101
  371TMC3     O 5554   0.914   3.454  15.387  0.2183  0.4442  0.0927
  371TMC3     H 5555   0.562   3.360  15.520  0.7960  0.6474  1.3062
  371TMC3    H1 5556   0.803   3.651  15.321 -1.1812  1.8728 -0.7579
  371TMC3    H2 5557   0.419   3.761  15.483 -1.2825 -1.0316 -0.3881
  371TMC3    C7 5558   0.637   3.865  15.358  0.6188  0.0739 -0.1137
  371TMC3    C8 5559   0.353   3.504  15.551 -0.0014  0.3002  0.1143
  371TMC3    O1 5560   0.534   3.933  15.345  0.2584  0.3876 -0.0668
  371TMC3    O2 5561   0.327   3.386  15.547  0.2752 -0.0632  0.0593
  372MPD2     C 5562   0.407   0.041  13.047  0.0747  0.7055 -0.4210
  372MPD2    C1 5563   0.490   4.680  13.124 -0.5165 -0.2978  0.4749
  372MPD2    C2 5564   0.438   4.565  13.189  0.2873 -0.5747 -0.6213
  372MPD2    C3 5565   0.308   4.527  13.167  0.5987  0.2153 -0.1668
  372MPD2    C4 5566   0.230   4.609  13.097  0.5446  0.3408  0.2826
  372MPD2    C5 5567   0.275   4.719  13.030 -1.0061 -0.3902  0.0682
  372MPD2     H 5568   0.506   4.496  13.238 -0.1064 -0.6925 -0.2356
  372MPD2    H1 5569   0.125   4.586  13.081  1.1370 -1.9240 -0.3119
  372MPD2    H2 5570   0.442   0.132  12.998  1.6276  0.2630 -0.1372
  372MPD2    H3 5571   0.199   0.044  12.969  0.1178  0.4123 -0.7125
  372MPD2     N 5572   0.258   4.407  13.220 -0.0282 -0.3659  0.7028
  372MPD2    H5 5573   0.320   4.354  13.281 -0.4022 -1.1016  0.4437
  372MPD2    N1 5574   0.625   4.700  13.130 -0.4166 -0.5027 -0.7398
  372MPD2    H7 5575   0.670   4.641  13.200  0.1323  1.1017  0.2487
  373TMC3    C1 5576   0.100   4.238  13.267  0.4778 -0.2313 -0.0372
  373TMC3    C2 5577   0.010   4.217  13.373 -0.1530  0.7100 -0.4786
  373TMC3    C3 5578   4.720   4.094  13.440  0.3744 -0.1937  0.6249
  373TMC3    C4 5579   0.186   4.144  13.224  0.3483  0.0560 -0.7040
  373TMC3    C5 5580   0.167   4.026  13.283  0.2667 -0.0786  0.5787
  373TMC3    C6 5581   0.075   3.990  13.376  0.8174 -0.3571 -0.2449
  373TMC3     C 5582   0.118   4.373  13.225  0.3148  0.1845 -0.5858
  373TMC3     O 5583   0.025   4.439  13.194 -0.4300 -0.0633 -0.6691
  373TMC3     H 5584   4.669   4.297  13.410 -0.4881  0.8040 -1.2470
  373TMC3    H1 5585   0.265   4.152  13.150  2.7599 -2.1001  1.6364
  373TMC3    H2 5586   0.076   3.887  13.408  0.3516 -0.7293 -1.4172
  373TMC3    C7 5587   0.287   3.949  13.289 -0.2583 -0.3551 -0.1853
  373TMC3    C8 5588   0.045   4.107  13.576 -0.8193  0.3468  0.0986
  373TMC3    O1 5589   0.340   3.924  13.182 -0.4026 -0.0238  0.1773
  373TMC3    O2 5590   0.115   4.205  13.598 -0.6558  0.0127  0.2873
  374TMC3    C1 5591   1.294   4.647   9.780 -0.0780 -0.1764 -0.4493
  374TMC3    C2 5592   1.386   0.022   9.821  0.0390 -0.0427 -0.4378
  374TMC3    C3 5593   1.424   0.108   9.725  0.0817  0.2664 -0.8162
  374TMC3    C4 5594   1.242   4.642   9.652 -0.7478  0.4474 -0.1734
  374TMC3    C5 5595   1.291   0.005   9.561  0.0518 -0.2488  0.0165
  374TMC3    C6 5596   1.384   0.101   9.594 -0.4658 -0.2583  0.4788
  374TMC3     C 5597   1.244   4.568   9.888  0.6680  0.2559 -0.0030
  374TMC3     O 5598   1.268   4.600  10.002  0.1549  0.4473 -0.1079
  374TMC3     H 5599   1.411   0.029   9.926  0.7843  1.6456 -0.7230
  374TMC3    H1 5600   1.166   4.569   9.626 -0.6151  0.1807  0.1960
  374TMC3    H2 5601   1.401   0.191   9.536  1.1866  1.1259  3.0927
  374TMC3    C7 5602   1.240   4.710   9.423 -0.6786  0.0818 -0.5261
  374TMC3    C8 5603   1.475   0.237   9.763 -0.3432 -0.1216  0.3231
  374TMC3    O1 5604   1.183   4.604   9.406 -0.0617  0.1900  0.0866
  374TMC3    O2 5605   1.457   0.332   9.689 -0.0570 -0.3984 -0.1153
  375MPD2     C 5606   0.944   0.643  17.059 -0.4373 -0.2339 -0.1494
  375MPD2    C1 5607   0.833   0.595  16.996  0.1003  0.3377 -0.1851
  375MPD2    C2 5608   0.854   0.508  16.890  0.6829  0.7401  0.2831
  375MPD2    C3 5609   0.980   0.475  16.836  0.3715  0.0974 -0.3779
  375MPD2    C4 5610   1.089   0.535  16.899  0.6125 -0.5182  0.3574
  375MPD2    C5 5611   1.068   0.616  17.007  0.1880 -0.0427 -0.7962
  375MPD2     H 5612   0.762   0.469  16.849  1.9132  0.1793 -1.9753
  375MPD2    H1 5613   1.190   0.516  16.862 -0.4524 -1.1504 -2.2438
  375MPD2    H2 5614   0.933   0.701  17.150 -0.4197  0.0290 -0.3129
  375MPD2    H3 5615   1.161   0.660  17.041 -1.0032  1.6157  0.2855
  375MPD2     N 5616   0.997   0.369  16.743  0.4961  0.0771 -0.0576
  375MPD2    H5 5617   1.091   0.347  16.712  1.8407  1.9720  2.6387
  375MPD2    N1 5618   0.694   0.604  17.048  1.3970 -0.5572  0.3212
  375MPD2    H7 5619   0.622   0.563  16.990 -1.9379  3.6620  1.5139
  376TMC3    C1 5620   0.940   0.214  16.590  0.6325  0.5761  0.5901
  376TMC3    C2 5621   1.045   0.132  16.613 -0.0218  0.2224  0.6045
  376TMC3    C3 5622   1.091   0.059  16.505 -0.8948  0.1752 -0.0526
  376TMC3    C4 5623   0.855   0.192  16.484  0.0539 -0.8758 -0.0406
  376TMC3    C5 5624   0.897   0.119  16.381  0.6751  1.0140  0.4802
  376TMC3    C6 5625   1.014   0.047  16.390  0.3518 -0.8727 -0.2148
  376TMC3     C 5626   0.894   0.304  16.687  0.3543 -0.3973  0.2926
  376TMC3     O 5627   0.772   0.307  16.694  0.2078  0.2223  0.1640
  376TMC3     H 5628   1.115   0.147  16.694  0.4271 -3.3536  0.8684
  376TMC3    H1 5629   0.777   0.265  16.467  1.0243  0.1888  0.0587
  376TMC3    H2 5630   1.053   4.702  16.315 -0.6207 -0.0254 -1.4900
  376TMC3    C7 5631   0.897   0.207  16.264 -0.3748  0.2038  0.0318
  376TMC3    C8 5632   1.225   0.074  16.477  0.9052 -0.5327  0.2066
  376TMC3    O1 5633   0.925   0.325  16.282 -0.3027 -0.5020 -0.0918
  376TMC3    O2 5634   1.252   0.086  16.356  0.3244 -0.1317  0.3469
  377MPD2     C 5635   3.600   0.494  12.505  0.3021 -1.0537  0.3058
  377MPD2    C1 5636   3.660   0.369  12.531  0.9153 -0.3634  0.3586
  377MPD2    C2 5637   3.638   0.301  12.652  0.0244 -0.8191  0.9103
  377MPD2    C3 5638   3.534   0.354  12.729  0.6267 -0.4990  0.1735
  377MPD2    C4 5639   3.468   0.468  12.694 -0.8151  0.7277  0.3341
  377MPD2    C5 5640   3.493   0.536  12.581  0.7960 -1.0467 -0.4722
  377MPD2     H 5641   3.691   0.209  12.673  2.1616  0.6225  1.8169
  377MPD2    H1 5642   3.380   0.496  12.750  0.0783  2.0444  1.0837
  377MPD2    H2 5643   3.617   0.549  12.413 -1.9187  0.5576  0.8698
  377MPD2    H3 5644   3.454   0.635  12.561  2.8758  0.5598  3.5238
  377MPD2     N 5645   3.498   0.300  12.858 -0.3096 -0.3737 -0.3964
  377MPD2    H5 5646   3.426   0.350  12.909 -0.8635 -0.2219 -1.3195
  377MPD2    N1 5647   3.763   0.335  12.438 -0.0365  0.4295 -0.2274
  377MPD2    H7 5648   3.779   0.404  12.365 -0.7789  3.1065  2.1036
  378TMC3    C1 5649   4.093   0.327  12.193 -0.0242  0.2536 -0.0895
  378TMC3    C2 5650   3.980   0.336  12.271  0.2698  0.1391  0.0430
  378TMC3    C3 5651   3.950   0.223  12.337 -0.0897 -0.3587  1.0221
  378TMC3    C4 5652   4.164   0.210  12.177 -0.4007  1.0641 -0.6720
  378TMC3    C5 5653   4.131   0.102  12.253 -1.0724 -0.3575 -0.0460
  378TMC3    C6 5654   4.021   0.110  12.335 -0.3446 -0.5853  0.6641
  378TMC3     C 5655   4.092   0.412  12.079  0.0535 -0.1699 -0.1676
  378TMC3     O 5656   3.985   0.468  12.048 -0.3974 -0.7864  0.3425
  378TMC3     H 5657   3.932   0.430  12.297  0.7416  0.7912 -1.4396
  378TMC3    H1 5658   4.233   0.193  12.096 -1.6285  3.2667 -2.1836
  378TMC3    H2 5659   3.994   0.021  12.390  0.7327 -1.6623 -0.5479
  378TMC3    C7 5660   4.218   4.708  12.249  0.0994 -0.3324  0.0761
  378TMC3    C8 5661   3.835   0.219  12.431  0.2435  0.2528  0.0712
  378TMC3    O1 5662   4.180   4.618  12.319 -0.5324  0.3639  0.0010
  378TMC3    O2 5663   3.816   0.116  12.497  0.1063 -0.1335 -0.4286
  379MPD2     C 5664   4.122   3.300  16.507  0.2723 -0.0468 -0.4366
  379MPD2    C1 5665   4.178   3.202  16.426 -0.4214 -0.0958  0.0974
  379MPD2    C2 5666   4.242   3.097  16.489  0.6202 -0.8513 -0.6052
  379MPD2    C3 5667   4.242   3.082  16.622  0.5018 -0.7873  0.2403
  379MPD2    C4 5668   4.184   3.179  16.707  0.2359 -1.0695 -0.8298
  379MPD2    C5 5669   4.133   3.288  16.645 -0.4351  0.2300  0.0269
  379MPD2     H 5670   4.290   3.022  16.427  1.0754  0.3180 -1.6509
  379MPD2    H1 5671   4.173   3.161  16.813  0.1949 -0.5396 -0.7414
  379MPD2    H2 5672   4.073   3.389  16.469 -0.7229 -1.2010 -1.8396
  379MPD2    H3 5673   4.074   3.347  16.713 -0.0684  0.6834 -0.0484
  379MPD2     N 5674   4.309   2.985  16.699 -0.4563 -0.4875  0.4983
  379MPD2    H5 5675   4.285   2.992  16.797  2.6751  2.4196  1.0908
  379MPD2    N1 5676   4.166   3.218  16.288  0.0785 -0.6218  0.3034
  379MPD2    H7 5677   4.107   3.293  16.252  2.5757  1.0891 -0.1989
  380TMC3    C1 5678   4.219   3.189  16.063  0.0451 -0.0052  0.1334
  380TMC3    C2 5679   4.320   3.160  15.979  0.1556  0.1634 -0.2970
  380TMC3    C3 5680   4.287   3.109  15.853 -0.3057 -0.5326  0.0790
  380TMC3    C4 5681   4.086   3.188  16.028 -0.2571  0.3606  0.6279
  380TMC3    C5 5682   4.053   3.147  15.903  0.3483 -0.3326  0.4515
  380TMC3    C6 5683   4.151   3.114  15.816  0.0177  0.2364 -0.3561
  380TMC3     C 5684   4.250   3.156  16.198 -0.2938 -0.5071  0.8038
  380TMC3     O 5685   4.339   3.072  16.212 -0.2028  0.3326 -0.0293
  380TMC3     H 5686   4.422   3.174  16.014  0.0426 -2.0081  0.8829
  380TMC3    H1 5687   4.009   3.224  16.094 -1.9637 -0.1463 -1.0666
  380TMC3    H2 5688   4.122   3.084  15.716 -0.3431 -0.8177  0.0511
  380TMC3    C7 5689   3.930   3.189  15.843  0.2463  0.1647 -0.0639
  380TMC3    C8 5690   4.384   3.116  15.742 -0.6467  0.1029  0.5226
  380TMC3    O1 5691   3.880   3.288  15.885  1.0099  0.2095  0.0244
  380TMC3    O2 5692   4.340   3.128  15.627  1.0980 -0.1589 -0.7123
  381TMC3    C1 5693   3.955   4.152  16.285  0.3748  0.5134 -0.9569
  381TMC3    C2 5694   4.083   4.192  16.282  0.0946 -0.1790  0.5342
  381TMC3    C3 5695   4.123   4.273  16.383  0.0249 -0.3647  0.5180
  381TMC3    C4 5696   3.878   4.154  16.398  0.0052  0.1936  0.5618
  381TMC3    C5 5697   3.932   4.218  16.503  0.2563  0.2167  0.5577
  381TMC3    C6 5698   4.050   4.289  16.494 -0.8722  0.7085  0.4072
  381TMC3     C 5699   3.882   4.143  16.156 -0.4020  0.8614 -0.5547
  381TMC3     O 5700   3.945   4.091  16.064 -0.5244  0.0273 -0.2923
  381TMC3     H 5701   4.138   4.174  16.190 -0.5293 -0.2039  0.1623
  381TMC3    H1 5702   3.782   4.106  16.393 -0.9380  2.1652 -0.2726
  381TMC3    H2 5703   4.072   4.372  16.559  0.1308  1.5305 -0.9868
  381TMC3    C7 5704   3.901   4.166  16.635  0.1919  0.0478 -1.0128
  381TMC3    C8 5705   4.225   4.369  16.341 -0.0264 -0.6177  0.7912
  381TMC3    O1 5706   3.857   4.050  16.650 -0.0603  0.2407 -0.2763
  381TMC3    O2 5707   4.264   4.350  16.229  0.5421  0.6062  0.4947
  382MPD2     C 5708   3.348   1.660  17.364  0.2331  0.2143  0.0107
  382MPD2    C1 5709   3.261   1.661  17.472 -0.5947  0.2076  0.0957
  382MPD2    C2 5710   3.188   1.549  17.496  0.6497 -0.3972 -0.4205
  382MPD2    C3 5711   3.195   1.442  17.413 -0.4321  0.5872  0.1874
  382MPD2    C4 5712   3.283   1.437  17.308 -0.0572  0.1977 -0.8875
  382MPD2    C5 5713   3.353   1.550  17.282  0.1100  1.1004  0.6296
  382MPD2     H 5714   3.125   1.555  17.585  1.3104  7.0835 -0.4075
  382MPD2    H1 5715   3.296   1.345  17.252 -1.6927 -0.7914  0.3560
  382MPD2    H2 5716   3.407   1.748  17.339  1.1489 -0.8854 -1.6758
  382MPD2    H3 5717   3.421   1.549  17.198  1.9440  3.8211  2.0568
  382MPD2     N 5718   3.107   1.326  17.424  0.6169 -0.4416  0.3526
  382MPD2    H5 5719   3.121   1.242  17.369  0.3209 -0.9465  1.0374
  382MPD2    N1 5720   3.236   1.770  17.560 -0.1626 -0.0692  0.4414
  382MPD2    H7 5721   3.161   1.759  17.628  2.1462 -2.2865  2.6067
  383TMC3    C1 5722   2.941   1.190  17.491  0.3732  0.0869  0.0752
  383TMC3    C2 5723   2.947   1.132  17.371 -0.5728 -0.6189  0.2197
  383TMC3    C3 5724   2.887   1.009  17.354 -0.1009 -0.7133  0.0855
  383TMC3    C4 5725   2.865   1.146  17.593 -0.1299  0.6681 -0.0191
  383TMC3    C5 5726   2.810   1.021  17.580  0.6342  0.0747  0.1505
  383TMC3    C6 5727   2.822   0.952  17.461  0.4260  0.2954 -1.0290
  383TMC3     C 5728   3.002   1.320  17.508 -0.3101  0.4520  0.0795
  383TMC3     O 5729   2.972   1.396  17.600  0.6968 -0.4817  0.1592
  383TMC3     H 5730   2.994   1.180  17.286 -1.7417 -0.3560 -0.2802
  383TMC3    H1 5731   2.860   1.204  17.684 -3.5037  1.9865 -1.0205
  383TMC3    H2 5732   2.760   0.867  17.436  3.0832 -1.8799 -0.1240
  383TMC3    C7 5733   2.759   0.948   0.008  0.2251 -0.0718 -0.2478
  383TMC3    C8 5734   2.865   0.956  17.221  0.1291 -0.2279 -0.0510
  383TMC3    O1 5735   2.723   1.009   0.109  0.1527 -0.1262 -0.6834
  383TMC3    O2 5736   2.862   1.034  17.127 -0.5913 -0.5734  0.6743
  384MPD2     C 5737   0.326   2.914  11.932  0.2728 -0.5058 -0.5080
  384MPD2    C1 5738   0.371   2.899  12.064  0.6673  0.7339  0.4118
  384MPD2    C2 5739   0.430   2.776  12.093  0.1583 -0.3757 -0.3125
  384MPD2    C3 5740   0.435   2.671  12.007  0.1481  0.1865 -0.5013
  384MPD2    C4 5741   0.385   2.694  11.880  0.0171  0.2203  0.2657
  384MPD2    C5 5742   0.332   2.811  11.846  0.8521  0.2722 -0.0671
  384MPD2     H 5743   0.457   2.769  12.198 -3.0736 -0.5157  0.5008
  384MPD2    H1 5744   0.399   2.626  11.797  1.3605 -1.3944  1.8187
  384MPD2    H2 5745   0.278   3.006  11.900 -0.8742 -0.5107  1.1745
  384MPD2    H3 5746   0.304   2.830  11.743 -0.6918  1.6287  0.6051
  384MPD2     N 5747   0.505   2.556  12.048  0.0851 -0.2056 -0.2723
  384MPD2    H5 5748   0.558   2.565  12.134  1.4176 -0.2817 -1.0949
  384MPD2    N1 5749   0.346   2.993  12.168  0.0618  0.1008 -0.4121
  384MPD2    H7 5750   0.376   2.953  12.257 -0.0571 -2.5584 -1.5495
  385TMC3    C1 5751   0.588   2.340  12.057  1.4618 -0.4093  0.5660
  385TMC3    C2 5752   0.510   2.229  12.066  0.0027  0.1011 -0.4841
  385TMC3    C3 5753   0.475   2.170  12.189  1.0568 -0.3527 -0.4970
  385TMC3    C4 5754   0.642   2.389  12.169  0.0369 -0.1184 -0.1226
  385TMC3    C5 5755   0.610   2.335  12.290  0.0817 -0.0231  0.5642
  385TMC3    C6 5756   0.525   2.230  12.300  0.3720 -0.1435 -0.1207
  385TMC3     C 5757   0.528   2.442  11.974 -0.3174  0.0895  0.0822
  385TMC3     O 5758   0.464   2.405  11.879  0.0049  0.0858  0.8567
  385TMC3     H 5759   0.467   2.192  11.973 -3.7445 -1.5746  1.8960
  385TMC3    H1 5760   0.711   2.472  12.161  0.5933 -0.5725 -0.0595
  385TMC3    H2 5761   0.479   2.197  12.393  3.1214  1.1544  1.7119
  385TMC3    C7 5762   0.577   2.442  12.382  0.2631  0.1350  0.1130
  385TMC3    C8 5763   0.483   2.024  12.191  0.8218 -0.2051 -0.3798
  385TMC3    O1 5764   0.594   2.554  12.333 -0.3566  0.1175  0.0456
  385TMC3    O2 5765   0.548   1.968  12.276 -0.3260 -0.6707  0.1411
  386TMC3    C1 5766   0.241   0.510  11.485  0.3891  0.7978  0.2842
  386TMC3    C2 5767   0.262   0.515  11.349 -0.4573 -0.2550  0.3654
  386TMC3    C3 5768   0.220   0.630  11.285  0.1604 -0.3059 -0.0498
  386TMC3    C4 5769   0.179   0.612  11.556  0.6825  0.2641  0.3243
  386TMC3    C5 5770   0.135   0.723  11.485  0.2122 -0.3610 -0.3759
  386TMC3    C6 5771   0.152   0.732  11.349 -0.2517 -0.0989 -0.2045
  386TMC3     C 5772   0.316   0.410  11.549 -0.0372 -0.5757 -0.5973
  386TMC3     O 5773   0.409   0.361  11.485  0.9969  0.5252  0.2492
  386TMC3     H 5774   0.302   0.435  11.287  2.4537  0.9532  0.6724
  386TMC3    H1 5775   0.166   0.595  11.663 -0.6440 -0.4926  0.0541
  386TMC3    H2 5776   0.137   0.824  11.293  0.5794  0.2637  0.1792
  386TMC3    C7 5777   0.053   0.815  11.562 -0.8598 -0.1862  0.0341
  386TMC3    C8 5778   0.269   0.647  11.153 -0.0874 -0.1304 -0.0609
  386TMC3    O1 5779   0.052   0.790  11.684 -0.0232 -1.0029  0.6662
  386TMC3    O2 5780   0.188   0.679  11.067 -0.4675  0.0055 -0.0838
  387MPD2     C 5781   2.517   0.925   9.405  0.0670  0.1474 -0.3822
  387MPD2    C1 5782   2.521   0.915   9.542  0.4703 -0.3322  0.1904
  387MPD2    C2 5783   2.534   0.782   9.590  0.3907  0.1330 -0.1625
  387MPD2    C3 5784   2.563   0.683   9.497  0.5441 -0.0125 -0.1020
  387MPD2    C4 5785   2.555   0.705   9.365 -0.6257 -0.6965  0.1356
  387MPD2    C5 5786   2.521   0.826   9.313 -0.3418 -0.1915 -0.7324
  387MPD2     H 5787   2.547   0.774   9.698 -0.3937 -2.2339 -0.2302
  387MPD2    H1 5788   2.568   0.623   9.295  0.8121  0.3620 -0.8454
  387MPD2    H2 5789   2.516   1.025   9.363  2.4159  0.3209 -0.0406
  387MPD2    H3 5790   2.498   0.832   9.207  1.5094  0.6510 -1.0852
  387MPD2     N 5791   2.596   0.560   9.541  0.3034  0.0560 -0.3131
  387MPD2    H5 5792   2.594   0.549   9.642  0.3398 -2.1844 -0.5473
  387MPD2    N1 5793   2.531   1.022   9.636  0.1012  0.0083 -0.4097
  387MPD2    H7 5794   2.522   1.002   9.735  2.7161  0.0108 -0.1666
  388TMC3    C1 5795   2.603   1.232   9.717 -1.1431  0.4205  0.2491
  388TMC3    C2 5796   2.637   1.364   9.699 -0.0182  0.7003 -0.2096
  388TMC3    C3 5797   2.738   1.422   9.767  0.4554  0.5748 -0.6583
  388TMC3    C4 5798   2.679   1.152   9.802 -0.6645 -0.2689  0.6823
  388TMC3    C5 5799   2.788   1.218   9.865 -0.0208  0.1078  0.1876
  388TMC3    C6 5800   2.827   1.346   9.846 -0.6292  0.6557  0.4282
  388TMC3     C 5801   2.537   1.157   9.608  0.3440  0.7414  0.7002
  388TMC3     O 5802   2.532   1.211   9.498 -0.0384 -0.7018  0.0166
  388TMC3     H 5803   2.589   1.419   9.618 -0.5306 -0.1561 -0.4863
  388TMC3    H1 5804   2.658   1.048   9.823  0.7734 -0.7922 -0.5370
  388TMC3    H2 5805   2.906   1.393   9.904  1.3312 -2.9087  0.6328
  388TMC3    C7 5806   2.887   1.132   9.925 -0.9400 -0.2157  0.1864
  388TMC3    C8 5807   2.760   1.569   9.773 -0.2566 -0.2428 -0.0807
  388TMC3    O1 5808   2.944   1.172  10.027 -0.0265 -0.0585 -0.3977
  388TMC3    O2 5809   2.866   1.601   9.817  0.3274  0.3674 -0.3121
  389MPD2     C 5810   2.023   3.405  11.816 -0.2291 -0.3288  0.6697
  389MPD2    C1 5811   1.980   3.407  11.679 -0.3541 -0.4477  0.7174
  389MPD2    C2 5812   1.907   3.291  11.633 -0.2683  0.3448  0.1352
  389MPD2    C3 5813   1.891   3.180  11.709 -0.2458  0.2300  0.1217
  389MPD2    C4 5814   1.934   3.184  11.838 -0.2488  0.2789  0.0230
  389MPD2    C5 5815   1.996   3.293  11.890  0.5088 -0.1643  0.1025
  389MPD2     H 5816   1.840   3.294  11.548 -1.0208  2.5369  0.8119
  389MPD2    H1 5817   1.949   3.093  11.894  0.8215  0.2644 -0.2739
  389MPD2    H2 5818   2.069   3.494  11.858  2.4828 -1.5848  0.3734
  389MPD2    H3 5819   2.032   3.289  11.992 -2.2639  0.3293  1.0990
  389MPD2     N 5820   1.824   3.063  11.660 -0.6013  0.1122  0.5667
  389MPD2    H5 5821   1.792   2.996  11.729  0.8050 -2.4851 -1.2973
  389MPD2    N1 5822   2.004   3.525  11.602  0.3367  0.1503 -0.0581
  389MPD2    H7 5823   2.056   3.595  11.653 -0.9593 -0.0957  1.6133
  390TMC3    C1 5824   1.694   2.945  11.497  0.4409 -0.1298 -0.5994
  390TMC3    C2 5825   1.694   2.828  11.569  0.2189 -0.5790 -0.0695
  390TMC3    C3 5826   1.614   2.733  11.519  0.1303  0.0332 -0.7948
  390TMC3    C4 5827   1.612   2.963  11.389 -0.1659 -0.0358  0.1493
  390TMC3    C5 5828   1.526   2.867  11.354  0.2490  0.5264  0.7151
  390TMC3    C6 5829   1.529   2.742  11.408  0.0562  0.4160 -0.4958
  390TMC3     C 5830   1.792   3.046  11.526 -0.1294 -0.6823  0.0629
  390TMC3     O 5831   1.828   3.107  11.426 -0.5375  0.3816 -0.0902
  390TMC3     H 5832   1.756   2.803  11.654 -0.4642 -0.4979  0.4527
  390TMC3    H1 5833   1.606   3.060  11.343  2.1310 -0.2002 -0.5095
  390TMC3    H2 5834   1.451   2.674  11.377 -0.3019  1.0275 -0.9279
  390TMC3    C7 5835   1.413   2.905  11.270  0.2566 -0.7804 -0.0337
  390TMC3    C8 5836   1.602   2.616  11.606 -0.3147 -0.1502 -0.2094
  390TMC3    O1 5837   1.436   2.955  11.160  0.3098 -0.1607  0.3530
  390TMC3    O2 5838   1.594   2.647  11.726  0.0209  0.2287  0.1675
  391MPD2     C 5839   1.997   0.105  11.295 -0.4646  0.1022 -0.2455
  391MPD2    C1 5840   2.121   0.113  11.235  0.6228 -0.6584  0.1957
  391MPD2    C2 5841   2.123   0.137  11.097 -0.0707 -0.1386 -0.5466
  391MPD2    C3 5842   2.011   0.144  11.020  0.0144 -0.3517 -0.2632
  391MPD2    C4 5843   1.886   0.126  11.084  0.3227 -0.0053 -0.0972
  391MPD2    C5 5844   1.884   0.110  11.220 -0.6635  0.2202 -0.3341
  391MPD2     H 5845   2.216   0.151  11.043 -0.0043 -1.6469 -0.8423
  391MPD2    H1 5846   1.790   0.109  11.037  0.7052  0.3223 -0.9761
  391MPD2    H2 5847   1.991   0.084  11.402  0.2500 -1.8466 -0.5950
  391MPD2    H3 5848   1.788   0.095  11.267  0.3233 -0.8661  1.3166
  391MPD2     N 5849   2.023   0.177  10.878  0.2448  0.1875 -0.3906
  391MPD2    H5 5850   2.120   0.183  10.851  0.6227 -1.9628  0.4704
  391MPD2    N1 5851   2.228   0.112  11.320 -0.0163  0.2947 -0.3216
  391MPD2    H7 5852   2.207   0.091  11.417  0.6400  0.4115 -0.1525
  392TMC3    C1 5853   1.974   0.244  10.659 -0.5119 -0.1218 -0.5015
  392TMC3    C2 5854   1.893   0.235  10.549 -0.1330 -0.1635 -0.9498
  392TMC3    C3 5855   1.917   0.303  10.434 -0.7217  0.4868  0.3710
  392TMC3    C4 5856   2.096   0.320  10.646  0.1966 -0.0323  0.1226
  392TMC3    C5 5857   2.117   0.389  10.522 -0.1405  0.0930 -0.0221
  392TMC3    C6 5858   2.028   0.377  10.420  0.7489 -0.0521  0.5256
  392TMC3     C 5859   1.917   0.199  10.788  0.1686 -0.2035  0.1770
  392TMC3     O 5860   1.797   0.182  10.799  0.1558 -0.0452  0.0465
  392TMC3     H 5861   1.803   0.174  10.547 -2.0613  2.6207  1.1880
  392TMC3    H1 5862   2.159   0.355  10.727 -0.4956  0.3784  0.4804
  392TMC3    H2 5863   2.046   0.427  10.326 -0.0500 -0.0062  0.3942
  392TMC3    C7 5864   2.205   0.506  10.526  0.3693 -0.1813 -0.4522
  392TMC3    C8 5865   1.817   0.294  10.330  0.3798 -0.1626  0.3109
  392TMC3    O1 5866   2.302   0.490  10.602 -0.1071  0.3875  0.2253
  392TMC3    O2 5867   1.748   0.194  10.322  0.2358  0.3087  0.2951
  393TMC3    C1 5868   0.082   3.001  10.189  0.3672 -0.4376 -0.0183
  393TMC3    C2 5869   4.707   2.914  10.150 -0.2330  0.3052  0.2683
  393TMC3    C3 5870   4.637   2.852  10.251 -0.7201  0.0440 -0.4220
  393TMC3    C4 5871   0.106   3.031  10.319 -0.4236  0.4842  0.3972
  393TMC3    C5 5872   0.016   2.982  10.416  0.0610 -0.4815 -0.8857
  393TMC3    C6 5873   4.651   2.877  10.383  0.3838  0.8882  0.1100
  393TMC3     C 5874   0.163   3.065  10.094 -0.3567 -1.0472 -0.0569
  393TMC3     O 5875   0.282   3.084  10.106  0.3559 -0.0213  0.0469
  393TMC3     H 5876   4.697   2.886  10.046 -0.2492 -0.7402  0.5514
  393TMC3    H1 5877   0.194   3.090  10.343 -0.1031  0.4720 -0.7400
  393TMC3    H2 5878   4.576   2.852  10.457  0.7354 -1.3186 -0.2757
  393TMC3    C7 5879   0.066   2.975  10.549  0.1387  0.1183 -0.4392
  393TMC3    C8 5880   4.534   2.758  10.208  0.1786 -0.8332  0.2373
  393TMC3    O1 5881   0.037   2.875  10.617  0.4024 -0.0067 -0.2502
  393TMC3    O2 5882   4.510   2.759  10.091  0.0814  0.6792 -0.1679
  394TMC3    C1 5883   1.972   3.651  11.393  0.1885  0.0045  0.0004
  394TMC3    C2 5884   1.881   3.681  11.293 -0.4947  0.6392  1.0923
  394TMC3    C3 5885   1.927   3.728  11.174 -0.4592 -0.0318  0.5681
  394TMC3    C4 5886   2.103   3.670  11.380 -0.4649 -0.3744  0.2283
  394TMC3    C5 5887   2.142   3.727  11.261 -0.3384  0.4705 -0.6310
  394TMC3    C6 5888   2.059   3.755  11.156 -0.5022  0.1799 -0.2998
  394TMC3     C 5889   1.918   3.562  11.497 -0.6038 -0.0668  0.0456
  394TMC3     O 5890   1.811   3.509  11.469  0.0770 -0.2950 -0.2824
  394TMC3     H 5891   1.775   3.660  11.302 -0.3107 -0.7943  0.0713
  394TMC3    H1 5892   2.169   3.653  11.464  1.5669  0.1338 -1.2497
  394TMC3    H2 5893   2.093   3.777  11.055  0.5859  3.7265  0.8626
  394TMC3    C7 5894   2.286   3.725  11.223  0.3416  0.0060  0.1697
  394TMC3    C8 5895   1.838   3.772  11.068  0.4608 -0.2706  0.0889
  394TMC3    O1 5896   2.333   3.820  11.151  0.2162 -0.0973  0.5714
  394TMC3    O2 5897   1.715   3.764  11.086 -0.4773 -0.1827 -0.2459
  395TMC3    C1 5898   1.148   0.592  14.236  0.1024 -0.6710  0.7936
  395TMC3    C2 5899   1.053   0.566  14.334  0.4365  0.1986  0.2143
  395TMC3    C3 5900   1.079   0.609  14.460  0.0211 -0.0433  0.9379
  395TMC3    C4 5901   1.255   0.676  14.271 -0.1654  0.8169 -0.2086
  395TMC3    C5 5902   1.276   0.718  14.401  0.0247  0.8368  0.3311
  395TMC3    C6 5903   1.191   0.678  14.498 -0.4937  0.0534 -0.9870
  395TMC3     C 5904   1.194   0.474  14.174 -0.5176  0.4785 -0.2183
  395TMC3     O 5905   1.154   0.371  14.223 -0.3587 -0.6673 -0.4621
  395TMC3     H 5906   0.965   0.506  14.319  0.1158  0.5868  0.5529
  395TMC3    H1 5907   1.339   0.700  14.207 -0.8732 -1.5235 -2.0209
  395TMC3    H2 5908   1.213   0.691  14.603 -1.6686 -0.9230 -0.6191
  395TMC3    C7 5909   1.407   0.753  14.454 -0.3526 -0.3907 -0.0168
  395TMC3    C8 5910   1.034   0.505  14.554  0.0022  0.0922  0.3806
  395TMC3    O1 5911   1.405   0.826  14.550  0.1776 -0.8961  0.3327
  395TMC3    O2 5912   1.004   0.554  14.664  0.3860 -0.0025 -0.0865
  396MPD2     C 5913   1.791   1.814  17.476  0.3803  0.8775  0.3421
  396MPD2    C1 5914   1.719   1.828  17.358  0.7163  0.5455  0.3723
  396MPD2    C2 5915   1.742   1.946  17.286 -0.0654  0.0406 -0.6310
  396MPD2    C3 5916   1.827   2.048  17.334  0.0402 -0.2504  0.1654
  396MPD2    C4 5917   1.899   2.022  17.445 -0.9820 -0.1694  0.4660
  396MPD2    C5 5918   1.885   1.906  17.512 -0.6470  0.6089 -0.3488
  396MPD2     H 5919   1.676   1.959  17.202  0.0233 -0.5508 -0.7950
  396MPD2    H1 5920   1.979   2.084  17.484  1.2840 -1.1548 -2.5845
  396MPD2    H2 5921   1.783   1.726  17.539 -2.3440 -0.3832 -1.7768
  396MPD2    H3 5922   1.938   1.895  17.606  0.3654  2.1360 -0.7466
  396MPD2     N 5923   1.849   2.171  17.265 -0.6719  0.1267  0.4907
  396MPD2    H5 5924   1.913   2.238  17.307 -0.3292  0.2731 -0.2632
  396MPD2    N1 5925   1.636   1.723  17.313  0.5819 -0.2775 -0.5473
  396MPD2    H7 5926   1.632   1.642  17.375  3.6994 -1.1688 -1.5151
  397TMC3    C1 5927   1.549   1.573  17.147 -0.4238 -0.0117  0.1068
  397TMC3    C2 5928   1.593   1.536  17.028 -0.1027 -0.1266  0.1957
  397TMC3    C3 5929   1.626   1.408  16.999 -0.5499 -0.0113  0.5188
  397TMC3    C4 5930   1.552   1.482  17.246 -0.4457 -0.2385  0.2902
  397TMC3    C5 5931   1.566   1.353  17.209  0.4221 -0.8473 -0.1355
  397TMC3    C6 5932   1.604   1.307  17.085 -0.3022 -0.2489  0.1805
  397TMC3     C 5933   1.586   1.713  17.186  0.1293  0.3867  0.6792
  397TMC3     O 5934   1.582   1.797  17.099 -0.0817 -0.5971 -0.0297
  397TMC3     H 5935   1.564   1.606  16.951  1.6158  0.5618  0.1749
  397TMC3    H1 5936   1.504   1.508  17.340 -2.0991  2.2359 -1.2616
  397TMC3    H2 5937   1.612   1.201  17.063  0.4030  0.0343 -0.9234
  397TMC3    C7 5938   1.526   1.247  17.301 -0.0527 -0.2175  0.3300
  397TMC3    C8 5939   1.707   1.384  16.882  0.1427 -0.3660 -1.0366
  397TMC3    O1 5940   1.478   1.149  17.248  0.2047  0.3119  0.3395
  397TMC3    O2 5941   1.743   1.269  16.860 -0.0856  0.9332 -0.3748
  398MPD2     C 5942   3.925   2.504   0.336 -0.2816  0.1144 -0.0543
  398MPD2    C1 5943   4.056   2.455   0.345  0.6658 -0.4919 -0.3801
  398MPD2    C2 5944   4.157   2.535   0.398  0.4652  0.3088  0.2529
  398MPD2    C3 5945   4.131   2.672   0.430  0.1777  1.0516 -0.4728
  398MPD2    C4 5946   4.001   2.716   0.430  0.1163 -0.2213  0.1267
  398MPD2    C5 5947   3.903   2.630   0.383  0.4689  0.1976 -0.2890
  398MPD2     H 5948   4.260   2.501   0.409 -0.2116 -1.8576 -0.0782
  398MPD2    H1 5949   3.970   2.812   0.470 -0.2222  0.6186 -2.1833
  398MPD2    H2 5950   3.841   2.440   0.315 -0.4578  0.2391  0.2762
  398MPD2    H3 5951   3.801   2.664   0.387  0.7051  0.5381  3.3794
  398MPD2     N 5952   4.232   2.751   0.482 -0.2226  0.1309  0.3399
  398MPD2    H5 5953   4.324   2.718   0.508 -0.2400 -1.4216 -1.5981
  398MPD2    N1 5954   4.098   2.328   0.302 -0.2426 -0.1353 -0.9520
  398MPD2    H7 5955   4.186   2.285   0.325  0.4508  0.6702 -2.1103
  399TMC3    C1 5956   4.078   2.118   0.205 -0.6091 -0.0293  0.4554
  399TMC3    C2 5957   4.176   2.066   0.281  0.0036  0.3467  0.0026
  399TMC3    C3 5958   4.214   1.936   0.266  0.4279  0.1718 -0.2867
  399TMC3    C4 5959   4.003   2.042   0.118 -0.4053 -0.0215 -0.7085
  399TMC3    C5 5960   4.048   1.914   0.111  0.0632  0.3943 -0.3714
  399TMC3    C6 5961   4.141   1.854   0.186  0.4469 -0.0072 -0.3468
  399TMC3     C 5962   4.026   2.248   0.225 -0.0671 -0.0979 -0.7522
  399TMC3     O 5963   3.934   2.281   0.148  0.0382 -0.0319 -0.6923
  399TMC3     H 5964   4.235   2.127   0.348  0.6818  0.9766 -1.1835
  399TMC3    H1 5965   3.913   2.079   0.071  0.2493  0.7203 -1.3704
  399TMC3    H2 5966   4.174   1.756   0.153 -0.1934 -0.2379 -0.2880
  399TMC3    C7 5967   3.952   1.829   0.059  0.2719  0.3354  0.0566
  399TMC3    C8 5968   4.343   1.899   0.311  0.0702  0.5826 -0.2860
  399TMC3    O1 5969   3.923   1.733   0.124 -0.1416  0.0777  0.1495
  399TMC3    O2 5970   4.435   1.977   0.338  0.2983 -0.6168  0.2460
  400TMC3    C1 5971   3.132   0.659  16.842  0.0673 -0.6005 -0.3340
  400TMC3    C2 5972   3.012   0.659  16.774  0.0709  0.1063  0.9205
  400TMC3    C3 5973   2.942   0.779  16.760 -0.3593 -0.0458  0.0964
  400TMC3    C4 5974   3.172   0.767  16.913 -0.0901  0.6875 -0.3594
  400TMC3    C5 5975   3.097   0.884  16.900 -0.1722  0.8379 -0.4827
  400TMC3    C6 5976   2.979   0.887  16.834 -0.6132 -0.0102 -0.0823
  400TMC3     C 5977   3.204   0.534  16.833 -0.5824  0.4504  0.2386
  400TMC3     O 5978   3.141   0.434  16.794  0.5315 -0.1400 -0.0256
  400TMC3     H 5979   2.961   0.573  16.731 -1.9682  0.9599  1.6123
  400TMC3    H1 5980   3.268   0.782  16.961 -0.1499 -0.0235 -0.0275
  400TMC3    H2 5981   2.920   0.977  16.822 -1.9426 -0.6910  1.3572
  400TMC3    C7 5982   3.161   1.010  16.902  0.1583  0.1095  0.0106
  400TMC3    C8 5983   2.865   0.808  16.642 -0.2100  0.8490 -0.3493
  400TMC3    O1 5984   3.287   1.013  16.900 -0.4060 -0.0533  0.0467
  400TMC3    O2 5985   2.827   0.924  16.632 -0.6704 -0.3040  0.6355
  401MPD2     C 5986   0.507   4.275   0.732 -0.3758 -0.1084 -0.0434
  401MPD2    C1 5987   0.638   4.253   0.728  0.0855  0.3818  0.8664
  401MPD2    C2 5988   0.700   4.133   0.749 -0.1782  0.4043  0.0256
  401MPD2    C3 5989   0.617   4.029   0.751 -0.7725 -0.4839 -0.0839
  401MPD2    C4 5990   0.476   4.042   0.751  0.0818 -0.0857  0.1332
  401MPD2    C5 5991   0.425   4.165   0.746  0.3385 -0.2335  0.0535
  401MPD2     H 5992   0.808   4.125   0.758 -0.3168  0.4220  1.7293
  401MPD2    H1 5993   0.405   3.962   0.767 -0.3074  0.0092 -1.1902
  401MPD2    H2 5994   0.470   4.377   0.724 -1.8682 -0.7001 -0.4710
  401MPD2    H3 5995   0.320   4.183   0.766 -0.1031 -0.5926 -1.9606
  401MPD2     N 5996   0.677   3.899   0.754 -0.4001 -0.7524 -0.1553
  401MPD2    H5 5997   0.778   3.898   0.756 -0.4486  2.4314  3.3418
  401MPD2    N1 5998   0.726   4.361   0.717  0.4391 -0.6944  0.5226
  401MPD2    H7 5999   0.822   4.335   0.736  1.3239  2.9193  1.0184
  402TMC3    C1 6000   0.722   3.670   0.731  0.2478  0.5516  0.4304
  402TMC3    C2 6001   0.718   3.574   0.826  0.4443 -0.3932  0.8785
  402TMC3    C3 6002   0.843   3.509   0.846 -1.3281  0.1408  0.4210
  402TMC3    C4 6003   0.836   3.708   0.662 -0.5715  0.6766 -0.4870
  402TMC3    C5 6004   0.948   3.632   0.676  0.2802 -0.2966 -0.1987
  402TMC3    C6 6005   0.956   3.531   0.763  0.1243  0.9193  0.3048
  402TMC3     C 6006   0.621   3.769   0.759  0.1535 -0.5306  0.3842
  402TMC3     O 6007   0.506   3.734   0.784 -0.1161  0.1650 -0.3989
  402TMC3     H 6008   0.625   3.559   0.880 -0.7932 -0.3594 -1.2422
  402TMC3    H1 6009   0.844   3.794   0.597  2.1695  0.9614  0.2263
  402TMC3    H2 6010   1.041   3.464   0.769  1.5409  2.6395 -0.5383
  402TMC3    C7 6011   1.074   3.708   0.643 -0.3073  0.1136 -0.3453
  402TMC3    C8 6012   0.875   3.462   0.980  0.4741  0.4534  0.0299
  402TMC3    O1 6013   1.071   3.775   0.536 -0.1084  0.0048  0.5869
  402TMC3    O2 6014   0.993   3.468   1.012 -0.0454 -0.0382  0.1321
  403MPD2     C 6015   4.649   3.031  13.284  0.0620  0.6364  0.0808
  403MPD2    C1 6016   4.614   2.929  13.364  0.3481  0.2976  0.2418
  403MPD2    C2 6017   4.667   2.918  13.493  0.0128  0.4127 -0.5749
  403MPD2    C3 6018   0.023   3.021  13.538 -0.0679  0.2515 -0.2485
  403MPD2    C4 6019   0.048   3.131  13.459  0.0125 -0.1910  0.8217
  403MPD2    C5 6020   0.002   3.134  13.332 -0.2241  0.1038  0.3179
  403MPD2     H 6021   4.657   2.827  13.552  0.5228  0.5290 -0.3149
  403MPD2    H1 6022   0.113   3.210  13.497 -1.0041  0.8618  0.3584
  403MPD2    H2 6023   4.616   3.039  13.181  2.3737 -1.5798 -0.8335
  403MPD2    H3 6024   0.037   3.220  13.276 -1.0970  1.2216  1.4965
  403MPD2     N 6025   0.096   3.001  13.658 -0.6946  0.3660  0.1947
  403MPD2    H5 6026   0.076   2.912  13.703 -1.7837  0.0300 -0.9697
  403MPD2    N1 6027   4.540   2.824  13.301 -0.8571 -0.7439  0.0755
  403MPD2    H7 6028   4.523   2.834  13.201 -0.5406 -2.9118 -0.1833
  404TMC3    C1 6029   4.389   2.639  13.293  0.2899  0.0064  0.3241
  404TMC3    C2 6030   4.347   2.526  13.358  0.0110 -0.1281  0.3493
  404TMC3    C3 6031   4.316   2.422  13.275 -0.4018  0.7829  0.1469
  404TMC3    C4 6032   4.377   2.657  13.159  0.4748 -0.1073  0.5123
  404TMC3    C5 6033   4.325   2.557  13.081  0.4477  0.0811 -0.3342
  404TMC3    C6 6034   4.311   2.431  13.137  0.5347 -0.5956 -0.0850
  404TMC3     C 6035   4.483   2.717  13.370 -0.4713 -0.1404  0.3563
  404TMC3     O 6036   4.481   2.693  13.489 -0.4175 -0.3978 -0.4690
  404TMC3     H 6037   4.385   2.505  13.458  1.1525 -0.5237 -0.1678
  404TMC3    H1 6038   4.394   2.756  13.118  0.4189  0.8178  2.7138
  404TMC3    H2 6039   4.282   2.344  13.079 -0.5110 -0.4700  0.2464
  404TMC3    C7 6040   4.329   2.579  12.937 -0.0599 -0.2056 -0.0819
  404TMC3    C8 6041   4.337   2.284  13.329  0.0817 -0.4274  0.5788
  404TMC3    O1 6042   4.369   2.688  12.894  0.3364  0.3230 -0.1311
  404TMC3    O2 6043   4.371   2.203  13.248 -0.0876 -0.1510  0.2600
  405MPD2     C 6044   0.026   3.073  14.895 -0.4312  0.3437  0.6625
  405MPD2    C1 6045   4.667   3.049  14.777  0.7289 -0.3225 -0.3340
  405MPD2    C2 6046   4.654   3.147  14.681  0.0495 -0.4132 -0.5585
  405MPD2    C3 6047   4.720   3.267  14.693 -0.4200  1.0818 -0.1980
  405MPD2    C4 6048   0.085   3.280  14.797  0.1851  0.4311 -0.7692
  405MPD2    C5 6049   0.094   3.192  14.899  0.2693  0.4285 -0.3747
  405MPD2     H 6050   4.595   3.122  14.593  0.2190 -0.3635 -0.6868
  405MPD2    H1 6051   0.142   3.369  14.819  0.2889  0.4251 -1.0090
  405MPD2    H2 6052   0.051   2.999  14.970  1.3403  0.3840  0.1179
  405MPD2    H3 6053   0.164   3.212  14.979  0.8942 -1.9255 -0.3237
  405MPD2     N 6054   4.713   3.362  14.594 -0.1658 -0.4360  0.0603
  405MPD2    H5 6055   4.638   3.346  14.527 -0.8643  0.8289  0.5516
  405MPD2    N1 6056   4.608   2.923  14.745  0.0778  0.1458  0.4147
  405MPD2    H7 6057   4.552   2.918  14.661 -2.2248 -2.2619  2.0631
  406TMC3    C1 6058   4.605   3.533  14.272 -0.7220 -0.5933  0.0876
  406TMC3    C2 6059   4.696   3.510  14.185 -0.0161  0.1853  0.6069
  406TMC3    C3 6060   0.102   3.485  14.216 -0.2010 -0.0767 -0.8255
  406TMC3    C4 6061   4.631   3.543  14.402 -0.2499 -0.1561  0.0646
  406TMC3    C5 6062   0.045   3.522  14.439  0.9798  0.0614 -0.3300
  406TMC3    C6 6063   0.146   3.497  14.345 -0.0815 -0.2906 -0.2082
  406TMC3     C 6064   4.474   3.578  14.226 -0.0664 -0.0260 -0.2207
  406TMC3     O 6065   4.458   3.635  14.117  0.4336  0.0705 -0.0419
  406TMC3     H 6066   4.667   3.493  14.082  0.8312 -2.0776  0.7349
  406TMC3    H1 6067   4.563   3.575  14.480 -2.6427 -0.3202 -1.9740
  406TMC3    H2 6068   0.237   3.447  14.376 -0.6275 -0.7490  0.6765
  406TMC3    C7 6069   0.083   3.453  14.562 -0.1916  0.3467  0.1357
  406TMC3    C8 6070   0.137   3.360  14.150 -0.5190  0.8328 -0.3217
  406TMC3    O1 6071   0.198   3.461  14.592 -0.6480  0.1681 -0.6853
  406TMC3    O2 6072   0.130   3.350  14.027  0.6343 -0.0667 -0.2503
  407MPD2     C 6073   2.176   0.525   9.572  0.5309  0.6708 -0.7607
  407MPD2    C1 6074   2.257   0.423   9.618 -0.0850 -0.3618 -0.0084
  407MPD2    C2 6075   2.349   0.456   9.720  0.2191  0.0874  0.5461
  407MPD2    C3 6076   2.347   0.582   9.779 -0.3467 -0.0311 -0.3158
  407MPD2    C4 6077   2.259   0.675   9.744  0.3440  0.0467  0.5944
  407MPD2    C5 6078   2.179   0.651   9.634 -0.1228 -0.6383 -0.4346
  407MPD2     H 6079   2.416   0.381   9.761 -1.4718 -1.5165  0.3732
  407MPD2    H1 6080   2.252   0.774   9.787 -1.3727  0.6427 -0.9948
  407MPD2    H2 6081   2.110   0.508   9.488  0.1011 -1.6160  0.0318
  407MPD2    H3 6082   2.126   0.734   9.590 -0.3700 -1.0877 -0.9859
  407MPD2     N 6083   2.432   0.612   9.887 -0.1506 -0.4255  0.5240
  407MPD2    H5 6084   2.408   0.693   9.943  0.7537  1.2318 -1.5174
  407MPD2    N1 6085   2.244   0.289   9.578  0.1561  0.3578 -0.3935
  407MPD2    H7 6086   2.307   0.216   9.611  0.1367  0.3386 -0.3992
  408TMC3    C1 6087   2.166   0.098   9.449 -0.5134 -0.5962  0.4393
  408TMC3    C2 6088   2.269   0.028   9.496 -0.2170  0.2347 -0.3774
  408TMC3    C3 6089   2.297   4.617   9.453  0.0589  0.6290  0.8965
  408TMC3    C4 6090   2.073   0.046   9.368 -0.0446 -0.0264 -0.2990
  408TMC3    C5 6091   2.091   4.636   9.344  0.8964 -0.1844  0.4778
  408TMC3    C6 6092   2.197   4.559   9.373  0.2909 -0.0588  0.3427
  408TMC3     C 6093   2.146   0.238   9.491  0.0454  0.1745 -0.2590
  408TMC3     O 6094   2.054   0.296   9.437 -0.1856 -0.3877 -0.9530
  408TMC3     H 6095   2.348   0.075   9.553 -0.8201  0.3168  0.3902
  408TMC3    H1 6096   1.977   0.089   9.341  0.2759 -0.0874 -1.5448
  408TMC3    H2 6097   2.203   4.453   9.349  1.0988 -0.5512  2.6448
  408TMC3    C7 6098   1.977   4.558   9.299 -0.7226  0.4278 -0.8320
  408TMC3    C8 6099   2.423   4.542   9.473  0.2151 -0.5698 -0.8800
  408TMC3    O1 6100   1.984   4.438   9.328 -0.0784 -0.2209  0.5167
  408TMC3    O2 6101   2.414   4.423   9.472 -0.3386 -0.0229 -0.9245
  409MPD2     C 6102   1.596   0.571  16.712 -0.1001 -0.0398  0.2780
  409MPD2    C1 6103   1.712   0.505  16.749  0.1736 -0.1769 -0.4202
  409MPD2    C2 6104   1.835   0.553  16.708 -0.0384  0.5575  0.6075
  409MPD2    C3 6105   1.852   0.671  16.641  0.0554  0.3959  0.1510
  409MPD2    C4 6106   1.736   0.730  16.605  1.0998 -0.4656 -0.3358
  409MPD2    C5 6107   1.603   0.687  16.637 -0.1348  0.2956  0.1916
  409MPD2     H 6108   1.925   0.498  16.731 -0.3434 -0.0296  0.4222
  409MPD2    H1 6109   1.753   0.828  16.562 -1.0412  0.2693  0.4779
  409MPD2    H2 6110   1.498   0.545  16.750  0.6798 -3.5207 -0.1545
  409MPD2    H3 6111   1.518   0.753  16.625 -1.8053 -1.8964  0.0217
  409MPD2     N 6112   1.980   0.729  16.617 -0.1963  0.1637  0.2425
  409MPD2    H5 6113   1.992   0.817  16.568 -0.0644  0.0119  0.0051
  409MPD2    N1 6114   1.714   0.395  16.838 -0.5044 -0.3557  0.6658
  409MPD2    H7 6115   1.805   0.367  16.874  0.5184  1.1281 -0.7335
  410TMC3    C1 6116   2.205   0.790  16.643 -0.2929  0.0256 -0.8599
  410TMC3    C2 6117   2.327   0.773  16.700 -0.0895  0.2490 -0.5317
  410TMC3    C3 6118   2.420   0.877  16.685  0.2721  0.6992 -0.1214
  410TMC3    C4 6119   2.173   0.899  16.573 -0.2442  0.4439  0.0985
  410TMC3    C5 6120   2.268   1.000  16.555 -0.2765  0.1905  0.9035
  410TMC3    C6 6121   2.389   0.995  16.617 -0.2026 -0.6272 -0.4458
  410TMC3     C 6122   2.103   0.688  16.670 -0.4806 -0.5441  0.0487
  410TMC3     O 6123   2.129   0.595  16.742 -0.2142 -0.0122  0.0575
  410TMC3     H 6124   2.337   0.691  16.770 -1.7945  0.2861 -0.2469
  410TMC3    H1 6125   2.073   0.912  16.532  0.7023 -1.0357 -2.7508
  410TMC3    H2 6126   2.464   1.072  16.598 -1.8912  1.0025 -0.5288
  410TMC3    C7 6127   2.262   1.063  16.424 -0.4907 -0.0496 -0.1050
  410TMC3    C8 6128   2.526   0.878  16.783  0.2885  0.4596  0.3623
  410TMC3    O1 6129   2.188   1.010  16.343 -0.1869 -0.1062  0.3294
  410TMC3    O2 6130   2.551   0.987  16.835 -0.5572  0.3572 -0.7711
  411MPD2     C 6131   2.572   1.187  14.532  0.3357 -0.6956  0.1753
  411MPD2    C1 6132   2.437   1.209  14.501 -0.5881 -0.2924  0.9069
  411MPD2    C2 6133   2.364   1.100  14.450  0.6752  0.2425 -0.1184
  411MPD2    C3 6134   2.418   0.982  14.424 -0.2693 -0.0731 -0.4543
  411MPD2    C4 6135   2.546   0.955  14.462 -0.1127  0.0002  0.0930
  411MPD2    C5 6136   2.627   1.059  14.513 -1.0795  0.8212  0.2735
  411MPD2     H 6137   2.260   1.121  14.425 -0.0253 -0.3875  2.2904
  411MPD2    H1 6138   2.589   0.859  14.435 -0.1028 -0.1267  0.5744
  411MPD2    H2 6139   2.632   1.267  14.572  0.6836 -1.1224  0.5087
  411MPD2    H3 6140   2.734   1.052  14.526 -0.9746  0.3427 -0.8661
  411MPD2     N 6141   2.340   0.881  14.353  0.2859 -0.0892  0.0468
  411MPD2    H5 6142   2.393   0.798  14.326 -0.0294 -0.5104  0.7204
  411MPD2    N1 6143   2.388   1.341  14.506  0.1588 -0.4045 -0.0784
  411MPD2    H7 6144   2.451   1.413  14.540 -0.6990 -0.6638  2.0247
  412TMC3    C1 6145   2.181   0.771  14.223 -0.0631  0.4831 -0.2370
  412TMC3    C2 6146   2.053   0.712  14.230 -0.3990 -1.2120  0.8821
  412TMC3    C3 6147   2.024   0.610  14.148  0.4196  0.1226  0.4281
  412TMC3    C4 6148   2.276   0.721  14.144 -0.2764 -0.6848 -0.5020
  412TMC3    C5 6149   2.234   0.632  14.049  0.2903  0.0178  0.0651
  412TMC3    C6 6150   2.120   0.565  14.061  0.0129 -0.8212  0.1569
  412TMC3     C 6151   2.215   0.885  14.314 -1.1853  0.0378 -0.2204
  412TMC3     O 6152   2.120   0.959  14.343  0.4306 -0.6536 -0.0761
  412TMC3     H 6153   1.978   0.761  14.292  1.0939  0.4004  1.4229
  412TMC3    H1 6154   2.367   0.779  14.139 -2.5112  2.7797 -0.9657
  412TMC3    H2 6155   2.117   0.472  14.004  0.5535 -1.0556  0.5134
  412TMC3    C7 6156   2.243   0.690  13.916 -0.1114  0.6903 -0.3203
  412TMC3    C8 6157   1.907   0.640  14.064  0.6204 -0.4654  0.1220
  412TMC3    O1 6158   2.269   0.808  13.916  0.3372  0.3132  0.1599
  412TMC3    O2 6159   1.855   0.749  14.087  0.2997 -0.6443  0.3731
  413MPD2     C 6160   3.893   0.052  15.481  0.7207  0.0356 -0.3910
  413MPD2    C1 6161   3.824   4.679  15.414 -0.0291  0.1676 -0.3613
  413MPD2    C2 6162   3.892   4.561  15.394 -0.6289  0.8399  0.1160
  413MPD2    C3 6163   4.021   4.534  15.440  0.5349 -0.2277 -0.3393
  413MPD2    C4 6164   4.087   4.637  15.501  0.6089  0.0917 -0.4248
  413MPD2    C5 6165   4.025   0.032  15.513  0.0432  0.6122 -0.5127
  413MPD2     H 6166   3.839   4.484  15.339  1.3777  0.6972 -1.6006
  413MPD2    H1 6167   4.188   4.626  15.540 -0.2447  1.6244  2.2789
  413MPD2    H2 6168   3.851   0.148  15.509 -0.1357 -0.2191 -0.8106
  413MPD2    H3 6169   4.075   0.114  15.564 -2.2887  0.2301  2.3887
  413MPD2     N 6170   4.067   4.402  15.427 -0.7811  0.1016  0.0414
  413MPD2    H5 6171   4.000   4.337  15.387  0.6075 -0.6236 -1.0668
  413MPD2    N1 6172   3.690   4.700  15.371 -0.0742 -0.3390 -0.4607
  413MPD2    H7 6173   3.644   0.060  15.407  0.9517 -0.3687  0.9357
  414TMC3    C1 6174   4.207   4.216  15.446  0.4842  0.1314  0.0394
  414TMC3    C2 6175   4.245   4.141  15.557 -0.2030  0.2125 -0.1090
  414TMC3    C3 6176   4.228   4.004  15.553 -0.1187 -0.1727 -0.1460
  414TMC3    C4 6177   4.150   4.157  15.333  0.1735  0.6794 -0.1706
  414TMC3    C5 6178   4.124   4.020  15.336 -0.4466  0.0103  0.2539
  414TMC3    C6 6179   4.163   3.953  15.447 -0.5716  0.4440 -1.2149
  414TMC3     C 6180   4.191   4.362  15.462 -0.3091 -0.3721  0.4057
  414TMC3     O 6181   4.292   4.420  15.495  0.1620 -1.2576  0.1290
  414TMC3     H 6182   4.281   4.192  15.646 -1.8245 -0.4738  0.9429
  414TMC3    H1 6183   4.123   4.223  15.252  0.6472  1.5580  0.3787
  414TMC3    H2 6184   4.146   3.846  15.445 -0.8524  0.4709 -0.2771
  414TMC3    C7 6185   4.182   3.955  15.214 -0.8838  0.1303  0.3057
  414TMC3    C8 6186   4.345   3.916  15.584 -1.1282  0.0849 -0.1195
  414TMC3    O1 6187   4.275   3.879  15.227  0.2870 -0.0504 -0.0544
  414TMC3    O2 6188   4.334   3.794  15.572 -0.3969 -0.0546 -0.4037
  415TMC3    C1 6189   4.475   2.073  10.245 -0.1712 -0.4885  0.4519
  415TMC3    C2 6190   4.558   2.171  10.290  0.2448  0.2767 -0.4150
  415TMC3    C3 6191   4.585   2.283  10.209  0.3715  0.3164  0.6285
  415TMC3    C4 6192   4.413   2.082  10.121 -0.0385 -0.7503  0.4377
  415TMC3    C5 6193   4.440   2.196  10.048  0.0056 -0.4099 -0.0652
  415TMC3    C6 6194   4.524   2.301  10.087 -0.1787 -0.4532 -0.6880
  415TMC3     C 6195   4.474   1.944  10.311  0.1488  0.3253  0.0004
  415TMC3     O 6196   4.445   1.849  10.240 -0.8865  0.0578 -0.3919
  415TMC3     H 6197   4.608   2.154  10.385  2.1098  0.8799 -1.2814
  415TMC3    H1 6198   4.336   2.006  10.104 -1.5096  0.7166  0.5641
  415TMC3    H2 6199   4.530   2.397  10.037  2.4250  0.0050  0.4971
  415TMC3    C7 6200   4.384   2.210   9.915  0.0970  0.6422  0.0835
  415TMC3    C8 6201   4.681   2.379  10.260  0.2045 -0.2225  0.1969
  415TMC3    O1 6202   4.408   2.310   9.851  0.4503 -0.2662 -0.2677
  415TMC3    O2 6203   0.003   2.374  10.375 -0.1489 -0.4833  0.1160
  416MPD2     C 6204   1.865   1.625  11.712  0.3652  0.0101 -0.0112
  416MPD2    C1 6205   1.785   1.576  11.607 -0.1787 -0.1354  0.1346
  416MPD2    C2 6206   1.847   1.513  11.502 -0.2971 -0.7937 -0.0886
  416MPD2    C3 6207   1.987   1.502  11.497 -0.1767  0.9310  0.0858
  416MPD2    C4 6208   2.063   1.559  11.602  0.0325  0.5905  0.3585
  416MPD2    C5 6209   2.003   1.619  11.708 -0.3836 -0.0241 -0.2613
  416MPD2     H 6210   1.789   1.484  11.415 -0.2250  1.0544 -0.7569
  416MPD2    H1 6211   2.169   1.534  11.602 -0.1135 -0.0383  0.6936
  416MPD2    H2 6212   1.812   1.674  11.792  1.8869  4.6256 -1.8518
  416MPD2    H3 6213   2.062   1.664  11.788  0.5487 -0.4680 -0.7081
  416MPD2     N 6214   2.053   1.430  11.390 -0.4145  0.3405  0.3009
  416MPD2    H5 6215   2.144   1.395  11.418  0.8792  2.7150 -0.9353
  416MPD2    N1 6216   1.646   1.597  11.615  0.1741  0.6041 -0.2673
  416MPD2    H7 6217   1.597   1.641  11.692  1.8461  0.1706  1.0536
  417TMC3    C1 6218   1.417   1.605  11.550  0.0259  0.1048  0.8706
  417TMC3    C2 6219   1.386   1.672  11.656  0.0734  0.6694 -0.3242
  417TMC3    C3 6220   1.261   1.726  11.660 -0.1183  0.3211  0.3024
  417TMC3    C4 6221   1.346   1.611  11.431  0.3455  0.0727 -0.4530
  417TMC3    C5 6222   1.231   1.685  11.430 -0.0291 -0.3996  0.1962
  417TMC3    C6 6223   1.182   1.737  11.545  0.1772  0.1253 -0.4041
  417TMC3     C 6224   1.552   1.557  11.531 -0.4413 -0.0952 -0.8181
  417TMC3     O 6225   1.560   1.484  11.432  0.0455  0.5193  0.1446
  417TMC3     H 6226   1.433   1.654  11.752 -0.9684  2.9650  0.6164
  417TMC3    H1 6227   1.386   1.577  11.336 -2.0076  0.3207 -1.5338
  417TMC3    H2 6228   1.089   1.792  11.530 -0.2188 -0.2783  0.5604
  417TMC3    C7 6229   1.172   1.724  11.305  0.6565  0.0755 -0.4540
  417TMC3    C8 6230   1.204   1.776  11.782  0.7066  0.3879 -0.1273
  417TMC3    O1 6231   1.240   1.706  11.205 -0.5411  0.3862  0.7435
  417TMC3    O2 6232   1.286   1.786  11.875 -0.2081  0.1049 -0.0440
  418TMC3    C1 6233   4.519   3.074   0.543 -0.0422 -1.1268  0.1664
  418TMC3    C2 6234   4.386   3.058   0.531 -0.5458  0.1738 -0.3922
  418TMC3    C3 6235   4.334   2.939   0.576 -0.0877  0.1031  0.4482
  418TMC3    C4 6236   4.600   2.983   0.617 -0.3176  0.1416 -0.3596
  418TMC3    C5 6237   4.539   2.871   0.674 -0.7348  0.6141  0.1126
  418TMC3    C6 6238   4.412   2.845   0.648 -0.3731 -0.3173  0.0070
  418TMC3     C 6239   4.579   3.151   0.440  0.3917 -0.4946  0.1046
  418TMC3     O 6240   4.534   3.256   0.400  0.5875  0.5914 -0.3552
  418TMC3     H 6241   4.334   3.119   0.457  0.0020 -0.5865 -1.3943
  418TMC3    H1 6242   4.703   3.011   0.631 -0.0181 -2.1299  1.8230
  418TMC3    H2 6243   4.380   2.751   0.692 -0.4915 -0.5139 -0.4926
  418TMC3    C7 6244   4.628   2.768   0.723  0.0689 -0.1622 -0.6599
  418TMC3    C8 6245   4.225   2.889   0.498 -0.1927 -0.2832 -1.0663
  418TMC3    O1 6246   4.600   2.650   0.711 -0.2258 -0.7382 -0.2864
  418TMC3    O2 6247   4.159   2.963   0.435 -0.1029 -0.3611  0.1064
  419MPD2     C 6248   3.682   1.221  12.409 -0.1668  0.5428 -0.5753
  419MPD2    C1 6249   3.552   1.265  12.419 -0.1132  0.2462  0.0642
  419MPD2    C2 6250   3.504   1.327  12.529 -0.8865 -0.7486 -0.0578
  419MPD2    C3 6251   3.575   1.331  12.647  0.5629  0.6882  0.2095
  419MPD2    C4 6252   3.700   1.268  12.653 -0.0073 -0.3689 -0.1316
  419MPD2    C5 6253   3.754   1.226  12.531 -0.2626 -0.2897 -0.8740
  419MPD2     H 6254   3.402   1.362  12.544 -0.3043  0.8920  0.0837
  419MPD2    H1 6255   3.759   1.248  12.741  2.0496 -0.4909 -1.5495
  419MPD2    H2 6256   3.733   1.186  12.321 -0.2295 -1.4401  0.1955
  419MPD2    H3 6257   3.856   1.193  12.516  0.5263 -0.1468  4.2317
  419MPD2     N 6258   3.514   1.389  12.761  0.3854 -0.3962 -1.3784
  419MPD2    H5 6259   3.421   1.426  12.748  1.0265  1.1528 -1.5591
  419MPD2    N1 6260   3.469   1.259  12.309 -0.3479 -0.0602 -0.4881
  419MPD2    H7 6261   3.375   1.298  12.316 -0.7210 -1.6450  3.3508
  420TMC3    C1 6262   3.473   1.395  12.989  0.3719 -0.7828 -0.1000
  420TMC3    C2 6263   3.354   1.347  12.964  0.0170  0.9397 -0.9486
  420TMC3    C3 6264   3.267   1.354  13.068 -0.0355  0.6558  0.1013
  420TMC3    C4 6265   3.515   1.462  13.105 -0.6082 -0.1633 -0.0045
  420TMC3    C5 6266   3.421   1.469  13.207  0.3261 -0.6427  0.3495
  420TMC3    C6 6267   3.293   1.420  13.187 -0.0232  0.4035  0.4156
  420TMC3     C 6268   3.573   1.383  12.882 -0.4844  0.2771  0.3938
  420TMC3     O 6269   3.688   1.359  12.915  0.0262 -0.2287  0.3103
  420TMC3     H 6270   3.343   1.271  12.888 -2.5534 -0.9245  1.3034
  420TMC3    H1 6271   3.622   1.464  13.126 -0.7858  2.4274  0.6048
  420TMC3    H2 6272   3.227   1.429  13.273 -1.7891 -1.8390 -0.6774
  420TMC3    C7 6273   3.481   1.437  13.336  0.6083  0.0706 -0.3674
  420TMC3    C8 6274   3.130   1.320  13.030  0.2532  0.3028 -0.5106
  420TMC3    O1 6275   3.437   1.332  13.386 -0.0142  0.1404  0.1088
  420TMC3    O2 6276   3.106   1.327  12.910 -0.3632  0.4755  0.2143
  421TMC3    C1 6277   0.281   3.046  13.808 -0.1881 -0.1248  0.1097
  421TMC3    C2 6278   0.338   3.132  13.903 -0.2334 -0.1231  0.4900
  421TMC3    C3 6279   0.435   3.079  13.988  0.3494 -0.0266 -0.1436
  421TMC3    C4 6280   0.302   2.911  13.812 -0.8029  0.3459  0.6558
  421TMC3    C5 6281   0.394   2.867  13.896  0.0557  0.2670  1.1025
  421TMC3    C6 6282   0.464   2.949  13.980 -0.1487  0.2334  0.5548
  421TMC3     C 6283   0.184   3.098  13.716  0.3223 -1.1979  0.5554
  421TMC3     O 6284   0.177   3.221  13.714 -0.6303 -0.5622  0.7292
  421TMC3     H 6285   0.323   3.240  13.901  1.3701  0.1172  1.9942
  421TMC3    H1 6286   0.270   2.848  13.730  1.2123  0.3205 -0.1112
  421TMC3    H2 6287   0.536   2.906  14.049 -0.3699  1.5929  1.6472
  421TMC3    C7 6288   0.438   2.727  13.890  0.1395 -0.5483  0.3570
  421TMC3    C8 6289   0.488   3.154  14.106 -0.0458  0.3208  0.9330
  421TMC3    O1 6290   0.558   2.704  13.914 -0.4829 -0.3675  0.1200
  421TMC3    O2 6291   0.556   3.083  14.176  0.1939  0.3776 -0.2438
  422TMC3    C1 6292   2.720   3.904  12.658  0.1299  0.4921 -0.4393
  422TMC3    C2 6293   2.706   3.947  12.785 -0.6161 -0.4292 -0.1998
  422TMC3    C3 6294   2.615   3.880  12.861  0.6210  0.6388 -0.9182
  422TMC3    C4 6295   2.637   3.807  12.606  0.2270  0.3953 -0.0373
  422TMC3    C5 6296   2.537   3.764  12.684 -0.0157  0.0890  0.1493
  422TMC3    C6 6297   2.528   3.792  12.815  0.2258 -0.2226  0.5397
  422TMC3     C 6298   2.827   3.972  12.569  0.0924  0.7563  0.0858
  422TMC3     O 6299   2.840   4.091  12.579  0.3423 -0.0167 -0.5185
  422TMC3     H 6300   2.771   4.025  12.822 -0.6382 -0.6620  0.3371
  422TMC3    H1 6301   2.636   3.797  12.498 -1.0655 -1.4394  0.1482
  422TMC3    H2 6302   2.444   3.745  12.866  0.6518  0.3223  1.7545
  422TMC3    C7 6303   2.417   3.718  12.624  0.0434 -0.0942 -0.3808
  422TMC3    C8 6304   2.624   3.910  13.002  0.3825  0.2598 -0.6516
  422TMC3    O1 6305   2.423   3.668  12.514 -0.0074  0.1049 -0.1670
  422TMC3    O2 6306   2.691   4.005  13.043 -0.0618  0.3635  0.1872
  423MPD2     C 6307   4.267   4.693   0.847  0.0991 -0.1702  0.1941
  423MPD2    C1 6308   4.145   4.626   0.844  0.1036  0.1509 -0.6975
  423MPD2    C2 6309   4.052   4.654   0.747 -0.0788  0.1499  0.1250
  423MPD2    C3 6310   4.085   0.009   0.637 -0.6862  0.3841 -0.0124
  423MPD2    C4 6311   4.208   0.075   0.642  0.2225  0.4280 -0.2775
  423MPD2    C5 6312   4.293   0.066   0.751 -0.2401  0.1494 -0.5433
  423MPD2     H 6313   3.962   4.594   0.761  1.4405 -2.2455 -0.3402
  423MPD2    H1 6314   4.242   0.139   0.561 -1.9780  0.3325 -1.2787
  423MPD2    H2 6315   4.333   4.690   0.933  1.6251 -2.1421 -1.0387
  423MPD2    H3 6316   4.384   0.124   0.752 -0.0949 -0.0548 -2.1440
  423MPD2     N 6317   4.028   4.712   0.511  0.1647 -0.0913 -0.7857
  423MPD2    H5 6318   4.074   0.022   0.426  2.2649  1.5287  0.9609
  423MPD2    N1 6319   4.105   4.519   0.936 -0.4684 -0.2183  0.5560
  423MPD2    H7 6320   4.007   4.493   0.945  0.0415 -2.0389  0.7113
  424TMC3    C1 6321   4.150   4.338   1.088 -0.1754  0.8600  0.0954
  424TMC3    C2 6322   4.240   4.274   1.162 -0.5077  0.1573  0.5942
  424TMC3    C3 6323   4.200   4.154   1.224  0.0904  0.2541 -0.4235
  424TMC3    C4 6324   4.021   4.289   1.074  0.3547  0.1431 -0.1984
  424TMC3    C5 6325   3.982   4.178   1.145  0.1438  0.5618 -0.2554
  424TMC3    C6 6326   4.069   4.112   1.224  0.1837 -0.1255 -0.0350
  424TMC3     C 6327   4.193   4.464   1.026 -0.3331  0.5011  0.1111
  424TMC3     O 6328   4.307   4.496   1.057  0.3538 -0.2872  0.4618
  424TMC3     H 6329   4.343   4.307   1.171  0.2499 -2.2458  0.7279
  424TMC3    H1 6330   3.946   4.332   1.009  1.4126  0.7286 -1.0088
  424TMC3    H2 6331   4.046   4.024   1.282 -0.6818 -1.6820 -2.7654
  424TMC3    C7 6332   3.845   4.145   1.144 -0.4201 -0.3711 -0.0050
  424TMC3    C8 6333   4.297   4.054   1.282  0.4647  0.4644  0.4101
  424TMC3    O1 6334   3.824   4.032   1.195 -0.2558 -0.3560  0.3109
  424TMC3    O2 6335   4.265   3.963   1.356  0.3893 -0.4039  0.4933
  425MPD2     C 6336   2.584   4.274  17.270  0.9783  0.6697  0.0267
  425MPD2    C1 6337   2.561   4.176  17.173  0.4148  0.1770  0.2138
  425MPD2    C2 6338   2.431   4.168  17.120 -1.0021  0.0411 -0.2548
  425MPD2    C3 6339   2.328   4.249  17.162 -1.0851  0.3420 -0.8730
  425MPD2    C4 6340   2.350   4.337  17.265  0.3235 -0.2536 -0.0036
  425MPD2    C5 6341   2.479   4.345  17.317 -0.3570  0.6881 -0.8754
  425MPD2     H 6342   2.402   4.088  17.053 -0.5672  0.2052 -0.6462
  425MPD2    H1 6343   2.274   4.401  17.311  2.1805  0.8743  1.4988
  425MPD2    H2 6344   2.682   4.294  17.310  0.9715 -0.2789  0.5239
  425MPD2    H3 6345   2.489   4.425  17.389  1.0089 -0.4827  0.2422
  425MPD2     N 6346   2.194   4.219  17.108  0.0354  0.1082 -0.3008
  425MPD2    H5 6347   2.197   4.136  17.050  0.6673  1.5490 -2.3800
  425MPD2    N1 6348   2.657   4.085  17.153 -0.3581 -0.3166  0.5089
  425MPD2    H7 6349   2.745   4.100  17.201 -0.6168  1.3243  0.4800
  426TMC3    C1 6350   2.748   3.869  17.101  0.5271 -0.1472  0.7450
  426TMC3    C2 6351   2.787   3.803  16.987  0.3414  0.4026 -0.0956
  426TMC3    C3 6352   2.899   3.726  17.000  0.4607 -0.1404  0.3516
  426TMC3    C4 6353   2.810   3.867  17.224  0.0970  0.3359  0.6449
  426TMC3    C5 6354   2.923   3.786  17.224 -0.3272  0.2626 -0.2145
  426TMC3    C6 6355   2.971   3.718  17.112  0.4725  0.9789 -0.0715
  426TMC3     C 6356   2.641   3.970  17.076 -0.3034  0.6614 -1.1730
  426TMC3     O 6357   2.550   3.943  17.000 -0.8184 -0.7210 -0.1643
  426TMC3     H 6358   2.723   3.795  16.899 -0.6125 -3.0474  0.9110
  426TMC3    H1 6359   2.771   3.922  17.309 -1.7379  1.9245 -1.1998
  426TMC3    H2 6360   3.055   3.650  17.119  0.0493  0.4129 -0.5549
  426TMC3    C7 6361   2.977   3.745  17.354  0.0324  1.5708 -0.2797
  426TMC3    C8 6362   2.936   3.615  16.897  0.4619  0.5602 -0.2668
  426TMC3    O1 6363   3.084   3.689  17.356 -0.5115 -0.3776 -0.5895
  426TMC3    O2 6364   3.052   3.593  16.872  0.1486  0.3235 -0.5687
  427MPD2     C 6365   1.485   1.623  15.462  0.4903 -0.2471 -0.1525
  427MPD2    C1 6366   1.422   1.545  15.364  0.6165  0.3647  0.3834
  427MPD2    C2 6367   1.283   1.559  15.351 -0.1956  0.0692 -0.4106
  427MPD2    C3 6368   1.214   1.669  15.409  0.6636  0.7496  0.0819
  427MPD2    C4 6369   1.283   1.752  15.493 -0.4615 -0.7257 -0.1698
  427MPD2    C5 6370   1.414   1.728  15.522 -0.0801  0.4059  0.4378
  427MPD2     H 6371   1.237   1.501  15.272  1.5358 -1.0314 -0.6290
  427MPD2    H1 6372   1.226   1.826  15.549 -1.3778 -1.4422 -0.1632
  427MPD2    H2 6373   1.588   1.612  15.492  0.9553  0.1391 -1.5896
  427MPD2    H3 6374   1.458   1.787  15.602 -1.0441  0.8452  0.6444
  427MPD2     N 6375   1.073   1.700  15.399  0.4777  0.5454  0.1451
  427MPD2    H5 6376   1.039   1.788  15.435 -0.1124  0.6224 -0.6054
  427MPD2    N1 6377   1.497   1.442  15.295 -0.0151  0.1874  0.5417
  427MPD2    H7 6378   1.593   1.438  15.326 -0.5148 -0.8261  1.9717
  428TMC3    C1 6379   1.544   1.246  15.160 -0.3567  0.1126  0.3280
  428TMC3    C2 6380   1.509   1.148  15.062  0.1292  0.0104 -1.0742
  428TMC3    C3 6381   1.604   1.064  15.007  0.3921  0.4465 -0.7267
  428TMC3    C4 6382   1.678   1.267  15.191 -0.1900  0.0263 -0.5669
  428TMC3    C5 6383   1.771   1.172  15.141  0.6002 -0.0816 -0.5519
  428TMC3    C6 6384   1.738   1.085  15.043 -0.1357 -0.8401 -0.0159
  428TMC3     C 6385   1.452   1.352  15.198 -0.3429  0.6460 -0.3267
  428TMC3     O 6386   1.337   1.321  15.172 -0.0607 -0.3791 -0.0881
  428TMC3     H 6387   1.406   1.133  15.031 -0.2294 -0.7281  0.4176
  428TMC3    H1 6388   1.713   1.355  15.245  0.2658 -0.6401  0.2166
  428TMC3    H2 6389   1.811   1.009  15.016 -0.5917 -1.3401  0.1441
  428TMC3    C7 6390   1.911   1.198  15.183 -0.2089  0.1641  0.5347
  428TMC3    C8 6391   1.589   0.948  14.928 -0.1576  0.8520  0.5056
  428TMC3    O1 6392   1.933   1.220  15.300 -0.9301 -0.0971  0.2624
  428TMC3    O2 6393   1.690   0.904  14.874 -0.0314  0.5391  0.0965
  429MPD2     C 6394   2.310   1.315   0.062  0.0413 -0.1126 -0.8590
  429MPD2    C1 6395   2.372   1.253  17.646 -0.4769 -0.6665  0.3649
  429MPD2    C2 6396   2.474   1.326  17.589 -0.1592  0.0925  0.5287
  429MPD2    C3 6397   2.502   1.459  17.619 -0.5151  0.1779  0.7046
  429MPD2    C4 6398   2.437   1.516   0.031 -0.4796  0.3392  0.1851
  429MPD2    C5 6399   2.348   1.441   0.101  0.1322  0.5285  0.4143
  429MPD2     H 6400   2.532   1.265  17.521 -1.5731  0.6569 -1.2153
  429MPD2    H1 6401   2.445   1.619   0.061 -1.3201  0.2288  0.8092
  429MPD2    H2 6402   2.229   1.276   0.122 -1.0162  1.6694 -1.1326
  429MPD2    H3 6403   2.293   1.489   0.182 -0.1316  0.8764  0.0257
  429MPD2     N 6404   2.596   1.522  17.540 -0.0227 -0.3699  0.1141
  429MPD2    H5 6405   2.628   1.478  17.455 -1.4135  2.2296 -1.7278
  429MPD2    N1 6406   2.355   1.121  17.609  0.0242 -0.0021 -0.5730
  429MPD2    H7 6407   2.412   1.089  17.532 -0.0563 -2.6618  0.4786
  430TMC3    C1 6408   2.703   1.699  17.434 -0.1237  0.2181  0.2863
  430TMC3    C2 6409   2.665   1.818  17.372 -0.6438 -0.0444  0.5295
  430TMC3    C3 6410   2.729   1.851  17.247 -0.4278  0.3844 -0.4808
  430TMC3    C4 6411   2.779   1.608  17.366  0.6911  0.8629  0.4131
  430TMC3    C5 6412   2.833   1.644  17.248  0.3114 -0.4367 -0.5236
  430TMC3    C6 6413   2.824   1.768  17.191 -0.2888 -0.0554 -0.6162
  430TMC3     C 6414   2.624   1.659  17.544  0.3971 -0.1197  0.2496
  430TMC3     O 6415   2.561   1.752  17.596  0.4484 -0.1949  0.2851
  430TMC3     H 6416   2.581   1.873  17.413  0.4341  2.6308 -0.8158
  430TMC3    H1 6417   2.812   1.520  17.420 -0.0592  0.3668  0.0696
  430TMC3    H2 6418   2.865   1.787  17.092  1.4903  0.3020  0.1990
  430TMC3    C7 6419   2.886   1.529  17.175  0.1688  0.0911 -0.1913
  430TMC3    C8 6420   2.643   1.919  17.152 -0.3104 -0.4810  0.1019
  430TMC3    O1 6421   2.855   1.417  17.212 -0.2382  0.3705  0.0684
  430TMC3    O2 6422   2.662   1.886  17.037  0.4813 -0.2827  0.5093
  431MPD2     C 6423   3.294   1.907  12.442  0.0151  0.1148 -0.3726
  431MPD2    C1 6424   3.380   1.886  12.343 -0.6571 -0.3916 -0.4470
  431MPD2    C2 6425   3.341   1.793  12.248 -0.4598 -0.2526  0.4420
  431MPD2    C3 6426   3.236   1.704  12.278 -0.2431  0.6692  0.6511
  431MPD2    C4 6427   3.156   1.724  12.387  1.2944  0.8418 -0.1685
  431MPD2    C5 6428   3.189   1.832  12.467 -0.0857  0.2211 -0.0659
  431MPD2     H 6429   3.410   1.780  12.165  1.5658 -0.6874  2.1907
  431MPD2    H1 6430   3.079   1.651  12.411  0.7823  1.3750 -0.2094
  431MPD2    H2 6431   3.301   1.998  12.501 -2.6205  0.0976 -0.0369
  431MPD2    H3 6432   3.132   1.856  12.557 -0.6408 -3.6874  0.6620
  431MPD2     N 6433   3.199   1.588  12.202 -0.0172  0.5464  0.1274
  431MPD2    H5 6434   3.130   1.529  12.247  1.2279 -1.2973 -0.3871
  431MPD2    N1 6435   3.495   1.969  12.320 -0.2702 -0.4549 -0.4755
  431MPD2    H7 6436   3.532   1.957  12.226 -0.3943  3.1659 -0.9700
  432TMC3    C1 6437   3.232   1.403  12.044  0.1548 -0.1578 -0.3612
  432TMC3    C2 6438   3.254   1.387  11.910 -0.1850  0.8446 -0.0560
  432TMC3    C3 6439   3.351   1.298  11.874  0.2202 -0.4062  0.2126
  432TMC3    C4 6440   3.279   1.321  12.142  0.3969  0.6637  0.1914
  432TMC3    C5 6441   3.381   1.235  12.100 -0.4376 -0.6128  0.2598
  432TMC3    C6 6442   3.413   1.224  11.967 -0.4164 -0.3162  0.3696
  432TMC3     C 6443   3.250   1.544  12.086  0.1789 -0.3650 -0.9089
  432TMC3     O 6444   3.328   1.600  12.009 -0.3537  0.1828 -0.1001
  432TMC3     H 6445   3.216   1.461  11.840 -0.8831 -0.0066 -0.5638
  432TMC3    H1 6446   3.249   1.333  12.246  2.1278  1.5621  0.5734
  432TMC3    H2 6447   3.492   1.158  11.934  0.5984  1.4883 -0.8136
  432TMC3    C7 6448   3.495   1.212  12.188  0.3279  0.3757  0.0763
  432TMC3    C8 6449   3.412   1.304  11.745 -0.6146 -0.1439  0.1484
  432TMC3    O1 6450   3.597   1.176  12.134 -0.3918 -0.1113 -0.2483
  432TMC3    O2 6451   3.364   1.249  11.649  0.0823  0.2177  0.5274
  433MPD2     C 6452   2.845   0.664  10.669 -0.4743 -0.2315 -0.1499
  433MPD2    C1 6453   2.822   0.543  10.727  0.0629  0.3510  0.4622
  433MPD2    C2 6454   2.849   0.527  10.866 -1.3720 -0.4980  0.4456
  433MPD2    C3 6455   2.875   0.640  10.940  0.0614 -0.4534 -0.3580
  433MPD2    C4 6456   2.896   0.762  10.880  0.5820 -0.1053  0.4697
  433MPD2    C5 6457   2.891   0.775  10.743 -0.3598 -0.5140 -0.3330
  433MPD2     H 6458   2.846   0.427  10.910  2.1210 -1.1588 -0.7872
  433MPD2    H1 6459   2.919   0.858  10.924 -2.2746  0.9099 -0.2659
  433MPD2    H2 6460   2.854   0.670  10.561  2.4363  0.3984  0.1076
  433MPD2    H3 6461   2.900   0.876  10.705  1.2392 -0.2665  0.7082
  433MPD2     N 6462   2.891   0.624  11.081 -0.4413 -0.0794 -0.2663
  433MPD2    H5 6463   2.879   0.528  11.111 -0.1039 -0.6342 -1.9009
  433MPD2    N1 6464   2.798   0.430  10.649  0.3028  0.1055  0.1272
  433MPD2    H7 6465   2.807   0.448  10.549 -2.3983  0.7722 -0.0229
  434TMC3    C1 6466   2.779   0.215  10.583  0.1002  0.1948 -0.0411
  434TMC3    C2 6467   2.898   0.141  10.568 -0.6136  0.2356 -0.4942
  434TMC3    C3 6468   2.890   0.004  10.555 -0.0763 -0.3814 -0.4990
  434TMC3    C4 6469   2.657   0.151  10.577 -0.3846  0.2747  0.0909
  434TMC3    C5 6470   2.659   0.014  10.557  0.0154 -0.1635  0.3883
  434TMC3    C6 6471   2.769   4.661  10.559  0.5873  0.2370 -0.6119
  434TMC3     C 6472   2.777   0.304  10.691  0.0947 -0.9341 -0.8088
  434TMC3     O 6473   2.768   0.247  10.800 -0.2579  0.1222 -0.5072
  434TMC3     H 6474   2.992   0.194  10.576 -0.2804 -0.3607 -0.4505
  434TMC3    H1 6475   2.570   0.209  10.607 -0.6159  0.2507 -0.5392
  434TMC3    H2 6476   2.762   4.556  10.532 -3.0307  0.2767  0.0868
  434TMC3    C7 6477   2.541   4.670  10.596 -1.0402  0.1300  0.6866
  434TMC3    C8 6478   2.990   4.648  10.625 -0.0852 -0.2029  0.1806
  434TMC3    O1 6479   2.434   0.003  10.578 -0.0975 -0.2556 -0.3109
  434TMC3    O2 6480   2.947   4.559  10.698 -0.0395 -0.4900  0.0554
  435MPD2     C 6481   4.238   0.305  15.434  1.1459 -0.2758 -0.3539
  435MPD2    C1 6482   4.232   0.325  15.574 -0.5427 -0.2454 -0.4715
  435MPD2    C2 6483   4.339   0.283  15.649 -0.1844  0.1141 -0.5338
  435MPD2    C3 6484   4.452   0.226  15.598  0.6027  0.1749  0.4873
  435MPD2    C4 6485   4.462   0.225  15.456 -0.3492 -0.8142 -0.0968
  435MPD2    C5 6486   4.355   0.249  15.375 -0.4633  0.1086 -0.7736
  435MPD2     H 6487   4.338   0.295  15.757 -0.0174 -0.0551 -0.5132
  435MPD2    H1 6488   4.552   0.185  15.410 -0.4175 -2.9344  1.5884
  435MPD2    H2 6489   4.162   0.327  15.360  0.4984  0.3732  0.5084
  435MPD2    H3 6490   4.367   0.226  15.269  0.5135 -1.3388 -0.3541
  435MPD2     N 6491   4.550   0.179  15.683 -0.5265 -0.2026 -0.2864
  435MPD2    H5 6492   4.530   0.194  15.782 -1.5214 -1.1228 -0.3481
  435MPD2    N1 6493   4.110   0.342  15.641  0.3526 -0.1924 -0.3101
  435MPD2    H7 6494   4.110   0.325  15.741 -1.1469  0.7282 -0.1534
  436TMC3    C1 6495   3.774   0.380  15.860  0.3254 -0.0458 -0.1102
  436TMC3    C2 6496   3.888   0.354  15.785 -0.6653  0.0875  0.3522
  436TMC3    C3 6497   3.914   0.447  15.682 -0.2920 -0.2160  0.6011
  436TMC3    C4 6498   3.696   0.489  15.835  0.3412 -0.5804 -0.4365
  436TMC3    C5 6499   3.725   0.579  15.735  0.0189  0.4678  0.0808
  436TMC3    C6 6500   3.836   0.558  15.656 -0.4324  0.2469  0.0664
  436TMC3     C 6501   3.767   0.311  15.990  0.6218 -1.0116 -0.6399
  436TMC3     O 6502   3.835   0.210  16.012 -0.0211  0.0271 -0.0538
  436TMC3     H 6503   3.942   0.266  15.815  0.7833  0.5304 -0.9665
  436TMC3    H1 6504   3.603   0.492  15.891 -0.2158 -0.4118 -1.3723
  436TMC3    H2 6505   3.852   0.621  15.569 -0.7442  1.0667  0.6020
  436TMC3    C7 6506   3.613   0.662  15.695 -0.3928  0.2484 -0.5838
  436TMC3    C8 6507   4.013   0.416  15.581 -0.2051 -0.2947 -0.2486
  436TMC3    O1 6508   3.503   0.640  15.739 -0.0355 -0.2014 -0.1655
  436TMC3    O2 6509   4.007   0.454  15.464  0.3238 -0.2355  0.5274
  437TMC3    C1 6510   3.273   2.146  12.008 -0.0198 -0.1992  0.0510
  437TMC3    C2 6511   3.167   2.093  12.080 -1.0581  0.5103  0.0023
  437TMC3    C3 6512   3.079   2.182  12.139 -0.1781 -0.1877 -0.5950
  437TMC3    C4 6513   3.304   2.281  12.004  0.1436  0.5802  1.0296
  437TMC3    C5 6514   3.208   2.360  12.052  0.3530 -0.3867 -0.6956
  437TMC3    C6 6515   3.100   2.315  12.114  0.0400 -0.0377  0.6104
  437TMC3     C 6516   3.353   2.051  11.934  0.0558 -0.6498  0.6253
  437TMC3     O 6517   3.334   1.936  11.972 -0.0706 -0.0073 -0.2053
  437TMC3     H 6518   3.155   1.985  12.074  0.5466  0.2127  2.0559
  437TMC3    H1 6519   3.378   2.325  11.939  1.0952 -1.2127  0.9090
  437TMC3    H2 6520   3.025   2.387  12.144  0.4471  1.4212 -1.8408
  437TMC3    C7 6521   3.229   2.508  12.054 -0.4699 -0.0356  0.8570
  437TMC3    C8 6522   2.963   2.130  12.210 -0.2973  0.4918  0.3699
  437TMC3    O1 6523   3.130   2.576  12.045  0.3455 -0.0327 -0.0644
  437TMC3    O2 6524   2.884   2.210  12.243 -0.4923  0.1154  0.0198
  438MPD2     C 6525   0.120   2.966  16.833 -0.2815 -0.8669  0.2694
  438MPD2    C1 6526   0.220   2.877  16.858 -0.2840 -0.3892 -0.2663
  438MPD2    C2 6527   0.215   2.809  16.979  0.8845 -0.7560 -0.1202
  438MPD2    C3 6528   0.108   2.837  17.067  0.6558  0.2563 -0.2245
  438MPD2    C4 6529   0.006   2.923  17.030 -0.2732  0.3865  0.5384
  438MPD2    C5 6530   0.015   2.990  16.907 -0.7192 -0.1684  0.9050
  438MPD2     H 6531   0.294   2.738  16.999  0.4917 -1.2861 -0.4785
  438MPD2    H1 6532   4.643   2.942  17.094 -0.8789 -0.2808 -0.0662
  438MPD2    H2 6533   0.120   3.023  16.741 -1.3304  0.2977  0.9935
  438MPD2    H3 6534   4.664   3.061  16.872 -0.1279  0.3216  0.6522
  438MPD2     N 6535   0.110   2.788  17.202 -0.1264  0.1168 -0.1957
  438MPD2    H5 6536   0.053   2.834  17.272 -1.1878 -1.8927  0.2368
  438MPD2    N1 6537   0.334   2.851  16.784  0.2995 -0.1233  0.5839
  438MPD2    H7 6538   0.387   2.767  16.808 -0.5917 -0.5392  1.0917
  439TMC3    C1 6539   0.502   2.881  16.621  0.0821  0.1973 -0.3932
  439TMC3    C2 6540   0.536   2.918  16.497  0.4387 -0.1794 -0.8025
  439TMC3    C3 6541   0.670   2.919  16.466 -0.8461  0.0819  0.8573
  439TMC3    C4 6542   0.590   2.829  16.712 -0.1399  0.3424 -1.1538
  439TMC3    C5 6543   0.718   2.809  16.667  0.4540  0.0849  0.5090
  439TMC3    C6 6544   0.763   2.863  16.552 -0.1316 -0.4880 -0.0196
  439TMC3     C 6545   0.364   2.916  16.671  0.4352  0.3581 -0.0397
  439TMC3     O 6546   0.308   3.007  16.612 -0.2896 -0.1381  0.1254
  439TMC3     H 6547   0.453   2.934  16.429 -0.2040  0.0731  0.0450
  439TMC3    H1 6548   0.569   2.817  16.818  3.1459 -0.6518 -0.6278
  439TMC3    H2 6549   0.869   2.862  16.528 -0.5498  1.4669 -1.9400
  439TMC3    C7 6550   0.810   2.727  16.741  0.4931  0.2183 -0.3986
  439TMC3    C8 6551   0.693   2.929  16.327  0.6656 -0.6854 -0.9644
  439TMC3    O1 6552   0.928   2.754  16.737 -0.0753  0.3400 -0.1023
  439TMC3    O2 6553   0.623   2.994  16.250  0.4412  0.1123 -0.3412
  440MPD2     C 6554   4.504   3.859  14.536 -0.5441 -0.5172 -0.6583
  440MPD2    C1 6555   4.415   3.795  14.615 -0.0036 -0.1891 -0.4503
  440MPD2    C2 6556   4.472   3.727  14.721  0.4852 -0.2612 -0.0727
  440MPD2    C3 6557   4.606   3.726  14.747 -0.0217 -0.6257 -0.1619
  440MPD2    C4 6558   4.685   3.802  14.667  0.0390 -0.5576 -0.3420
  440MPD2    C5 6559   4.634   3.876  14.566  0.5528  0.3536  0.4595
  440MPD2     H 6560   4.406   3.671  14.786 -0.6256  2.4774  1.1569
  440MPD2    H1 6561   0.070   3.811  14.679 -0.3452  0.9392  1.9098
  440MPD2    H2 6562   4.461   3.923  14.459  1.2559  0.0422 -1.2087
  440MPD2    H3 6563   4.696   3.941  14.505 -1.1197  1.4652 -0.0271
  440MPD2     N 6564   4.666   3.670  14.859 -0.4190  0.1619  0.1583
  440MPD2    H5 6565   0.043   3.683  14.878  0.1475 -2.8744 -0.6799
  440MPD2    N1 6566   4.279   3.792  14.597  0.0273 -0.1052 -0.0564
  440MPD2    H7 6567   4.230   3.746  14.674 -0.4618  1.0279  0.3100
  441TMC3    C1 6568   4.696   3.528  15.052 -0.5111  0.1678  0.2209
  441TMC3    C2 6569   0.083   3.601  15.092  0.4300 -0.1073 -0.0827
  441TMC3    C3 6570   0.128   3.575  15.222 -0.3905  0.6743 -0.4479
  441TMC3    C4 6571   4.657   3.413  15.115  0.0306  0.0318  0.3426
  441TMC3    C5 6572   0.000   3.380  15.230  0.2391  0.5536 -0.0741
  441TMC3    C6 6573   0.087   3.462  15.288 -0.0885  0.6695  0.1534
  441TMC3     C 6574   4.612   3.575  14.940 -0.0187 -0.2149 -0.1787
  441TMC3     O 6575   4.501   3.516  14.927  0.2722  0.4457 -0.5778
  441TMC3     H 6576   0.106   3.701  15.057  1.4277 -0.3253 -0.0521
  441TMC3    H1 6577   4.574   3.353  15.078  1.7678 -2.7573  0.9949
  441TMC3    H2 6578   0.111   3.461  15.394  2.8353 -1.2805 -0.5304
  441TMC3    C7 6579   4.663   3.287  15.327 -0.9621  0.8225  0.0687
  441TMC3    C8 6580   0.153   3.687  15.305 -0.0619 -0.2682  0.4190
  441TMC3    O1 6581   4.540   3.282  15.328 -0.3237  0.3419 -0.1593
  441TMC3    O2 6582   0.251   3.757  15.281  0.6669  0.1756  0.0991
  442MPD2     C 6583   2.503   4.025  16.340 -0.2079  0.8307  0.1390
  442MPD2    C1 6584   2.388   3.954  16.353 -0.1586 -0.3338 -0.8683
  442MPD2    C2 6585   2.394   3.814  16.352  0.3452 -0.0805 -0.1912
  442MPD2    C3 6586   2.512   3.745  16.341  0.5282 -0.2956 -0.5211
  442MPD2    C4 6587   2.624   3.822  16.322 -0.2123  0.1465 -0.2248
  442MPD2    C5 6588   2.621   3.959  16.328  0.7458 -0.7640 -0.4291
  442MPD2     H 6589   2.301   3.759  16.364  1.4044 -1.5727  1.1383
  442MPD2    H1 6590   2.724   3.778  16.316  0.5483  1.8292  0.1777
  442MPD2    H2 6591   2.515   4.133  16.347 -1.8962  1.1625 -2.0481
  442MPD2    H3 6592   2.713   4.016  16.341 -0.2403  0.9057 -0.7674
  442MPD2     N 6593   2.524   3.600  16.338  0.3032 -0.1977  0.7001
  442MPD2    H5 6594   2.620   3.567  16.336 -0.4165 -2.0479 -2.0368
  442MPD2    N1 6595   2.267   4.025  16.356 -0.4963 -0.0461  0.4978
  442MPD2    H7 6596   2.184   3.977  16.324 -0.2121  0.5703 -1.1487
  443TMC3    C1 6597   2.112   4.199  16.410 -0.0259 -0.4759  0.0470
  443TMC3    C2 6598   2.032   4.170  16.306  0.5883 -0.2485  0.8766
  443TMC3    C3 6599   1.896   4.203  16.308  0.0300  0.7416 -0.7880
  443TMC3    C4 6600   2.054   4.229  16.529 -0.6277  0.2632  0.0227
  443TMC3    C5 6601   1.923   4.260  16.534 -0.5886 -0.7546  0.3487
  443TMC3    C6 6602   1.844   4.240  16.426 -0.1699 -0.0897  0.2108
  443TMC3     C 6603   2.253   4.151  16.404 -0.2033 -0.3696 -0.1697
  443TMC3     O 6604   2.331   4.204  16.481  0.5919 -0.0623  0.0739
  443TMC3     H 6605   2.081   4.157  16.210 -2.2573 -2.9292 -0.1900
  443TMC3    H1 6606   2.115   4.240  16.619 -0.5106 -2.7140  0.3139
  443TMC3    H2 6607   1.736   4.244  16.428 -0.1400  0.3045  1.0456
  443TMC3    C7 6608   1.858   4.213  16.647 -0.4881 -0.9458 -0.5039
  443TMC3    C8 6609   1.819   4.108  16.228  0.2462  0.4787 -0.2220
  443TMC3    O1 6610   1.920   4.139  16.722 -0.3653 -0.1476 -0.1217
  443TMC3    O2 6611   1.782   4.013  16.294 -0.4483  0.2854 -0.1735
  444MPD2     C 6612   2.788   3.019  17.022 -0.2455 -0.4410 -0.2170
  444MPD2    C1 6613   2.715   2.965  16.924 -0.6325  0.3117  0.2902
  444MPD2    C2 6614   2.772   2.866  16.844  0.5941  0.1896  0.9094
  444MPD2    C3 6615   2.899   2.817  16.869 -0.1845 -0.7871 -0.2167
  444MPD2    C4 6616   2.974   2.874  16.971 -0.2343  0.1446 -1.1009
  444MPD2    C5 6617   2.916   2.977  17.043  0.2674  0.3540 -0.7723
  444MPD2     H 6618   2.705   2.824  16.770  1.2103  0.4108  0.2215
  444MPD2    H1 6619   3.079   2.856  16.991 -0.4585 -0.7723 -0.7301
  444MPD2    H2 6620   2.750   3.097  17.088  1.4854 -2.5872  3.2906
  444MPD2    H3 6621   2.978   3.020  17.121  0.4815  3.2238 -2.5415
  444MPD2     N 6622   2.943   2.704  16.799  0.4066 -0.3957 -0.7871
  444MPD2    H5 6623   2.878   2.661  16.735  1.1887  2.5197 -3.5721
  444MPD2    N1 6624   2.576   3.000  16.914 -0.6197  0.0345  0.1115
  444MPD2    H7 6625   2.536   2.956  16.832 -0.7949  2.3805 -1.0537
  445TMC3    C1 6626   3.102   2.535  16.737 -0.0500 -0.2637 -0.5785
  445TMC3    C2 6627   3.012   2.472  16.654 -0.7953 -0.2899  0.0252
  445TMC3    C3 6628   3.048   2.365  16.573  0.0594 -0.3030 -0.5756
  445TMC3    C4 6629   3.226   2.484  16.747  0.1223 -0.2975  0.0651
  445TMC3    C5 6630   3.255   2.375  16.670 -0.4510  0.4104 -0.3545
  445TMC3    C6 6631   3.175   2.313  16.578 -0.7555 -0.3737  0.7840
  445TMC3     C 6632   3.064   2.639  16.830 -0.0556 -0.4062  0.5692
  445TMC3     O 6633   3.154   2.673  16.906 -0.7030  0.2026 -0.4089
  445TMC3     H 6634   2.910   2.506  16.640 -2.1355 -4.7689 -1.3298
  445TMC3    H1 6635   3.312   2.530  16.795 -0.0728 -0.1130  0.2381
  445TMC3    H2 6636   3.222   2.249  16.504 -1.1360  0.0121  0.2138
  445TMC3    C7 6637   3.396   2.358  16.640 -0.5557 -0.1607  0.0072
  445TMC3    C8 6638   2.941   2.273  16.527 -0.2783  0.3883  0.2913
  445TMC3    O1 6639   3.452   2.461  16.614 -0.5674  0.0390 -0.3721
  445TMC3    O2 6640   2.824   2.313  16.538 -0.1446 -0.5479 -0.4453
  446MPD2     C 6641   2.587   4.523  11.178  0.1320 -0.6579 -0.4887
  446MPD2    C1 6642   2.549   4.614  11.078 -0.1856  0.0803  0.1819
  446MPD2    C2 6643   2.643   4.704  11.026  0.4729  0.0738 -0.0077
  446MPD2    C3 6644   2.776   4.695  11.052 -0.6604 -0.1761  0.2108
  446MPD2    C4 6645   2.811   4.600  11.144  0.0722 -1.0618  0.4713
  446MPD2    C5 6646   2.722   4.519  11.203 -0.6433  0.2374 -0.0738
  446MPD2     H 6647   2.613   0.059  10.956  1.3517 -0.9430 -1.5208
  446MPD2    H1 6648   2.913   4.593  11.180  0.3287 -0.0315 -0.0202
  446MPD2    H2 6649   2.526   4.449  11.228  0.5003 -0.7803 -0.2170
  446MPD2    H3 6650   2.766   4.445  11.270 -2.6855 -1.1632 -0.3083
  446MPD2     N 6651   2.873   0.060  10.996 -0.7664 -0.2680 -0.4142
  446MPD2    H5 6652   2.838   0.143  10.948  0.2002  0.5920  0.3623
  446MPD2    N1 6653   2.418   4.616  11.030 -0.1000 -0.5411 -0.3332
  446MPD2    H7 6654   2.401   4.682  10.954 -0.0673  1.4256  1.3785
  447TMC3    C1 6655   3.089   0.162  10.988  0.1911 -0.2372 -0.3497
  447TMC3    C2 6656   3.096   0.215  10.862  0.3259  0.1377 -0.0348
  447TMC3    C3 6657   3.217   0.268  10.819  0.0649 -0.2685  0.0381
  447TMC3    C4 6658   3.207   0.159  11.062  0.5255 -0.0930 -0.5790
  447TMC3    C5 6659   3.321   0.220  11.017 -0.2956 -0.1773  0.0056
  447TMC3    C6 6660   3.327   0.272  10.894 -0.0548  0.5103 -0.5057
  447TMC3     C 6661   3.009   0.045  11.011 -0.2708 -0.0307 -0.3960
  447TMC3     O 6662   3.075   4.672  11.052  0.2821  0.2069 -0.2278
  447TMC3     H 6663   3.019   0.206  10.787 -1.4602 -0.8635  1.8970
  447TMC3    H1 6664   3.204   0.110  11.159 -3.0972  0.0532 -0.6030
  447TMC3    H2 6665   3.419   0.315  10.857 -0.2593  0.1805 -1.4025
  447TMC3    C7 6666   3.439   0.235  11.103 -0.2315 -0.3175  0.4703
  447TMC3    C8 6667   3.200   0.337  10.694  0.5305  0.6286  0.1387
  447TMC3    O1 6668   3.548   0.237  11.042  0.2829  0.3196 -0.4291
  447TMC3    O2 6669   3.102   0.409  10.678  0.2717 -0.5223  0.6821
  448TMC3    C1 6670   0.618   4.589  17.159 -0.6082  0.3440 -0.9750
  448TMC3    C2 6671   0.632   4.484  17.071  0.4482 -0.1805 -0.5376
  448TMC3    C3 6672   0.730   4.387  17.092 -0.3538 -0.3797  0.0563
  448TMC3    C4 6673   0.702   4.597  17.263 -0.2520 -0.2265  0.5037
  448TMC3    C5 6674   0.794   4.497  17.282  0.0515  0.1480  0.0264
  448TMC3    C6 6675   0.806   4.386  17.203  0.2360 -0.2890 -0.1815
  448TMC3     C 6676   0.502   4.682  17.162  0.1545  0.5991  0.4018
  448TMC3     O 6677   0.408   4.654  17.086 -0.6966 -0.0201  0.1059
  448TMC3     H 6678   0.566   4.478  16.986  0.4486  0.5433 -0.5951
  448TMC3    H1 6679   0.697   4.676  17.337  0.9541 -0.5526  0.9268
  448TMC3    H2 6680   0.891   4.320  17.211 -1.0471 -1.8708  0.4071
  448TMC3    C7 6681   0.817   4.487  17.427 -0.0967  0.0717 -0.3047
  448TMC3    C8 6682   0.711   4.249  17.038  0.3594 -0.6417 -0.0250
  448TMC3    O1 6683   0.843   4.586  17.499 -0.0773 -0.0184 -0.1282
  448TMC3    O2 6684   0.754   4.165  17.114  0.3393  0.1371 -0.2281
  449MPD2     C 6685   2.353   2.201  13.850  0.7684  0.6836 -0.2295
  449MPD2    C1 6686   2.241   2.159  13.782  0.0716  0.6522  0.0647
  449MPD2    C2 6687   2.120   2.167  13.845  0.0489 -0.2151  0.1034
  449MPD2    C3 6688   2.114   2.238  13.969 -0.3115 -0.3137 -0.7900
  449MPD2    C4 6689   2.226   2.264  14.039 -0.3176 -0.4296  0.3671
  449MPD2    C5 6690   2.351   2.243  13.981  1.1589  0.0266 -0.1395
  449MPD2     H 6691   2.035   2.131  13.790 -0.5511  1.0205  0.2203
  449MPD2    H1 6692   2.223   2.298  14.142  0.6908  0.1723  0.2076
  449MPD2    H2 6693   2.454   2.184  13.816  0.5604  0.2479 -0.6280
  449MPD2    H3 6694   2.446   2.252  14.032  0.5212  1.0710  0.8615
  449MPD2     N 6695   1.984   2.245  14.020  1.0044  0.2939 -0.6197
  449MPD2    H5 6696   1.910   2.219  13.956  0.3764 -0.4162  0.3984
  449MPD2    N1 6697   2.235   2.113  13.652  0.2881  0.0059  0.0293
  449MPD2    H7 6698   2.140   2.098  13.618  1.2241 -0.7126 -2.2666
  450TMC3    C1 6699   2.286   2.030  13.450 -0.0755 -0.1531  0.2630
  450TMC3    C2 6700   2.334   1.905  13.426  0.0060  0.6150 -0.6728
  450TMC3    C3 6701   2.242   1.805  13.398  0.0749  0.0703  0.1913
  450TMC3    C4 6702   2.155   2.057  13.428  0.7623 -0.1464 -0.0672
  450TMC3    C5 6703   2.064   1.960  13.394 -0.4731  0.2782  0.1536
  450TMC3    C6 6704   2.104   1.831  13.394  1.2311  0.6254 -0.1524
  450TMC3     C 6705   2.335   2.091  13.572  0.3285 -0.4470 -0.6814
  450TMC3     O 6706   2.456   2.076  13.593  0.7123 -0.2686 -0.0780
  450TMC3     H 6707   2.441   1.895  13.438 -0.5253 -1.0381  2.6715
  450TMC3    H1 6708   2.117   2.159  13.426 -0.0831 -0.4560  0.4082
  450TMC3    H2 6709   2.034   1.756  13.360  5.2313 -2.2881 -1.9177
  450TMC3    C7 6710   1.945   1.985  13.472  0.6145 -0.3723 -0.3955
  450TMC3    C8 6711   2.282   1.690  13.318  0.3347  0.4386 -0.5585
  450TMC3    O1 6712   1.954   2.079  13.556  0.0526 -0.2001  0.4751
  450TMC3    O2 6713   2.214   1.588  13.323  0.0544  0.5273  0.2421
  451MPD2     C 6714   2.523   1.662   1.439  0.2017 -0.3884 -0.2734
  451MPD2    C1 6715   2.661   1.650   1.468  0.5772  0.7550  0.4909
  451MPD2    C2 6716   2.740   1.562   1.392  0.0195 -0.0272  0.3008
  451MPD2    C3 6717   2.681   1.505   1.282 -0.1381 -0.2561  0.0763
  451MPD2    C4 6718   2.547   1.520   1.250 -0.8882 -0.2535  0.0202
  451MPD2    C5 6719   2.470   1.603   1.322 -0.4437  0.6197  0.2710
  451MPD2     H 6720   2.848   1.559   1.397  0.0883  0.7599 -0.6732
  451MPD2    H1 6721   2.504   1.474   1.162  1.4700  2.4008 -2.5262
  451MPD2    H2 6722   2.463   1.722   1.507  0.7993 -0.3108  0.1957
  451MPD2    H3 6723   2.367   1.631   1.302 -0.8466  0.6490  2.4067
  451MPD2     N 6724   2.751   1.418   1.199 -0.1710 -0.2551  0.5093
  451MPD2    H5 6725   2.704   1.385   1.116  1.0799  1.2665 -0.7948
  451MPD2    N1 6726   2.718   1.730   1.568 -0.5489  0.1705 -0.1849
  451MPD2    H7 6727   2.656   1.803   1.601 -0.6814  0.0251 -0.1149
  452TMC3    C1 6728   2.918   1.270   1.116  0.2795 -0.1716 -0.1006
  452TMC3    C2 6729   3.002   1.173   1.147  0.6328  0.1958  1.2112
  452TMC3    C3 6730   3.079   1.115   1.050 -0.3430  0.4198  0.5029
  452TMC3    C4 6731   2.896   1.303   0.988  0.2420 -0.2783 -0.4768
  452TMC3    C5 6732   2.969   1.247   0.889 -0.1014 -0.6469 -0.3022
  452TMC3    C6 6733   3.068   1.157   0.917 -0.3192 -0.3217 -0.0537
  452TMC3     C 6734   2.868   1.355   1.230  1.0909  0.1501 -0.4567
  452TMC3     O 6735   2.930   1.353   1.338  0.5397  0.0945  0.2974
  452TMC3     H 6736   3.026   1.153   1.251 -0.1024 -1.7440  1.0033
  452TMC3    H1 6737   2.830   1.386   0.967  1.2709  0.6750  0.0688
  452TMC3    H2 6738   3.122   1.109   0.836  0.5240  2.9260 -1.3876
  452TMC3    C7 6739   2.974   1.302   0.756  0.4805  0.6777 -0.3726
  452TMC3    C8 6740   3.211   1.089   1.096 -0.1918  0.5517  0.5269
  452TMC3    O1 6741   3.038   1.236   0.675 -0.0719 -0.0904  0.2794
  452TMC3    O2 6742   3.223   1.034   1.204 -0.0566  0.1999 -0.0127
  453TMC3    C1 6743   0.345   3.323  11.729  0.5311  0.1726  0.3194
  453TMC3    C2 6744   0.221   3.273  11.755 -0.1246  0.1265 -0.4782
  453TMC3    C3 6745   0.124   3.254  11.656 -0.5817 -0.0853  0.0915
  453TMC3    C4 6746   0.379   3.339  11.595  0.3216 -0.4172 -0.0911
  453TMC3    C5 6747   0.275   3.342  11.501 -0.2276 -1.0107  0.0553
  453TMC3    C6 6748   0.145   3.310  11.531  0.0822 -1.2234 -0.4710
  453TMC3     C 6749   0.373   3.440  11.801 -0.7604  0.0141  0.0215
  453TMC3     O 6750   0.429   3.528  11.740  0.1474 -0.2303  0.0221
  453TMC3     H 6751   0.168   3.273  11.850  0.9054 -0.3592  0.0984
  453TMC3    H1 6752   0.476   3.377  11.566  0.8908 -0.8904  1.1949
  453TMC3    H2 6753   0.073   3.297  11.451 -0.3151  1.5790 -0.5697
  453TMC3    C7 6754   0.298   3.423  11.379 -0.1674  0.3287  0.8310
  453TMC3    C8 6755   0.059   3.124  11.648 -0.4633 -0.1857 -0.3749
  453TMC3    O1 6756   0.397   3.500  11.378  0.7857  0.3633  0.0146
  453TMC3    O2 6757   0.039   3.090  11.534  0.4449 -0.0868 -0.2371
  454MPD2     C 6758   3.754   2.591  16.472  0.4687 -0.4987 -0.0805
  454MPD2    C1 6759   3.678   2.710  16.461  0.1198  0.5212  0.4713
  454MPD2    C2 6760   3.652   2.780  16.574  0.2196  0.5863  0.6293
  454MPD2    C3 6761   3.664   2.725  16.703 -0.0731  0.0168  0.3403
  454MPD2    C4 6762   3.727   2.602  16.709  0.3439  0.3432 -0.0088
  454MPD2    C5 6763   3.777   2.540  16.597  0.0145 -0.2038  0.6203
  454MPD2     H 6764   3.597   2.873  16.564 -3.3603 -1.5172  0.7119
  454MPD2    H1 6765   3.741   2.562  16.809 -0.2028  0.7342  0.2237
  454MPD2    H2 6766   3.799   2.548  16.383  0.2622  0.1595 -0.5046
  454MPD2    H3 6767   3.839   2.451  16.599  1.8788  1.1070  0.6888
  454MPD2     N 6768   3.592   2.767  16.821  0.6812 -0.1839  0.1710
  454MPD2    H5 6769   3.645   2.734  16.901  1.1125  1.0653  0.4041
  454MPD2    N1 6770   3.619   2.755  16.342 -0.3043  0.3628  0.6239
  454MPD2    H7 6771   3.590   2.853  16.341  2.6201  1.2130  0.0858
  455TMC3    C1 6772   3.406   2.897  16.731  0.1397 -0.1609 -0.1929
  455TMC3    C2 6773   3.337   3.013  16.741 -0.0187  0.3000 -0.6153
  455TMC3    C3 6774   3.223   3.035  16.674 -0.3672 -0.2519  0.1780
  455TMC3    C4 6775   3.357   2.797  16.649  0.5808 -0.0898 -0.2355
  455TMC3    C5 6776   3.245   2.827  16.576 -0.2975  0.0115 -0.9137
  455TMC3    C6 6777   3.176   2.947  16.580  0.0351 -0.9512 -0.5209
  455TMC3     C 6778   3.502   2.874  16.836  0.3910 -0.4669  0.7664
  455TMC3     O 6779   3.472   2.930  16.942 -1.1863  0.4751  0.2689
  455TMC3     H 6780   3.369   3.097  16.802  1.9375 -0.7318 -0.2324
  455TMC3    H1 6781   3.406   2.702  16.629 -1.0213 -0.8690 -0.4335
  455TMC3    H2 6782   3.087   2.968  16.521 -0.1348 -0.1060  0.0328
  455TMC3    C7 6783   3.200   2.733  16.465 -0.0128  0.0013  0.4332
  455TMC3    C8 6784   3.147   3.158  16.696  0.1656 -0.1001  0.3374
  455TMC3    O1 6785   3.096   2.767  16.413 -0.4148 -0.0611  0.3384
  455TMC3    O2 6786   3.204   3.248  16.753  0.3768  0.3574 -0.5889
  456MPD2     C 6787   1.015   3.110  16.305  0.7465 -0.2054  0.0076
  456MPD2    C1 6788   1.073   3.057  16.420 -0.1856  0.1535 -0.5971
  456MPD2    C2 6789   1.019   3.092  16.547 -0.0615  0.3806 -0.5349
  456MPD2    C3 6790   0.916   3.181  16.557  0.0013 -0.1905 -0.8892
  456MPD2    C4 6791   0.858   3.223  16.436  0.1401 -0.0506  0.2094
  456MPD2    C5 6792   0.915   3.198  16.315  0.5275  0.1582 -0.1175
  456MPD2     H 6793   1.066   3.059  16.639 -3.0432 -1.0142  0.4532
  456MPD2    H1 6794   0.776   3.294  16.434 -0.7839 -1.1831 -1.5005
  456MPD2    H2 6795   1.051   3.085  16.206 -2.0770  0.7933 -1.2811
  456MPD2    H3 6796   0.864   3.242  16.230  1.6189 -0.2648 -0.9933
  456MPD2     N 6797   0.871   3.220  16.685 -0.1385  0.5268  0.0612
  456MPD2    H5 6798   0.931   3.199  16.763  1.0787 -1.3770 -1.3811
  456MPD2    N1 6799   1.192   2.982  16.408 -0.2240 -0.2594  0.4948
  456MPD2    H7 6800   1.212   2.955  16.312 -0.5095  3.1707 -0.5295
  457TMC3    C1 6801   0.763   3.361  16.849  0.8590  0.0225 -0.5530
  457TMC3    C2 6802   0.712   3.486  16.844  0.4878 -0.2239  0.2808
  457TMC3    C3 6803   0.733   3.581  16.946 -0.7742 -0.3156 -0.2462
  457TMC3    C4 6804   0.853   3.325  16.948  0.4530  0.5781 -0.3345
  457TMC3    C5 6805   0.870   3.418  17.050  0.3189  0.3506 -0.0815
  457TMC3    C6 6806   0.813   3.542  17.049  0.0842 -0.5224 -0.3222
  457TMC3     C 6807   0.758   3.290  16.719  0.3240  0.4127 -0.0044
  457TMC3     O 6808   0.665   3.312  16.644  0.1102  0.0143 -0.6382
  457TMC3     H 6809   0.671   3.515  16.748  0.3960 -1.9128 -0.1787
  457TMC3    H1 6810   0.911   3.233  16.949  2.3336  1.7775  1.3603
  457TMC3    H2 6811   0.826   3.604  17.137 -0.8215  0.2100 -0.6995
  457TMC3    C7 6812   0.976   3.388  17.150 -0.6552 -0.0313 -0.6377
  457TMC3    C8 6813   0.742   3.723  16.909 -0.3276  0.9168 -0.1608
  457TMC3    O1 6814   1.008   3.272  17.172 -0.0098  0.0873  0.4766
  457TMC3    O2 6815   0.830   3.782  16.965 -0.4018  0.6793  0.0887
  458MPD2     C 6816   3.530   2.891  12.222  0.1983 -0.0956  0.8716
  458MPD2    C1 6817   3.583   2.768  12.250  0.1237  0.8466 -0.4999
  458MPD2    C2 6818   3.532   2.655  12.190 -0.3288  0.4891  0.2285
  458MPD2    C3 6819   3.417   2.655  12.118  0.2194  1.3872  0.9007
  458MPD2    C4 6820   3.362   2.778  12.100  0.3816 -0.2541  0.6528
  458MPD2    C5 6821   3.424   2.900  12.135 -0.2576 -0.1232 -0.2560
  458MPD2     H 6822   3.571   2.556  12.210  0.5656  0.8966  0.4701
  458MPD2    H1 6823   3.264   2.786  12.053  0.4338 -2.0147  0.2205
  458MPD2    H2 6824   3.579   2.968  12.280 -1.0308  0.7011  0.8368
  458MPD2    H3 6825   3.368   2.990  12.117  1.4124  0.4453 -2.7636
  458MPD2     N 6826   3.366   2.532  12.076 -0.4554 -0.2114  0.4097
  458MPD2    H5 6827   3.432   2.455  12.083 -0.0841 -0.0145 -1.0753
  458MPD2    N1 6828   3.671   2.767  12.356 -0.7318  0.4532 -0.3858
  458MPD2    H7 6829   3.704   2.860  12.380 -2.0676  0.0720  2.8727
  459TMC3    C1 6830   3.821   2.684  12.514  0.3142 -0.4421  0.5704
  459TMC3    C2 6831   3.930   2.758  12.473  0.0688  1.0697  0.7398
  459TMC3    C3 6832   4.033   2.772  12.557  0.1933  0.3819  0.0308
  459TMC3    C4 6833   3.824   2.624  12.634 -0.6082 -0.0943  0.7739
  459TMC3    C5 6834   3.928   2.645  12.723 -0.4143 -0.0798 -0.2368
  459TMC3    C6 6835   4.033   2.717  12.678 -0.7463  0.3758 -0.0511
  459TMC3     C 6836   3.716   2.648  12.418 -0.0374  0.2397  0.5627
  459TMC3     O 6837   3.665   2.537  12.426 -0.3729  0.1071 -0.1816
  459TMC3     H 6838   3.924   2.784  12.368  6.1949 -1.1388 -0.1340
  459TMC3    H1 6839   3.742   2.560  12.664  0.5431 -2.0263 -0.2453
  459TMC3    H2 6840   4.122   2.726  12.738 -1.1743 -2.2889  0.9751
  459TMC3    C7 6841   3.923   2.580  12.847  0.1197  0.1399 -0.2321
  459TMC3    C8 6842   4.162   2.821  12.511 -0.2903  0.3056 -0.0308
  459TMC3    O1 6843   3.858   2.475  12.842  0.4451  0.0032  0.5412
  459TMC3    O2 6844   4.242   2.861  12.595 -0.1698  0.0197 -0.5973
  460MPD2     C 6845   3.357   0.295  10.354  0.1441  0.0837 -0.5973
  460MPD2    C1 6846   3.251   0.322  10.452  0.4053 -0.0368 -0.3701
  460MPD2    C2 6847   3.129   0.360  10.397 -0.0700 -0.6895 -0.2571
  460MPD2    C3 6848   3.109   0.368  10.262  0.6289 -0.6294 -0.6232
  460MPD2    C4 6849   3.201   0.332  10.172 -0.0642 -0.3503 -0.1627
  460MPD2    C5 6850   3.327   0.294  10.218 -0.0737  0.7508  0.4977
  460MPD2     H 6851   3.039   0.370  10.456 -0.0776  0.8963 -0.5189
  460MPD2    H1 6852   3.176   0.343  10.067 -1.4897 -1.9323  0.0155
  460MPD2    H2 6853   3.455   0.261  10.385 -0.2506 -2.3277 -1.9309
  460MPD2    H3 6854   3.399   0.270  10.140 -2.5697  0.3240 -1.6669
  460MPD2     N 6855   2.993   0.425  10.207  0.2154 -0.1010  0.5370
  460MPD2    H5 6856   2.994   0.425  10.106  0.0628 -0.6092  0.5332
  460MPD2    N1 6857   3.285   0.307  10.591 -0.0180 -0.2457  0.2059
  460MPD2    H7 6858   3.370   0.256  10.612  0.2666 -0.1111 -0.6141
  461TMC3    C1 6859   2.804   0.576  10.182 -0.0896 -0.1988 -0.0276
  461TMC3    C2 6860   2.731   0.523  10.082 -0.0236 -0.5232  0.3713
  461TMC3    C3 6861   2.628   0.593  10.029  0.0663  0.4798  0.3186
  461TMC3    C4 6862   2.768   0.698  10.236  0.2614  0.5516  0.4982
  461TMC3    C5 6863   2.670   0.771  10.175  1.0653  0.0077 -0.3447
  461TMC3    C6 6864   2.603   0.722  10.068 -0.3809 -0.4340 -0.2419
  461TMC3     C 6865   2.892   0.486  10.272  0.3394  0.4743  0.5545
  461TMC3     O 6866   2.864   0.477  10.392 -0.0007  0.5896  0.6909
  461TMC3     H 6867   2.749   0.417  10.064  0.0943  0.0536 -2.7760
  461TMC3    H1 6868   2.824   0.743  10.318 -1.8434  1.3675  1.5107
  461TMC3    H2 6869   2.524   0.780  10.021 -1.5672 -1.1269  0.8976
  461TMC3    C7 6870   2.670   0.924  10.186 -0.1855 -0.5968  0.0349
  461TMC3    C8 6871   2.547   0.545   9.916  0.3996 -0.5561 -0.6561
  461TMC3    O1 6872   2.603   0.987  10.104  0.1669  0.0932  0.0721
  461TMC3    O2 6873   2.618   0.478   9.841  0.1534  0.0544 -0.0634
  462TMC3    C1 6874   2.738   0.303  17.376  0.6044  0.1639  0.8467
  462TMC3    C2 6875   2.741   0.284  17.236  0.8195 -0.5688  0.4574
  462TMC3    C3 6876   2.620   0.273  17.174  0.2285 -0.3915 -1.1207
  462TMC3    C4 6877   2.625   0.329  17.445 -0.0033 -0.4590 -0.8092
  462TMC3    C5 6878   2.510   0.336  17.368  0.4401  0.6335 -0.3417
  462TMC3    C6 6879   2.503   0.301  17.237 -0.0710  0.7804 -0.0453
  462TMC3     C 6880   2.868   0.313  17.443 -0.1254  0.6413 -0.1248
  462TMC3     O 6881   2.958   0.362  17.371  0.0951  0.1760  0.1997
  462TMC3     H 6882   2.833   0.264  17.181  1.0766 -0.2732  0.7815
  462TMC3    H1 6883   2.635   0.361  17.548  1.5627  0.3386 -1.2012
  462TMC3    H2 6884   2.416   0.321  17.176  1.2901 -0.2159 -2.2891
  462TMC3    C7 6885   2.378   0.360  17.432 -0.3053 -0.3200  0.1063
  462TMC3    C8 6886   2.616   0.228  17.032 -0.4923  0.0363  0.3633
  462TMC3    O1 6887   2.282   0.323  17.373  0.5325 -0.1850 -0.1302
  462TMC3    O2 6888   2.524   0.285  16.973 -0.4606 -0.1832 -0.0043
  463MPD2     C 6889   3.702   4.276   1.542  0.6037 -0.3825 -0.8800
  463MPD2    C1 6890   3.581   4.341   1.509 -0.2885 -0.2892  0.6195
  463MPD2    C2 6891   3.580   4.467   1.444  0.5128  0.0318 -0.5079
  463MPD2    C3 6892   3.705   4.529   1.417 -0.5112 -0.2826 -0.2658
  463MPD2    C4 6893   3.821   4.468   1.458 -0.0454 -0.1468 -0.1464
  463MPD2    C5 6894   3.821   4.340   1.508 -0.5840  0.3810 -0.2160
  463MPD2     H 6895   3.486   4.518   1.430  1.7243  2.9687  1.9770
  463MPD2    H1 6896   3.917   4.519   1.451  0.6758 -1.4144  0.5027
  463MPD2    H2 6897   3.711   4.178   1.588 -0.2252  0.3643  0.8701
  463MPD2    H3 6898   3.905   4.276   1.534 -0.0356  1.2131  0.1026
  463MPD2     N 6899   3.716   4.669   1.382 -0.9244 -0.1911  0.1515
  463MPD2    H5 6900   3.803   4.719   1.398 -1.4206  0.5200  0.6345
  463MPD2    N1 6901   3.460   4.285   1.545  0.2874  0.0024  0.0635
  463MPD2    H7 6902   3.377   4.342   1.532  1.1340  1.0003 -0.8937
  464TMC3    C1 6903   3.300   4.150   1.652 -0.4900 -0.1446  0.1646
  464TMC3    C2 6904   3.198   4.209   1.570 -0.1119 -0.4486 -0.7997
  464TMC3    C3 6905   3.070   4.206   1.613 -0.4877 -0.3412  0.2321
  464TMC3    C4 6906   3.267   4.059   1.743 -0.1580  0.2290 -0.3784
  464TMC3    C5 6907   3.131   4.042   1.769 -0.5529 -0.4695  0.4468
  464TMC3    C6 6908   3.031   4.113   1.708 -0.3309  0.1260 -0.6965
  464TMC3     C 6909   3.438   4.165   1.608  0.7647  1.1792  0.1163
  464TMC3     O 6910   3.514   4.079   1.645  0.1025  0.5137 -0.4110
  464TMC3     H 6911   3.218   4.276   1.487 -2.6933 -1.2660 -2.0610
  464TMC3    H1 6912   3.339   4.011   1.809 -2.1879 -1.4862  0.6066
  464TMC3    H2 6913   2.928   4.114   1.742  0.8382  0.5052  2.8017
  464TMC3    C7 6914   3.093   3.914   1.825  0.7439 -0.2283 -0.4105
  464TMC3    C8 6915   2.988   4.322   1.577 -0.2190  0.1935 -0.6706
  464TMC3    O1 6916   3.182   3.842   1.868  0.1326  0.7966 -0.3822
  464TMC3    O2 6917   3.031   4.408   1.501  0.2363 -0.2554  0.5029
  465MPD2     C 6918   3.989   2.919  16.867 -0.0965 -0.4778  0.9847
  465MPD2    C1 6919   3.956   3.012  16.965 -0.1408  0.5283  0.1027
  465MPD2    C2 6920   3.854   3.110  16.941  0.2852  0.8750  0.4475
  465MPD2    C3 6921   3.785   3.102  16.823  0.1892  0.0431  0.0194
  465MPD2    C4 6922   3.822   3.012  16.725  0.0475  0.0496 -0.0361
  465MPD2    C5 6923   3.919   2.922  16.749  0.1854 -0.1565  0.3714
  465MPD2     H 6924   3.832   3.188  17.013  0.5555  0.6651  0.7560
  465MPD2    H1 6925   3.782   3.025  16.625  0.7454  0.8131 -0.2131
  465MPD2    H2 6926   4.068   2.845  16.877  1.0221  0.7762  1.3446
  465MPD2    H3 6927   3.938   2.842  16.678 -0.3936 -1.2506  1.4536
  465MPD2     N 6928   3.683   3.196  16.811 -0.0705  0.0379  0.2875
  465MPD2    H5 6929   3.665   3.261  16.887  1.4420 -0.1088  0.7632
  465MPD2    N1 6930   4.023   3.015  17.092  0.1702  0.6304 -0.4544
  465MPD2    H7 6931   3.985   3.073  17.166 -2.7814  0.9438 -2.2348
  466TMC3    C1 6932   3.629   3.518  16.873  0.1839 -0.1289  0.3667
  466TMC3    C2 6933   3.704   3.589  16.780 -0.3521 -0.0427 -0.2297
  466TMC3    C3 6934   3.710   3.531  16.651 -0.0553 -0.1618 -0.6619
  466TMC3    C4 6935   3.559   3.405  16.842 -0.7940 -0.3796  0.1939
  466TMC3    C5 6936   3.555   3.356  16.714 -0.3772 -0.5535  0.0855
  466TMC3    C6 6937   3.624   3.424  16.618 -0.3165 -0.4594 -0.7851
  466TMC3     C 6938   3.693   3.527  17.005  0.1822  0.0612  1.2177
  466TMC3     O 6939   3.738   3.419  17.045 -0.2406  0.4213  0.1138
  466TMC3     H 6940   3.751   3.683  16.808 -0.4803 -0.5140  1.5888
  466TMC3    H1 6941   3.508   3.353  16.922  0.1095 -1.5429  0.0210
  466TMC3    H2 6942   3.637   3.382  16.519  2.6520  1.9271 -1.4007
  466TMC3    C7 6943   3.596   3.220  16.707 -0.0861 -0.0606 -0.0242
  466TMC3    C8 6944   3.805   3.578  16.556  0.1100  0.1853 -0.0380
  466TMC3    O1 6945   3.590   3.158  16.601  0.6946  0.1696  0.1485
  466TMC3    O2 6946   3.787   3.553  16.436 -0.0805  0.1953 -0.6366
  467TMC3    C1 6947   1.027   1.309  13.650 -0.8350  0.1724  0.5185
  467TMC3    C2 6948   0.979   1.395  13.557  0.7329  0.3752  0.4967
  467TMC3    C3 6949   0.854   1.459  13.569 -0.7255  0.3561 -0.2594
  467TMC3    C4 6950   0.955   1.283  13.758  0.2580  0.1175 -0.5068
  467TMC3    C5 6951   0.840   1.347  13.777 -0.5665  0.8032  0.4301
  467TMC3    C6 6952   0.786   1.436  13.682  0.4007  0.1082  0.0249
  467TMC3     C 6953   1.175   1.300  13.660 -0.2032  0.6490 -0.3391
  467TMC3     O 6954   1.226   1.295  13.773  0.5925  0.3909 -0.0226
  467TMC3     H 6955   1.036   1.420  13.468  3.2348  0.6603  2.1998
  467TMC3    H1 6956   0.993   1.209  13.828 -0.4572 -0.1209 -0.3711
  467TMC3    H2 6957   0.714   1.510  13.713 -0.1534 -0.0624 -0.8464
  467TMC3    C7 6958   0.748   1.286  13.869 -0.4009 -0.0206  0.3246
  467TMC3    C8 6959   0.846   1.594  13.508 -0.6396  0.6296  0.3919
  467TMC3    O1 6960   0.790   1.192  13.932 -0.0976 -0.1785 -0.2045
  467TMC3    O2 6961   0.896   1.683  13.567 -0.0316 -0.3195  0.0009
  468MPD2     C 6962   4.529   0.671  10.826 -0.1859  0.0047 -0.2911
  468MPD2    C1 6963   4.653   0.633  10.778  0.3008  0.0904  0.2320
  468MPD2    C2 6964   4.699   0.511  10.828  0.2626  0.6438 -0.9348
  468MPD2    C3 6965   4.631   0.435  10.924 -0.3312  0.6030 -0.8535
  468MPD2    C4 6966   4.510   0.483  10.971 -0.5560 -0.5795 -0.0789
  468MPD2    C5 6967   4.458   0.596  10.920  0.2561  0.4000  0.8920
  468MPD2     H 6968   0.079   0.490  10.801 -0.1099 -1.6575 -0.4902
  468MPD2    H1 6969   4.456   0.422  11.043 -1.4664 -0.5958 -0.7816
  468MPD2    H2 6970   4.485   0.767  10.799 -1.3652 -0.3706  0.2850
  468MPD2    H3 6971   4.367   0.633  10.968 -0.2173  0.8619 -0.3755
  468MPD2     N 6972   4.675   0.304  10.959 -0.1784  0.5650 -1.0066
  468MPD2    H5 6973   4.618   0.255  11.027  1.6421  0.2698  0.2778
  468MPD2    N1 6974   0.012   0.712  10.694 -0.1943 -0.0039  0.4851
  468MPD2    H7 6975   0.103   0.670  10.677 -1.4000 -2.4335 -0.0460
  469TMC3    C1 6976   0.080   0.863  10.544  0.5776 -0.6759 -0.3047
  469TMC3    C2 6977   0.168   0.762  10.509 -0.5118  0.1383 -0.1079
  469TMC3    C3 6978   0.301   0.785  10.500  0.3811 -0.5835  0.2188
  469TMC3    C4 6979   0.125   0.993  10.547  0.7878  0.3029  0.1903
  469TMC3    C5 6980   0.255   1.016  10.522 -0.0450 -0.4593  0.3419
  469TMC3    C6 6981   0.349   0.914  10.502  0.5639  1.1044 -0.2892
  469TMC3     C 6982   4.701   0.827  10.636 -0.2733  0.1719 -0.3321
  469TMC3     O 6983   4.599   0.893  10.646  0.1973  0.2758  0.6459
  469TMC3     H 6984   0.130   0.663  10.489  0.7478 -0.3330 -0.1390
  469TMC3    H1 6985   0.060   1.078  10.568  0.6869 -0.1030  1.5063
  469TMC3    H2 6986   0.452   0.938  10.480  0.6582  1.3881  0.4568
  469TMC3    C7 6987   0.302   1.147  10.478 -0.5978 -0.4817 -0.3433
  469TMC3    C8 6988   0.354   0.689  10.600  0.0303  0.0952 -0.0441
  469TMC3    O1 6989   0.365   1.148  10.373 -0.3070  0.1909  0.1139
  469TMC3    O2 6990   0.273   0.612  10.646 -0.0084  0.4541 -0.3095
  470TMC3    C1 6991   2.634   1.721   0.962 -0.1715 -0.7885  0.0606
  470TMC3    C2 6992   2.532   1.807   1.000 -0.2403  0.0075  0.2385
  470TMC3    C3 6993   2.413   1.793   0.932  0.2758 -0.1169 -0.1583
  470TMC3    C4 6994   2.629   1.645   0.842  0.2950 -0.4229  0.3393
  470TMC3    C5 6995   2.501   1.616   0.794  0.2435  1.1134 -0.6828
  470TMC3    C6 6996   2.396   1.695   0.839  0.4235  0.8944 -0.3700
  470TMC3     C 6997   2.763   1.728   1.021  0.3126 -0.0239  0.7849
  470TMC3     O 6998   2.853   1.658   0.967  0.1956 -0.9108  0.4517
  470TMC3     H 6999   2.542   1.877   1.081  0.9528  1.2141 -0.9512
  470TMC3    H1 7000   2.705   1.580   0.801  0.0537 -1.2933  1.2710
  470TMC3    H2 7001   2.294   1.670   0.813  0.6050  1.9777 -2.1691
  470TMC3    C7 7002   2.495   1.563   0.658 -0.4208  0.6793 -0.0878
  470TMC3    C8 7003   2.303   1.825   1.009 -0.2766  0.1464 -0.1022
  470TMC3    O1 7004   2.408   1.603   0.582  0.2132  0.6939 -0.1103
  470TMC3    O2 7005   2.323   1.825   1.130 -0.1082 -0.6750  0.2524
  471MPD2     C 7006   2.195   2.095  17.012  0.0814 -0.0058 -0.6224
  471MPD2    C1 7007   2.298   2.038  16.939 -0.2107  0.5803 -0.2805
  471MPD2    C2 7008   2.414   2.002  16.996 -0.2819  0.0606  0.8625
  471MPD2    C3 7009   2.426   2.021  17.136  0.0435 -0.2972  0.9162
  471MPD2    C4 7010   2.330   2.091  17.203 -0.6232  0.1759  0.8458
  471MPD2    C5 7011   2.215   2.126  17.140  0.5524  0.2101 -0.4133
  471MPD2     H 7012   2.489   1.965  16.927  0.4188  0.2181  1.5496
  471MPD2    H1 7013   2.340   2.105  17.310 -0.8686 -1.8178  1.1180
  471MPD2    H2 7014   2.100   2.119  16.964 -1.9536 -3.6974  1.5378
  471MPD2    H3 7015   2.141   2.176  17.202 -1.3349 -2.1297 -0.7881
  471MPD2     N 7016   2.549   1.986  17.207 -0.6023  0.1257  0.9400
  471MPD2    H5 7017   2.550   2.003  17.307  2.7186  0.5918  0.8247
  471MPD2    N1 7018   2.289   2.016  16.799  0.1427  0.5912  0.2512
  471MPD2    H7 7019   2.367   1.967  16.755 -2.6104 -1.1184 -2.6568
  472TMC3    C1 7020   2.194   2.014  16.585  0.1446  0.1540  0.4222
  472TMC3    C2 7021   2.112   2.073  16.493  0.4858  0.3839 -0.7256
  472TMC3    C3 7022   2.101   2.010  16.373  0.6764 -0.0755 -0.1620
  472TMC3    C4 7023   2.262   1.894  16.565 -0.6794 -0.5901 -0.3492
  472TMC3    C5 7024   2.260   1.849  16.436 -0.1308  0.0149 -0.5573
  472TMC3    C6 7025   2.174   1.903  16.341  0.6798  0.3550  0.0206
  472TMC3     C 7026   2.186   2.065  16.724  0.0054  0.0984 -0.2821
  472TMC3     O 7027   2.093   2.139  16.757  0.4976  0.4177 -0.1440
  472TMC3     H 7028   2.048   2.155  16.524 -0.0280 -0.6286  0.8772
  472TMC3    H1 7029   2.313   1.846  16.648 -1.5065 -0.4274  0.2449
  472TMC3    H2 7030   2.176   1.877  16.235 -0.8014 -1.1589  0.3594
  472TMC3    C7 7031   2.311   1.718  16.408  0.1454 -0.1948  0.4516
  472TMC3    C8 7032   1.958   1.992  16.345  0.0306  0.2722 -0.1714
  472TMC3    O1 7033   2.371   1.656  16.497  0.0652 -0.3079 -0.2850
  472TMC3    O2 7034   1.873   2.074  16.378 -0.7445  0.9413 -0.0966
  473MPD2     C 7035   1.990   3.880  13.922  0.1538 -0.5391 -0.2277
  473MPD2    C1 7036   2.049   3.953  13.821  0.7335  0.5606  0.5899
  473MPD2    C2 7037   2.136   4.059  13.861  0.9103 -0.5764 -0.1306
  473MPD2    C3 7038   2.165   4.088  13.998  0.7066  0.0214  0.3609
  473MPD2    C4 7039   2.103   4.013  14.095  0.6220 -0.1779  0.2590
  473MPD2    C5 7040   2.025   3.909  14.054 -0.7029 -0.3337 -0.0619
  473MPD2     H 7041   2.174   4.111  13.774  2.2347  1.1955  1.5208
  473MPD2    H1 7042   2.128   4.032  14.199 -1.7583  1.0603  0.6012
  473MPD2    H2 7043   1.924   3.797  13.901 -0.1066 -0.0155 -1.4508
  473MPD2    H3 7044   1.975   3.841  14.123 -0.9068 -2.0154 -1.8547
  473MPD2     N 7045   2.254   4.191  14.034 -0.7283  0.4574  0.3367
  473MPD2    H5 7046   2.290   4.192  14.129  0.4223  2.2463 -0.1203
  473MPD2    N1 7047   2.042   3.922  13.681  0.0815 -0.2105  0.4660
  473MPD2    H7 7048   2.081   3.991  13.618  0.6121 -0.2283  0.7828
  474TMC3    C1 7049   2.359   4.409  14.006  0.5864  0.0952 -1.0960
  474TMC3    C2 7050   2.336   4.535  13.972 -0.2066  0.1161 -0.7083
  474TMC3    C3 7051   2.431   4.628  14.000  0.1482 -0.6220 -0.3052
  474TMC3    C4 7052   2.456   4.376  14.091  0.3065 -0.4114  0.3405
  474TMC3    C5 7053   2.540   4.478  14.132 -0.5097 -0.1189  0.0817
  474TMC3    C6 7054   2.533   4.603  14.082  0.0826  0.0396  0.8945
  474TMC3     C 7055   2.266   4.307  13.957 -0.1545 -0.4303 -0.1185
  474TMC3     O 7056   2.206   4.337  13.855  0.0214 -1.0363  0.2488
  474TMC3     H 7057   2.261   4.548  13.895  0.9598  0.2408 -1.8295
  474TMC3    H1 7058   2.479   4.277  14.129 -0.9299 -0.8603 -0.0776
  474TMC3    H2 7059   2.608   4.676  14.109 -1.1010  1.2561  0.9179
  474TMC3    C7 7060   2.668   4.432  14.197 -0.0860  0.0527  0.3189
  474TMC3    C8 7061   2.417   0.042  13.935  0.2918 -0.0276  0.0806
  474TMC3    O1 7062   2.709   4.318  14.182  0.0164  0.7765  0.2025
  474TMC3    O2 7063   2.321   0.049  13.852 -0.6827 -0.0916 -0.5043
  475MPD2     C 7064   0.398   3.107  10.917  0.0577  0.1108 -0.6383
  475MPD2    C1 7065   0.406   3.201  10.818  0.4205  0.0871 -0.7609
  475MPD2    C2 7066   0.323   3.191  10.702 -0.2711 -0.8273 -0.1746
  475MPD2    C3 7067   0.234   3.083  10.695  0.0581  0.0281  0.6655
  475MPD2    C4 7068   0.216   3.005  10.801 -1.2543 -0.1951 -0.4990
  475MPD2    C5 7069   0.294   3.017  10.912  0.4250  0.2083  0.5136
  475MPD2     H 7070   0.326   3.264  10.622 -3.6837  0.1722  0.6032
  475MPD2    H1 7071   0.136   2.933  10.809  0.0552 -1.7938 -1.8318
  475MPD2    H2 7072   0.461   3.107  11.006  0.7095 -0.9680 -1.1013
  475MPD2    H3 7073   0.280   2.958  11.002  0.6961 -2.6993 -1.3714
  475MPD2     N 7074   0.163   3.066  10.571  0.1533 -0.6542 -0.3767
  475MPD2    H5 7075   0.168   3.144  10.506  1.1089  0.3705  0.9158
  475MPD2    N1 7076   0.491   3.315  10.843  0.2146 -0.1523  0.3877
  475MPD2    H7 7077   0.529   3.332  10.936 -1.9953 -1.3441  1.5145
  476TMC3    C1 7078   0.639   3.500  10.776  0.2669  0.2666  0.1150
  476TMC3    C2 7079   0.744   3.503  10.691 -0.6270 -0.7903 -0.4700
  476TMC3    C3 7080   0.855   3.566  10.746  0.9243 -0.1961  0.2818
  476TMC3    C4 7081   0.639   3.550  10.908  0.2470 -0.2154 -0.7243
  476TMC3    C5 7082   0.752   3.617  10.951  0.0591  0.1344 -0.6684
  476TMC3    C6 7083   0.860   3.629  10.867  0.7435 -0.4887 -0.5111
  476TMC3     C 7084   0.537   3.402  10.744 -0.4171  0.4684  0.9191
  476TMC3     O 7085   0.529   3.370  10.626  0.2103 -0.8701 -0.2543
  476TMC3     H 7086   0.738   3.461  10.591  0.4677  2.0804 -1.7327
  476TMC3    H1 7087   0.557   3.544  10.979 -2.3177  5.1432 -3.2084
  476TMC3    H2 7088   0.952   3.682  10.891  1.2048 -1.6294  0.2705
  476TMC3    C7 7089   0.758   3.661  11.089 -0.7819  0.0170  0.0083
  476TMC3    C8 7090   0.979   3.530  10.681 -0.8348  0.2965 -0.6922
  476TMC3    O1 7091   0.672   3.627  11.164  0.4206  0.6617  0.0267
  476TMC3    O2 7092   1.077   3.597  10.698 -0.4783 -0.0452 -0.4999
  477MPD2     C 7093   3.535   4.407  11.697 -0.1018 -0.0798  0.0003
  477MPD2    C1 7094   3.516   4.278  11.646 -0.0982 -0.3146  0.8316
  477MPD2    C2 7095   3.525   4.173  11.741  0.2608 -0.5068  0.5390
  477MPD2    C3 7096   3.514   4.195  11.871 -0.5242  0.8219  0.4706
  477MPD2    C4 7097   3.538   4.320  11.922 -0.2204  0.1798 -0.6342
  477MPD2    C5 7098   3.544   4.429  11.832 -0.5488 -0.3527 -0.0384
  477MPD2     H 7099   3.521   4.069  11.711  1.7701 -0.5646  0.5336
  477MPD2    H1 7100   3.562   4.343  12.025  1.3823  0.2694 -1.0311
  477MPD2    H2 7101   3.539   4.495  11.634  1.4744 -0.4763 -0.4418
  477MPD2    H3 7102   3.557   4.532  11.866  0.6616 -0.2767 -0.7332
  477MPD2     N 7103   3.486   4.088  11.956  0.0066 -0.0286  0.2713
  477MPD2    H5 7104   3.470   3.996  11.915 -0.3003 -0.3121  1.0306
  477MPD2    N1 7105   3.495   4.266  11.509  0.0359 -0.0117  0.2298
  477MPD2    H7 7106   3.500   4.357  11.464 -3.2129  0.7759  1.4653
  478TMC3    C1 7107   3.368   4.210  11.329  0.0438 -0.0838  0.4549
  478TMC3    C2 7108   3.232   4.214  11.351  0.5214  0.2211  0.6727
  478TMC3    C3 7109   3.158   4.314  11.299  0.7855 -0.3499  0.2279
  478TMC3    C4 7110   3.428   4.299  11.254 -0.4953 -0.6459  0.2860
  478TMC3    C5 7111   3.350   4.393  11.194 -0.5837  0.1095 -0.8030
  478TMC3    C6 7112   3.212   4.405  11.211 -0.6080 -0.1293  0.5926
  478TMC3     C 7113   3.441   4.155  11.444 -0.4172  0.1242  0.2953
  478TMC3     O 7114   3.396   4.053  11.495 -0.0712 -0.8261 -0.3385
  478TMC3     H 7115   3.182   4.159  11.430 -1.0314 -0.8138 -1.0418
  478TMC3    H1 7116   3.535   4.290  11.242 -0.1685  0.1266  2.6228
  478TMC3    H2 7117   3.159   4.478  11.151 -0.2490  0.9634  1.6053
  478TMC3    C7 7118   3.419   4.449  11.079 -0.0736  0.6370  0.2502
  478TMC3    C8 7119   3.053   4.380  11.374  0.1329 -0.3423  0.1486
  478TMC3    O1 7120   3.541   4.436  11.068 -0.6573  1.2604  0.3498
  478TMC3    O2 7121   2.987   4.321  11.458  0.1337 -0.2601 -0.1095
  479MPD2     C 7122   2.183   1.285  14.949  0.1352  0.5532 -0.7622
  479MPD2    C1 7123   2.126   1.242  15.067 -0.1039 -0.6082  0.3730
  479MPD2    C2 7124   2.204   1.240  15.180  0.0331  0.0832  0.2476
  479MPD2    C3 7125   2.334   1.289  15.185  0.5419 -0.3930 -0.4321
  479MPD2    C4 7126   2.386   1.329  15.068 -0.3071  0.8159 -0.1105
  479MPD2    C5 7127   2.312   1.323  14.952  0.5473  0.9123  0.4283
  479MPD2     H 7128   2.156   1.202  15.270 -1.5855 -0.3153 -0.7860
  479MPD2    H1 7129   2.487   1.366  15.052 -0.4683  0.3489 -2.2278
  479MPD2    H2 7130   2.127   1.283  14.856 -1.4372  0.3140  0.1880
  479MPD2    H3 7131   2.366   1.357  14.865 -1.2127  3.2289  0.2342
  479MPD2     N 7132   2.424   1.280  15.292  0.0381 -0.7131 -0.5168
  479MPD2    H5 7133   2.523   1.293  15.270  0.3482 -1.6837  0.2998
  479MPD2    N1 7134   1.989   1.204  15.065  0.5475  0.3187 -0.1787
  479MPD2    H7 7135   1.945   1.200  14.974  0.7408 -0.6101 -0.2266
  480TMC3    C1 7136   2.085   1.263  15.634 -0.4429 -0.5582  0.0682
  480TMC3    C2 7137   2.019   1.380  15.589  0.0202  0.1811  0.0644
  480TMC3    C3 7138   2.073   1.448  15.480 -0.2727 -0.8127 -0.3655
  480TMC3    C4 7139   2.196   1.211  15.562 -0.6557  0.2828  0.4237
  480TMC3    C5 7140   2.253   1.293  15.466 -0.1669 -0.2025 -0.2362
  480TMC3    C6 7141   2.191   1.405  15.425 -0.4283 -0.4521 -0.1010
  480TMC3     C 7142   2.023   1.171  15.726 -0.6574  0.1400 -0.3997
  480TMC3     O 7143   2.106   1.098  15.778  0.3718 -0.3486  0.0647
  480TMC3     H 7144   1.924   1.406  15.634 -0.2916 -1.5430  0.3924
  480TMC3    H1 7145   2.232   1.112  15.587 -1.1919 -0.5958 -2.3665
  480TMC3    H2 7146   2.255   1.476  15.373 -0.4795 -2.0199 -2.3220
  480TMC3    C7 7147   2.390   1.258  15.425  0.1559 -0.6168 -0.6400
  480TMC3    C8 7148   1.967   1.524  15.402  0.4237  0.0502  0.1410
  480TMC3    O1 7149   2.466   1.221  15.515  0.2971  0.4417 -0.0587
  480TMC3    O2 7150   1.857   1.550  15.452  0.0923  0.3370 -1.0725
  481MPD2     C 7151   4.198   0.870  14.149 -0.2016  0.4484 -0.0898
  481MPD2    C1 7152   4.068   0.833  14.168 -0.6121 -0.0923 -0.4505
  481MPD2    C2 7153   4.016   0.812  14.293  0.4875 -0.3166  0.2985
  481MPD2    C3 7154   4.084   0.840  14.409  0.0182 -0.5847  0.4168
  481MPD2    C4 7155   4.216   0.861  14.389  0.0834  0.4461  0.2781
  481MPD2    C5 7156   4.268   0.879  14.264 -0.0469 -0.5009  0.4016
  481MPD2     H 7157   3.921   0.759  14.291  0.4484 -0.2714  0.9777
  481MPD2    H1 7158   4.279   0.886  14.473  0.2406 -0.2561  0.3744
  481MPD2    H2 7159   4.245   0.890  14.053 -0.1811  1.4396  0.1255
  481MPD2    H3 7160   4.372   0.908  14.250 -1.1279  1.9585 -2.4915
  481MPD2     N 7161   4.032   0.830  14.538  0.5727  0.3385  0.3087
  481MPD2    H5 7162   4.100   0.855  14.609 -0.5703  1.0329  1.1544
  481MPD2    N1 7163   3.982   0.808  14.059 -0.2390 -0.7395  0.5416
  481MPD2    H7 7164   3.886   0.783  14.082  0.8485 -3.6105  2.1015
  482TMC3    C1 7165   3.886   0.830  13.847  0.2461  0.3059  0.2968
  482TMC3    C2 7166   3.789   0.746  13.888 -0.6488 -0.1389  0.0905
  482TMC3    C3 7167   3.658   0.770  13.848 -0.0010  0.6620  0.1002
  482TMC3    C4 7168   3.868   0.926  13.761 -0.4378 -0.0817 -0.3770
  482TMC3    C5 7169   3.736   0.955  13.736  0.2973  0.1174  0.1224
  482TMC3    C6 7170   3.626   0.887  13.786 -0.2989 -0.2305  1.0545
  482TMC3     C 7171   4.002   0.855  13.931 -0.1007 -0.2860  0.6108
  482TMC3     O 7172   4.098   0.919  13.881 -0.0064 -0.1147 -0.6972
  482TMC3     H 7173   3.801   0.660  13.952  1.0077  0.1219  0.1222
  482TMC3    H1 7174   3.937   0.973  13.691 -1.5127  0.7497 -0.8757
  482TMC3    H2 7175   3.528   0.923  13.756  0.0651  0.4012  0.6330
  482TMC3    C7 7176   3.703   1.074  13.655 -0.1420  0.6303  0.4958
  482TMC3    C8 7177   3.553   0.697  13.917 -0.3938  0.3280 -0.1760
  482TMC3    O1 7178   3.586   1.084  13.603 -0.0599 -0.4505  0.2108
  482TMC3    O2 7179   3.587   0.589  13.970 -0.5436  0.0987  0.0750
  483TMC3    C1 7180   0.806   4.569   0.740  0.1830  0.2618  0.0586
  483TMC3    C2 7181   0.824   4.688   0.672  0.1004  0.2306  0.5860
  483TMC3    C3 7182   0.954   0.009   0.676  0.4323 -0.2450 -0.5957
  483TMC3    C4 7183   0.891   4.511   0.822  0.1604 -0.3497  0.0664
  483TMC3    C5 7184   1.017   4.566   0.831 -0.1025 -0.3219  0.4621
  483TMC3    C6 7185   1.046   4.671   0.752 -0.5578 -0.1559  0.2664
  483TMC3     C 7186   0.691   4.492   0.707 -0.2617 -0.2881  0.3881
  483TMC3     O 7187   0.598   4.548   0.651 -0.5441  0.4151  0.2045
  483TMC3     H 7188   0.750   4.714   0.597  0.0897  0.6654  0.7489
  483TMC3    H1 7189   0.874   4.429   0.890 -0.2191  0.1596  0.5901
  483TMC3    H2 7190   1.147   4.710   0.750 -0.2455 -1.1709 -2.9338
  483TMC3    C7 7191   1.120   4.480   0.894  0.5372  0.8378  1.2301
  483TMC3    C8 7192   1.017   0.086   0.565 -0.3270  0.0421 -0.5000
  483TMC3    O1 7193   1.093   4.367   0.931 -0.0838  0.4062 -0.0409
  483TMC3    O2 7194   1.137   0.072   0.551 -0.3723  0.4298 -0.5822
  484MPD2     C 7195   4.262   2.865  12.166  0.4259 -0.3534 -0.2989
  484MPD2    C1 7196   4.270   2.888  12.296 -0.2499  0.4523 -0.0922
  484MPD2    C2 7197   4.381   2.954  12.348  0.2388 -0.2915 -0.2731
  484MPD2    C3 7198   4.481   3.001  12.261  0.2678 -0.0815 -0.0674
  484MPD2    C4 7199   4.465   2.976  12.125 -0.6678 -0.3922  0.7086
  484MPD2    C5 7200   4.358   2.904  12.078  1.1198 -0.1992  0.2175
  484MPD2     H 7201   4.397   2.972  12.453  0.1445  2.4386 -0.7269
  484MPD2    H1 7202   4.541   3.004  12.053 -0.2599 -1.1430  0.8481
  484MPD2    H2 7203   4.179   2.805  12.133  1.3562 -1.6939 -0.1917
  484MPD2    H3 7204   4.359   2.872  11.975 -3.0678  2.1738 -0.5187
  484MPD2     N 7205   4.597   3.063  12.305  0.1829  0.0173  0.2621
  484MPD2    H5 7206   4.655   3.088  12.225 -0.4141 -0.2215 -0.2553
  484MPD2    N1 7207   4.165   2.829  12.374 -0.5639  0.0424 -0.2022
  484MPD2    H7 7208   4.090   2.793  12.316 -0.0283  0.5159 -1.1889
  485TMC3    C1 7209   0.059   3.126  12.444  0.3049 -0.8745 -0.1893
  485TMC3    C2 7210   0.129   3.043  12.526 -0.0682 -0.4658 -0.2866
  485TMC3    C3 7211   0.264   3.039  12.493  0.0697  0.5760 -0.6503
  485TMC3    C4 7212   0.111   3.180  12.320 -0.6659 -0.1436 -0.2294
  485TMC3    C5 7213   0.245   3.161  12.290  0.0057  0.6962  0.7428
  485TMC3    C6 7214   0.324   3.102  12.392 -0.2449 -0.1810 -0.2517
  485TMC3     C 7215   4.640   3.091  12.436  0.2421 -0.1500 -0.3517
  485TMC3     O 7216   4.579   3.065  12.539  0.2279  0.2435 -0.7574
  485TMC3     H 7217   0.081   2.979  12.600 -2.2167 -0.5314 -1.7249
  485TMC3    H1 7218   0.053   3.243  12.254 -0.2042  0.2876 -0.2240
  485TMC3    H2 7219   0.431   3.106  12.379  0.0443  1.1608  2.6082
  485TMC3    C7 7220   0.269   3.108  12.160 -0.2155  0.1999  0.4069
  485TMC3    C8 7221   0.325   2.909  12.507  0.5736 -0.7742 -0.7162
  485TMC3    O1 7222   0.196   3.145  12.065 -0.2926  0.2950 -0.0269
  485TMC3    O2 7223   0.394   2.885  12.408  0.1049  0.1478  0.6227
  486MPD2     C 7224   1.588   1.850  12.903  0.7342 -0.1650 -0.4474
  486MPD2    C1 7225   1.607   1.830  12.772 -0.1339  0.0990  0.1549
  486MPD2    C2 7226   1.561   1.925  12.683 -0.1752  1.0005  0.3314
  486MPD2    C3 7227   1.511   2.040  12.730  0.8269  0.3781 -0.3758
  486MPD2    C4 7228   1.478   2.051  12.868  0.1367  0.2569  0.0614
  486MPD2    C5 7229   1.525   1.955  12.952  0.3151 -1.2047 -0.0756
  486MPD2     H 7230   1.580   1.911  12.577 -0.5352  0.4944  0.3342
  486MPD2    H1 7231   1.433   2.142  12.907  0.1466  0.4648 -0.4083
  486MPD2    H2 7232   1.634   1.783  12.975 -0.7753  0.5518  1.1786
  486MPD2    H3 7233   1.511   1.965  13.059  2.3796 -2.7707  0.3369
  486MPD2     N 7234   1.469   2.140  12.641  0.4137 -0.1498 -0.4712
  486MPD2    H5 7235   1.486   2.117  12.543  0.5435  1.3709 -0.8198
  486MPD2    N1 7236   1.663   1.706  12.728  0.4977  0.1353 -0.1695
  486MPD2    H7 7237   1.674   1.632  12.797  1.5552  1.2451  0.8611
  487TMC3    C1 7238   1.742   1.530  12.577  0.6965 -0.4564  0.0615
  487TMC3    C2 7239   1.689   1.463  12.473  0.2457  0.3506 -0.2305
  487TMC3    C3 7240   1.707   1.329  12.469 -0.3122 -0.0681 -0.3747
  487TMC3    C4 7241   1.812   1.474  12.680 -0.1944  0.5399  0.2341
  487TMC3    C5 7242   1.828   1.332  12.671 -0.3689  0.1162  0.2837
  487TMC3    C6 7243   1.796   1.267  12.558 -0.7423 -0.2598  0.4261
  487TMC3     C 7244   1.681   1.667  12.595  0.7761  0.0087  0.5579
  487TMC3     O 7245   1.675   1.732  12.495 -0.7402 -0.1572 -0.0181
  487TMC3     H 7246   1.620   1.518  12.411 -0.2561 -0.4056 -0.3515
  487TMC3    H1 7247   1.832   1.535  12.767  1.8863 -0.4506  0.4328
  487TMC3    H2 7248   1.799   1.159  12.546  0.3465 -0.2057  0.2277
  487TMC3    C7 7249   1.822   1.264  12.793 -0.8383  0.4634 -0.0687
  487TMC3    C8 7250   1.583   1.255  12.467  0.4656 -0.7999  0.9113
  487TMC3    O1 7251   1.821   1.346  12.886 -0.4978  0.5369 -0.3427
  487TMC3    O2 7252   1.493   1.328  12.508  0.0534  0.2416  0.3326
  488MPD2     C 7253   1.866   3.206  16.572  0.3325  0.4136  1.0804
  488MPD2    C1 7254   1.828   3.332  16.534  0.4049 -0.0286  0.2485
  488MPD2    C2 7255   1.760   3.415  16.624 -0.1953  0.1684 -0.4993
  488MPD2    C3 7256   1.739   3.364  16.752  0.4984  0.2749  0.4672
  488MPD2    C4 7257   1.771   3.229  16.787  0.3861  0.1106  0.0231
  488MPD2    C5 7258   1.835   3.149  16.693  1.1022  0.5888  0.3233
  488MPD2     H 7259   1.744   3.520  16.604 -2.0623  0.2402  1.4144
  488MPD2    H1 7260   1.725   3.187  16.875  0.2701  1.5554  0.6628
  488MPD2    H2 7261   1.934   3.142  16.517 -1.0432  0.1250 -0.2744
  488MPD2    H3 7262   1.858   3.044  16.711 -1.1965 -0.0090 -0.1722
  488MPD2     N 7263   1.688   3.456  16.847  0.3833  1.0068  0.3710
  488MPD2    H5 7264   1.635   3.538  16.818  0.3309  0.9765  0.3817
  488MPD2    N1 7265   1.862   3.383  16.405  0.3370  0.8365 -0.1029
  488MPD2    H7 7266   1.847   3.482  16.393 -1.0826  0.6193 -0.0720
  489TMC3    C1 7267   1.621   3.535  17.057 -0.2637 -1.1159 -0.4485
  489TMC3    C2 7268   1.557   3.639  16.991  0.0857 -0.5100  0.4174
  489TMC3    C3 7269   1.515   3.740  17.066 -0.1156  0.4343  0.1809
  489TMC3    C4 7270   1.656   3.556  17.190 -0.0599  0.1209 -0.9167
  489TMC3    C5 7271   1.607   3.661  17.263 -0.1492  0.4667  0.0738
  489TMC3    C6 7272   1.528   3.747  17.202  0.4420  1.0830  0.0151
  489TMC3     C 7273   1.696   3.437  16.985  0.8240 -0.1880  0.1823
  489TMC3     O 7274   1.767   3.354  17.043  0.0010 -0.6880 -0.1044
  489TMC3     H 7275   1.522   3.636  16.888  0.0284 -0.1871  0.4260
  489TMC3    H1 7276   1.725   3.488  17.238 -0.0669  1.2202  0.6298
  489TMC3    H2 7277   1.467   3.823  17.250 -1.4104  1.7611 -3.3776
  489TMC3    C7 7278   1.646   3.674  17.404 -0.0381 -0.0712  0.1082
  489TMC3    C8 7279   1.449   3.846  17.000 -0.1836 -0.1771 -0.1027
  489TMC3    O1 7280   1.691   3.573  17.457 -0.2266  0.0861  0.4887
  489TMC3    O2 7281   1.347   3.884  17.056  0.3375 -0.4158  0.1613
  490MPD2     C 7282   3.108   3.276  17.522 -0.2445 -0.2446  0.2133
  490MPD2    C1 7283   3.053   3.212  17.627 -0.2683  0.2006  0.2363
  490MPD2    C2 7284   3.114   3.209   0.056 -0.3730  0.1534  0.4154
  490MPD2    C3 7285   3.236   3.269   0.077 -0.0365  0.5567  0.4934
  490MPD2    C4 7286   3.285   3.348  17.671  0.0299  0.4184  0.0295
  490MPD2    C5 7287   3.223   3.347  17.549 -0.1057 -0.3115  0.2677
  490MPD2     H 7288   3.071   3.154   0.138 -0.8420  1.6182  1.1381
  490MPD2    H1 7289   3.380   3.399  17.674 -1.6133  3.5059  0.5819
  490MPD2    H2 7290   3.077   3.265  17.419 -1.7668 -1.3399  0.7942
  490MPD2    H3 7291   3.277   3.391  17.466  1.5986 -2.4286  0.2566
  490MPD2     N 7292   3.306   3.265   0.202 -0.1497 -0.0649 -0.1562
  490MPD2    H5 7293   3.389   3.323   0.214  0.7863 -1.4007 -0.1914
  490MPD2    N1 7294   2.946   3.118  17.612 -0.0986 -0.1598 -0.2126
  490MPD2    H7 7295   2.920   3.071   0.005  0.4071 -1.9771 -1.0715
  491TMC3    C1 7296   2.748   3.046  17.513 -0.1881  0.0656 -1.2346
  491TMC3    C2 7297   2.682   3.050  17.629 -0.5712 -0.0778  1.1846
  491TMC3    C3 7298   2.553   3.007  17.634 -0.2600 -0.2872  0.4597
  491TMC3    C4 7299   2.698   2.990  17.401 -0.7901  0.1487 -0.0058
  491TMC3    C5 7300   2.571   2.930  17.413  1.1164  0.1787  0.7186
  491TMC3    C6 7301   2.499   2.943  17.525  0.7258  0.3452  0.7127
  491TMC3     C 7302   2.878   3.103  17.494  0.2752 -0.0490 -0.5921
  491TMC3     O 7303   2.904   3.148  17.384  0.3066 -0.3790  0.1479
  491TMC3     H 7304   2.724   3.106   0.019  0.8863 -0.2492  0.5618
  491TMC3    H1 7305   2.751   2.994  17.307 -1.8339 -1.9151 -0.6776
  491TMC3    H2 7306   2.403   2.893  17.537  1.3084 -1.0348 -0.3715
  491TMC3    C7 7307   2.515   2.849  17.308  0.3781 -0.4457 -0.2622
  491TMC3    C8 7308   2.471   2.991   0.071 -0.0122 -0.7987  0.3043
  491TMC3    O1 7309   2.394   2.823  17.322 -0.6972 -0.2910 -0.4234
  491TMC3    O2 7310   2.363   2.934   0.065  0.0505 -0.3643  0.2877
  492MPD2     C 7311   3.134   2.930  11.061  0.0222  0.3101  0.5439
  492MPD2    C1 7312   3.016   2.944  10.983  1.0011 -0.1381 -0.7219
  492MPD2    C2 7313   2.895   2.884  11.027 -0.1477  0.1156 -0.5764
  492MPD2    C3 7314   2.896   2.822  11.156  0.0431  0.3403 -0.1771
  492MPD2    C4 7315   3.013   2.809  11.233 -0.2093 -0.0141 -0.3250
  492MPD2    C5 7316   3.127   2.864  11.182 -0.0571 -0.6721  0.3927
  492MPD2     H 7317   2.807   2.891  10.964  0.4302 -0.2308 -1.4216
  492MPD2    H1 7318   3.018   2.758  11.329 -1.0748  3.0055  1.3019
  492MPD2    H2 7319   3.231   2.939  11.014  0.6486 -0.8136  1.6206
  492MPD2    H3 7320   3.219   2.852  11.239  0.9154  0.2838 -0.9898
  492MPD2     N 7321   2.784   2.777  11.228 -0.0182 -0.6228  0.3155
  492MPD2    H5 7322   2.797   2.751  11.325 -0.0071 -1.0704  0.1966
  492MPD2    N1 7323   3.029   3.032  10.873  0.1357  0.3277  0.3259
  492MPD2    H7 7324   3.123   3.071  10.869  0.0754  0.2541 -1.5946
  493TMC3    C1 7325   2.958   3.172  10.695 -0.0106 -0.8069  0.1419
  493TMC3    C2 7326   3.073   3.246  10.690  0.2077 -0.0011 -0.6576
  493TMC3    C3 7327   3.077   3.357  10.608  0.3237  0.6265  0.5050
  493TMC3    C4 7328   2.860   3.205  10.610 -0.0414  0.4633  0.2967
  493TMC3    C5 7329   2.879   3.300  10.516 -0.5731  0.4607 -0.2576
  493TMC3    C6 7330   2.983   3.382  10.518 -0.3012 -0.2189 -0.2999
  493TMC3     C 7331   2.929   3.061  10.785 -0.2986  0.3400  0.0007
  493TMC3     O 7332   2.821   3.004  10.766 -0.1704  0.6249 -0.0759
  493TMC3     H 7333   3.152   3.233  10.764  1.3693 -0.4033 -1.9815
  493TMC3    H1 7334   2.768   3.148  10.606 -0.2263  0.7476  0.4843
  493TMC3    H2 7335   2.988   3.462  10.445 -0.2164  1.1135  1.1733
  493TMC3    C7 7336   2.770   3.324  10.421 -0.0623  0.8300 -0.3516
  493TMC3    C8 7337   3.166   3.464  10.650 -0.6189  0.3280 -0.2805
  493TMC3    O1 7338   2.655   3.323  10.462 -0.8933  0.4218 -0.7371
  493TMC3    O2 7339   3.264   3.427  10.719  0.0999 -0.4771 -0.5342
  494TMC3    C1 7340   3.318   4.208   0.776  0.5124  0.0830  0.6471
  494TMC3    C2 7341   3.404   4.099   0.808  0.4848  0.4509 -0.3767
  494TMC3    C3 7342   3.527   4.113   0.759  0.1507 -0.0576  0.0757
  494TMC3    C4 7343   3.353   4.312   0.694  0.1334 -0.1081 -0.0222
  494TMC3    C5 7344   3.479   4.307   0.645  0.6614  0.1657  0.1231
  494TMC3    C6 7345   3.571   4.215   0.685  0.6390 -0.0782  0.4670
  494TMC3     C 7346   3.179   4.199   0.804 -0.5242 -0.3996 -0.0511
  494TMC3     O 7347   3.112   4.302   0.787 -0.2335  0.0431  0.8880
  494TMC3     H 7348   3.370   4.022   0.877  0.4824  1.5419  0.8440
  494TMC3    H1 7349   3.276   4.367   0.641  0.3620 -1.1793 -1.4818
  494TMC3    H2 7350   3.671   4.210   0.644  0.6662  0.2533  0.4957
  494TMC3    C7 7351   3.508   4.385   0.522  0.4973 -1.2751 -0.1336
  494TMC3    C8 7352   3.612   4.013   0.818 -0.2539 -0.2620  0.0525
  494TMC3    O1 7353   3.592   4.338   0.446  0.1680 -0.2467  0.0549
  494TMC3    O2 7354   3.561   3.908   0.861  0.2580  0.0707  0.6776
  495TMC3    C1 7355   2.244   1.516  14.465 -0.3423 -0.1118  1.0138
  495TMC3    C2 7356   2.154   1.562  14.371  0.4057  0.1192 -0.2118
  495TMC3    C3 7357   2.045   1.638  14.407  0.7638  0.8037  0.0743
  495TMC3    C4 7358   2.216   1.538  14.596  0.4841  1.1525 -0.6153
  495TMC3    C5 7359   2.111   1.620  14.630 -0.0486  0.3657  0.9140
  495TMC3    C6 7360   2.018   1.664  14.536 -0.2649  0.4698  0.5620
  495TMC3     C 7361   2.285   1.383  14.424  0.0736 -0.5583 -0.0689
  495TMC3     O 7362   2.216   1.314  14.348  0.3888  0.1676 -0.3102
  495TMC3     H 7363   2.172   1.539  14.266 -3.8942 -1.9068 -0.4897
  495TMC3    H1 7364   2.275   1.493  14.674  1.4510  1.3813 -1.2209
  495TMC3    H2 7365   1.936   1.730  14.562 -1.4774 -0.4897 -0.8344
  495TMC3    C7 7366   2.088   1.623  14.767 -0.3357  0.6599  0.1260
  495TMC3    C8 7367   1.933   1.618  14.322 -0.4670 -0.3936  0.3571
  495TMC3    O1 7368   2.186   1.606  14.840  0.0702  0.4028 -0.6089
  495TMC3    O2 7369   1.829   1.663  14.367 -0.0324  0.3793  0.4773
  496MPD2     C 7370   3.954   1.504  15.005 -0.9460 -0.1640 -0.4928
  496MPD2    C1 7371   4.001   1.546  15.133 -0.3285 -0.1679  0.2238
  496MPD2    C2 7372   3.936   1.505  15.246  0.1473  0.3395 -0.0423
  496MPD2    C3 7373   3.834   1.416  15.230  0.3799  0.3876  0.1521
  496MPD2    C4 7374   3.782   1.386  15.109 -0.1599 -0.2125  0.4235
  496MPD2    C5 7375   3.845   1.421  14.995  0.0488 -0.0110 -0.5083
  496MPD2     H 7376   3.978   1.528  15.343 -0.1610  0.0240  0.1647
  496MPD2    H1 7377   3.704   1.312  15.103 -1.0228  0.9205 -2.5485
  496MPD2    H2 7378   4.008   1.531  14.915 -1.0240  0.0217 -0.4838
  496MPD2    H3 7379   3.800   1.389  14.902 -0.3505  1.2208 -0.7385
  496MPD2     N 7380   3.771   1.351  15.343  0.4778  0.2970 -0.1062
  496MPD2    H5 7381   3.690   1.290  15.340 -0.3312  1.3095  1.0772
  496MPD2    N1 7382   4.114   1.636  15.135  0.1018 -0.2337 -0.4059
  496MPD2    H7 7383   4.164   1.650  15.047 -1.5617  0.1397 -1.2828
  497TMC3    C1 7384   3.733   1.281  15.562 -0.1706 -0.1141  0.0602
  497TMC3    C2 7385   3.600   1.296  15.553 -0.6577  0.1628 -0.2195
  497TMC3    C3 7386   3.525   1.259  15.663 -0.2872 -0.1855  0.4285
  497TMC3    C4 7387   3.789   1.218  15.674  0.4660 -0.1325 -0.6448
  497TMC3    C5 7388   3.705   1.167  15.774 -0.3517  0.0322 -0.3754
  497TMC3    C6 7389   3.565   1.179  15.763 -0.4657 -0.6565  0.0558
  497TMC3     C 7390   3.824   1.345  15.466  0.0935  0.0656 -0.4882
  497TMC3     O 7391   3.933   1.374  15.513 -0.3576 -0.2869  0.3444
  497TMC3     H 7392   3.553   1.358  15.478 -5.0744 -1.3562  1.2649
  497TMC3    H1 7393   3.897   1.207  15.682  0.3468 -1.7349 -1.1424
  497TMC3    H2 7394   3.493   1.146  15.837 -0.6652 -0.9768 -0.2830
  497TMC3    C7 7395   3.758   1.138  15.905 -0.0747 -0.4790  0.3105
  497TMC3    C8 7396   3.394   1.321  15.674 -0.5787  0.1776 -0.9231
  497TMC3    O1 7397   3.686   1.069  15.978  0.3364  0.3524 -0.2216
  497TMC3    O2 7398   3.319   1.274  15.762 -0.0529  0.2204  0.1115
  498MPD2     C 7399   0.300   2.757  10.154  0.7561  0.2630  0.4246
  498MPD2    C1 7400   0.243   2.716  10.040 -0.4315 -0.2620 -0.6939
  498MPD2    C2 7401   0.144   2.618  10.050  0.4369  1.3307 -0.4944
  498MPD2    C3 7402   0.100   2.567  10.175 -0.6395  0.3175  0.6286
  498MPD2    C4 7403   0.161   2.609  10.288 -0.5063  0.1768 -0.6199
  498MPD2    C5 7404   0.253   2.710  10.277 -0.1944  0.3259 -0.2259
  498MPD2     H 7405   0.100   2.576   9.961 -1.4185  2.2572 -0.0050
  498MPD2    H1 7406   0.133   2.570  10.385 -0.9491  0.5310 -0.6097
  498MPD2    H2 7407   0.380   2.829  10.149  1.7949 -0.9224 -0.0286
  498MPD2    H3 7408   0.300   2.746  10.368  4.1469  0.4278 -2.4749
  498MPD2     N 7409   4.713   2.473  10.169 -0.2440 -0.1823  0.1473
  498MPD2    H5 7410   4.661   2.467  10.082 -0.5964 -0.3765  0.3719
  498MPD2    N1 7411   0.292   2.755   9.913 -0.5812  0.4362 -0.5431
  498MPD2    H7 7412   0.368   2.822   9.917 -0.5196  0.3351 -0.0436
  499TMC3    C1 7413   0.295   2.791   9.684  0.8461  0.3842 -0.0146
  499TMC3    C2 7414   0.224   2.808   9.574 -0.0575 -0.4544  0.2395
  499TMC3    C3 7415   0.284   2.849   9.459  0.4842 -0.3406  1.0380
  499TMC3    C4 7416   0.433   2.804   9.680 -0.4810  0.6326 -0.2147
  499TMC3    C5 7417   0.491   2.853   9.563  0.0270 -0.0731  0.0664
  499TMC3    C6 7418   0.420   2.871   9.448 -0.1387 -0.3055  0.2958
  499TMC3     C 7419   0.232   2.723   9.795 -0.3424 -0.5493  0.7187
  499TMC3     O 7420   0.132   2.659   9.757 -0.7590  0.1608 -0.5393
  499TMC3     H 7421   0.116   2.803   9.579 -0.1105 -0.9220 -1.3597
  499TMC3    H1 7422   0.497   2.779   9.763  0.2913 -0.5880 -1.1706
  499TMC3    H2 7423   0.448   2.902   9.348 -0.8599  0.0417  0.2000
  499TMC3    C7 7424   0.621   2.910   9.580 -0.1016 -0.1158  0.4618
  499TMC3    C8 7425   0.200   2.830   9.342  0.4561  0.4280  0.0006
  499TMC3    O1 7426   0.657   2.929   9.696 -0.4484 -0.5648 -0.0213
  499TMC3    O2 7427   0.113   2.740   9.348  0.6439 -0.3893  0.2384
  500MPD2     C 7428   1.865   4.089  11.275 -0.5241 -0.2058 -0.5225
  500MPD2    C1 7429   1.953   4.125  11.180 -0.0772 -0.4544  0.4450
  500MPD2    C2 7430   1.914   4.141  11.047 -0.2430  0.1578  0.2018
  500MPD2    C3 7431   1.783   4.147  11.008  0.2059 -0.5399 -0.1228
  500MPD2    C4 7432   1.691   4.131  11.111 -0.4597  0.5476 -0.0033
  500MPD2    C5 7433   1.734   4.096  11.238 -0.0342 -0.0353 -0.5578
  500MPD2     H 7434   1.995   4.139  10.975  0.4082  0.4526  0.9247
  500MPD2    H1 7435   1.585   4.148  11.097 -0.2021  0.7127 -1.7748
  500MPD2    H2 7436   1.887   4.067  11.378  1.1121  0.0952 -0.7988
  500MPD2    H3 7437   1.659   4.080  11.315  0.6173  0.3661  0.1673
  500MPD2     N 7438   1.736   4.173  10.877  0.2955 -0.5162  0.4982
  500MPD2    H5 7439   1.636   4.165  10.863  0.0517  2.5899  0.4003
  500MPD2    N1 7440   2.093   4.132  11.207  0.8435 -0.0690  0.1164
  500MPD2    H7 7441   2.156   4.134  11.128 -0.6213 -0.0520 -1.0550
  501TMC3    C1 7442   2.307   4.150  11.314 -0.1983  0.1431 -0.1235
  501TMC3    C2 7443   2.357   4.185  11.195 -0.0712  0.9206 -0.1896
  501TMC3    C3 7444   2.486   4.166  11.176 -0.0177 -0.5472 -0.3935
  501TMC3    C4 7445   2.389   4.083  11.403 -0.0416 -0.3943 -0.0276
  501TMC3    C5 7446   2.518   4.060  11.370 -0.7175  0.6144 -0.2716
  501TMC3    C6 7447   2.562   4.108  11.257  0.3934 -0.5777  0.1317
  501TMC3     C 7448   2.157   4.134  11.329  0.1456  0.4845 -0.2195
  501TMC3     O 7449   2.115   4.107  11.438 -0.6269  0.1458  0.3014
  501TMC3     H 7450   2.297   4.230  11.117  1.4800  2.7195 -0.3568
  501TMC3    H1 7451   2.333   4.038  11.484  0.4624 -1.4174 -0.2447
  501TMC3    H2 7452   2.661   4.079  11.225 -0.2748 -0.8140 -1.6826
  501TMC3    C7 7453   2.602   3.963  11.434 -0.6033 -0.5926 -0.7160
  501TMC3    C8 7454   2.547   4.203  11.050  0.5457  0.2275  0.1883
  501TMC3    O1 7455   2.717   3.957  11.393 -0.1996  0.1755  0.4413
  501TMC3    O2 7456   2.665   4.202  11.023  0.4118  0.2345 -0.3069
  502TMC3    C1 7457   1.441   2.015  15.154 -0.8601  0.5007 -0.3455
  502TMC3    C2 7458   1.464   2.088  15.039  0.4026  0.9401  0.0825
  502TMC3    C3 7459   1.367   2.175  15.005 -1.1886 -0.6092  0.0956
  502TMC3    C4 7460   1.322   2.027  15.222 -0.2986 -0.3577 -0.1940
  502TMC3    C5 7461   1.219   2.096  15.166 -0.0058 -0.9852 -0.2026
  502TMC3    C6 7462   1.250   2.184  15.066  0.2501  0.3931  0.0128
  502TMC3     C 7463   1.566   2.007  15.236 -0.4007  0.5223  0.5511
  502TMC3     O 7464   1.674   1.975  15.189  0.3001 -0.1784 -0.2991
  502TMC3     H 7465   1.566   2.085  15.003  0.6141  1.2408  0.6626
  502TMC3    H1 7466   1.307   1.946  15.292  1.7329  0.6919  1.4742
  502TMC3    H2 7467   1.182   2.262  15.033 -2.8032 -2.3239 -0.0977
  502TMC3    C7 7468   1.126   2.140  15.270 -0.0736 -0.7210  0.4171
  502TMC3    C8 7469   1.404   2.279  14.905 -0.1299  0.1093  0.1240
  502TMC3    O1 7470   1.144   2.107  15.389 -0.1401 -0.1401 -0.0345
  502TMC3    O2 7471   1.341   2.384  14.900  0.6475 -1.0229  0.3010
  503MPD2     C 7472   3.265   3.231  17.097  0.5259  0.4949  0.1137
  503MPD2    C1 7473   3.331   3.268  17.212  0.0886  0.1855 -0.5449
  503MPD2    C2 7474   3.385   3.175  17.298  0.3662  0.7537 -0.6739
  503MPD2    C3 7475   3.361   3.041  17.274 -0.7830 -0.4217 -0.5815
  503MPD2    C4 7476   3.289   3.005  17.162  0.1490 -0.6514 -0.5280
  503MPD2    C5 7477   3.251   3.097  17.073  0.3291 -0.2078  0.9987
  503MPD2     H 7478   3.450   3.205  17.378  2.0134 -0.8188 -1.4132
  503MPD2    H1 7479   3.271   2.902  17.133  0.7956 -0.2930 -2.2023
  503MPD2    H2 7480   3.222   3.291  17.018  0.0512  0.2296  0.1702
  503MPD2    H3 7481   3.188   3.067  16.989  2.4768  0.9613 -1.0074
  503MPD2     N 7482   3.408   2.949  17.368  0.1259  0.5708 -0.0338
  503MPD2    H5 7483   3.477   2.983  17.434 -0.5246  1.1934  0.3332
  503MPD2    N1 7484   3.361   3.402  17.237  0.1490  0.6286 -0.0970
  503MPD2    H7 7485   3.400   3.426  17.327  0.8972  0.5240 -0.4002
  504TMC3    C1 7486   3.480   2.734  17.441  0.7120  0.0739 -0.0302
  504TMC3    C2 7487   3.438   2.614  17.495 -1.0075  0.0063 -0.5843
  504TMC3    C3 7488   3.541   2.531  17.532  0.3660  0.5009 -0.4163
  504TMC3    C4 7489   3.618   2.766  17.430 -0.4690  0.5301 -0.6276
  504TMC3    C5 7490   3.713   2.679  17.470 -0.3850 -0.0968 -0.5509
  504TMC3    C6 7491   3.674   2.553  17.513  0.4176 -0.0523 -0.3737
  504TMC3     C 7492   3.386   2.816  17.366 -0.6288 -0.1637  0.1300
  504TMC3     O 7493   3.295   2.753  17.313 -0.0150 -0.3573 -0.0192
  504TMC3     H 7494   3.337   2.593  17.530 -0.7743  0.4770  0.3789
  504TMC3    H1 7495   3.649   2.858  17.382  1.0401 -0.3564 -1.3351
  504TMC3    H2 7496   3.737   2.469  17.538 -0.0037  0.2457  1.6817
  504TMC3    C7 7497   3.840   2.686  17.397 -0.8510 -0.5059 -0.1648
  504TMC3    C8 7498   3.513   2.391  17.556  0.8178 -0.0498  0.2982
  504TMC3    O1 7499   3.849   2.762  17.300 -0.3841  0.1406  0.2276
  504TMC3    O2 7500   3.484   2.314  17.469  0.3328  0.3082 -0.0163
  505MPD2     C 7501   4.008   1.331  10.013 -0.8248  0.0458 -0.1728
  505MPD2    C1 7502   4.131   1.310   9.945  0.3505 -0.4307  0.0331
  505MPD2    C2 7503   4.236   1.265  10.017 -0.8788  0.5161  0.5778
  505MPD2    C3 7504   4.223   1.235  10.147 -0.8656 -0.3607 -0.4364
  505MPD2    C4 7505   4.105   1.250  10.211  0.2581 -0.3508 -0.4937
  505MPD2    C5 7506   4.001   1.304  10.145  0.2063 -0.8098  0.3223
  505MPD2     H 7507   4.337   1.267   9.978 -0.7913 -1.0335  0.7324
  505MPD2    H1 7508   4.087   1.224  10.314 -0.8043  0.4003 -0.4817
  505MPD2    H2 7509   3.918   1.374   9.970 -0.1790  1.8878  0.2871
  505MPD2    H3 7510   3.903   1.310  10.192  0.4543 -3.1312  1.1565
  505MPD2     N 7511   4.341   1.197  10.209  0.4665  0.0707  0.7251
  505MPD2    H5 7512   4.417   1.176  10.145 -0.9595  1.1073 -1.3418
  505MPD2    N1 7513   4.143   1.320   9.801 -0.3256 -0.3260  0.1413
  505MPD2    H7 7514   4.058   1.345   9.750 -0.0705  0.2373 -0.0050
  506TMC3    C1 7515   4.247   1.316   9.596 -0.3835  0.5643  0.5160
  506TMC3    C2 7516   4.228   1.449   9.582  0.8833  0.5013  0.8303
  506TMC3    C3 7517   4.305   1.512   9.490 -0.0179 -0.3546 -0.1909
  506TMC3    C4 7518   4.342   1.240   9.523 -0.1350  0.1329 -0.6100
  506TMC3    C5 7519   4.419   1.308   9.434 -0.0850 -0.3750  0.1130
  506TMC3    C6 7520   4.398   1.447   9.418 -0.0180  0.1497 -0.6564
  506TMC3     C 7521   4.251   1.276   9.733 -0.1706  0.2390  0.2307
  506TMC3     O 7522   4.341   1.197   9.756 -0.1070 -0.6681 -0.1937
  506TMC3     H 7523   4.157   1.504   9.642  0.8737  0.0021  1.2761
  506TMC3    H1 7524   4.342   1.132   9.531 -0.2116  0.2658  1.2943
  506TMC3    H2 7525   4.458   1.496   9.342  0.6584  0.6942  0.2422
  506TMC3    C7 7526   4.553   1.264   9.452  0.3886 -0.0179  0.1456
  506TMC3    C8 7527   4.282   1.654   9.467  0.5683  0.3087  0.6453
  506TMC3    O1 7528   4.643   1.292   9.375  0.1764  0.3969 -0.3756
  506TMC3    O2 7529   4.298   1.695   9.356 -1.0143 -0.5210 -0.0039
  507TMC3    C1 7530   4.537   2.512  14.629 -0.2408  0.7070 -0.2243
  507TMC3    C2 7531   4.614   2.526  14.520  0.1877  0.6193 -1.0247
  507TMC3    C3 7532   4.709   2.623  14.524 -0.2117  0.5279 -0.4277
  507TMC3    C4 7533   4.537   2.600  14.737 -0.5122  0.5825 -0.4250
  507TMC3    C5 7534   4.646   2.684  14.742  0.4070 -0.3192 -1.1332
  507TMC3    C6 7535   0.002   2.697  14.634  0.5268  0.2484 -0.0291
  507TMC3     C 7536   4.431   2.412  14.621 -0.2195 -0.0228  0.9055
  507TMC3     O 7537   4.457   2.308  14.558  0.8279 -0.3338  0.1712
  507TMC3     H 7538   4.588   2.468  14.432  1.0608  0.8826 -1.4570
  507TMC3    H1 7539   4.464   2.598  14.818 -1.6520 -3.4447 -1.5762
  507TMC3    H2 7540   0.094   2.753  14.645 -0.5521  2.7162 -3.7400
  507TMC3    C7 7541   4.638   2.807  14.822 -0.2127  0.2774  0.8988
  507TMC3    C8 7542   0.014   2.673  14.389  0.7202  0.4203  0.0713
  507TMC3    O1 7543   4.685   2.804  14.936 -0.3887 -0.1495  0.2558
  507TMC3    O2 7544   0.006   2.599  14.290  0.4619  0.1891 -0.0833
  508MPD2     C 7545   0.980   0.083  15.916  0.8114 -0.4077 -0.9309
  508MPD2    C1 7546   0.957   0.175  16.015  1.0525  0.1778  0.5658
  508MPD2    C2 7547   0.973   0.308  15.974 -0.8983 -0.0764  0.2662
  508MPD2    C3 7548   0.989   0.348  15.844 -0.3456  0.6504 -0.0448
  508MPD2    C4 7549   1.002   0.246  15.747 -0.6717 -0.4418 -0.4863
  508MPD2    C5 7550   0.990   0.115  15.783 -0.2297  0.3531 -0.4145
  508MPD2     H 7551   0.956   0.373  16.059  0.0962 -0.2136  0.5692
  508MPD2    H1 7552   1.010   0.271  15.642  1.1281 -0.7022 -0.4023
  508MPD2    H2 7553   0.989   4.703  15.950 -0.1373 -0.4949 -0.9588
  508MPD2    H3 7554   0.989   0.036  15.709 -2.2156  1.2677 -1.3297
  508MPD2     N 7555   0.996   0.486  15.814  0.2734  0.4842 -0.2896
  508MPD2    H5 7556   0.972   0.549  15.890  0.3189  1.9551 -1.4887
  508MPD2    N1 7557   0.924   0.131  16.148 -0.7515  0.1097  0.1743
  508MPD2    H7 7558   0.914   0.031  16.164  0.6998 -0.4380 -2.4422
  509TMC3    C1 7559   0.965   0.900  15.788 -0.5132  0.3693 -0.4855
  509TMC3    C2 7560   1.056   0.961  15.709 -0.2951  0.5527 -0.2255
  509TMC3    C3 7561   1.150   0.883  15.644 -0.1091  0.0252  0.3924
  509TMC3    C4 7562   0.957   0.766  15.784 -0.3049  0.3475 -0.5114
  509TMC3    C5 7563   1.035   0.692  15.711 -0.3979 -0.6753  0.0600
  509TMC3    C6 7564   1.139   0.751  15.642  0.2086  0.0184 -0.6559
  509TMC3     C 7565   0.847   0.970  15.837  0.7381  1.3520  0.4665
  509TMC3     O 7566   0.818   0.953  15.953 -0.1427  0.2619 -0.3868
  509TMC3     H 7567   1.071   1.069  15.710 -1.3497  0.6712  1.7593
  509TMC3    H1 7568   0.888   0.720  15.854 -2.5599 -1.0413 -3.6478
  509TMC3    H2 7569   1.208   0.693  15.582 -2.0554  0.5159 -3.7046
  509TMC3    C7 7570   1.028   0.550  15.700  0.1236  0.5237  0.7075
  509TMC3    C8 7571   1.261   0.949  15.573 -0.2281  0.2943  0.0295
  509TMC3    O1 7572   1.077   0.508  15.600 -0.5921 -0.1774  0.9882
  509TMC3    O2 7573   1.332   0.887  15.495  0.1790 -0.1044  0.1452
  510MPD2     C 7574   3.569   2.146  14.479 -0.5427 -0.4858 -0.5380
  510MPD2    C1 7575   3.622   2.026  14.521  0.0653  0.1425  0.7705
  510MPD2    C2 7576   3.740   1.984  14.466  0.0868  0.0199 -0.0857
  510MPD2    C3 7577   3.815   2.062  14.386  0.4510 -0.2227 -0.0851
  510MPD2    C4 7578   3.757   2.181  14.341  0.4133  0.5835  0.3400
  510MPD2    C5 7579   3.633   2.225  14.386 -0.5638 -0.1189  1.2105
  510MPD2     H 7580   3.782   1.885  14.484  0.5972  0.1101 -0.7850
  510MPD2    H1 7581   3.813   2.247  14.276  4.2598 -2.4676  0.5434
  510MPD2    H2 7582   3.470   2.173  14.513  0.1854  0.8292  0.5529
  510MPD2    H3 7583   3.595   2.320  14.351 -1.5143 -0.8629  0.2145
  510MPD2     N 7584   3.945   2.012  14.354  0.4855  0.5116  0.5517
  510MPD2    H5 7585   3.963   1.912  14.355 -0.5842  0.3253  1.4438
  510MPD2    N1 7586   3.552   1.950  14.618  0.1524 -0.1656  0.5394
  510MPD2    H7 7587   3.601   1.863  14.637  0.4568 -0.0602  0.2458
  511TMC3    C1 7588   3.363   1.877  14.761  0.4520  0.7000 -0.0872
  511TMC3    C2 7589   3.268   1.915  14.849  0.2190  0.0357  0.2108
  511TMC3    C3 7590   3.207   1.815  14.922 -0.3339  1.4458  0.3796
  511TMC3    C4 7591   3.393   1.744  14.742  0.4249 -0.3979  0.5434
  511TMC3    C5 7592   3.324   1.646  14.808 -0.5017 -0.2955  0.6375
  511TMC3    C6 7593   3.232   1.679  14.902 -0.6130  0.2380 -0.2815
  511TMC3     C 7594   3.438   1.984  14.692 -0.4302 -0.8760  0.3534
  511TMC3     O 7595   3.392   2.094  14.709 -0.0108 -0.4408 -0.3814
  511TMC3     H 7596   3.250   2.018  14.876 -1.3305  0.0722 -0.9633
  511TMC3    H1 7597   3.474   1.705  14.681  1.2269  1.7817  0.2290
  511TMC3    H2 7598   3.172   1.610  14.961  1.2066  1.9786  3.6535
  511TMC3    C7 7599   3.292   1.530  14.729  0.0573  0.0911  0.2207
  511TMC3    C8 7600   3.147   1.858  15.049 -0.7483  0.0785  0.0014
  511TMC3    O1 7601   3.317   1.532  14.610 -0.2787 -0.4820 -0.0931
  511TMC3    O2 7602   3.191   1.966  15.092  0.0155  1.1180  0.3488
  512TMC3    C1 7603   2.300   0.877  13.173  0.0308 -0.1534 -0.0991
  512TMC3    C2 7604   2.370   0.911  13.288  0.1950 -0.2978  0.3138
  512TMC3    C3 7605   2.399   0.814  13.385  0.2746 -0.6795 -0.6314
  512TMC3    C4 7606   2.258   0.746  13.141  0.1120  0.6945  0.7125
  512TMC3    C5 7607   2.288   0.658  13.236 -0.5176 -0.1789 -0.2764
  512TMC3    C6 7608   2.356   0.686  13.362 -0.0086  0.3711  0.2994
  512TMC3     C 7609   2.292   0.983  13.076  0.3043  0.0604 -0.1058
  512TMC3     O 7610   2.392   1.051  13.056 -0.0191  0.3697  0.1427
  512TMC3     H 7611   2.414   1.008  13.309  0.5558 -0.8608  2.1696
  512TMC3    H1 7612   2.219   0.711  13.045 -1.4166  1.0038  1.2234
  512TMC3    H2 7613   2.366   0.616  13.444  0.3976 -0.2498 -0.2794
  512TMC3    C7 7614   2.220   0.534  13.225  0.4437  0.6987 -0.1361
  512TMC3    C8 7615   2.482   0.841  13.503  0.1614  0.4392  0.2804
  512TMC3    O1 7616   2.109   0.545  13.179  0.2481  0.0667 -0.8446
  512TMC3    O2 7617   2.474   0.755  13.589  0.1634 -0.0169  0.2225
  513MPD2     C 7618   4.063   1.931  13.254 -0.9735  0.7664 -0.6684
  513MPD2    C1 7619   4.029   1.812  13.194 -0.5627  0.3010  0.0194
  513MPD2    C2 7620   4.058   1.692  13.252 -0.0801  0.4319  0.1133
  513MPD2    C3 7621   4.138   1.695  13.368  0.2497 -0.5132  0.2257
  513MPD2    C4 7622   4.182   1.813  13.427 -0.3922  0.6371 -0.3984
  513MPD2    C5 7623   4.149   1.935  13.369 -0.1141  0.3471 -0.2883
  513MPD2     H 7624   4.038   1.594  13.211  1.1867  0.4453 -0.5565
  513MPD2    H1 7625   4.249   1.814  13.513  0.3337  2.8232 -0.9725
  513MPD2    H2 7626   4.036   2.023  13.205 -2.4231  0.8384  0.2840
  513MPD2    H3 7627   4.195   2.028  13.399 -0.5378  0.1186  1.0289
  513MPD2     N 7628   4.180   1.567  13.419 -0.1658 -0.0268  0.4331
  513MPD2    H5 7629   4.151   1.489  13.362  1.5617 -0.0908 -0.3681
  513MPD2    N1 7630   3.949   1.823  13.082 -0.6876 -0.0503 -0.5810
  513MPD2    H7 7631   3.930   1.918  13.052  2.3206 -0.4928 -3.9434
  514TMC3    C1 7632   3.856   1.762  12.869  0.1586  0.3562  0.5200
  514TMC3    C2 7633   3.912   1.874  12.813  0.3753  0.5418 -0.0878
  514TMC3    C3 7634   3.942   1.864  12.675  0.2843 -0.6105 -0.0118
  514TMC3    C4 7635   3.822   1.652  12.794 -0.4796 -0.3613 -0.2478
  514TMC3    C5 7636   3.884   1.644  12.670  0.3747 -0.5025  0.5014
  514TMC3    C6 7637   3.938   1.748  12.606  0.1565 -0.6106 -0.5440
  514TMC3     C 7638   3.905   1.720  12.999 -0.2516 -0.3635  0.9921
  514TMC3     O 7639   3.908   1.600  13.020  0.0808  0.0554  0.4604
  514TMC3     H 7640   3.961   1.952  12.871  0.8456  0.7595 -0.7690
  514TMC3    H1 7641   3.766   1.570  12.838  2.7517 -1.5584  1.6650
  514TMC3    H2 7642   3.973   1.735  12.504  1.6973  0.9298 -0.2120
  514TMC3    C7 7643   3.957   1.517  12.643 -0.0827  0.0491 -0.3837
  514TMC3    C8 7644   4.048   1.954  12.629 -0.4582  0.9366  0.0319
  514TMC3    O1 7645   4.007   1.502  12.534 -0.0724  0.0978 -0.2008
  514TMC3    O2 7646   4.128   1.994  12.715  0.6628 -0.1449  0.0212
  515MPD2     C 7647   2.027   3.217  14.711 -0.1340  0.0024 -0.6488
  515MPD2    C1 7648   2.130   3.124  14.705 -0.3055  0.4175  0.3701
  515MPD2    C2 7649   2.248   3.160  14.779  0.4629  0.4414 -0.0548
  515MPD2    C3 7650   2.266   3.290  14.824  0.4915  0.8556 -0.0346
  515MPD2    C4 7651   2.167   3.381  14.807 -0.7286  0.2617  0.0220
  515MPD2    C5 7652   2.043   3.343  14.760  0.5954 -0.2230 -0.5538
  515MPD2     H 7653   2.326   3.085  14.789 -0.0562  0.2463  2.4059
  515MPD2    H1 7654   2.176   3.486  14.832  1.2385  0.3782 -1.1659
  515MPD2    H2 7655   1.934   3.191  14.662 -0.3574 -0.1761 -0.1357
  515MPD2    H3 7656   1.963   3.416  14.757  0.1984 -0.7476 -3.3191
  515MPD2     N 7657   2.394   3.340  14.868  0.0605  0.0620  0.0983
  515MPD2    H5 7658   2.412   3.439  14.863 -0.9531  0.2311 -0.2197
  515MPD2    N1 7659   2.115   2.996  14.647 -0.4758  0.2983 -0.1400
  515MPD2    H7 7660   2.181   2.921  14.667 -0.2045  0.2522 -1.1623
  516TMC3    C1 7661   2.027   2.825  14.505  0.6575 -0.0270  0.3529
  516TMC3    C2 7662   2.010   2.814  14.372  0.3042  0.4814 -0.4509
  516TMC3    C3 7663   2.031   2.688  14.328 -0.7873 -0.3869 -0.4002
  516TMC3    C4 7664   2.039   2.724  14.595  0.0758  0.0344  0.0216
  516TMC3    C5 7665   2.064   2.604  14.547 -0.6545 -0.7862 -0.1321
  516TMC3    C6 7666   2.057   2.585  14.408  0.9506  0.3191 -0.0227
  516TMC3     C 7667   2.017   2.962  14.554 -0.2568  0.5120 -0.6210
  516TMC3     O 7668   1.938   3.037  14.498 -0.1784 -0.4142 -0.1000
  516TMC3     H 7669   1.994   2.896  14.304  1.2247  0.8881 -0.1656
  516TMC3    H1 7670   2.050   2.743  14.701 -0.4329 -2.3026  0.4797
  516TMC3    H2 7671   2.080   2.488  14.365 -0.2543  0.1601 -0.2865
  516TMC3    C7 7672   2.101   2.494  14.641  0.0573  1.1677  0.1950
  516TMC3    C8 7673   2.014   2.666  14.186  0.6929  0.2546  0.5424
  516TMC3    O1 7674   2.080   2.510  14.761 -0.0388  0.0328  0.6606
  516TMC3    O2 7675   1.917   2.720  14.134 -0.0634  0.4705 -0.0047
  517MPD2     C 7676   1.421   4.277  17.448  0.0560  0.2834 -0.0754
  517MPD2    C1 7677   1.525   4.358  17.408  0.1005  0.3472  0.4869
  517MPD2    C2 7678   1.531   4.496  17.441  0.6466  0.3303  0.4333
  517MPD2    C3 7679   1.449   4.545  17.542  0.2605  0.0170 -0.1103
  517MPD2    C4 7680   1.340   4.470  17.581  0.3732 -0.4326  0.5598
  517MPD2    C5 7681   1.329   4.343  17.535 -0.2735  0.4538 -0.6730
  517MPD2     H 7682   1.612   4.555  17.399  0.3212 -0.1822 -0.9253
  517MPD2    H1 7683   1.257   4.508  17.638 -0.2314  0.3031 -0.8003
  517MPD2    H2 7684   1.404   4.171  17.435  2.3592 -0.2576  1.3425
  517MPD2    H3 7685   1.247   4.294  17.585  1.5645 -1.6845  0.2170
  517MPD2     N 7686   1.465   4.677  17.589 -0.8874  0.2732 -0.6621
  517MPD2    H5 7687   1.395   4.710  17.654  0.0009  0.0083  0.4420
  517MPD2    N1 7688   1.623   4.306  17.320  0.5340  0.2618  0.5125
  517MPD2    H7 7689   1.700   4.369  17.299  1.0493 -0.9852 -1.3429
  518TMC3    C1 7690   1.752   4.150  17.183  0.3568 -0.0257  0.5406
  518TMC3    C2 7691   1.761   4.028  17.119  0.3238 -0.6569  0.6077
  518TMC3    C3 7692   1.863   4.007  17.032  0.8246 -0.5458 -0.4071
  518TMC3    C4 7693   1.858   4.238  17.185  0.4094 -0.1113 -0.1212
  518TMC3    C5 7694   1.965   4.212  17.103  0.2149 -0.0231 -0.4441
  518TMC3    C6 7695   1.968   4.100  17.024  0.2653 -0.5091 -0.1193
  518TMC3     C 7696   1.641   4.173  17.274  0.5235 -0.3585 -0.4693
  518TMC3     O 7697   1.566   4.078  17.289 -0.2849  0.5801 -0.0507
  518TMC3     H 7698   1.686   3.954  17.144 -1.9748  0.7578 -2.2316
  518TMC3    H1 7699   1.858   4.329  17.244  0.8209 -1.5837  2.1691
  518TMC3    H2 7700   2.038   4.089  16.942  2.4949 -0.9693  1.8373
  518TMC3    C7 7701   2.082   4.296  17.129  1.0442  0.3886  0.0648
  518TMC3    C8 7702   1.880   3.877  16.970  0.0489 -0.4487 -0.4910
  518TMC3    O1 7703   2.071   4.412  17.175 -0.0610 -0.2197 -0.2436
  518TMC3    O2 7704   1.815   3.784  17.017  0.0926 -0.3835  0.1022
  519MPD2     C 7705   3.767   3.201  13.524 -0.2965 -0.0078 -0.1470
  519MPD2    C1 7706   3.707   3.190  13.644  0.0470  0.1987 -0.7051
  519MPD2    C2 7707   3.761   3.104  13.739 -0.0621 -0.4063  0.3707
  519MPD2    C3 7708   3.868   3.024  13.711 -0.6308 -0.9261  0.1253
  519MPD2    C4 7709   3.932   3.041  13.589 -0.0136 -0.7246 -0.3770
  519MPD2    C5 7710   3.876   3.126  13.498  0.3279 -0.6360 -1.0749
  519MPD2     H 7711   3.715   3.093  13.837  1.2340 -1.9772  0.7947
  519MPD2    H1 7712   4.016   2.986  13.548 -0.2296 -0.2254 -1.4888
  519MPD2    H2 7713   3.725   3.268  13.450  1.0725  0.8439 -0.1469
  519MPD2    H3 7714   3.920   3.134  13.398 -2.7994  1.2868 -2.2937
  519MPD2     N 7715   3.926   2.929  13.804  0.4551  0.4213 -0.0252
  519MPD2    H5 7716   3.993   2.866  13.761 -0.4566 -0.1384 -0.6376
  519MPD2    N1 7717   3.584   3.253  13.672 -0.3219 -0.3737 -0.1056
  519MPD2    H7 7718   3.531   3.282  13.591  0.1146 -0.9964 -0.6133
  520TMC3    C1 7719   3.913   2.775  13.959  0.4661 -0.0219 -0.1751
  520TMC3    C2 7720   3.819   2.694  14.008  0.3470  0.0594 -0.8871
  520TMC3    C3 7721   3.852   2.580  14.081  0.2754  0.1936  0.0576
  520TMC3    C4 7722   4.047   2.754  13.983 -0.2652 -0.0475  0.6843
  520TMC3    C5 7723   4.077   2.632  14.044  0.4643  0.4927  0.0867
  520TMC3    C6 7724   3.982   2.544  14.096  0.3362 -0.2596 -0.1897
  520TMC3     C 7725   3.869   2.899  13.917  0.1781 -0.1529  0.1488
  520TMC3     O 7726   3.772   2.933  13.978  0.1395 -0.0205  0.2313
  520TMC3     H 7727   3.712   2.708  13.995  0.1366 -0.0693  0.6183
  520TMC3    H1 7728   4.134   2.807  13.947 -0.7842  0.1793 -0.2270
  520TMC3    H2 7729   4.009   2.451  14.146  0.0350  0.1149  0.6562
  520TMC3    C7 7730   4.213   2.583  14.022  0.5066 -0.1995  0.0038
  520TMC3    C8 7731   3.746   2.478  14.093 -0.4695 -0.5117 -0.1775
  520TMC3    O1 7732   4.282   2.642  13.942  0.1167 -0.2236  0.0274
  520TMC3    O2 7733   3.781   2.359  14.076 -0.4997  0.0149 -0.0868
  521MPD2     C 7734   4.619   1.187  17.528 -0.1202  0.4132  0.0389
  521MPD2    C1 7735   4.584   1.058  17.561  0.7606  0.3197  0.4513
  521MPD2    C2 7736   4.669   0.953  17.518 -0.5189 -0.3313  0.1980
  521MPD2    C3 7737   0.074   0.979  17.476  0.5093  0.1077  0.8104
  521MPD2    C4 7738   0.114   1.113  17.455  0.2135 -0.1010  0.8216
  521MPD2    C5 7739   0.023   1.213  17.481 -0.3938  0.0181  0.4806
  521MPD2     H 7740   4.639   0.851  17.534  0.8360 -0.5182  1.6145
  521MPD2    H1 7741   0.214   1.144  17.427  0.3165  0.3887  1.7234
  521MPD2    H2 7742   4.550   1.267  17.548 -2.5640 -2.3158  2.5096
  521MPD2    H3 7743   0.045   1.313  17.447 -2.0806  0.7414  1.5156
  521MPD2     N 7744   0.152   0.866  17.432  1.4730 -0.0459  0.1133
  521MPD2    H5 7745   0.118   0.771  17.448 -1.8088  1.1272  0.0688
  521MPD2    N1 7746   4.457   1.021  17.597  0.3105 -0.4139 -0.6092
  521MPD2    H7 7747   4.408   1.098  17.642 -0.0519 -0.8387 -0.2813
  522TMC3    C1 7748   0.327   0.754  17.313  0.5789  0.5657 -0.5822
  522TMC3    C2 7749   0.460   0.754  17.285  0.1308 -0.5653  0.0917
  522TMC3    C3 7750   0.506   0.671  17.193 -0.3395 -0.0344  1.1642
  522TMC3    C4 7751   0.244   0.674  17.249 -0.7624  0.5246  0.1272
  522TMC3    C5 7752   0.288   0.598  17.143 -0.2464  0.3356  0.1023
  522TMC3    C6 7753   0.427   0.584  17.127  0.6563 -0.0811 -0.2141
  522TMC3     C 7754   0.278   0.876  17.372  0.6151  0.0147 -0.2417
  522TMC3     O 7755   0.348   0.974  17.371  0.0210 -0.2602 -0.4818
  522TMC3     H 7756   0.526   0.833  17.318 -0.5666  0.6055 -1.3251
  522TMC3    H1 7757   0.137   0.688  17.264 -1.1077 -0.9510 -1.0094
  522TMC3    H2 7758   0.461   0.505  17.060 -0.3325 -0.6405 -0.0586
  522TMC3    C7 7759   0.195   0.529  17.052 -0.7483  0.1917 -0.0851
  522TMC3    C8 7760   0.651   0.670  17.158 -0.8564 -0.5291 -0.1110
  522TMC3    O1 7761   0.234   0.434  16.986  0.7899  0.8874  0.3100
  522TMC3    O2 7762   0.724   0.737  17.234  0.6621  0.4772  0.2588
  523MPD2     C 7763   2.816   1.139  10.452  0.2940  0.1477  0.6585
  523MPD2    C1 7764   2.753   1.112  10.331 -0.0987  0.1573 -0.2989
  523MPD2    C2 7765   2.695   1.221  10.264  0.4747 -0.3205  0.4560
  523MPD2    C3 7766   2.725   1.351  10.310  0.4024 -0.1718 -0.7619
  523MPD2    C4 7767   2.787   1.368  10.431  0.0875 -0.4902 -0.0563
  523MPD2    C5 7768   2.827   1.265  10.510  0.8936  0.0472  0.2376
  523MPD2     H 7769   2.647   1.202  10.168 -0.4728  0.0096  0.8600
  523MPD2    H1 7770   2.805   1.466  10.474 -0.0583 -0.7796  0.6702
  523MPD2    H2 7771   2.859   1.056  10.506 -0.2249 -1.0019 -0.7190
  523MPD2    H3 7772   2.871   1.288  10.606  0.1131  3.3206 -0.1706
  523MPD2     N 7773   2.679   1.466  10.246 -0.3622 -0.8242  0.0912
  523MPD2    H5 7774   2.693   1.552  10.299 -1.2767 -1.3570  1.2198
  523MPD2    N1 7775   2.748   0.969  10.291 -0.4949 -0.3592 -0.6455
  523MPD2    H7 7776   2.794   0.904  10.353 -0.5774 -0.5020 -0.7358
  524TMC3    C1 7777   2.591   1.613  10.094  0.7749  0.1258 -0.0220
  524TMC3    C2 7778   2.681   1.709  10.123 -0.4357 -0.1764  0.4009
  524TMC3    C3 7779   2.650   1.842  10.089 -0.2239  0.4189  0.5043
  524TMC3    C4 7780   2.480   1.645  10.020 -0.7829  0.1118 -1.3433
  524TMC3    C5 7781   2.459   1.772   9.987 -0.4577  0.0514  0.1235
  524TMC3    C6 7782   2.536   1.877  10.022 -0.1611  0.7788 -0.0166
  524TMC3     C 7783   2.611   1.476  10.129  0.6144  0.2155  0.3086
  524TMC3     O 7784   2.553   1.398  10.060  0.0259  0.1036 -0.5733
  524TMC3     H 7785   2.755   1.689  10.199 -0.4417 -3.7357 -0.5497
  524TMC3    H1 7786   2.398   1.575  10.006 -0.0400 -0.7630 -1.3693
  524TMC3    H2 7787   2.488   1.973  10.014 -2.1575 -0.2449 -0.2972
  524TMC3    C7 7788   2.323   1.795   9.930  0.3931 -0.7078  0.7178
  524TMC3    C8 7789   2.755   1.946  10.110  0.1670  0.0977 -0.2070
  524TMC3    O1 7790   2.243   1.714   9.969 -0.0771  0.3771 -1.1887
  524TMC3    O2 7791   2.746   2.051  10.048  0.1320  0.1284 -0.4596
  525MPD2     C 7792   0.682   1.948  14.453  0.0451  0.1588 -0.5597
  525MPD2    C1 7793   0.648   2.050  14.542  0.0947 -0.8048  0.0661
  525MPD2    C2 7794   0.615   2.174  14.492 -0.4508  0.4679 -0.0981
  525MPD2    C3 7795   0.635   2.203  14.360 -0.6452  0.1989  0.4964
  525MPD2    C4 7796   0.655   2.106  14.264  0.3160 -0.5541  0.2064
  525MPD2    C5 7797   0.675   1.975  14.316  0.3806  0.1754 -0.0391
  525MPD2     H 7798   0.599   2.262  14.553 -2.5112  0.7714 -1.0692
  525MPD2    H1 7799   0.645   2.114  14.157 -2.0012  1.1385  0.5375
  525MPD2    H2 7800   0.698   1.844  14.476 -1.4913 -0.1813 -1.0388
  525MPD2    H3 7801   0.689   1.892  14.247  1.3973  1.1552 -0.9987
  525MPD2     N 7802   0.624   2.346  14.332  0.2253  0.5372  0.1506
  525MPD2    H5 7803   0.600   2.403  14.412 -1.3547  0.8745 -0.5698
  525MPD2    N1 7804   0.655   2.023  14.677 -0.3253 -0.4601 -0.0832
  525MPD2    H7 7805   0.702   1.938  14.705  0.1034  1.0450  3.7588
  526TMC3    C1 7806   0.653   2.058  14.913 -0.3415 -0.7829  0.5334
  526TMC3    C2 7807   0.584   2.095  15.022 -0.1118  0.5373 -0.1238
  526TMC3    C3 7808   0.643   2.065  15.147 -0.0455 -0.0777  0.0925
  526TMC3    C4 7809   0.770   1.983  14.916 -0.6443  0.1575  0.1432
  526TMC3    C5 7810   0.819   1.954  15.039 -0.6805  0.5439 -0.0209
  526TMC3    C6 7811   0.759   1.988  15.161  0.5306 -0.8865  0.4744
  526TMC3     C 7812   0.610   2.108  14.780 -0.7588 -0.5364  0.0008
  526TMC3     O 7813   0.550   2.215  14.768 -0.6596  0.4316 -0.3275
  526TMC3     H 7814   0.491   2.146  15.000 -1.2536 -1.3149  0.4139
  526TMC3    H1 7815   0.835   1.961  14.832 -1.2667  1.3579 -0.6442
  526TMC3    H2 7816   0.819   1.978  15.250  0.1192  0.4414  0.9029
  526TMC3    C7 7817   0.941   1.887  15.052  0.2635 -0.0586  0.0232
  526TMC3    C8 7818   0.571   2.089  15.267  0.1186  0.2759 -0.0692
  526TMC3    O1 7819   1.007   1.899  15.156  0.3327  0.8771  0.0815
  526TMC3    O2 7820   0.607   2.032  15.368 -0.2805 -0.1975 -0.0883
  527MPD2     C 7821   3.340   4.222   1.157 -0.0500  0.4726  0.5135
  527MPD2    C1 7822   3.405   4.349   1.168  0.2031  0.0259 -0.1036
  527MPD2    C2 7823   3.543   4.354   1.166 -0.6075  0.2373  0.5818
  527MPD2    C3 7824   3.616   4.237   1.140  0.0858 -0.3890 -0.2782
  527MPD2    C4 7825   3.554   4.115   1.130  0.8286 -0.4504  0.4286
  527MPD2    C5 7826   3.421   4.112   1.143  0.3109 -0.6470 -0.6640
  527MPD2     H 7827   3.602   4.444   1.171 -1.3176  0.8401 -1.8071
  527MPD2    H1 7828   3.592   4.022   1.088 -2.4551 -1.6519  0.1287
  527MPD2    H2 7829   3.235   4.197   1.144  0.7339 -1.5524 -1.8322
  527MPD2    H3 7830   3.374   4.015   1.133 -0.1700 -0.2753 -1.9941
  527MPD2     N 7831   3.757   4.247   1.131  0.4316 -0.2272 -0.4745
  527MPD2    H5 7832   3.800   4.339   1.125  1.2827 -0.5871  0.2246
  527MPD2    N1 7833   3.336   4.472   1.185 -0.2874 -0.2822 -0.0623
  527MPD2    H7 7834   3.396   4.553   1.196 -0.9161 -0.2257  3.0427
  528TMC3    C1 7835   3.153   4.613   1.239  1.1190  0.8170  0.2602
  528TMC3    C2 7836   3.227   4.680   1.338 -0.3096  0.1968 -0.2142
  528TMC3    C3 7837   3.200   0.090   1.366 -0.4434  0.4439  0.3210
  528TMC3    C4 7838   3.044   4.677   1.177  0.0191 -0.1157  0.1170
  528TMC3    C5 7839   3.019   0.082   1.215  0.8458 -0.3579  0.1329
  528TMC3    C6 7840   3.096   0.153   1.304  0.2529  0.1187  0.0483
  528TMC3     C 7841   3.200   4.487   1.176 -0.2281  0.1314  0.6259
  528TMC3     O 7842   3.123   4.404   1.144 -0.8466  0.2434 -0.1191
  528TMC3     H 7843   3.307   4.628   1.390 -0.1013  0.7406  0.0040
  528TMC3    H1 7844   2.987   4.631   1.098 -1.3766 -0.8866  1.5780
  528TMC3    H2 7845   3.060   0.248   1.340 -2.9964 -0.7433 -0.8550
  528TMC3    C7 7846   2.875   0.107   1.225  0.1469 -0.2299 -0.0504
  528TMC3    C8 7847   3.283   0.173   1.449  0.8981 -0.0488 -0.2709
  528TMC3    O1 7848   2.828   0.144   1.333  0.2933  0.2555 -0.1676
  528TMC3    O2 7849   3.262   0.292   1.454  0.8344 -0.3680 -0.1494
  529MPD2     C 7850   1.233   3.270   0.678  0.2977  0.3581 -0.4132
  529MPD2    C1 7851   1.108   3.237   0.628 -0.6181  0.0056 -0.3545
  529MPD2    C2 7852   1.056   3.301   0.520 -0.0845 -0.4390  0.3420
  529MPD2    C3 7853   1.134   3.389   0.448  0.0792  0.6828 -0.0823
  529MPD2    C4 7854   1.256   3.422   0.499 -0.1376 -0.0132 -0.3940
  529MPD2    C5 7855   1.305   3.361   0.610 -0.0531  0.4681 -0.9080
  529MPD2     H 7856   0.951   3.292   0.495  0.3287 -3.2054 -0.3918
  529MPD2    H1 7857   1.315   3.504   0.459  3.0546 -1.7504  0.7016
  529MPD2    H2 7858   1.279   3.229   0.767  2.6497  0.7163 -1.4686
  529MPD2    H3 7859   1.403   3.386   0.650 -1.1712 -0.8938  2.6851
  529MPD2     N 7860   1.091   3.457   0.337 -0.2839  0.4371 -0.1837
  529MPD2    H5 7861   1.162   3.525   0.311  0.9084 -0.7453  0.0329
  529MPD2    N1 7862   1.027   3.137   0.695 -0.1328  0.2198  0.3794
  529MPD2    H7 7863   0.955   3.100   0.633 -0.0572 -2.0105  1.6278
  530TMC3    C1 7864   0.955   2.980   0.854  0.2898 -0.5578  0.4906
  530TMC3    C2 7865   0.911   2.976   0.986 -0.2698 -0.2383  1.2610
  530TMC3    C3 7866   0.820   2.878   1.019 -0.2828  0.7996 -0.0893
  530TMC3    C4 7867   0.923   2.885   0.763  0.2488 -0.1041 -0.2275
  530TMC3    C5 7868   0.830   2.787   0.807  0.1522 -0.6066  0.6331
  530TMC3    C6 7869   0.779   2.784   0.932  0.7359  0.2050  0.0287
  530TMC3     C 7870   1.050   3.089   0.824 -0.5360 -0.5713  1.0407
  530TMC3     O 7871   1.130   3.125   0.910  0.2967  0.6225  0.0994
  530TMC3     H 7872   0.939   3.051   1.058 -0.5902  1.0640  0.0144
  530TMC3    H1 7873   0.967   2.894   0.664  1.2428 -2.7662 -0.0161
  530TMC3    H2 7874   0.711   2.705   0.961  2.7320 -1.2200  0.8542
  530TMC3    C7 7875   0.814   2.676   0.714 -0.9597  0.6189 -0.1509
  530TMC3    C8 7876   0.797   2.849   1.159  0.0830 -0.4710 -0.0627
  530TMC3    O1 7877   0.850   2.701   0.603 -0.6115 -0.0570 -0.3629
  530TMC3    O2 7878   0.680   2.818   1.191  0.0594  0.1675  0.4939
  531MPD2     C 7879   4.313   1.242  12.860  0.5250 -0.4035  0.7835
  531MPD2    C1 7880   4.235   1.286  12.965 -0.0436  0.7012 -0.9958
  531MPD2    C2 7881   4.132   1.368  12.927 -0.1703 -0.0687  0.1079
  531MPD2    C3 7882   4.095   1.386  12.791 -0.3166  0.6172  0.6456
  531MPD2    C4 7883   4.164   1.326  12.696  0.5554 -0.5402  0.0208
  531MPD2    C5 7884   4.268   1.251  12.729 -0.3229  0.2720  0.3356
  531MPD2     H 7885   4.076   1.427  12.999  0.1400 -1.6383  1.6412
  531MPD2    H1 7886   4.151   1.334  12.589  1.1622  1.0770  0.0679
  531MPD2    H2 7887   4.400   1.178  12.872  0.0805 -0.7028  2.3997
  531MPD2    H3 7888   4.339   1.222  12.651 -0.3542 -0.5728  0.6210
  531MPD2     N 7889   3.982   1.462  12.765 -0.2460 -0.0823  0.2605
  531MPD2    H5 7890   3.933   1.500  12.845 -1.5003  0.1010 -0.5880
  531MPD2    N1 7891   4.275   1.255  13.096 -0.5077 -0.3741 -0.3068
  531MPD2    H7 7892   4.363   1.207  13.106  0.3666  1.1989 -0.4680
  532TMC3    C1 7893   4.271   1.258  13.335 -0.6584 -0.2622  0.4970
  532TMC3    C2 7894   4.218   1.326  13.438  0.2028  0.1409  1.1219
  532TMC3    C3 7895   4.296   1.400  13.530 -0.0797 -0.3679  0.1024
  532TMC3    C4 7896   4.406   1.238  13.341  0.2581  0.0471  0.0204
  532TMC3    C5 7897   4.482   1.295  13.437  0.3984 -0.4407  0.4071
  532TMC3    C6 7898   4.426   1.382  13.532 -0.1434  0.4994  0.3334
  532TMC3     C 7899   4.200   1.281  13.213 -0.5650 -0.4857  0.0296
  532TMC3     O 7900   4.089   1.338  13.226 -0.7859 -0.2796 -0.2114
  532TMC3     H 7901   4.110   1.329  13.444  0.3036 -1.9603  4.0957
  532TMC3    H1 7902   4.464   1.187  13.265  0.4510  1.5540 -0.8639
  532TMC3    H2 7903   4.490   1.441  13.597 -1.5913  3.3907 -0.8876
  532TMC3    C7 7904   4.627   1.263  13.464 -0.4568  0.0030  0.6675
  532TMC3    C8 7905   4.263   1.540  13.525 -0.7985  0.0729  0.0251
  532TMC3    O1 7906   4.682   1.326  13.553  0.6446 -0.1955  0.3260
  532TMC3    O2 7907   4.342   1.620  13.574 -0.5690 -0.1181  0.3219
  533TMC3    C1 7908   0.639   2.543  14.197  0.4787 -0.9516 -0.0115
  533TMC3    C2 7909   0.750   2.620  14.177  0.3375  0.2126  0.0579
  533TMC3    C3 7910   0.744   2.750  14.218  0.2743 -0.1473  0.4650
  533TMC3    C4 7911   0.522   2.598  14.238 -0.3752 -0.6592 -0.4955
  533TMC3    C5 7912   0.528   2.724  14.290 -0.3661 -0.8888 -0.2693
  533TMC3    C6 7913   0.639   2.802  14.284  0.2464  0.0921  0.0740
  533TMC3     C 7914   0.669   2.399  14.209 -0.1598  0.0108  0.4062
  533TMC3     O 7915   0.739   2.353  14.119  0.2866 -0.1310 -0.4750
  533TMC3     H 7916   0.836   2.574  14.129 -0.8108 -1.6876 -0.1901
  533TMC3    H1 7917   0.434   2.539  14.260 -0.5725 -0.7609 -1.5300
  533TMC3    H2 7918   0.655   2.889  14.346 -0.6390  0.3432 -0.0548
  533TMC3    C7 7919   0.422   2.761  14.383  0.2442 -0.3087 -1.2686
  533TMC3    C8 7920   0.871   2.821  14.210  0.0919  0.1611  0.4784
  533TMC3    O1 7921   0.371   2.680  14.457  0.0275 -0.4600 -0.5919
  533TMC3    O2 7922   0.978   2.762  14.227  0.3260 -0.5410 -0.4143
  534MPD2     C 7923   2.965   3.645   1.850  0.3123  0.6203 -0.1000
  534MPD2    C1 7924   2.900   3.755   1.812  0.0730 -0.1797  0.6483
  534MPD2    C2 7925   2.765   3.750   1.788 -0.0574 -0.4057  0.2938
  534MPD2    C3 7926   2.705   3.629   1.783 -0.0453  0.3361  0.6290
  534MPD2    C4 7927   2.771   3.513   1.812 -0.1368 -0.2559  0.1593
  534MPD2    C5 7928   2.901   3.520   1.851 -0.1539 -0.1305 -0.3835
  534MPD2     H 7929   2.712   3.840   1.760  0.0912 -0.4023  0.0180
  534MPD2    H1 7930   2.723   3.416   1.814 -0.9442  0.1267 -0.6012
  534MPD2    H2 7931   3.069   3.650   1.880  0.1450  1.9043  0.2280
  534MPD2    H3 7932   2.968   3.438   1.877 -0.2643  0.0061  0.3259
  534MPD2     N 7933   2.563   3.616   1.753  0.2027 -0.0525 -0.0285
  534MPD2    H5 7934   2.541   3.525   1.716  0.6777 -0.5650  0.9347
  534MPD2    N1 7935   2.963   3.884   1.804  0.3181 -0.1833  0.1074
  534MPD2    H7 7936   2.903   3.956   1.765 -0.3424  1.1559  3.6405
  535TMC3    C1 7937   2.345   3.678   1.686  0.1655 -0.0112  0.3649
  535TMC3    C2 7938   2.221   3.699   1.726 -0.6736  0.1977 -0.4691
  535TMC3    C3 7939   2.130   3.698   1.629 -0.2303  0.9292  0.0828
  535TMC3    C4 7940   2.377   3.641   1.558 -0.1018  1.2715 -0.2723
  535TMC3    C5 7941   2.283   3.675   1.460  0.2205 -0.4435  0.7746
  535TMC3    C6 7942   2.156   3.695   1.494 -0.4519 -0.1277  0.3384
  535TMC3     C 7943   2.462   3.711   1.771  0.1884  0.3740  0.8103
  535TMC3     O 7944   2.463   3.824   1.819 -0.8192 -0.6965 -0.0125
  535TMC3     H 7945   2.191   3.716   1.829  1.3873  1.0947 -0.0205
  535TMC3    H1 7946   2.481   3.632   1.530  0.8721  0.3248  3.6764
  535TMC3    H2 7947   2.080   3.710   1.417  0.8561  0.8594 -0.7571
  535TMC3    C7 7948   2.325   3.724   1.339  0.1440  0.0011 -0.7301
  535TMC3    C8 7949   2.004   3.641   1.665 -0.6231  0.3520  0.8169
  535TMC3    O1 7950   2.423   3.675   1.282 -0.5784 -0.4037 -0.3628
  535TMC3    O2 7951   1.955   3.567   1.582 -0.3594 -0.4282  0.2159
  536MPD2     C 7952   2.102   2.434  16.398  0.2863  0.2326  0.3474
  536MPD2    C1 7953   1.990   2.421  16.484 -0.1725 -0.0767  0.6970
  536MPD2    C2 7954   1.874   2.415  16.417 -0.1311  1.0814  0.0177
  536MPD2    C3 7955   1.860   2.399  16.285 -0.3573 -0.0971  0.2625
  536MPD2    C4 7956   1.974   2.394  16.204 -0.1600  0.7478 -0.3015
  536MPD2    C5 7957   2.095   2.423  16.260 -0.0393 -0.8516 -0.0256
  536MPD2     H 7958   1.782   2.403  16.473 -0.6134 -1.8870 -1.4641
  536MPD2    H1 7959   1.967   2.381  16.097 -1.6286 -2.1877  0.1401
  536MPD2    H2 7960   2.194   2.455  16.452  1.0854  0.6505 -1.1818
  536MPD2    H3 7961   2.187   2.420  16.203 -0.6634 -0.8877 -1.0336
  536MPD2     N 7962   1.734   2.378  16.215 -0.9901 -0.0531  0.5486
  536MPD2    H5 7963   1.743   2.354  16.117  0.2746 -2.3899  1.2398
  536MPD2    N1 7964   2.003   2.412  16.624  0.7021  0.1996 -0.7151
  536MPD2    H7 7965   2.096   2.405  16.664 -0.0718 -0.1008  1.0197
  537TMC3    C1 7966   1.926   2.378  16.849 -0.1443 -0.4649  0.2022
  537TMC3    C2 7967   2.035   2.440  16.899  0.2021 -0.8815  0.0579
  537TMC3    C3 7968   2.068   2.423  17.034  0.9316  0.2328  0.4670
  537TMC3    C4 7969   1.835   2.320  16.935 -0.0032 -0.6380  0.4975
  537TMC3    C5 7970   1.861   2.317  17.068  0.4800 -0.0403 -0.2803
  537TMC3    C6 7971   1.973   2.373  17.124 -0.0157 -0.0308 -0.3727
  537TMC3     C 7972   1.893   2.391  16.706  0.0596 -0.5174  0.2704
  537TMC3     O 7973   1.771   2.375  16.684  0.2419 -0.3979  0.1252
  537TMC3     H 7974   2.105   2.495  16.837 -1.9662  1.5355 -0.2747
  537TMC3    H1 7975   1.755   2.262  16.891  1.8686 -3.3675  0.6279
  537TMC3    H2 7976   1.986   2.380  17.231 -0.1124 -0.1923 -0.3508
  537TMC3    C7 7977   1.797   2.205  17.142  0.6298 -0.3497  0.5173
  537TMC3    C8 7978   2.184   2.491  17.075 -0.8364  0.5102  0.7750
  537TMC3    O1 7979   1.701   2.156  17.083 -0.5081  0.0922  0.5112
  537TMC3    O2 7980   2.174   2.561  17.173  0.2922  0.2323 -0.3445
  538TMC3    C1 7981   3.305   0.733  10.957  1.2385  0.7526 -0.0511
  538TMC3    C2 7982   3.366   0.695  10.843  0.6581  0.0089  0.4542
  538TMC3    C3 7983   3.337   0.773  10.725  0.9093 -0.8580 -0.0432
  538TMC3    C4 7984   3.237   0.850  10.971  0.2878  0.0345 -0.2629
  538TMC3    C5 7985   3.226   0.921  10.850  0.1565  0.4460  0.0434
  538TMC3    C6 7986   3.270   0.890  10.726  0.4358 -0.3004  0.3604
  538TMC3     C 7987   3.327   0.661  11.073 -0.4877  0.7939 -0.5538
  538TMC3     O 7988   3.324   0.538  11.065 -0.3247 -0.0455  0.0431
  538TMC3     H 7989   3.423   0.603  10.837  0.2117 -0.0805 -2.3160
  538TMC3    H1 7990   3.189   0.887  11.061 -2.2153 -2.4743 -0.5579
  538TMC3    H2 7991   3.240   0.947  10.638  2.1659 -2.7471 -1.8049
  538TMC3    C7 7992   3.135   1.035  10.853  0.5115  0.5923 -0.1041
  538TMC3    C8 7993   3.404   0.724  10.602 -0.1816  0.7663 -0.2604
  538TMC3    O1 7994   3.092   1.083  10.751  0.4551  0.5128 -0.0760
  538TMC3    O2 7995   3.444   0.609  10.610  0.7358  0.0312 -0.4808
  539MPD2     C 7996   2.870   4.576  11.508  0.1726  0.1852 -0.2799
  539MPD2    C1 7997   2.981   4.610  11.430  0.6059  0.0622 -0.4499
  539MPD2    C2 7998   3.016   0.021  11.423 -0.0172 -0.4715  0.4349
  539MPD2    C3 7999   2.940   0.119  11.491 -0.4142  0.2651  0.5798
  539MPD2    C4 8000   2.853   0.076  11.588 -0.4464  0.1844  0.6745
  539MPD2    C5 8001   2.820   4.670  11.589  0.1260  0.2030 -0.3389
  539MPD2     H 8002   3.103   0.057  11.370  0.9533 -2.9584  0.3731
  539MPD2    H1 8003   2.800   0.140  11.657  0.2987  2.2203 -0.6243
  539MPD2    H2 8004   2.837   4.474  11.520  2.2465 -0.2738  1.5225
  539MPD2    H3 8005   2.745   4.646  11.663 -0.3614 -1.3752 -1.3569
  539MPD2     N 8006   2.966   0.257  11.482 -0.3004 -0.2838  0.0711
  539MPD2    H5 8007   2.922   0.314  11.553  0.7656 -1.8752  1.9978
  539MPD2    N1 8008   3.062   4.512  11.362 -0.1302  0.4786  0.4435
  539MPD2    H7 8009   3.147   4.546  11.318 -0.3236  0.9453  0.4244
  540TMC3    C1 8010   3.032   0.469  11.398  0.1407  0.2712 -0.0543
  540TMC3    C2 8011   3.040   0.536  11.273 -0.0789  0.2487  0.1700
  540TMC3    C3 8012   2.990   0.663  11.286 -0.2367  0.0348  0.3109
  540TMC3    C4 8013   3.001   0.527  11.518 -0.2184  0.1661  0.5793
  540TMC3    C5 8014   2.967   0.657  11.521 -0.4829 -0.4672  0.0489
  540TMC3    C6 8015   2.967   0.731  11.403  0.3062  0.1690  0.9326
  540TMC3     C 8016   3.044   0.324  11.398 -0.4337 -0.4540  0.4048
  540TMC3     O 8017   3.123   0.277  11.316  0.0436 -0.1599  0.7588
  540TMC3     H 8018   3.067   0.491  11.178  1.1001  1.2794  0.0238
  540TMC3    H1 8019   3.008   0.473  11.612  1.3995  1.5717  1.2450
  540TMC3    H2 8020   2.952   0.839  11.403 -0.6042  0.0373  1.5258
  540TMC3    C7 8021   2.910   0.708  11.644  0.0603  0.1419  0.5483
  540TMC3    C8 8022   2.936   0.721  11.165 -0.1145  0.1441  0.3205
  540TMC3    O1 8023   2.858   0.629  11.720 -0.0709 -0.3165 -0.0436
  540TMC3    O2 8024   2.962   0.838  11.151  0.2832 -0.0451  0.4677
  541MPD2     C 8025   1.172   1.522  13.207  0.0678 -0.6656 -0.5459
  541MPD2    C1 8026   1.160   1.470  13.083 -0.1141 -0.0707  0.4319
  541MPD2    C2 8027   1.178   1.555  12.974 -0.0587 -0.3716  0.3899
  541MPD2    C3 8028   1.220   1.686  12.987 -0.2097 -0.2391  0.2891
  541MPD2    C4 8029   1.250   1.730  13.111 -0.4353 -0.0231 -0.4018
  541MPD2    C5 8030   1.223   1.649  13.222  0.4299 -0.3858  0.1664
  541MPD2     H 8031   1.149   1.522  12.875 -2.0373  2.0668  0.1611
  541MPD2    H1 8032   1.295   1.827  13.124 -3.4365  1.4352 -0.7606
  541MPD2    H2 8033   1.170   1.473  13.303 -0.4885 -1.0205 -0.7409
  541MPD2    H3 8034   1.231   1.681  13.325 -2.7865 -0.1154  0.3513
  541MPD2     N 8035   1.216   1.783  12.880 -0.0191 -0.2165  0.7590
  541MPD2    H5 8036   1.219   1.880  12.910  0.6156  0.0408 -0.1418
  541MPD2    N1 8037   1.130   1.336  13.073  0.4567  0.3523  0.4131
  541MPD2    H7 8038   1.109   1.299  12.981 -2.0739  2.7526  0.0251
  542TMC3    C1 8039   1.219   1.882  12.658 -1.1249 -0.2500  0.0107
  542TMC3    C2 8040   1.206   1.846  12.529  0.3117 -0.5539  0.2719
  542TMC3    C3 8041   1.139   1.927  12.436 -0.4956 -0.7190  0.1854
  542TMC3    C4 8042   1.163   1.997  12.700 -0.1184 -0.3842  0.3915
  542TMC3    C5 8043   1.108   2.080  12.602 -0.4702  0.0718  0.0176
  542TMC3    C6 8044   1.086   2.044  12.474 -0.1114 -0.4775 -0.4146
  542TMC3     C 8045   1.204   1.765  12.747 -1.0110 -0.4530  0.3405
  542TMC3     O 8046   1.197   1.660  12.688 -0.0773 -0.7070 -0.1865
  542TMC3     H 8047   1.255   1.753  12.500 -1.0527 -0.3887 -2.5132
  542TMC3    H1 8048   1.171   2.026  12.805 -0.3487  0.5377  0.1564
  542TMC3    H2 8049   1.037   2.116  12.409  0.4389 -0.3973 -0.7438
  542TMC3    C7 8050   1.032   2.192  12.648  0.0672 -0.7251 -0.3982
  542TMC3    C8 8051   1.118   1.866  12.305 -0.0750  0.1044  0.0412
  542TMC3    O1 8052   1.027   2.293  12.577  0.1213 -0.2462 -0.1046
  542TMC3    O2 8053   1.205   1.790  12.265 -0.5965  0.0449 -0.3265
  543TMC3    C1 8054   0.202   2.652  17.382  0.0125 -0.3619 -0.9643
  543TMC3    C2 8055   0.275   2.543  17.406  0.5106 -0.4985 -0.2755
  543TMC3    C3 8056   0.251   2.481  17.529  0.4010 -0.2983 -0.0472
  543TMC3    C4 8057   0.124   2.712  17.480  0.3648  1.0023 -0.2403
  543TMC3    C5 8058   0.109   2.649  17.602  0.3517 -0.5062  0.1260
  543TMC3    C6 8059   0.177   2.534  17.630  0.3488 -0.4839  0.0204
  543TMC3     C 8060   0.196   2.689  17.240 -0.4906  0.0347 -0.4298
  543TMC3     O 8061   0.246   2.605  17.168  0.0618 -0.1804 -0.7363
  543TMC3     H 8062   0.346   2.501  17.336  1.7844 -2.2583  2.0840
  543TMC3    H1 8063   0.058   2.791  17.444 -1.4138 -0.9060 -1.1445
  543TMC3    H2 8064   0.158   2.488   0.035 -0.3196 -0.2666 -0.0083
  543TMC3    C7 8065   0.010   2.695   0.002 -0.5502  0.3180  0.2050
  543TMC3    C8 8066   0.308   2.346  17.542 -0.2031 -0.4147 -0.3814
  543TMC3    O1 8067   4.721   2.634   0.108 -0.6601  0.3480  0.0317
  543TMC3    O2 8068   0.351   2.303  17.436 -0.1971 -0.1036  0.0075
  544MPD2     C 8069   0.402   1.885   0.062 -0.1860 -0.3054  0.7667
  544MPD2    C1 8070   0.407   1.930  17.625 -0.3749 -0.9408 -0.0411
  544MPD2    C2 8071   0.375   2.060  17.601 -0.1486  0.1739  0.4948
  544MPD2    C3 8072   0.322   2.148  17.691 -0.7968 -0.0507  0.3727
  544MPD2    C4 8073   0.321   2.100   0.127 -0.3803  0.7599 -0.2554
  544MPD2    C5 8074   0.347   1.969   0.157 -0.0049 -0.4607  0.5686
  544MPD2     H 8075   0.395   2.099  17.501  0.0723 -0.8195  0.1497
  544MPD2    H1 8076   0.283   2.152   0.215 -1.1743  1.8446 -1.2358
  544MPD2    H2 8077   0.436   1.785   0.088 -0.7607 -0.9050 -0.7890
  544MPD2    H3 8078   0.335   1.935   0.260 -0.2527 -0.7168  0.4571
  544MPD2     N 8079   0.288   2.280  17.667  0.3448 -0.0578  0.2235
  544MPD2    H5 8080   0.250   2.336   0.051  0.0915  0.1609 -0.0653
  544MPD2    N1 8081   0.471   1.853  17.524  0.1486  0.0040  0.1079
  544MPD2    H7 8082   0.531   1.775  17.551 -1.8857 -1.5528  0.1287
  545TMC3    C1 8083   0.520   1.767  17.314  0.2375 -0.5295  0.1514
  545TMC3    C2 8084   0.462   1.721  17.197  0.3264  0.1704  1.3275
  545TMC3    C3 8085   0.518   1.618  17.130  0.4750  0.0847 -0.2392
  545TMC3    C4 8086   0.637   1.714  17.360 -0.2625  0.5843  0.3771
  545TMC3    C5 8087   0.687   1.603  17.292 -0.2480  0.0451 -0.0848
  545TMC3    C6 8088   0.635   1.556  17.177  0.4471  0.3546 -0.2504
  545TMC3     C 8089   0.460   1.880  17.388  0.0946 -0.1723  0.3131
  545TMC3     O 8090   0.385   1.954  17.326 -0.4496 -0.0301 -0.5776
  545TMC3     H 8091   0.381   1.769  17.144  1.1000  1.3626  1.2312
  545TMC3    H1 8092   0.701   1.746  17.441  0.3256  1.8415 -0.5894
  545TMC3    H2 8093   0.676   1.471  17.124  0.6705  0.5922 -0.4575
  545TMC3    C7 8094   0.816   1.542  17.326 -0.1076 -0.2395  0.2969
  545TMC3    C8 8095   0.472   1.570  17.002  0.0987  0.8411 -0.3577
  545TMC3    O1 8096   0.885   1.495  17.237  0.0990 -0.4586  0.2495
  545TMC3    O2 8097   0.543   1.496  16.936  0.0023  0.2646  0.4725
  546MPD2     C 8098   1.873   2.673  17.452 -0.7131 -0.9037 -0.6863
  546MPD2    C1 8099   1.825   2.697  17.325  0.2886 -0.2398 -0.0355
  546MPD2    C2 8100   1.887   2.784  17.239  0.0978  0.1074  0.6531
  546MPD2    C3 8101   1.992   2.858  17.290  0.2743 -0.5030 -0.2783
  546MPD2    C4 8102   2.042   2.829  17.415  0.1906  0.3365  0.4357
  546MPD2    C5 8103   1.985   2.736  17.491 -0.4708  0.9170 -0.6722
  546MPD2     H 8104   1.858   2.799  17.136  3.5035 -0.0081 -0.3298
  546MPD2    H1 8105   2.125   2.888  17.452  1.8504 -2.1169  0.6060
  546MPD2    H2 8106   1.825   2.602  17.518 -2.1373  0.8142  0.1120
  546MPD2    H3 8107   2.021   2.725  17.593 -1.4520  1.8841 -0.2174
  546MPD2     N 8108   2.061   2.960  17.217 -0.3033 -0.0748  0.1422
  546MPD2    H5 8109   2.150   2.993  17.254 -0.6643  1.3103 -0.2444
  546MPD2    N1 8110   1.710   2.620  17.285 -0.3665  0.2213 -0.1157
  546MPD2    H7 8111   1.684   2.550  17.354  1.7121 -2.2479 -1.8367
  547TMC3    C1 8112   1.554   2.514  17.162  0.2700  0.0973  0.4957
  547TMC3    C2 8113   1.444   2.545  17.092  1.1288  0.9101 -0.4959
  547TMC3    C3 8114   1.332   2.468  17.109  0.2150 -0.0681 -0.0801
  547TMC3    C4 8115   1.568   2.409  17.257  0.0931 -0.1330 -0.1926
  547TMC3    C5 8116   1.453   2.339  17.259 -0.3165 -0.5411 -0.5332
  547TMC3    C6 8117   1.336   2.358  17.193 -0.5877 -0.1068 -0.1558
  547TMC3     C 8118   1.648   2.624  17.168  0.1708 -0.4396 -1.0210
  547TMC3     O 8119   1.664   2.692  17.070  0.0580  0.1327  0.2890
  547TMC3     H 8120   1.440   2.626  17.021  2.1157 -0.5896 -2.2515
  547TMC3    H1 8121   1.655   2.378  17.313  0.2341 -1.2896 -1.0385
  547TMC3    H2 8122   1.243   2.312  17.223  0.2628 -1.3968  0.5224
  547TMC3    C7 8123   1.458   2.222  17.342 -0.5686 -0.2259 -0.1133
  547TMC3    C8 8124   1.216   2.500  17.041  0.0392  0.1297 -0.0910
  547TMC3    O1 8125   1.538   2.221  17.432 -0.0021 -0.2722  0.0881
  547TMC3    O2 8126   1.213   2.611  16.984 -0.0579 -0.5634  0.0651
  548MPD2     C 8127   1.574   3.399  12.039 -0.3648 -0.2197 -0.0341
  548MPD2    C1 8128   1.586   3.342  12.163 -0.4629 -0.4316 -0.1398
  548MPD2    C2 8129   1.614   3.207  12.176 -0.4732  0.0311 -0.5293
  548MPD2    C3 8130   1.632   3.129  12.066  0.1456  0.2549  0.0097
  548MPD2    C4 8131   1.628   3.192  11.941  0.0839  0.2694 -0.5808
  548MPD2    C5 8132   1.603   3.327  11.932 -1.2415  0.8703  0.0694
  548MPD2     H 8133   1.634   3.169  12.275 -1.0748  0.7516 -0.1293
  548MPD2    H1 8134   1.642   3.138  11.849  0.2485  1.3099 -1.1630
  548MPD2    H2 8135   1.546   3.502  12.022 -2.2975 -0.3419  2.4152
  548MPD2    H3 8136   1.596   3.377  11.836  0.1286 -0.1708 -0.5753
  548MPD2     N 8137   1.685   2.994  12.093  0.1914 -0.2077 -0.3517
  548MPD2    H5 8138   1.677   2.962  12.189 -1.2679  0.5590 -0.2042
  548MPD2    N1 8139   1.572   3.435  12.275 -0.6368  0.2241  0.1173
  548MPD2    H7 8140   1.535   3.524  12.245  1.0440  1.0763  0.5597
  549TMC3    C1 8141   1.502   3.471  12.490 -0.5386  0.3173  0.3374
  549TMC3    C2 8142   1.437   3.591  12.456 -0.2302  0.3145 -0.2923
  549TMC3    C3 8143   1.330   3.632  12.539 -0.3337 -0.4261 -0.4459
  549TMC3    C4 8144   1.448   3.388  12.587 -0.4077  0.0070 -0.1719
  549TMC3    C5 8145   1.325   3.425  12.636  0.2311 -0.6466 -0.4793
  549TMC3    C6 8146   1.272   3.550  12.630 -0.1479 -0.6385 -0.3333
  549TMC3     C 8147   1.604   3.407  12.407  0.6521 -0.3467  0.1763
  549TMC3     O 8148   1.668   3.319  12.463  0.1466 -0.5664  0.1874
  549TMC3     H 8149   1.468   3.661  12.381 -0.7318  1.2181  0.3468
  549TMC3    H1 8150   1.501   3.298  12.615 -0.3343 -0.1822 -0.9068
  549TMC3    H2 8151   1.170   3.568  12.664 -0.2720  0.4407 -1.2987
  549TMC3    C7 8152   1.249   3.331  12.711 -0.3488  0.5924  0.3375
  549TMC3    C8 8153   1.259   3.751  12.496 -1.1065  0.0190  0.6612
  549TMC3    O1 8154   1.155   3.367  12.779 -0.5922 -0.3872 -0.1155
  549TMC3    O2 8155   1.286   3.788  12.380 -0.1514  0.0597  0.2199
  550TMC3    C1 8156   0.336   1.357  12.540  0.0716  0.3799  0.1865
  550TMC3    C2 8157   0.343   1.447  12.637 -0.5405 -0.4093 -0.4372
  550TMC3    C3 8158   0.244   1.541  12.643 -0.4086  0.0134  0.6404
  550TMC3    C4 8159   0.254   1.368  12.435  0.5697  0.1175  0.6700
  550TMC3    C5 8160   0.166   1.472  12.439  0.3733  0.6332 -0.6492
  550TMC3    C6 8161   0.152   1.560  12.543 -1.0903  0.0681  0.6318
  550TMC3     C 8162   0.449   1.264  12.546  0.2832 -0.0648  0.6062
  550TMC3     O 8163   0.538   1.289  12.623  0.2630  0.4020  1.2688
  550TMC3     H 8164   0.412   1.430  12.719 -0.2759 -0.7866 -0.7389
  550TMC3    H1 8165   0.258   1.301  12.351  2.8712  1.2804 -0.1591
  550TMC3    H2 8166   0.085   1.645  12.544  0.3176  1.1624  3.0175
  550TMC3    C7 8167   0.088   1.494  12.313 -0.4176 -0.2351 -0.3572
  550TMC3    C8 8168   0.243   1.632  12.752  0.1657 -0.1452 -0.4317
  550TMC3    O1 8169   4.712   1.567  12.326  0.0380 -0.3310  0.0297
  550TMC3    O2 8170   0.141   1.700  12.769 -0.1993 -0.1734  0.3755
  551TMC3    C1 8171   2.929   3.717  13.307  0.1243  0.4279 -0.1707
  551TMC3    C2 8172   3.027   3.769  13.231 -0.1023  0.2891  1.0742
  551TMC3    C3 8173   3.098   3.872  13.285  0.3843  0.3523 -0.3387
  551TMC3    C4 8174   2.889   3.769  13.426 -0.4693  0.1803 -0.2694
  551TMC3    C5 8175   2.960   3.879  13.467 -0.4941  0.2327  0.1059
  551TMC3    C6 8176   3.071   3.924  13.404  0.6549 -0.0159 -0.5498
  551TMC3     C 8177   2.845   3.626  13.240 -0.6712  0.5484 -0.3513
  551TMC3     O 8178   2.870   3.602  13.119  0.3744  0.0738  0.2877
  551TMC3     H 8179   3.059   3.733  13.134 -0.1914  2.0113  0.4037
  551TMC3    H1 8180   2.798   3.740  13.477  0.8058 -0.9954  1.3218
  551TMC3    H2 8181   3.130   3.998  13.456 -0.4101 -0.3136  1.1148
  551TMC3    C7 8182   2.921   3.937  13.598  0.3582 -0.6670  0.0897
  551TMC3    C8 8183   3.216   3.908  13.207  0.3720 -0.0171  0.4744
  551TMC3    O1 8184   3.014   3.976  13.668  0.3930  0.1724 -0.2064
  551TMC3    O2 8185   3.257   3.824  13.128 -0.6453 -0.2351  0.0197
  552MPD2     C 8186   4.573   1.168  13.955  0.0238  0.5877 -0.0407
  552MPD2    C1 8187   4.558   1.033  13.965  0.4754 -0.6967  0.7990
  552MPD2    C2 8188   4.608   0.966  14.074  0.1036 -0.6801 -0.0988
  552MPD2    C3 8189   4.680   1.035  14.171  0.1268  0.0413 -0.1072
  552MPD2    C4 8190   4.689   1.171  14.166 -0.6704  1.3841 -0.7805
  552MPD2    C5 8191   4.640   1.233  14.054 -0.3534 -0.6769 -0.3626
  552MPD2     H 8192   4.606   0.858  14.081  0.2338 -0.7995 -2.0516
  552MPD2    H1 8193   0.029   1.228  14.234  0.0151 -0.3865  0.0738
  552MPD2    H2 8194   4.544   1.217  13.863 -0.0676 -0.7427 -0.7273
  552MPD2    H3 8195   4.655   1.339  14.035  2.1711 -0.7826  1.0329
  552MPD2     N 8196   0.019   0.974  14.278  0.0053 -0.2229 -0.2140
  552MPD2    H5 8197   0.053   1.039  14.347 -3.1621  0.1241  1.0053
  552MPD2    N1 8198   4.500   0.956  13.864  0.4978 -0.2000  0.4582
  552MPD2    H7 8199   4.488   0.856  13.876 -1.1782 -0.0985 -0.4182
  553TMC3    C1 8200   4.380   0.905  13.660 -0.4218 -0.7491 -0.4142
  553TMC3    C2 8201   4.352   0.933  13.530  0.1463  0.1372  0.7370
  553TMC3    C3 8202   4.287   0.846  13.450 -0.4748  0.0311  0.2853
  553TMC3    C4 8203   4.356   0.781  13.707 -0.0487  1.0633  0.1112
  553TMC3    C5 8204   4.271   0.699  13.631  0.8653  0.3505  0.0150
  553TMC3    C6 8205   4.233   0.728  13.501 -0.1923  0.1997 -0.2080
  553TMC3     C 8206   4.452   1.006  13.738 -0.2093 -0.0072 -0.2422
  553TMC3     O 8207   4.446   1.119  13.688  0.6666  0.1774  0.2290
  553TMC3     H 8208   4.384   1.023  13.478  0.0402  0.4297  1.1749
  553TMC3    H1 8209   4.381   0.749  13.808  0.8735  1.5780  0.0496
  553TMC3    H2 8210   4.181   0.654  13.441  2.0921 -1.7540  0.2570
  553TMC3    C7 8211   4.285   0.557  13.659 -0.2860  0.2181 -0.4903
  553TMC3    C8 8212   4.337   0.848  13.316  0.4554 -0.1669  0.0033
  553TMC3    O1 8213   4.190   0.485  13.641 -0.5717  0.5813 -0.6293
  553TMC3    O2 8214   4.450   0.903  13.293 -0.1621 -0.2766  0.0588
  554TMC3    C1 8215   2.464   0.186  11.629  0.0852  0.1707  0.6306
  554TMC3    C2 8216   2.403   0.115  11.531 -0.1409  0.3835  0.0562
  554TMC3    C3 8217   2.450   0.124  11.402  0.2441  0.2464 -0.6618
  554TMC3    C4 8218   2.555   0.281  11.595  0.3149 -0.0076 -0.2603
  554TMC3    C5 8219   2.606   0.289  11.466  0.7863 -0.6709 -0.4290
  554TMC3    C6 8220   2.565   0.196  11.374 -0.9089 -0.9692 -0.0061
  554TMC3     C 8221   2.484   0.115  11.753 -0.2127  0.5369 -0.6027
  554TMC3     O 8222   2.421   0.012  11.766  0.7233 -0.9729  0.0836
  554TMC3     H 8223   2.322   0.047  11.556 -0.4993  1.3854  1.5592
  554TMC3    H1 8224   2.592   0.353  11.667 -0.1126 -2.0107  1.9620
  554TMC3    H2 8225   2.618   0.192  11.280 -0.9091  0.6402 -0.0740
  554TMC3    C7 8226   2.610   0.428  11.414  0.9407 -1.0708 -0.5665
  554TMC3    C8 8227   2.361   0.125  11.287 -0.4969  1.3551  0.0352
  554TMC3    O1 8228   2.620   0.433  11.293 -0.3300  0.1719  0.1905
  554TMC3    O2 8229   2.406   0.164  11.183  0.0029 -0.0950 -0.2897
  555TMC3    C1 8230   0.613   0.003  15.094  0.0974  0.0705 -0.2128
  555TMC3    C2 8231   0.611   0.061  15.223 -0.6447  0.5442 -0.0069
  555TMC3    C3 8232   0.604   4.702  15.330  0.4434  0.7427 -0.0933
  555TMC3    C4 8233   0.596   4.594  15.084 -0.4045  0.2358  0.0087
  555TMC3    C5 8234   0.599   4.517  15.194 -0.4341 -0.4095  0.5242
  555TMC3    C6 8235   0.598   4.569  15.322  0.3030 -0.5406  0.3432
  555TMC3     C 8236   0.668   0.085  14.988  0.1913 -0.6404 -0.2638
  555TMC3     O 8237   0.734   0.185  15.018 -0.0949 -0.2546  0.0957
  555TMC3     H 8238   0.622   0.168  15.227  0.2618  0.4475 -0.0411
  555TMC3    H1 8239   0.623   4.549  14.989 -0.1154 -2.3932  1.3177
  555TMC3    H2 8240   0.603   4.505  15.409  0.0509  1.0541  1.5289
  555TMC3    C7 8241   0.672   4.393  15.173 -0.9457 -0.4911  0.3689
  555TMC3    C8 8242   0.616   0.040  15.462 -0.1348  0.1147 -0.0612
  555TMC3    O1 8243   0.623   4.314  15.090 -0.0741  0.2646 -0.5872
  555TMC3    O2 8244   0.591   0.162  15.463 -0.2435  0.1394  0.0944
  556MPD2     C 8245   3.535   1.958  10.138  0.2493 -0.1864  0.1873
  556MPD2    C1 8246   3.542   1.847  10.217 -0.5384 -0.2175  0.2294
  556MPD2    C2 8247   3.483   1.724  10.177  0.1544  0.1267 -0.7308
  556MPD2    C3 8248   3.413   1.719  10.054 -0.5418 -0.6802  0.6802
  556MPD2    C4 8249   3.419   1.826   9.969  0.1276 -0.1135 -0.1683
  556MPD2    C5 8250   3.479   1.943  10.012  0.5409 -0.2637  0.4708
  556MPD2     H 8251   3.494   1.638  10.241 -1.2092 -0.2458 -0.9883
  556MPD2    H1 8252   3.374   1.825   9.870 -0.9710  2.0453  0.3036
  556MPD2    H2 8253   3.577   2.053  10.168 -1.4617 -0.2437  2.8569
  556MPD2    H3 8254   3.480   2.023   9.939  2.1674  0.3487  1.1529
  556MPD2     N 8255   3.369   1.588  10.014 -0.2530 -0.3209 -0.4418
  556MPD2    H5 8256   3.385   1.512  10.080  1.1181 -0.6111 -1.1037
  556MPD2    N1 8257   3.593   1.838  10.353 -0.3179  0.3409  0.1743
  556MPD2    H7 8258   3.582   1.756  10.411  0.8363 -0.0891 -0.2230
  557TMC3    C1 8259   3.277   1.420   9.880  0.0557 -0.4903  0.4326
  557TMC3    C2 8260   3.195   1.370   9.778  0.6325 -0.1208 -0.2421
  557TMC3    C3 8261   3.178   1.234   9.775  0.4315  0.4373 -0.1018
  557TMC3    C4 8262   3.327   1.337   9.977  0.1215 -0.0845 -0.2695
  557TMC3    C5 8263   3.308   1.206   9.966  0.0648 -0.6895  0.3040
  557TMC3    C6 8264   3.227   1.154   9.873  0.2301 -0.1475 -0.0669
  557TMC3     C 8265   3.295   1.564   9.891 -0.3695  0.5421 -0.7760
  557TMC3     O 8266   3.227   1.640   9.827  0.2609  0.0007  0.1534
  557TMC3     H 8267   3.147   1.428   9.699 -1.1102  0.7955  1.4866
  557TMC3    H1 8268   3.398   1.355  10.057  0.9215  0.6860 -1.1485
  557TMC3    H2 8269   3.204   1.048   9.879  0.7031 -0.2784 -0.6640
  557TMC3    C7 8270   3.349   1.115  10.077  0.1231  0.2080 -0.8033
  557TMC3    C8 8271   3.105   1.174   9.663 -0.2429  0.2833  0.4084
  557TMC3    O1 8272   3.371   1.183  10.180 -0.0393  0.2719 -0.4099
  557TMC3    O2 8273   3.031   1.248   9.598  0.4980 -0.2494  0.4353
  558TMC3    C1 8274   1.737   4.223  10.654 -0.1099  0.2906  0.3837
  558TMC3    C2 8275   1.623   4.292  10.657  0.6342  0.1875  0.5686
  558TMC3    C3 8276   1.544   4.286  10.546 -0.2141  0.7007  0.0828
  558TMC3    C4 8277   1.777   4.164  10.543 -0.1548  0.0469  0.1711
  558TMC3    C5 8278   1.693   4.156  10.440 -0.5893 -1.1007  0.1208
  558TMC3    C6 8279   1.574   4.213  10.439 -0.6702 -0.0803  0.5053
  558TMC3     C 8280   1.816   4.195  10.768  0.5631  0.0213 -0.3495
  558TMC3     O 8281   1.939   4.188  10.760 -0.3035  0.4437  0.1809
  558TMC3     H 8282   1.601   4.338  10.752  0.7759 -1.1953  1.2686
  558TMC3    H1 8283   1.873   4.114  10.542  0.0092  0.3524  0.9094
  558TMC3    H2 8284   1.518   4.214  10.346  0.8108 -1.2027 -0.3887
  558TMC3    C7 8285   1.741   4.090  10.324  0.6978  0.5911  0.1328
  558TMC3    C8 8286   1.401   4.312  10.562  1.2169 -0.0558  0.1039
  558TMC3    O1 8287   1.861   4.061  10.320  0.2120  0.1342 -0.1600
  558TMC3    O2 8288   1.326   4.252  10.482 -0.0254  0.0762 -0.0165
  559MPD2     C 8289   1.647   4.534  10.330 -0.4908  0.9509 -0.6255
  559MPD2    C1 8290   1.594   4.601  10.441 -0.8373 -0.7779  0.5243
  559MPD2    C2 8291   1.673   4.605  10.558  0.1166 -0.2162  0.3992
  559MPD2    C3 8292   1.803   4.567  10.558  0.0723 -0.1715 -0.8210
  559MPD2    C4 8293   1.863   4.506  10.449  0.3870  0.0505  0.1661
  559MPD2    C5 8294   1.783   4.497  10.337  0.0533 -0.1443  0.0080
  559MPD2     H 8295   1.630   4.652  10.645  2.2759  1.5964  0.4991
  559MPD2    H1 8296   1.967   4.478  10.453  0.4177 -0.2293 -2.9137
  559MPD2    H2 8297   1.586   4.523  10.241  3.2562 -1.6259 -2.8205
  559MPD2    H3 8298   1.817   4.445  10.248  2.0922 -1.3342  1.4717
  559MPD2     N 8299   1.874   4.583  10.682 -0.6140 -0.0444  0.4153
  559MPD2    H5 8300   1.817   4.614  10.760 -1.1168 -0.8697  0.3751
  559MPD2    N1 8301   1.460   4.637  10.430 -0.3943 -0.1987  0.3198
  559MPD2    H7 8302   1.407   4.602  10.350  0.7670 -1.0618 -0.0800
  560TMC3    C1 8303   2.040   4.539  10.844  0.3706 -0.0956  0.3981
  560TMC3    C2 8304   1.938   4.500  10.924  0.2102  0.7053  0.5552
  560TMC3    C3 8305   1.964   4.489  11.059 -0.3220 -0.1658 -0.2735
  560TMC3    C4 8306   2.162   4.568  10.895 -0.3407  0.0866  0.4101
  560TMC3    C5 8307   2.184   4.551  11.026 -0.3871 -0.7140  0.3679
  560TMC3    C6 8308   2.086   4.514  11.116 -0.0107  0.1121 -0.2934
  560TMC3     C 8309   2.006   4.562  10.703  0.0341 -0.2607 -0.5378
  560TMC3     O 8310   2.094   4.561  10.623 -0.0937 -0.0603 -0.7258
  560TMC3     H 8311   1.848   4.456  10.883  2.2511 -1.5191 -1.5701
  560TMC3    H1 8312   2.242   4.598  10.829 -0.1645  1.4969  1.2696
  560TMC3    H2 8313   2.106   4.513  11.222 -3.7675  0.1957  0.4277
  560TMC3    C7 8314   2.314   4.544  11.091  1.3371  0.5478 -0.0601
  560TMC3    C8 8315   1.845   4.485  11.144 -0.3879 -0.0375  0.7581
  560TMC3    O1 8316   2.310   4.505  11.206  0.2115 -0.6600 -0.4536
  560TMC3    O2 8317   1.737   4.515  11.096  0.2014 -0.3974 -0.2485
  561TMC3    C1 8318   4.587   3.966  11.701 -0.4780 -0.6052 -0.1642
  561TMC3    C2 8319   4.544   3.899  11.810  0.5927 -0.3751  0.1007
  561TMC3    C3 8320   4.486   3.983  11.902  0.1914 -0.3453 -0.1283
  561TMC3    C4 8321   4.597   4.100  11.686  0.1633 -0.1869 -0.2411
  561TMC3    C5 8322   4.546   4.184  11.785  0.2873 -0.1485  0.7614
  561TMC3    C6 8323   4.489   4.118  11.894  0.2621  0.3829 -0.2794
  561TMC3     C 8324   4.643   3.885  11.597  0.2077 -0.3201  0.0729
  561TMC3     O 8325   0.003   3.947  11.531  0.1843 -0.4039 -0.4151
  561TMC3     H 8326   4.544   3.792  11.827 -1.0456 -0.4379 -0.2481
  561TMC3    H1 8327   4.628   4.142  11.591  3.5969 -0.8939  0.5618
  561TMC3    H2 8328   4.430   4.175  11.965  1.5211  0.9011  0.3334
  561TMC3    C7 8329   4.484   4.309  11.736  0.0192  0.6818  0.4091
  561TMC3    C8 8330   4.439   3.915  12.022 -0.6249  0.0477  0.3212
  561TMC3    O1 8331   4.378   4.341  11.790 -0.6643  0.1147  0.3844
  561TMC3    O2 8332   4.531   3.864  12.088  0.1717  0.0597  0.4575
  562TMC3    C1 8333   0.541   4.601  16.498  0.0627  0.5473  0.1113
  562TMC3    C2 8334   0.543   0.000  16.439  0.4410 -0.4382  0.0669
  562TMC3    C3 8335   0.474   0.021  16.328  0.6858  0.2624  0.4341
  562TMC3    C4 8336   0.474   4.494  16.441 -0.1082 -0.1428  0.0032
  562TMC3    C5 8337   0.421   4.508  16.319  0.4739 -0.2599  0.4458
  562TMC3    C6 8338   0.411   4.633  16.264  0.1256 -0.6769  0.1934
  562TMC3     C 8339   0.645   4.568  16.595 -0.5083  0.9376  0.1607
  562TMC3     O 8340   0.685   4.449  16.615 -0.4338  0.7664 -0.1276
  562TMC3     H 8341   0.589   0.089  16.481 -0.5055 -0.3343  0.8939
  562TMC3    H1 8342   0.461   4.406  16.504 -3.4447 -0.3360 -0.9745
  562TMC3    H2 8343   0.362   4.641  16.167  1.1476 -0.7075 -0.3313
  562TMC3    C7 8344   0.338   4.395  16.270  0.4769 -0.3447  0.5724
  562TMC3    C8 8345   0.470   0.161  16.285  0.6083 -0.1347 -0.5140
  562TMC3    O1 8346   0.241   4.423  16.206 -1.1471 -0.6809  0.2041
  562TMC3    O2 8347   0.534   0.245  16.346  0.7187  0.4580 -0.0466
  563MPD2     C 8348   2.772   1.075  15.569 -0.3904  0.3355 -0.3637
  563MPD2    C1 8349   2.801   1.174  15.657 -0.5493  0.1828  0.0712
  563MPD2    C2 8350   2.916   1.168  15.736  0.0824 -0.5154  0.2754
  563MPD2    C3 8351   2.993   1.052  15.733 -0.4015  0.5314 -0.4723
  563MPD2    C4 8352   2.964   0.955  15.639 -0.1194  0.0618 -0.1319
  563MPD2    C5 8353   2.856   0.967  15.553 -0.3469  0.0524  0.0977
  563MPD2     H 8354   2.935   1.246  15.809  1.3595 -0.8045  0.2445
  563MPD2    H1 8355   3.033   0.872  15.628  2.5074  1.8346  2.6772
  563MPD2    H2 8356   2.684   1.083  15.506 -1.5041 -0.5144  1.0725
  563MPD2    H3 8357   2.828   0.888  15.485  0.5822  0.2293 -0.4925
  563MPD2     N 8358   3.112   1.049  15.818  0.0637 -0.0920 -0.4377
  563MPD2    H5 8359   3.127   1.128  15.879 -0.1321 -0.7577  0.4889
  563MPD2    N1 8360   2.699   1.276  15.682 -0.0242 -0.0447  0.0916
  563MPD2    H7 8361   2.619   1.273  15.619  0.0685 -3.5545  0.1439
  564TMC3    C1 8362   2.585   1.323  15.873  0.2498 -0.0886 -0.0904
  564TMC3    C2 8363   2.492   1.238  15.818 -0.5676 -0.6333 -0.6068
  564TMC3    C3 8364   2.455   1.127  15.890 -0.3669  0.5010  0.2168
  564TMC3    C4 8365   2.640   1.302  16.003  0.0342  0.6595 -0.4824
  564TMC3    C5 8366   2.608   1.185  16.059 -0.1659 -0.8612  0.0636
  564TMC3    C6 8367   2.513   1.103  16.009 -0.0840 -0.4605 -0.1111
  564TMC3     C 8368   2.690   1.360  15.785  0.6198  0.1240  0.3706
  564TMC3     O 8369   2.776   1.428  15.840  0.4720 -0.8303  0.7717
  564TMC3     H 8370   2.429   1.271  15.736 -0.4981 -0.7422 -0.7055
  564TMC3    H1 8371   2.725   1.357  16.042 -1.1053  4.2977 -3.1349
  564TMC3    H2 8372   2.492   1.021  16.077 -1.7936  0.0172 -0.0647
  564TMC3    C7 8373   2.721   1.119  16.115 -0.1314 -0.1236  0.5517
  564TMC3    C8 8374   2.436   0.999  15.825 -0.2113 -0.5316 -0.5904
  564TMC3    O1 8375   2.790   1.171  16.205  0.8497  0.3421  0.3661
  564TMC3    O2 8376   2.422   0.901  15.893  0.4152  0.6178 -0.4086
  565TMC3    C1 8377   3.573   2.842  10.251  0.2292  0.2913 -0.3209
  565TMC3    C2 8378   3.584   2.832  10.387  0.8942 -0.6423 -0.1383
  565TMC3    C3 8379   3.545   2.716  10.447 -0.2835 -0.0433  0.5487
  565TMC3    C4 8380   3.508   2.744  10.182  0.4882 -0.4215 -0.4920
  565TMC3    C5 8381   3.445   2.640  10.249 -0.0376  0.7802 -0.1399
  565TMC3    C6 8382   3.466   2.617  10.381  0.8017 -0.1336 -0.1259
  565TMC3     C 8383   3.580   2.979  10.188 -0.2788  0.4024 -0.4243
  565TMC3     O 8384   3.540   2.989  10.074 -0.4890  0.6266 -0.2870
  565TMC3     H 8385   3.632   2.907  10.449  2.1745 -2.2613  0.8019
  565TMC3    H1 8386   3.491   2.755  10.076 -0.2557 -1.6929 -0.5125
  565TMC3    H2 8387   3.403   2.544  10.430 -0.4600  0.2893 -1.1217
  565TMC3    C7 8388   3.375   2.539  10.170 -1.0242  0.4315  0.4567
  565TMC3    C8 8389   3.603   2.688  10.577  0.5127  0.8220  0.4673
  565TMC3    O1 8390   3.359   2.433  10.228  0.4824  0.4800 -0.3442
  565TMC3    O2 8391   3.638   2.783  10.646  0.1014  0.2935 -0.4629
  566MPD2     C 8392   0.265   3.847  13.956 -0.0377  0.6773 -0.0615
  566MPD2    C1 8393   0.294   3.973  13.908 -0.2569  0.7971  0.1472
  566MPD2    C2 8394   0.211   4.029  13.808  0.0254  0.1436  0.0423
  566MPD2    C3 8395   0.106   3.951  13.755  0.3686  0.0690  0.0373
  566MPD2    C4 8396   0.078   3.826  13.810 -0.1386 -0.2765  0.8645
  566MPD2    C5 8397   0.160   3.778  13.905  0.6229  0.1200  0.2708
  566MPD2     H 8398   0.237   4.126  13.768  2.4467 -1.4530 -2.2310
  566MPD2    H1 8399   4.722   3.760  13.777 -0.5396  1.4748 -1.6597
  566MPD2    H2 8400   0.323   3.805  14.037 -2.4722 -2.0138  0.3191
  566MPD2    H3 8401   0.137   3.685  13.955 -1.1200 -0.0461 -0.8444
  566MPD2     N 8402   0.043   3.984  13.638  0.7835 -0.1536  0.0062
  566MPD2    H5 8403   4.701   3.911  13.609  0.3171 -0.3712  1.5983
  566MPD2    N1 8404   0.417   4.032  13.951 -0.0000  0.5138  0.2008
  566MPD2    H7 8405   0.456   3.972  14.023 -1.1463  0.1773  0.5409
  567TMC3    C1 8406   0.604   4.166  13.949  0.1002 -0.0695 -1.5740
  567TMC3    C2 8407   0.696   4.209  13.864 -0.1541 -0.4170  0.0634
  567TMC3    C3 8408   0.787   4.301  13.916 -0.2590 -0.1453  0.2263
  567TMC3    C4 8409   0.604   4.204  14.082  0.1361  0.4872  0.6336
  567TMC3    C5 8410   0.689   4.303  14.130 -0.3659  0.0210  0.1589
  567TMC3    C6 8411   0.782   4.351  14.045  0.0363 -0.4744 -0.6159
  567TMC3     C 8412   0.483   4.133  13.891 -0.3632 -0.2785 -0.2613
  567TMC3     O 8413   0.462   4.182  13.779 -0.3107  0.3985  0.6813
  567TMC3     H 8414   0.688   4.187  13.758  1.1174  0.5919 -0.2444
  567TMC3    H1 8415   0.511   4.180  14.132  0.9692  0.0312  1.9730
  567TMC3    H2 8416   0.857   4.422  14.076  0.0104 -0.7611  0.0890
  567TMC3    C7 8417   0.679   4.376  14.247  0.1032  0.0693 -0.2227
  567TMC3    C8 8418   0.832   4.397  13.815  0.1346 -0.3911  0.1789
  567TMC3    O1 8419   0.711   4.498  14.242 -0.3532  0.8959  0.8131
  567TMC3    O2 8420   0.754   4.424  13.723  0.0383 -0.2082  0.1237
  568MPD2     C 8421   2.360   4.368  16.164 -0.1976  0.5158  0.2114
  568MPD2    C1 8422   2.419   4.456  16.252 -0.4501 -0.3486  0.1994
  568MPD2    C2 8423   2.466   4.573  16.199 -0.5157 -0.5468 -0.6118
  568MPD2    C3 8424   2.451   4.617  16.066  0.8666  0.6379 -0.2258
  568MPD2    C4 8425   2.378   4.531  15.987 -0.1878  0.0828  0.3273
  568MPD2    C5 8426   2.325   4.412  16.035 -0.1396 -0.0167  0.7690
  568MPD2     H 8427   2.528   4.631  16.267 -2.5258  1.7547 -0.7533
  568MPD2    H1 8428   2.368   4.548  15.880 -0.5211  1.3537  0.5609
  568MPD2    H2 8429   2.333   4.265  16.183 -1.7161  1.0282  0.8651
  568MPD2    H3 8430   2.280   4.341  15.967  0.2458  0.9164 -0.4578
  568MPD2     N 8431   2.512   0.012  16.010  0.1449 -0.1295  0.3433
  568MPD2    H5 8432   2.579   0.059  16.071  0.6866 -1.0148  0.4411
  568MPD2    N1 8433   2.441   4.416  16.388  0.1873  0.6660 -0.5002
  568MPD2    H7 8434   2.418   4.322  16.418 -1.3636  1.2911  0.2790
  569TMC3    C1 8435   2.600   0.177  15.864 -0.1193 -0.2195 -0.8082
  569TMC3    C2 8436   2.639   0.252  15.974  0.4837  0.2463 -0.0149
  569TMC3    C3 8437   2.729   0.351  15.952 -0.1559  0.3301  0.1910
  569TMC3    C4 8438   2.627   0.216  15.734  0.6998  0.2672 -0.7715
  569TMC3    C5 8439   2.700   0.327  15.712  0.3703  0.0738 -0.0850
  569TMC3    C6 8440   2.750   0.388  15.820 -0.2715 -0.4276 -0.2829
  569TMC3     C 8441   2.512   0.059  15.884  0.1062  0.1318  0.0328
  569TMC3     O 8442   2.453   0.014  15.787 -0.0671 -0.2682 -0.3045
  569TMC3     H 8443   2.610   0.229  16.076 -2.2880  1.5687 -0.5147
  569TMC3    H1 8444   2.579   0.166  15.651 -1.7381  0.1718  0.7044
  569TMC3    H2 8445   2.814   0.471  15.795  1.6232 -2.1575 -1.1776
  569TMC3    C7 8446   2.648   0.418  15.604  0.4993 -0.5071  0.4930
  569TMC3    C8 8447   2.701   0.472  16.021 -0.6268 -0.4121 -0.5307
  569TMC3    O1 8448   2.662   0.378  15.493 -0.6036 -0.5774 -0.9038
  569TMC3    O2 8449   2.642   0.554  15.952  0.1185  0.0198  0.1493
  570TMC3    C1 8450   1.889   3.383  16.163  0.2953  0.5327  0.9113
  570TMC3    C2 8451   1.967   3.354  16.062  0.6676 -0.2283  0.9164
  570TMC3    C3 8452   1.920   3.399  15.942 -0.1036  0.6484  0.3347
  570TMC3    C4 8453   1.776   3.463  16.154  0.4845 -0.2362  0.2167
  570TMC3    C5 8454   1.733   3.508  16.036  0.0949  0.2769 -0.4869
  570TMC3    C6 8455   1.806   3.470  15.922  0.4572  0.2997 -0.8214
  570TMC3     C 8456   1.906   3.315  16.292 -0.7111  0.0686 -0.2127
  570TMC3     O 8457   1.928   3.199  16.280  0.3098 -0.0734  0.0901
  570TMC3     H 8458   2.057   3.295  16.071 -0.3382 -1.8340  0.4562
  570TMC3    H1 8459   1.710   3.484  16.237  1.2533 -0.7844  0.9711
  570TMC3    H2 8460   1.773   3.495  15.822  0.1073  0.5872 -0.6375
  570TMC3    C7 8461   1.659   3.631  16.031 -0.2811 -0.5211 -0.2064
  570TMC3    C8 8462   2.019   3.449  15.844  0.5713 -0.6281  0.2876
  570TMC3    O1 8463   1.625   3.671  16.141  0.3600 -0.0515  0.3008
  570TMC3    O2 8464   1.984   3.548  15.785  0.0646  0.2482 -0.0497
  571MPD2     C 8465   0.787   0.578  17.595 -0.1363 -0.3624  0.0973
  571MPD2    C1 8466   0.687   0.500  17.650  0.3379  0.5821  0.0915
  571MPD2    C2 8467   0.573   0.563  17.689  0.4125  0.0425  0.4763
  571MPD2    C3 8468   0.549   0.699  17.660 -1.2121  0.0023 -0.0480
  571MPD2    C4 8469   0.644   0.767  17.588 -0.2265 -0.1070 -0.5352
  571MPD2    C5 8470   0.766   0.706  17.558 -0.3941 -0.0449  0.0550
  571MPD2     H 8471   0.504   0.514   0.065  0.4883 -2.1879 -1.0597
  571MPD2    H1 8472   0.630   0.870  17.559 -0.3508 -0.2016 -0.8137
  571MPD2    H2 8473   0.884   0.536  17.571  0.7938  2.5702 -1.3299
  571MPD2    H3 8474   0.843   0.770  17.517 -0.3405 -1.0384 -1.3697
  571MPD2     N 8475   0.431   0.766   0.012  0.2784  0.2760 -0.2431
  571MPD2    H5 8476   0.423   0.866   0.002 -2.6715  0.0160 -0.5596
  571MPD2    N1 8477   0.716   0.361  17.677  0.7898  0.3493 -0.4870
  571MPD2    H7 8478   0.802   0.320  17.642  0.4043  0.4340 -1.5447
  572TMC3    C1 8479   0.217   0.803   0.111 -0.2155  0.2421  0.0543
  572TMC3    C2 8480   0.097   0.751   0.136  0.6804 -0.4076  0.2831
  572TMC3    C3 8481   4.721   0.844   0.175  0.8268  0.6119  0.3015
  572TMC3    C4 8482   0.248   0.936   0.131 -0.1037 -0.4427 -0.5726
  572TMC3    C5 8483   0.150   1.023   0.162  0.4824 -0.6357 -0.0362
  572TMC3    C6 8484   0.019   0.980   0.183  0.1575 -0.6278 -0.0071
  572TMC3     C 8485   0.327   0.706   0.079 -0.2655 -0.2323  0.2122
  572TMC3     O 8486   0.296   0.587   0.080  0.2317  0.1007 -0.0480
  572TMC3     H 8487   0.074   0.648   0.110 -3.7350  1.2429 -2.4959
  572TMC3    H1 8488   0.349   0.974   0.128 -0.1108 -0.3504  0.6695
  572TMC3    H2 8489   4.661   1.047   0.209  0.8401  0.4007 -0.5369
  572TMC3    C7 8490   0.188   1.158   0.196 -0.0241 -0.5822 -0.6627
  572TMC3    C8 8491   4.590   0.787   0.187 -0.3058  0.0053  0.0888
  572TMC3    O1 8492   0.300   1.178   0.243 -0.0635  0.9860  0.0685
  572TMC3    O2 8493   4.573   0.675   0.145 -0.2063  0.0293 -0.0499
  573MPD2     C 8494   1.552   0.844   0.906  0.0043  0.3732  0.7533
  573MPD2    C1 8495   1.561   0.979   0.928  0.2166 -0.6604 -0.2155
  573MPD2    C2 8496   1.491   1.066   0.850  0.4545 -0.3440  0.1427
  573MPD2    C3 8497   1.415   1.026   0.740  0.1173 -0.0792  0.3903
  573MPD2    C4 8498   1.404   0.886   0.716 -0.5478  0.3131  0.4947
  573MPD2    C5 8499   1.472   0.796   0.803  0.3469 -0.2616  0.0405
  573MPD2     H 8500   1.498   1.170   0.880 -1.0450 -0.1540 -0.1760
  573MPD2    H1 8501   1.334   0.848   0.643  0.4438  1.1698 -0.8930
  573MPD2    H2 8502   1.599   0.772   0.971 -0.2288 -1.8938 -1.5731
  573MPD2    H3 8503   1.464   0.688   0.795 -1.3729 -0.2669  1.9333
  573MPD2     N 8504   1.334   1.118   0.665  0.0507  0.0931  0.6421
  573MPD2    H5 8505   1.288   1.079   0.583 -1.9318 -3.0637  3.2702
  573MPD2    N1 8506   1.649   1.003   1.034 -0.7801 -0.2163  0.5107
  573MPD2    H7 8507   1.694   0.918   1.066 -0.9908 -0.5694 -0.1122
  574TMC3    C1 8508   1.205   1.322   0.614 -0.2307  0.2091 -0.2699
  574TMC3    C2 8509   1.220   1.304   0.481 -0.0053  0.0724 -0.1725
  574TMC3    C3 8510   1.128   1.365   0.398  0.1819  0.0462  0.3886
  574TMC3    C4 8511   1.100   1.387   0.673 -0.0740  0.1259  0.2122
  574TMC3    C5 8512   1.002   1.430   0.588  0.6720  0.0310 -0.0746
  574TMC3    C6 8513   1.016   1.428   0.450  0.3073 -0.2670 -0.4277
  574TMC3     C 8514   1.294   1.244   0.704 -0.0289 -0.0985 -0.5093
  574TMC3     O 8515   1.305   1.281   0.818 -0.0680 -0.1513  0.2613
  574TMC3     H 8516   1.313   1.264   0.441 -1.6268 -1.2654 -2.6085
  574TMC3    H1 8517   1.092   1.404   0.780  0.2451 -0.1636  0.2795
  574TMC3    H2 8518   0.931   1.455   0.387  1.5877 -0.2220 -2.1236
  574TMC3    C7 8519   0.885   1.496   0.642 -0.0854 -0.3401  0.1267
  574TMC3    C8 8520   1.157   1.371   0.258 -0.4151  0.3352  0.4640
  574TMC3    O1 8521   0.834   1.570   0.562  0.8587  0.1254  0.2631
  574TMC3    O2 8522   1.265   1.327   0.224  0.1114  0.3876  0.3241
  575TMC3    C1 8523   4.013   3.013  11.180  0.3352 -0.4434  0.0598
  575TMC3    C2 8524   3.949   3.002  11.296  0.7458 -0.3185 -0.1346
  575TMC3    C3 8525   3.856   2.907  11.309  0.8365  0.8446  0.1083
  575TMC3    C4 8526   4.010   2.918  11.084 -0.2436 -0.0834  0.0071
  575TMC3    C5 8527   3.930   2.813  11.105  0.8669 -0.2839 -0.2778
  575TMC3    C6 8528   3.856   2.800  11.219  0.3003 -0.0166  0.0076
  575TMC3     C 8529   4.100   3.127  11.162  0.7599 -0.0343 -0.2403
  575TMC3     O 8530   4.054   3.234  11.191 -0.4503  0.1763  0.4734
  575TMC3     H 8531   3.946   3.085  11.365 -2.0338 -1.4182  1.0972
  575TMC3    H1 8532   4.080   2.926  11.002 -0.2422  0.0993  0.0262
  575TMC3    H2 8533   3.781   2.723  11.235  0.0497  0.3539  0.5846
  575TMC3    C7 8534   3.911   2.722  10.993  0.1926  0.0241 -0.4805
  575TMC3    C8 8535   3.762   2.905  11.418 -0.1501  1.0034 -0.1195
  575TMC3    O1 8536   3.934   2.769  10.883 -0.4211  0.2715 -0.1613
  575TMC3    O2 8537   3.672   2.821  11.416 -0.2616  0.6373  0.2885
  576MPD2     C 8538   3.165   3.806  12.685  0.5837 -1.2454 -0.1667
  576MPD2    C1 8539   3.249   3.913  12.653  0.6664  0.4210 -0.4301
  576MPD2    C2 8540   3.241   4.035  12.710  0.4401 -0.7755  0.0247
  576MPD2    C3 8541   3.146   4.059  12.809  0.1302  0.1122 -0.4420
  576MPD2    C4 8542   3.070   3.951  12.845 -0.0561 -0.4136  0.1623
  576MPD2    C5 8543   3.077   3.829  12.789  0.5561 -0.1495  0.1374
  576MPD2     H 8544   3.309   4.114  12.679 -0.2032  0.5618  2.0345
  576MPD2    H1 8545   2.996   3.969  12.922  1.5404  1.0491  1.3594
  576MPD2    H2 8546   3.184   3.703  12.657 -1.0228 -1.3739 -0.7638
  576MPD2    H3 8547   3.027   3.741  12.827  2.3286 -0.5920  1.4391
  576MPD2     N 8548   3.140   4.191  12.865 -0.4253  0.4890  0.4153
  576MPD2    H5 8549   3.204   4.259  12.825  0.7405 -0.7965  0.0865
  576MPD2    N1 8550   3.348   3.898  12.546 -0.4602  0.8110  0.2494
  576MPD2    H7 8551   3.411   3.977  12.540  1.0166 -0.3847 -0.0759
  577TMC3    C1 8552   3.466   3.831  12.355  0.0758 -0.0698  0.4505
  577TMC3    C2 8553   3.549   3.738  12.307 -0.4601 -0.4464 -1.1746
  577TMC3    C3 8554   3.620   3.776  12.198 -0.5625  0.3918  0.4192
  577TMC3    C4 8555   3.439   3.948  12.289  1.1028  0.4984  0.0772
  577TMC3    C5 8556   3.494   3.967  12.164 -0.0514  0.2970  1.0342
  577TMC3    C6 8557   3.598   3.886  12.119 -0.7247  0.4827 -0.0782
  577TMC3     C 8558   3.385   3.794  12.468 -0.3585  0.2467  0.4506
  577TMC3     O 8559   3.355   3.675  12.484  0.2964  0.4309 -0.2091
  577TMC3     H 8560   3.569   3.640  12.349  1.2872  0.9383  1.2380
  577TMC3    H1 8561   3.370   4.024  12.324  0.2418  0.0588 -0.6813
  577TMC3    H2 8562   3.645   3.905  12.023 -0.1316 -1.7420 -0.2326
  577TMC3    C7 8563   3.475   4.093  12.092  0.3505  0.1497  0.0783
  577TMC3    C8 8564   3.752   3.723  12.196 -0.1552  0.0694 -0.2840
  577TMC3    O1 8565   3.451   4.192  12.163 -0.3139 -0.1989 -0.1659
  577TMC3    O2 8566   3.749   3.600  12.212  0.1372  0.3003  0.7746
  578MPD2     C 8567   0.669   3.286   1.235  0.6611  0.4412  0.6143
  578MPD2    C1 8568   0.785   3.335   1.179 -0.6030  0.0824 -0.2898
  578MPD2    C2 8569   0.906   3.317   1.254 -0.0532 -0.1122 -0.7571
  578MPD2    C3 8570   0.897   3.262   1.380  0.8609 -0.4237 -0.1510
  578MPD2    C4 8571   0.784   3.225   1.440 -0.2385  0.6502  0.8455
  578MPD2    C5 8572   0.668   3.241   1.369 -0.2337 -0.4039 -1.1027
  578MPD2     H 8573   1.004   3.338   1.213 -0.4519  1.3231 -0.9898
  578MPD2    H1 8574   0.786   3.179   1.538 -2.4083  1.7029  1.4046
  578MPD2    H2 8575   0.572   3.287   1.185  0.7423 -0.6013  0.4426
  578MPD2    H3 8576   0.581   3.197   1.415  0.3533  1.2818  1.5832
  578MPD2     N 8577   1.023   3.241   1.442 -0.7120  0.0147 -0.3836
  578MPD2    H5 8578   1.104   3.255   1.382  0.5663  0.3057  1.4078
  578MPD2    N1 8579   0.772   3.395   1.047  0.3600 -0.4867  0.4293
  578MPD2    H7 8580   0.679   3.402   1.006  0.3721 -0.9906  0.3144
  579TMC3    C1 8581   1.184   3.216   1.610 -0.1733  0.1761  0.3666
  579TMC3    C2 8582   1.234   3.311   1.696 -0.2710  0.3656 -0.4451
  579TMC3    C3 8583   1.364   3.318   1.712 -0.4983 -0.7072  0.3208
  579TMC3    C4 8584   1.263   3.140   1.532 -0.1000  0.6670  0.4397
  579TMC3    C5 8585   1.397   3.149   1.549 -0.5805 -0.0123 -0.4428
  579TMC3    C6 8586   1.453   3.237   1.639 -0.2402  0.1926  0.0543
  579TMC3     C 8587   1.047   3.240   1.577  0.8835  0.0621  0.1009
  579TMC3     O 8588   0.966   3.274   1.661  0.3119  0.4546  0.1863
  579TMC3     H 8589   1.176   3.383   1.752 -0.9810  0.3957 -1.2259
  579TMC3    H1 8590   1.218   3.059   1.476  1.5850  0.6541 -0.9153
  579TMC3    H2 8591   1.561   3.243   1.645 -0.2041  0.4120 -0.8710
  579TMC3    C7 8592   1.494   3.071   1.474  0.0373 -0.4110  0.2104
  579TMC3    C8 8593   1.411   3.413   1.806 -0.2200  0.9501  0.3939
  579TMC3    O1 8594   1.609   3.056   1.518 -0.0233  0.6739  0.3562
  579TMC3    O2 8595   1.339   3.439   1.902  0.8987 -0.2214  0.0857
  580TMC3    C1 8596   0.607   2.896  11.699  0.7292 -0.5719  0.7885
  580TMC3    C2 8597   0.597   2.865  11.566 -0.0968  0.4031 -0.6061
  580TMC3    C3 8598   0.648   2.748  11.523 -0.5739  0.3419  0.5466
  580TMC3    C4 8599   0.661   2.809  11.788  0.1706  0.1031  0.0125
  580TMC3    C5 8600   0.701   2.684  11.740  0.3505  0.1169  0.8259
  580TMC3    C6 8601   0.694   2.651  11.609 -0.7984  0.2364 -0.1441
  580TMC3     C 8602   0.612   3.039  11.728  0.1604  0.3022  0.0137
  580TMC3     O 8603   0.621   3.116  11.632 -0.1515 -0.0672  0.1727
  580TMC3     H 8604   0.560   2.938  11.494  1.9343  0.8822 -1.1679
  580TMC3    H1 8605   0.683   2.834  11.891  2.6537  0.3119 -0.5705
  580TMC3    H2 8606   0.736   2.564  11.560  0.6565  0.6052  0.4481
  580TMC3    C7 8607   0.803   2.625  11.826  0.3299 -0.2295 -0.6244
  580TMC3    C8 8608   0.717   2.757  11.396  0.0638 -0.4141  0.2032
  580TMC3    O1 8609   0.851   2.689  11.916 -0.5015  0.1946  0.3107
  580TMC3    O2 8610   0.660   2.762  11.288  0.1310  0.4396  0.1579
  581MPD2     C 8611   3.791   2.475  15.186  0.4406  0.1490 -0.0855
  581MPD2    C1 8612   3.724   2.396  15.096 -0.1689  0.2160  0.4879
  581MPD2    C2 8613   3.612   2.454  15.033 -0.5156 -0.5261 -0.2528
  581MPD2    C3 8614   3.575   2.585  15.066  0.4462  0.4896  0.2693
  581MPD2    C4 8615   3.651   2.668  15.142 -0.0754 -0.4310  0.2015
  581MPD2    C5 8616   3.745   2.607  15.210  0.4128  0.3727  0.0391
  581MPD2     H 8617   3.541   2.402  14.970  0.8778 -0.4795 -1.8755
  581MPD2    H1 8618   3.642   2.775  15.158  2.6599 -0.1790 -0.0353
  581MPD2    H2 8619   3.879   2.438  15.237  0.0342 -1.3703 -0.5015
  581MPD2    H3 8620   3.804   2.668  15.278  0.8128  0.9072 -0.7866
  581MPD2     N 8621   3.468   2.657  15.007  0.0887 -0.1890  0.4021
  581MPD2    H5 8622   3.443   2.753  15.028 -0.1119 -0.0373 -0.5004
  581MPD2    N1 8623   3.784   2.264  15.066  0.1656 -0.7055 -0.1210
  581MPD2    H7 8624   3.860   2.230  15.124  1.0029 -0.5953 -1.1567
  582TMC3    C1 8625   3.802   2.062  14.961 -0.7403 -0.5681 -0.1652
  582TMC3    C2 8626   3.924   2.047  15.030  0.2497  0.6103  0.1980
  582TMC3    C3 8627   3.939   1.938  15.113  0.2480  0.1986  0.0639
  582TMC3    C4 8628   3.716   1.954  14.957 -0.0883 -0.1687  0.3206
  582TMC3    C5 8629   3.731   1.850  15.039 -0.6912  0.3234 -0.2792
  582TMC3    C6 8630   3.840   1.847  15.127 -0.0473  1.2035  0.0623
  582TMC3     C 8631   3.735   2.192  14.962 -0.3863  0.0282  0.5386
  582TMC3     O 8632   3.645   2.217  14.880 -0.0478 -0.1767  0.0047
  582TMC3     H 8633   3.993   2.130  15.027  0.8885  0.1300  1.4261
  582TMC3    H1 8634   3.618   1.958  14.912  0.5485  1.3301 -0.9484
  582TMC3    H2 8635   3.847   1.771  15.205  0.3759  0.9667 -0.2045
  582TMC3    C7 8636   3.604   1.825  15.112 -0.5682  0.2919 -0.6291
  582TMC3    C8 8637   3.978   1.975  15.241 -0.6173 -0.1639 -0.5124
  582TMC3    O1 8638   3.513   1.753  15.068  0.3536 -0.2031 -0.0277
  582TMC3    O2 8639   3.891   1.961  15.327  0.2469 -0.3723 -0.0776
  583MPD2     C 8640   3.936   4.109  16.914  0.7454  0.2992  0.9040
  583MPD2    C1 8641   3.907   4.238  16.865  0.0921 -0.0847  0.0100
  583MPD2    C2 8642   3.883   4.332  16.965 -0.0072 -0.0262 -0.7397
  583MPD2    C3 8643   3.862   4.292  17.094  1.0527  0.1593  0.0959
  583MPD2    C4 8644   3.902   4.166  17.141  0.2616  0.3161 -0.7962
  583MPD2    C5 8645   3.933   4.075  17.045  0.0490  0.6892  0.4264
  583MPD2     H 8646   3.869   4.436  16.937  1.4415  0.5739  0.8133
  583MPD2    H1 8647   3.895   4.153  17.249 -0.0738 -1.5642 -1.0396
  583MPD2    H2 8648   3.961   4.025  16.850  0.5230  1.6006 -0.8864
  583MPD2    H3 8649   3.947   3.971  17.070  2.2177  0.7340 -0.6302
  583MPD2     N 8650   3.801   4.388  17.183 -0.3741 -0.3473  0.1712
  583MPD2    H5 8651   3.788   4.482  17.148 -0.1817 -0.7118 -0.9015
  583MPD2    N1 8652   3.915   4.267  16.728  0.5577  0.2946 -0.1391
  583MPD2    H7 8653   3.910   4.363  16.697 -1.8138 -0.3173 -1.7099
  584TMC3    C1 8654   3.721   4.490  17.376  0.1854 -0.8777  0.0679
  584TMC3    C2 8655   3.760   4.613  17.328  0.7513 -0.0918 -0.5990
  584TMC3    C3 8656   3.720   0.004  17.400 -0.1438 -0.3052 -0.5457
  584TMC3    C4 8657   3.661   4.484  17.502 -0.2349 -0.2012  0.3137
  584TMC3    C5 8658   3.633   4.602  17.567  0.4961  0.5410 -0.6256
  584TMC3    C6 8659   3.663   4.722  17.520  0.6203 -0.3129 -0.2108
  584TMC3     C 8660   3.766   4.371  17.314  0.5562 -0.5071 -0.8381
  584TMC3     O 8661   3.774   4.275  17.385  0.2216 -0.8212  0.4656
  584TMC3     H 8662   3.816   4.618  17.236  1.4569  0.4031 -0.1479
  584TMC3    H1 8663   3.630   4.389  17.545 -0.4330  0.0428  0.7023
  584TMC3    H2 8664   3.642   0.090  17.576 -1.3385 -0.6745 -0.3654
  584TMC3    C7 8665   3.580   4.587   0.012 -0.6362 -0.0659  0.1833
  584TMC3    C8 8666   3.725   0.126  17.317  0.0525 -0.6227 -0.1265
  584TMC3    O1 8667   3.536   4.478   0.048  0.1038  0.0925 -0.2412
  584TMC3    O2 8668   3.737   0.105  17.196 -0.3074  0.0538 -0.0494
  585MPD2     C 8669   2.729   3.299   0.848 -0.1262 -0.3586 -0.4904
  585MPD2    C1 8670   2.821   3.396   0.804 -0.8253 -0.1717 -0.1492
  585MPD2    C2 8671   2.940   3.350   0.760  0.5038  0.5953 -0.5067
  585MPD2    C3 8672   2.971   3.221   0.743 -1.2585  0.2582 -0.5482
  585MPD2    C4 8673   2.868   3.131   0.762  0.1458  0.0957  0.6442
  585MPD2    C5 8674   2.753   3.176   0.821  0.4174  0.2332  0.0648
  585MPD2     H 8675   3.026   3.415   0.753  1.3363 -0.6377 -1.7508
  585MPD2    H1 8676   2.870   3.025   0.737 -0.5716  0.7334 -2.1078
  585MPD2    H2 8677   2.629   3.322   0.884  0.3868  1.2805 -0.0692
  585MPD2    H3 8678   2.675   3.104   0.843 -0.0244  0.8880  0.6286
  585MPD2     N 8679   3.105   3.187   0.707 -0.2498  0.2065 -0.1204
  585MPD2    H5 8680   3.172   3.262   0.695  0.8119 -0.7501 -0.1755
  585MPD2    N1 8681   2.787   3.531   0.800 -0.1113 -0.1969  0.1307
  585MPD2    H7 8682   2.693   3.547   0.836 -0.6065 -1.7453 -0.4615
  586TMC3    C1 8683   3.274   3.074   0.601 -0.1488  0.4501  0.3123
  586TMC3    C2 8684   3.328   2.957   0.554  0.8247  0.4711 -0.0702
  586TMC3    C3 8685   3.412   2.954   0.452  0.4974 -0.7104  0.1050
  586TMC3    C4 8686   3.303   3.189   0.535 -0.1142  0.0807  0.4646
  586TMC3    C5 8687   3.371   3.182   0.413  0.1389  0.3531 -1.0383
  586TMC3    C6 8688   3.442   3.065   0.383 -0.2500  0.0350 -0.5974
  586TMC3     C 8689   3.146   3.059   0.678 -0.2612  0.2879 -0.0293
  586TMC3     O 8690   3.101   2.950   0.696 -0.4119 -0.6766  0.6193
  586TMC3     H 8691   3.284   2.863   0.585 -3.4911  1.9513 -1.6742
  586TMC3    H1 8692   3.253   3.282   0.556 -0.9236 -0.1783 -0.2901
  586TMC3    H2 8693   3.507   3.072   0.296  1.7759  1.2691  1.0081
  586TMC3    C7 8694   3.262   3.200   0.316 -0.4335 -0.0513 -0.0510
  586TMC3    C8 8695   3.381   2.846   0.365  0.7745  0.2492  0.0749
  586TMC3    O1 8696   3.156   3.146   0.347  0.3741 -0.2177  0.0915
  586TMC3    O2 8697   3.469   2.756   0.355  0.1562 -0.1201  0.1681
  587TMC3    C1 8698   0.519   2.002  16.719  0.2193  0.6642  0.0931
  587TMC3    C2 8699   0.496   2.076  16.609 -0.1794  0.5471 -0.0342
  587TMC3    C3 8700   0.603   2.153  16.559 -0.2057  1.0567 -0.2636
  587TMC3    C4 8701   0.639   1.990  16.776 -0.5474 -0.2582  0.8185
  587TMC3    C5 8702   0.747   2.046  16.716 -0.0231 -0.2012  0.3833
  587TMC3    C6 8703   0.729   2.137  16.615 -0.3878  0.7483 -0.6436
  587TMC3     C 8704   0.404   1.944  16.793  0.0851  0.0673  0.1935
  587TMC3     O 8705   0.422   1.935  16.914  0.1838 -0.1634  0.3698
  587TMC3     H 8706   0.397   2.098  16.572 -0.6951  0.9821  1.6343
  587TMC3    H1 8707   0.659   1.915  16.853  0.3921 -2.2214 -1.3293
  587TMC3    H2 8708   0.815   2.186  16.570 -0.8046  2.1516  0.0889
  587TMC3    C7 8709   0.886   2.000  16.740  0.2480 -0.7429 -0.3324
  587TMC3    C8 8710   0.574   2.285  16.508 -0.0430 -0.1871  0.5350
  587TMC3    O1 8711   0.974   2.033  16.662 -0.0345  0.5051  0.1407
  587TMC3    O2 8712   0.656   2.340  16.434 -0.7643 -0.3477 -0.4087
  588TMC3    C1 8713   2.694   0.349   9.552  0.0273  0.0858  0.3413
  588TMC3    C2 8714   2.621   0.245   9.613  0.4325 -0.0594  0.0918
  588TMC3    C3 8715   2.687   0.178   9.712 -0.2449  0.1826  0.1767
  588TMC3    C4 8716   2.807   0.397   9.610  0.2968  0.4289 -0.1802
  588TMC3    C5 8717   2.864   0.335   9.718 -0.0813 -0.0535 -0.3919
  588TMC3    C6 8718   2.802   0.224   9.774  0.2204 -0.1451  0.0265
  588TMC3     C 8719   2.621   0.442   9.471  0.6336 -0.2651 -0.2975
  588TMC3     O 8720   2.588   0.409   9.360  0.1846 -0.4495 -0.4183
  588TMC3     H 8721   2.546   0.191   9.557  0.3747 -0.5040  0.5945
  588TMC3    H1 8722   2.855   0.486   9.573 -0.9515  0.4930 -1.5866
  588TMC3    H2 8723   2.856   0.181   9.857 -0.3457  0.0210  0.4730
  588TMC3    C7 8724   2.948   0.407   9.813 -0.6789 -0.7235 -0.2783
  588TMC3    C8 8725   2.637   0.052   9.763  0.0972 -0.6707  0.3417
  588TMC3    O1 8726   2.958   0.366   9.927  0.2291 -0.0749 -0.3930
  588TMC3    O2 8727   2.515   0.039   9.759 -0.2432 -0.4561 -0.8008
  589TMC3    C1 8728   1.713   2.147   1.668  0.2557 -0.1185  0.4699
  589TMC3    C2 8729   1.786   2.127   1.781 -0.4044 -0.4005 -0.5381
  589TMC3    C3 8730   1.915   2.079   1.780  0.5596  0.3630 -0.3203
  589TMC3    C4 8731   1.767   2.107   1.549 -0.0095  0.7109  0.0361
  589TMC3    C5 8732   1.896   2.060   1.551 -0.0001 -0.2483 -0.4655
  589TMC3    C6 8733   1.963   2.032   1.663  0.5220  0.2095  0.3543
  589TMC3     C 8734   1.590   2.219   1.671 -0.0743 -0.2890  0.3708
  589TMC3     O 8735   1.515   2.211   1.574  0.6618 -0.1176  0.3105
  589TMC3     H 8736   1.748   2.166   1.874  2.2112 -0.4278  0.5292
  589TMC3    H1 8737   1.710   2.144   1.465  0.7664  1.5260 -0.1350
  589TMC3    H2 8738   2.068   2.003   1.661  0.2506 -0.8597  1.5528
  589TMC3    C7 8739   1.959   2.013   1.428  0.0950  0.1870 -0.1174
  589TMC3    C8 8740   1.999   2.112   1.899 -0.7583 -0.0798  0.4485
  589TMC3    O1 8741   2.074   1.972   1.441  0.0599 -0.0560  1.1322
  589TMC3    O2 8742   1.959   2.197   1.974 -0.2319  0.1418 -0.3464
  590MPD2     C 8743   1.530   0.004  16.656  0.8638  0.0916  0.1749
  590MPD2    C1 8744   1.457   0.069  16.566  0.4450  0.7078  0.2095
  590MPD2    C2 8745   1.520   0.168  16.488  0.2425  0.4186 -0.0864
  590MPD2    C3 8746   1.649   0.194  16.493  0.1547  0.4403  0.6799
  590MPD2    C4 8747   1.724   0.127  16.588  0.2323 -0.8261 -0.1340
  590MPD2    C5 8748   1.664   0.038  16.671 -0.1257 -0.1151  1.0143
  590MPD2     H 8749   1.456   0.230  16.426 -0.2880 -2.0437 -2.0112
  590MPD2    H1 8750   1.830   0.140  16.602  0.0804 -1.4596  1.5795
  590MPD2    H2 8751   1.469   4.667  16.724  0.7656 -0.5130 -0.4407
  590MPD2    H3 8752   1.729   4.708  16.741  2.2733 -0.3001 -1.3905
  590MPD2     N 8753   1.703   0.296  16.409 -0.6967  0.4511  0.1098
  590MPD2    H5 8754   1.644   0.333  16.335 -1.5469 -2.0440 -0.4511
  590MPD2    N1 8755   1.318   0.037  16.572  0.6982 -0.3071 -0.1920
  590MPD2    H7 8756   1.280   4.700  16.645  1.8313  0.6241  1.1511
  591TMC3    C1 8757   1.851   0.398  16.274  0.2379  0.5480  0.8859
  591TMC3    C2 8758   1.906   0.321  16.169 -0.0125 -0.0424 -0.0745
  591TMC3    C3 8759   1.930   0.388  16.049  0.9204  0.0959 -0.1559
  591TMC3    C4 8760   1.809   0.522  16.266 -0.0728 -0.0442  0.0196
  591TMC3    C5 8761   1.838   0.584  16.146  0.2786 -0.1101  0.7174
  591TMC3    C6 8762   1.892   0.520  16.041  0.3067 -0.3962 -0.1846
  591TMC3     C 8763   1.833   0.329  16.395 -0.2511  0.1629  0.3637
  591TMC3     O 8764   1.936   0.297  16.445  0.3292 -0.0475  0.0695
  591TMC3     H 8765   1.937   0.218  16.166  1.1109  0.2708  1.0042
  591TMC3    H1 8766   1.759   0.566  16.351 -0.4553 -2.6947  1.1793
  591TMC3    H2 8767   1.896   0.575  15.948  0.9378  0.9955  0.6784
  591TMC3    C7 8768   1.774   0.714  16.130 -0.0662 -0.3586 -0.3211
  591TMC3    C8 8769   2.001   0.327  15.939  0.0928  0.5790  0.0179
  591TMC3    O1 8770   1.683   0.751  16.201  0.1005  0.0557 -0.2877
  591TMC3    O2 8771   2.021   0.208  15.943  0.0012  0.4776 -0.1268
  592MPD2     C 8772   1.894   2.749  11.122 -0.5499  0.2285 -0.1868
  592MPD2    C1 8773   1.914   2.704  11.248 -0.4641 -0.1485  0.5967
  592MPD2    C2 8774   1.863   2.583  11.286  0.0691  0.8633 -0.1391
  592MPD2    C3 8775   1.779   2.513  11.205  0.5951  0.0108  0.1149
  592MPD2    C4 8776   1.756   2.566  11.083  0.4404  0.0940  0.8084
  592MPD2    C5 8777   1.815   2.680  11.035  0.8805  0.8938 -0.2101
  592MPD2     H 8778   1.872   2.547  11.388  2.0398 -0.6541 -0.8572
  592MPD2    H1 8779   1.685   2.518  11.016  1.3328 -0.9518  0.6115
  592MPD2    H2 8780   1.956   2.836  11.101  1.5460 -0.5711  2.7959
  592MPD2    H3 8781   1.808   2.716  10.933  0.0530  1.0526 -0.0926
  592MPD2     N 8782   1.721   2.393  11.247  0.4808 -0.7806 -0.2126
  592MPD2    H5 8783   1.753   2.349  11.332  1.5963  0.9331  0.2479
  592MPD2    N1 8784   1.986   2.789  11.341  0.0104 -0.4507  0.6902
  592MPD2    H7 8785   2.017   2.876  11.301 -0.0272 -0.7530  0.0028
  593TMC3    C1 8786   2.085   2.863  11.543 -0.1807 -0.8878 -0.1596
  593TMC3    C2 8787   2.077   2.856  11.677 -0.5668  0.0517  0.3211
  593TMC3    C3 8788   2.150   2.956  11.736 -0.4199  0.1945 -0.1815
  593TMC3    C4 8789   2.161   2.945  11.468  0.5482  0.2393 -0.7876
  593TMC3    C5 8790   2.236   3.044  11.533 -0.4922 -0.0559 -0.0343
  593TMC3    C6 8791   2.214   3.058  11.665 -0.4662 -0.5855  0.3720
  593TMC3     C 8792   2.013   2.760  11.477 -0.5884  0.0527  0.0358
  593TMC3     O 8793   1.966   2.671  11.544 -0.9745  0.0057  0.6464
  593TMC3     H 8794   2.036   2.775  11.736 -2.0077  0.0577 -0.6646
  593TMC3    H1 8795   2.188   2.912  11.368  0.7632  1.5268 -1.1560
  593TMC3    H2 8796   2.255   3.142  11.721 -2.0623  1.6165 -1.7572
  593TMC3    C7 8797   2.357   3.094  11.465  0.6840 -1.1212 -0.4098
  593TMC3    C8 8798   2.159   2.959  11.881  0.7482 -0.4656 -0.3074
  593TMC3    O1 8799   2.430   3.158  11.535  0.4766 -0.8918  0.1406
  593TMC3    O2 8800   2.071   2.890  11.933 -0.1754 -0.4971 -0.5505
  594MPD2     C 8801   0.654   0.823  14.144 -0.3684  0.7407  0.5331
  594MPD2    C1 8802   0.641   0.868  14.276 -0.3741  0.0123  0.1847
  594MPD2    C2 8803   0.746   0.917  14.343 -0.5752 -0.3844 -0.8633
  594MPD2    C3 8804   0.863   0.940  14.284  0.3828 -0.0132 -0.7240
  594MPD2    C4 8805   0.883   0.898  14.151 -0.5252 -0.8644 -0.0186
  594MPD2    C5 8806   0.782   0.833  14.091 -0.3095 -0.5638  0.2619
  594MPD2     H 8807   0.750   0.957  14.444  1.1654 -3.0189  0.1289
  594MPD2    H1 8808   0.978   0.906  14.100 -0.3779  1.4764  0.6004
  594MPD2    H2 8809   0.579   0.757  14.103 -0.1757  1.0730 -0.3410
  594MPD2    H3 8810   0.803   0.789  13.994 -0.3841  0.6046 -0.2821
  594MPD2     N 8811   0.967   1.009  14.355 -0.1960  0.0620  0.7655
  594MPD2    H5 8812   0.938   1.047  14.445 -0.9602  0.3767  0.3890
  594MPD2    N1 8813   0.512   0.855  14.329  0.0898 -0.0243  0.7526
  594MPD2    H7 8814   0.438   0.825  14.266 -0.8424  0.0757  1.7956
  595TMC3    C1 8815   1.331   1.297  14.404 -0.1056  0.2306  0.4589
  595TMC3    C2 8816   1.272   1.189  14.344  0.2568  0.1147 -0.5885
  595TMC3    C3 8817   1.146   1.149  14.384  0.5545  0.5311  0.3530
  595TMC3    C4 8818   1.272   1.345  14.512  1.1099  0.6467 -0.3982
  595TMC3    C5 8819   1.147   1.304  14.546 -1.0717 -0.0871  0.4426
  595TMC3    C6 8820   1.071   1.214  14.479 -0.3688  0.0321  0.3340
  595TMC3     C 8821   1.470   1.333  14.372  0.5281  0.2140  0.2185
  595TMC3     O 8822   1.518   1.414  14.452 -0.1587  0.3579  0.6163
  595TMC3     H 8823   1.315   1.147  14.254  1.5296  2.6707 -1.1745
  595TMC3    H1 8824   1.306   1.440  14.552 -1.1859  1.5844 -0.6975
  595TMC3    H2 8825   0.971   1.191  14.515 -0.8358 -0.7666 -1.4621
  595TMC3    C7 8826   1.096   1.367  14.666  0.3827 -0.0872 -0.1014
  595TMC3    C8 8827   1.090   1.038  14.310 -0.6005  0.9885  0.0535
  595TMC3    O1 8828   0.974   1.372  14.666  0.1334  0.4831 -0.0176
  595TMC3    O2 8829   1.158   0.986  14.223  0.2655 -0.4733 -0.3134
  596MPD2     C 8830   4.617   4.000  16.874 -0.6473  0.1713  0.0162
  596MPD2    C1 8831   4.606   4.124  16.810 -1.2330  0.2029 -0.1322
  596MPD2    C2 8832   4.586   4.110  16.673  0.1022 -0.0109  0.4512
  596MPD2    C3 8833   4.581   3.985  16.598  0.0613  0.5859 -0.2977
  596MPD2    C4 8834   4.602   3.870  16.663 -0.5944  0.0722 -0.6172
  596MPD2    C5 8835   4.611   3.877  16.801  0.0026 -0.7614  0.0156
  596MPD2     H 8836   4.554   4.202  16.627  2.0534  0.6203  0.3670
  596MPD2    H1 8837   4.620   3.773  16.620 -1.7384 -1.1424  1.6182
  596MPD2    H2 8838   4.629   3.992  16.981  1.4720  0.3340 -0.2023
  596MPD2    H3 8839   4.624   3.783  16.854  3.4016 -2.0202 -3.0168
  596MPD2     N 8840   4.555   3.987  16.460  0.0068  0.7065  0.0967
  596MPD2    H5 8841   4.543   3.893  16.422  0.4594  0.3020  0.9610
  596MPD2    N1 8842   4.623   4.252  16.867 -0.3505 -0.1668 -0.1750
  596MPD2    H7 8843   4.625   4.327  16.799 -1.4283 -2.6801 -3.0001
  597TMC3    C1 8844   4.653   4.409  17.030  0.7609  0.2317  0.2471
  597TMC3    C2 8845   4.685   4.505  16.941  0.5803 -0.0898  0.6380
  597TMC3    C3 8846   4.689   4.631  16.984  0.2150  0.1935  0.0785
  597TMC3    C4 8847   4.598   4.439  17.152 -0.4349  0.9596 -0.4722
  597TMC3    C5 8848   4.577   4.571  17.177 -0.2882  0.0327 -0.2235
  597TMC3    C6 8849   4.627   4.670  17.100 -0.2055 -0.0329  0.0554
  597TMC3     C 8850   4.643   4.271  16.996 -0.0733  0.4113 -0.2012
  597TMC3     O 8851   4.640   4.193  17.088  0.2436  0.2590 -0.1890
  597TMC3     H 8852   0.006   4.465  16.850  0.4897 -0.6054  0.8208
  597TMC3    H1 8853   4.554   4.364  17.217 -0.1940  0.8803 -0.3992
  597TMC3    H2 8854   4.610   0.048  17.135  1.0206  0.0652  0.3539
  597TMC3    C7 8855   4.457   4.593  17.260 -0.9198  0.1611  0.6924
  597TMC3    C8 8856   0.035   0.011  16.906 -0.7795  0.6131  0.3363
  597TMC3    O1 8857   4.437   4.517  17.353 -0.1596  0.1748 -0.3652
  597TMC3    O2 8858   0.055   0.116  16.966 -0.0284 -0.0533  0.1146
  598TMC3    C1 8859   2.883   0.724  15.081  0.0717  0.3446  0.2412
  598TMC3    C2 8860   2.749   0.678  15.084 -0.0752  0.6890 -0.2882
  598TMC3    C3 8861   2.684   0.702  14.961  0.1857 -0.3918 -0.0568
  598TMC3    C4 8862   2.935   0.804  14.983  0.2559  0.5588 -0.3798
  598TMC3    C5 8863   2.853   0.831  14.875  1.5385  0.2583  0.4210
  598TMC3    C6 8864   2.732   0.779  14.862 -0.7105 -0.1450 -0.0300
  598TMC3     C 8865   2.959   0.702  15.201 -0.3826  0.3001  0.1105
  598TMC3     O 8866   3.047   0.780  15.231 -0.0346 -0.1734 -0.3449
  598TMC3     H 8867   2.712   0.624  15.170  2.2727 -0.0996  0.2371
  598TMC3    H1 8868   3.035   0.845  14.987 -0.9044  3.3959  0.0690
  598TMC3    H2 8869   2.672   0.809  14.776 -0.6528 -0.3135 -0.1293
  598TMC3    C7 8870   2.894   0.928  14.782 -0.3029  0.8853  0.4289
  598TMC3    C8 8871   2.557   0.636  14.931 -0.1391  0.1936 -0.4764
  598TMC3    O1 8872   2.863   0.914  14.663 -0.2815 -0.2693  0.2571
  598TMC3    O2 8873   2.506   0.667  14.825  0.3288  0.5263  0.2358
  599MPD2     C 8874   3.283   3.227  16.337  0.0448  0.4366  0.2838
  599MPD2    C1 8875   3.206   3.125  16.272  0.0543 -0.1038  0.0873
  599MPD2    C2 8876   3.064   3.134  16.273  0.0232 -0.0783  0.0913
  599MPD2    C3 8877   3.008   3.247  16.336 -0.6529  0.1252  0.6111
  599MPD2    C4 8878   3.084   3.343  16.398  0.0676 -0.4906  0.7573
  599MPD2    C5 8879   3.221   3.326  16.406 -0.6026  0.4930  0.4335
  599MPD2     H 8880   3.001   3.058  16.228  1.8267 -1.8291  0.5703
  599MPD2    H1 8881   3.043   3.434  16.440  0.1647 -0.7487  1.4002
  599MPD2    H2 8882   3.391   3.215  16.340 -0.0040  0.4137  1.6675
  599MPD2    H3 8883   3.282   3.398  16.459 -2.2520  1.9227  0.3829
  599MPD2     N 8884   2.869   3.265  16.349  0.6144 -0.3653 -0.6272
  599MPD2    H5 8885   2.838   3.351  16.392 -0.1852 -0.4079 -1.1347
  599MPD2    N1 8886   3.273   3.010  16.216  0.1936 -0.1101  0.3232
  599MPD2    H7 8887   3.375   3.004  16.212 -0.0107 -2.5085 -0.9017
  600TMC3    C1 8888   2.644   3.215  16.360 -0.7968 -0.8038 -0.1201
  600TMC3    C2 8889   2.567   3.112  16.417  0.7718  1.1945  0.4386
  600TMC3    C3 8890   2.432   3.140  16.420  0.6665 -0.3020  0.3935
  600TMC3    C4 8891   2.602   3.341  16.326  0.0515  0.0676  0.3596
  600TMC3    C5 8892   2.472   3.369  16.353  0.3332 -0.5783 -0.6369
  600TMC3    C6 8893   2.382   3.265  16.390  0.2383 -0.1109 -0.0890
  600TMC3     C 8894   2.773   3.172  16.325  0.3296 -0.3279 -0.0171
  600TMC3     O 8895   2.794   3.055  16.303 -0.0208  0.2905  0.5942
  600TMC3     H 8896   2.592   3.010  16.442  1.9843  1.1612 -0.9007
  600TMC3    H1 8897   2.671   3.414  16.286 -0.0492  0.2521  0.5214
  600TMC3    H2 8898   2.275   3.284  16.392  0.4009  0.8947 -0.8627
  600TMC3    C7 8899   2.427   3.507  16.354 -0.4881 -1.0499  0.1595
  600TMC3    C8 8900   2.361   3.053  16.521  0.0145  0.0462  0.0838
  600TMC3    O1 8901   2.309   3.522  16.378 -0.0879 -0.9365  0.5019
  600TMC3    O2 8902   2.422   3.013  16.620  0.6531  0.6726 -0.1699
  601MPD2     C 8903   0.102   1.668   0.163 -0.5004 -0.0657 -0.3036
  601MPD2    C1 8904   0.000   1.599   0.101 -0.2804  0.4057 -0.1633
  601MPD2    C2 8905   0.001   1.463   0.094  0.0213 -0.4812 -0.6517
  601MPD2    C3 8906   0.098   1.389   0.160  0.2497  0.6449  0.1362
  601MPD2    C4 8907   0.200   1.460   0.220 -0.2002  0.3058  0.2199
  601MPD2    C5 8908   0.198   1.594   0.222 -0.5278  0.6753  0.4546
  601MPD2     H 8909   4.641   1.417   0.041 -1.2739  0.1711  0.8001
  601MPD2    H1 8910   0.273   1.407   0.281  2.9532  1.0335 -2.8942
  601MPD2    H2 8911   0.109   1.776   0.157  0.7317 -0.0322  1.7635
  601MPD2    H3 8912   0.272   1.654   0.274  0.5654 -2.0803  2.0982
  601MPD2     N 8913   0.088   1.249   0.164  0.1783 -0.7699  0.0181
  601MPD2    H5 8914   0.003   1.209   0.126 -0.9358  1.1273  0.5659
  601MPD2    N1 8915   4.609   1.660   0.042 -0.0509 -0.3905  0.2703
  601MPD2    H7 8916   4.531   1.604   0.009 -0.5040  0.6612 -0.4644
  602TMC3    C1 8917   4.471   1.814  17.628  0.3220 -0.3889  0.0040
  602TMC3    C2 8918   4.425   1.944  17.612 -0.6010 -0.7349  0.2397
  602TMC3    C3 8919   4.313   1.969  17.530 -0.1047 -1.0330 -0.1582
  602TMC3    C4 8920   4.428   1.714  17.547 -0.3445  0.8466  0.0813
  602TMC3    C5 8921   4.322   1.742  17.459 -0.3978 -0.2962  0.5459
  602TMC3    C6 8922   4.263   1.864  17.454 -0.5530 -0.5234  0.1423
  602TMC3     C 8923   4.581   1.791   0.032  0.1055  0.3696  0.1018
  602TMC3     O 8924   4.643   1.892   0.072 -0.4740 -0.1573  0.4477
  602TMC3     H 8925   4.454   2.030  17.671 -3.2020 -1.4185  2.5289
  602TMC3    H1 8926   4.470   1.614  17.543 -0.0071  0.9334  1.6814
  602TMC3    H2 8927   4.161   1.871  17.419 -1.1050 -4.1754  1.1051
  602TMC3    C7 8928   4.279   1.644  17.355  0.3334  0.8968  0.3245
  602TMC3    C8 8929   4.238   2.086  17.524 -0.0489  0.1910  0.1238
  602TMC3    O1 8930   4.298   1.521  17.365  0.3955  0.1607 -0.3234
  602TMC3    O2 8931   4.241   2.162  17.617  0.7925 -0.0677  0.3748
  603TMC3    C1 8932   3.112   1.980  10.621  0.8631  0.1060  0.3864
  603TMC3    C2 8933   3.227   1.929  10.674  0.3464  0.4110 -0.8724
  603TMC3    C3 8934   3.334   2.012  10.689 -0.2453  0.0805 -0.0210
  603TMC3    C4 8935   3.101   2.102  10.569 -0.1536  0.1471  0.0353
  603TMC3    C5 8936   3.215   2.172  10.557  0.2003  0.6404  0.4590
  603TMC3    C6 8937   3.335   2.129  10.618 -0.2819  0.3700 -0.1639
  603TMC3     C 8938   2.999   1.884  10.611 -0.0572 -0.8737  0.6309
  603TMC3     O 8939   3.019   1.774  10.659  0.5285 -0.5726 -0.0064
  603TMC3     H 8940   3.228   1.834  10.726 -0.6594  0.9998  0.2236
  603TMC3    H1 8941   3.002   2.146  10.567  0.6722  2.1101  2.8060
  603TMC3    H2 8942   3.408   2.206  10.636 -0.1262  0.7635 -2.4661
  603TMC3    C7 8943   3.202   2.315  10.586 -0.0543  0.0922  0.5445
  603TMC3    C8 8944   3.369   2.023  10.823  0.1526 -0.7688 -0.1429
  603TMC3    O1 8945   3.255   2.352  10.688 -0.0918 -0.1804  0.2466
  603TMC3    O2 8946   3.388   1.920  10.888 -0.6797 -0.4617 -0.0116
  604MPD2     C 8947   3.558   0.260  16.453  0.7703  0.0080  0.4667
  604MPD2    C1 8948   3.517   0.384  16.396  0.5961  0.4159 -0.1400
  604MPD2    C2 8949   3.554   0.419  16.268  0.0075  0.2600 -0.1378
  604MPD2    C3 8950   3.645   0.332  16.202  0.0022 -0.1802 -0.1685
  604MPD2    C4 8951   3.696   0.213  16.263 -0.3186  0.6751 -0.8363
  604MPD2    C5 8952   3.646   0.175  16.390  0.5740  0.9198 -0.7191
  604MPD2     H 8953   3.523   0.513  16.223  2.1468  1.6397  1.2598
  604MPD2    H1 8954   3.773   0.153  16.215 -0.5815 -1.5146  1.5159
  604MPD2    H2 8955   3.530   0.239  16.556  1.5349  1.9403  1.0697
  604MPD2    H3 8956   3.678   0.081  16.435 -2.6359  0.7319  1.1070
  604MPD2     N 8957   3.684   0.374  16.079 -0.7235  0.4222 -0.1836
  604MPD2    H5 8958   3.632   0.453  16.042  0.9632  0.9197 -1.5058
  604MPD2    N1 8959   3.445   0.472  16.479 -0.9835  0.0908  0.1261
  604MPD2    H7 8960   3.437   0.451  16.578 -0.7390 -2.1558 -0.3384
  605TMC3    C1 8961   3.345   0.669  16.551  0.2106 -0.1548 -0.5304
  605TMC3    C2 8962   3.439   0.754  16.589 -0.1007 -0.3916  0.7530
  605TMC3    C3 8963   3.420   0.890  16.601 -0.0506 -0.0272 -0.1593
  605TMC3    C4 8964   3.229   0.723  16.509  0.4467 -0.2406  0.1267
  605TMC3    C5 8965   3.206   0.853  16.508  0.1586  0.0905  0.3446
  605TMC3    C6 8966   3.303   0.940  16.557  0.3437  0.3513  1.0914
  605TMC3     C 8967   3.389   0.589  16.434  0.0903 -0.3825  0.4977
  605TMC3     O 8968   3.343   0.612  16.325 -0.1261 -0.6605  0.3032
  605TMC3     H 8969   3.537   0.712  16.609  0.9949  1.7682 -0.1144
  605TMC3    H1 8970   3.160   0.645  16.477  0.7393 -0.0695 -0.9224
  605TMC3    H2 8971   3.287   1.048  16.561  2.2258  0.6897 -0.9907
  605TMC3    C7 8972   3.115   0.903  16.412  0.1508 -0.0165  0.0710
  605TMC3    C8 8973   3.536   0.974  16.633 -0.0399  0.0559 -0.5457
  605TMC3    O1 8974   3.090   1.021  16.423 -0.3582 -0.1614  0.0712
  605TMC3    O2 8975   3.642   0.924  16.665 -0.3125  0.4984 -0.8072
  606TMC3    C1 8976   0.308   3.869  16.941  0.2118  0.4174 -0.1672
  606TMC3    C2 8977   0.397   3.825  17.038  0.0783  0.1064  0.2973
  606TMC3    C3 8978   0.371   3.697  17.075 -0.0904 -0.2323 -0.6191
  606TMC3    C4 8979   0.210   3.789  16.880  0.6877  0.5454 -0.0351
  606TMC3    C5 8980   0.189   3.659  16.930  0.5480  0.5871  0.2825
  606TMC3    C6 8981   0.261   3.619  17.037  0.1735  0.4402  0.3771
  606TMC3     C 8982   0.307   4.016  16.915 -0.7940  0.9397 -0.6306
  606TMC3     O 8983   0.353   4.083  17.004 -0.1729  0.0650 -0.1581
  606TMC3     H 8984   0.465   3.893  17.087 -0.5354  1.3393 -0.5341
  606TMC3    H1 8985   0.138   3.831  16.811 -0.4790 -0.7330  0.3856
  606TMC3    H2 8986   0.231   3.528  17.087 -1.4690  2.3361  2.8656
  606TMC3    C7 8987   0.071   3.584  16.889  0.2557 -0.0670  0.0898
  606TMC3    C8 8988   0.470   3.636  17.156 -0.2287  0.1019 -0.5690
  606TMC3    O1 8989   0.034   3.590  16.772  0.2864 -0.3131 -0.4976
  606TMC3    O2 8990   0.547   3.706  17.223  0.3881  0.6002 -0.1293
  607MPD2     C 8991   2.118   2.278  11.398 -0.4953  0.1786 -0.6684
  607MPD2    C1 8992   2.206   2.345  11.483 -0.1952 -0.4477 -0.5079
  607MPD2    C2 8993   2.218   2.304  11.616  0.0706  0.7531  0.1535
  607MPD2    C3 8994   2.146   2.198  11.659 -0.6144 -0.7228 -0.8538
  607MPD2    C4 8995   2.068   2.125  11.568  0.4842 -0.1318 -0.2686
  607MPD2    C5 8996   2.056   2.166  11.441  0.0022 -1.4821  0.1840
  607MPD2     H 8997   2.279   2.362  11.685  2.2096  0.8865 -1.8396
  607MPD2    H1 8998   2.022   2.032  11.601  0.0487 -0.2411 -1.1837
  607MPD2    H2 8999   2.094   2.312  11.297 -0.2570 -1.7812 -1.3743
  607MPD2    H3 9000   1.987   2.117  11.373 -1.3983 -0.6321  0.9903
  607MPD2     N 9001   2.174   2.166  11.798 -0.7947  0.2602  0.7331
  607MPD2    H5 9002   2.209   2.238  11.860  0.3698 -0.3764  0.8182
  607MPD2    N1 9003   2.266   2.470  11.465 -0.2722 -0.4418 -0.1933
  607MPD2    H7 9004   2.321   2.499  11.546 -0.4620  0.4420 -0.3730
  608TMC3    C1 9005   2.367   2.649  11.357  0.7093  0.3069 -0.3157
  608TMC3    C2 9006   2.386   2.695  11.487 -0.4149  0.2526  0.1832
  608TMC3    C3 9007   2.494   2.776  11.504 -0.2927  0.1398  0.3910
  608TMC3    C4 9008   2.457   2.662  11.260 -0.1307 -0.5491  0.6792
  608TMC3    C5 9009   2.567   2.733  11.282 -0.1772 -0.6346 -0.2624
  608TMC3    C6 9010   2.586   2.799  11.404  0.9814  0.0482  0.5505
  608TMC3     C 9011   2.277   2.539  11.348  0.5171  0.3825  0.4935
  608TMC3     O 9012   2.239   2.500  11.239 -0.4196  0.0053  0.0736
  608TMC3     H 9013   2.302   2.697  11.556  0.0133  0.8632  0.6917
  608TMC3    H1 9014   2.437   2.622  11.161  3.0579 -0.5774  0.0326
  608TMC3    H2 9015   2.671   2.863  11.425 -1.0084  2.3298  1.6078
  608TMC3    C7 9016   2.659   2.757  11.176 -0.0323 -0.4349 -0.1048
  608TMC3    C8 9017   2.527   2.815  11.634  0.0218 -0.2784  0.4298
  608TMC3    O1 9018   2.615   2.739  11.063 -0.3521 -0.9740  0.3907
  608TMC3    O2 9019   2.624   2.889  11.645  0.0970 -0.1859  0.1045
  609TMC3    C1 9020   0.388   0.837   8.926  0.6066 -0.0752 -0.0428
  609TMC3    C2 9021   0.351   0.762   8.818 -0.2663 -0.9262 -0.1352
  609TMC3    C3 9022   0.446   0.722   8.731  0.7100 -0.0100 -0.0583
  609TMC3    C4 9023   0.520   0.863   8.952  0.7265 -0.5494  0.3567
  609TMC3    C5 9024   0.612   0.833   8.854 -0.1290 -0.3127 -0.1279
  609TMC3    C6 9025   0.577   0.749   8.753  0.3647 -0.5450  0.3220
  609TMC3     C 9026   0.300   0.868   9.037 -0.9915  0.6594 -0.0677
  609TMC3     O 9027   0.354   0.907   9.143  0.0077 -0.0318 -0.0562
  609TMC3     H 9028   0.248   0.733   8.804 -0.4550  0.1249 -0.8463
  609TMC3    H1 9029   0.556   0.928   9.031  1.0484 -1.8887  1.3022
  609TMC3    H2 9030   0.650   0.723   8.678  0.9612 -0.0726  0.7362
  609TMC3    C7 9031   0.754   0.858   8.886  0.1235  0.3057  0.3993
  609TMC3    C8 9032   0.401   0.702   8.596 -0.4723 -0.5687 -0.5993
  609TMC3    O1 9033   0.775   0.961   8.950 -0.1913  0.4068 -0.0576
  609TMC3    O2 9034   0.284   0.724   8.574  0.0304  0.4162 -0.3438
  610TMC3    C1 9035   2.544   0.790  12.721 -0.2035  0.5074 -0.7637
  610TMC3    C2 9036   2.624   0.761  12.613  0.9091  0.7676 -0.3744
  610TMC3    C3 9037   2.674   0.865  12.540 -0.0059 -0.3673 -0.0729
  610TMC3    C4 9038   2.531   0.914  12.770 -0.4384  0.9948  0.1003
  610TMC3    C5 9039   2.591   1.016  12.706 -0.6646 -0.2138  0.3704
  610TMC3    C6 9040   2.663   0.996  12.588  1.0181  0.1350 -0.0565
  610TMC3     C 9041   2.487   0.682  12.801 -0.0246  1.2740 -0.5551
  610TMC3     O 9042   2.447   0.719  12.913  0.3299 -0.3810  0.1999
  610TMC3     H 9043   2.640   0.661  12.575  2.7136  1.3033 -1.0609
  610TMC3    H1 9044   2.466   0.930  12.855 -2.1063  1.3101 -1.2358
  610TMC3    H2 9045   2.713   1.079  12.539  1.4997 -0.1153  0.0050
  610TMC3    C7 9046   2.666   1.114  12.795 -0.3163  0.2080 -0.9382
  610TMC3    C8 9047   2.791   0.823  12.452  0.0604  0.7094 -1.1211
  610TMC3    O1 9048   2.753   1.182  12.745 -0.0427  0.5255  0.0066
  610TMC3    O2 9049   2.824   0.707  12.441 -0.2094 -0.0155  0.5310
  611MPD2     C 9050   2.201   2.582   9.634 -0.1487 -0.1972  0.0131
  611MPD2    C1 9051   2.241   2.528   9.752  0.3080 -0.2919  0.3042
  611MPD2    C2 9052   2.327   2.595   9.838 -0.1966 -0.5089 -0.1800
  611MPD2    C3 9053   2.381   2.716   9.790  0.8454  0.1894  0.3082
  611MPD2    C4 9054   2.338   2.768   9.673 -0.3794 -0.0690  0.0153
  611MPD2    C5 9055   2.256   2.702   9.596  0.1586 -0.5520 -0.0269
  611MPD2     H 9056   2.347   2.564   9.940 -2.2879  1.7248  0.8980
  611MPD2    H1 9057   2.377   2.862   9.635 -1.2121  0.4628  0.4711
  611MPD2    H2 9058   2.124   2.540   9.570  0.7532 -0.6479 -0.7743
  611MPD2    H3 9059   2.218   2.758   9.511 -0.9000 -1.3183 -0.0477
  611MPD2     N 9060   2.470   2.803   9.855  0.1071 -0.1828 -0.3862
  611MPD2    H5 9061   2.482   2.895   9.814 -0.7709 -0.0161 -0.2725
  611MPD2    N1 9062   2.176   2.415   9.793 -0.3610  0.3554 -0.3847
  611MPD2    H7 9063   2.090   2.378   9.752  1.2561 -0.3752 -3.0647
  612TMC3    C1 9064   2.592   2.865  10.045 -0.0901  0.4555 -0.2890
  612TMC3    C2 9065   2.675   2.821  10.147  0.6455  0.1860 -0.2001
  612TMC3    C3 9066   2.676   2.891  10.266  0.0117 -0.0549 -0.4085
  612TMC3    C4 9067   2.504   2.970  10.056  0.2998  0.4121  0.2869
  612TMC3    C5 9068   2.494   3.029  10.176 -0.2035  0.3280 -0.1941
  612TMC3    C6 9069   2.587   2.996  10.279 -0.2602  0.3040 -0.5426
  612TMC3     C 9070   2.551   2.755   9.960  0.2389 -0.9117  0.4364
  612TMC3     O 9071   2.564   2.643  10.008 -0.4722  0.3509  0.2003
  612TMC3     H 9072   2.733   2.729  10.145 -0.5674 -0.4644 -4.0842
  612TMC3    H1 9073   2.438   2.996   9.975 -0.0619 -1.1513  0.0796
  612TMC3    H2 9074   2.579   3.055  10.370 -0.9022  1.0363 -1.0737
  612TMC3    C7 9075   2.383   3.124  10.198 -0.0106 -0.9015 -0.9279
  612TMC3    C8 9076   2.751   2.854  10.387 -0.0845 -0.4411  0.6623
  612TMC3    O1 9077   2.287   3.113  10.123  0.0542  0.2515  0.3651
  612TMC3    O2 9078   2.730   2.921  10.487  0.6875  0.3172  0.1613
  613MPD2     C 9079   1.249   4.033  16.595 -0.1084  0.6814  0.5002
  613MPD2    C1 9080   1.133   4.081  16.546  0.2556 -0.4411 -0.8037
  613MPD2    C2 9081   1.014   4.004  16.547 -0.1626 -0.3136  0.6016
  613MPD2    C3 9082   1.010   3.881  16.601 -0.2645  0.6498 -0.0243
  613MPD2    C4 9083   1.130   3.831  16.657  0.7470  0.1813 -0.4265
  613MPD2    C5 9084   1.247   3.910  16.659 -0.4960 -0.2876 -0.2279
  613MPD2     H 9085   0.931   4.054  16.498 -1.6498 -2.3549  1.0433
  613MPD2    H1 9086   1.130   3.731  16.698  1.2739  0.5186  0.3885
  613MPD2    H2 9087   1.341   4.091  16.590  0.3648 -0.3075 -2.5081
  613MPD2    H3 9088   1.334   3.867  16.708 -0.7859  0.9729  1.4215
  613MPD2     N 9089   0.893   3.798  16.585 -0.5101 -0.0332 -0.1057
  613MPD2    H5 9090   0.813   3.848  16.548  0.4394 -0.0732 -2.2473
  613MPD2    N1 9091   1.150   4.209  16.492  0.2460 -0.3416 -0.2753
  613MPD2    H7 9092   1.241   4.255  16.491  0.0559  0.0401 -0.1672
  614TMC3    C1 9093   1.075   4.347  16.326 -0.3699 -0.0559  0.6598
  614TMC3    C2 9094   1.136   4.272  16.238  0.4240 -0.2961  0.7072
  614TMC3    C3 9095   1.088   4.262  16.112 -0.0976  0.1728 -0.7049
  614TMC3    C4 9096   0.966   4.425  16.295 -0.3345  0.2303 -0.3762
  614TMC3    C5 9097   0.922   4.422  16.167 -0.9910 -0.6087  0.4355
  614TMC3    C6 9098   0.986   4.343  16.073  0.7008  0.2868 -1.0485
  614TMC3     C 9099   1.046   4.283  16.450 -0.0552 -0.0976  0.4083
  614TMC3     O 9100   0.924   4.270  16.476  0.0851 -0.3553 -0.5925
  614TMC3     H 9101   1.214   4.203  16.269 -0.2385 -0.7354  1.3902
  614TMC3    H1 9102   0.926   4.493  16.368 -2.2159 -0.3287 -0.8860
  614TMC3    H2 9103   0.937   4.317  15.980  0.1121  1.3245 -1.0220
  614TMC3    C7 9104   0.819   4.519  16.128 -1.1484  0.2310  0.5564
  614TMC3    C8 9105   1.093   4.123  16.070 -0.2223 -0.0159  0.3639
  614TMC3    O1 9106   0.781   4.599  16.214  0.0375 -0.0645  0.2335
  614TMC3    O2 9107   1.121   4.049  16.159 -0.5558  0.3570 -0.5219
  615MPD2     C 9108   0.690   0.546  16.234  0.9717 -0.3921 -0.7782
  615MPD2    C1 9109   0.657   0.672  16.260  0.6886 -0.3342  0.8850
  615MPD2    C2 9110   0.583   0.734  16.160  0.1233  0.0183  0.4680
  615MPD2    C3 9111   0.561   0.685  16.030 -0.0610 -0.9764 -0.3625
  615MPD2    C4 9112   0.611   0.561  16.006 -0.2071  0.3353 -0.5386
  615MPD2    C5 9113   0.657   0.490  16.115 -0.2424  0.0432 -0.7254
  615MPD2     H 9114   0.558   0.836  16.185 -0.4616 -0.4866  1.9208
  615MPD2    H1 9115   0.603   0.510  15.911 -1.0020  0.2956 -0.4451
  615MPD2    H2 9116   0.734   0.476  16.304  0.8581  2.2338  1.9177
  615MPD2    H3 9117   0.668   0.383  16.097  1.6570 -0.1611  1.6672
  615MPD2     N 9118   0.510   0.753  15.921  0.1786 -0.0389 -0.0277
  615MPD2    H5 9119   0.523   0.714  15.828  0.0660  0.2444 -0.1582
  615MPD2    N1 9120   0.679   0.735  16.383  0.1471  0.0271  0.5511
  615MPD2    H7 9121   0.636   0.822  16.413 -2.1246 -1.2415  0.9050
  616TMC3    C1 9122   0.802   0.786  16.573 -0.1357  1.1441  0.2187
  616TMC3    C2 9123   0.924   0.812  16.619 -0.4321 -0.1939  0.2307
  616TMC3    C3 9124   0.934   0.878  16.744  0.5079  0.9776 -0.1580
  616TMC3    C4 9125   0.695   0.800  16.648  0.1019  0.6399  0.4382
  616TMC3    C5 9126   0.705   0.845  16.775 -0.4304  0.2589  0.3305
  616TMC3    C6 9127   0.822   0.895  16.827  0.0199  0.3916  0.0535
  616TMC3     C 9128   0.785   0.692  16.462 -0.1288 -0.2081  0.5358
  616TMC3     O 9129   0.858   0.596  16.470  0.1648  0.3096  0.0293
  616TMC3     H 9130   1.009   0.795  16.554 -2.1527  0.6330 -2.2282
  616TMC3    H1 9131   0.608   0.744  16.615  1.0915 -1.2894  1.1082
  616TMC3    H2 9132   0.829   0.951  16.919 -0.9471  1.1150 -0.3115
  616TMC3    C7 9133   0.582   0.877  16.850  0.3299 -0.0877  0.3642
  616TMC3    C8 9134   1.062   0.931  16.787  0.5633  0.5183 -0.4209
  616TMC3    O1 9135   0.586   0.915  16.968  0.4027  0.4148 -0.3774
  616TMC3    O2 9136   1.071   0.963  16.903 -0.1679 -0.1736  0.1719
  617MPD2     C 9137   3.368   3.636  13.539 -0.0700 -0.5834 -0.3738
  617MPD2    C1 9138   3.433   3.644  13.661 -0.7612 -0.0558 -0.3083
  617MPD2    C2 9139   3.363   3.663  13.781 -0.1450 -0.5359 -0.3505
  617MPD2    C3 9140   3.225   3.690  13.781 -0.1869 -0.4748  0.4051
  617MPD2    C4 9141   3.168   3.684  13.657 -0.5325 -0.0329 -0.7630
  617MPD2    C5 9142   3.234   3.657  13.537  0.2748 -0.3800  0.4231
  617MPD2     H 9143   3.411   3.668  13.878 -1.0946 -2.1349  0.2138
  617MPD2    H1 9144   3.061   3.698  13.642 -0.2000  1.9586 -1.3367
  617MPD2    H2 9145   3.423   3.622  13.447 -0.8437 -0.0115 -0.9219
  617MPD2    H3 9146   3.180   3.654  13.443 -1.7044 -1.1626  1.5825
  617MPD2     N 9147   3.146   3.713  13.891 -0.3835 -0.3720  0.3505
  617MPD2    H5 9148   3.048   3.719  13.866  0.0127  5.3072  0.0805
  617MPD2    N1 9149   3.573   3.620  13.644 -0.7406 -0.0058  0.1017
  617MPD2    H7 9150   3.607   3.592  13.552  1.7054  0.4466  0.8616
  618TMC3    C1 9151   3.797   3.623  13.708 -0.7288 -1.0604 -0.5695
  618TMC3    C2 9152   3.886   3.550  13.789  0.1353  0.6336 -0.2136
  618TMC3    C3 9153   3.990   3.486  13.736 -0.0421  0.6113 -0.9772
  618TMC3    C4 9154   3.818   3.630  13.574  1.1754 -0.4642  0.2099
  618TMC3    C5 9155   3.931   3.561  13.523 -0.0242 -0.3502 -0.3899
  618TMC3    C6 9156   4.019   3.495  13.602  0.1747  1.0260 -0.1240
  618TMC3     C 9157   3.660   3.640  13.750  0.1275 -0.4532 -0.1664
  618TMC3     O 9158   3.647   3.667  13.871 -0.1692  0.1092 -0.2461
  618TMC3     H 9159   3.864   3.547  13.895 -0.5022 -3.6656 -0.4615
  618TMC3    H1 9160   3.750   3.679  13.505 -0.1153 -0.1316  1.7424
  618TMC3    H2 9161   4.104   3.447  13.552 -0.1996  0.5540 -0.3110
  618TMC3    C7 9162   3.896   3.497  13.396 -0.0519  0.5100 -0.0137
  618TMC3    C8 9163   4.069   3.419  13.826  0.6639 -0.4011  0.6271
  618TMC3    O1 9164   3.774   3.492  13.368  0.2963  0.0474  0.4076
  618TMC3    O2 9165   4.033   3.382  13.937  0.2986  0.4650 -0.4529
  619MPD2     C 9166   0.141   0.115  13.331  0.0509  0.0067 -0.6458
  619MPD2    C1 9167   0.048   0.197  13.277 -0.5561 -0.6125  0.1143
  619MPD2    C2 9168   4.637   0.192  13.314  0.3821 -0.4355 -0.0843
  619MPD2    C3 9169   4.601   0.092  13.409  0.9415 -0.3425 -0.0928
  619MPD2    C4 9170   4.697   0.009  13.463  0.4420 -0.2961  0.1161
  619MPD2    C5 9171   0.105   0.015  13.415  0.2487 -0.3909 -0.0237
  619MPD2     H 9172   4.562   0.258  13.273  1.1719  0.8524  0.5447
  619MPD2    H1 9173   4.665   4.663  13.541 -1.0386  0.1915 -0.0511
  619MPD2    H2 9174   0.245   0.127  13.305 -0.0495 -2.2654 -2.0480
  619MPD2    H3 9175   0.183   4.668  13.444  1.5726  0.6003 -1.2202
  619MPD2     N 9176   4.470   0.074  13.458 -0.5746 -0.7759 -0.4328
  619MPD2    H5 9177   4.446   0.000  13.523  0.5551 -0.0492  0.8002
  619MPD2    N1 9178   0.084   0.288  13.176 -0.2215 -0.0320  0.3041
  619MPD2    H7 9179   0.015   0.330  13.115 -0.6363  0.1948  0.9343
  620TMC3    C1 9180   0.207   0.439  13.059  0.0526  0.1878 -0.2130
  620TMC3    C2 9181   0.125   0.413  12.955 -0.3158 -0.4033 -0.2103
  620TMC3    C3 9182   0.089   0.523  12.872 -0.1897 -0.1658 -0.5448
  620TMC3    C4 9183   0.251   0.562  13.087  0.3091 -0.3328 -0.1453
  620TMC3    C5 9184   0.213   0.666  13.014 -0.5887 -0.1198  0.1722
  620TMC3    C6 9185   0.135   0.645  12.905  0.2151 -0.3852 -0.0080
  620TMC3     C 9186   0.204   0.345  13.171  0.0268  0.3203  0.9023
  620TMC3     O 9187   0.302   0.348  13.248 -0.9334 -0.0643 -0.0112
  620TMC3     H 9188   0.088   0.315  12.928  2.3436 -1.7344  0.9579
  620TMC3    H1 9189   0.306   0.577  13.179 -1.9497  1.7783  0.8570
  620TMC3    H2 9190   0.117   0.735  12.848 -0.1656 -0.4327  0.0371
  620TMC3    C7 9191   0.175   0.789  13.079  0.7060  0.0456  0.6960
  620TMC3    C8 9192   4.668   0.527  12.851  0.3321 -0.1561 -0.0835
  620TMC3    O1 9193   0.080   0.849  13.034  0.5575  0.5533  0.3802
  620TMC3    O2 9194   4.621   0.427  12.802 -0.1463  0.0512  0.1491
  621MPD2     C 9195   1.099   0.578   9.787 -0.5725  0.0584  0.1670
  621MPD2    C1 9196   1.176   0.544   9.897  0.4926  0.0378 -0.3189
  621MPD2    C2 9197   1.253   0.642   9.956 -0.0795  0.3652  1.1482
  621MPD2    C3 9198   1.256   0.768   9.901  0.0223 -0.0019  0.1699
  621MPD2    C4 9199   1.203   0.788   9.774  0.4943  0.5489  0.2011
  621MPD2    C5 9200   1.111   0.703   9.722 -0.8245  0.5847 -0.0097
  621MPD2     H 9201   1.313   0.614  10.042  0.6041 -1.1390  0.1841
  621MPD2    H1 9202   1.217   0.879   9.716 -0.3865 -0.7770 -2.0499
  621MPD2    H2 9203   1.022   0.507   9.760 -1.0166  0.9076 -0.8164
  621MPD2    H3 9204   1.051   0.723   9.633 -0.5419  0.0076 -0.3313
  621MPD2     N 9205   1.324   0.871   9.973 -0.4878 -0.5724 -0.1680
  621MPD2    H5 9206   1.376   0.837  10.054 -0.1319  2.2070  0.7558
  621MPD2    N1 9207   1.168   0.421   9.964 -0.4173 -0.6962  0.5275
  621MPD2    H7 9208   1.210   0.426  10.057 -0.8389  0.4354  0.6603
  622TMC3    C1 9209   1.067   0.203  10.014 -0.0346  0.3944 -0.6586
  622TMC3    C2 9210   1.022   0.253  10.129  0.5384  0.1079  0.0438
  622TMC3    C3 9211   0.932   0.181  10.203 -0.1269  0.1117 -0.4410
  622TMC3    C4 9212   1.011   0.087   9.956 -0.6592 -0.1479 -0.1525
  622TMC3    C5 9213   0.924   0.016  10.035 -0.4520  0.1635 -0.0953
  622TMC3    C6 9214   0.874   0.065  10.155  0.8114  0.5011 -0.5626
  622TMC3     C 9215   1.107   0.307   9.912 -0.1751 -0.0280 -0.3105
  622TMC3     O 9216   1.088   0.278   9.793  0.3476  0.1187  0.4081
  622TMC3     H 9217   1.064   0.338  10.180 -0.5103 -0.5381  1.9658
  622TMC3    H1 9218   1.038   0.041   9.862  0.1006  0.1827 -0.1021
  622TMC3    H2 9219   0.817   4.721  10.220  0.2255  2.7622  1.2337
  622TMC3    C7 9220   0.842   4.636   9.965 -0.0909 -0.0288  0.1447
  622TMC3    C8 9221   0.879   0.242  10.323 -0.3954  0.6074 -0.4581
  622TMC3    O1 9222   0.785   4.555  10.043  0.2129  0.0431 -0.6362
  622TMC3    O2 9223   0.946   0.330  10.376  0.1531  1.0654  0.7140
  623MPD2     C 9224   3.822   0.664  16.160 -0.2232 -0.4457 -0.2409
  623MPD2    C1 9225   3.776   0.790  16.197  0.1550  0.0237  0.3638
  623MPD2    C2 9226   3.863   0.877  16.260  1.2215 -0.2506  0.0195
  623MPD2    C3 9227   3.994   0.837  16.300  0.4554 -0.4350 -0.1427
  623MPD2    C4 9228   4.024   0.702  16.276  0.8167  0.5972  0.4291
  623MPD2    C5 9229   3.945   0.616  16.200 -0.3951  0.1352  0.0689
  623MPD2     H 9230   3.831   0.977  16.288  0.0342 -0.2386 -1.3620
  623MPD2    H1 9231   4.117   0.654  16.303  1.3717  0.4153 -1.8125
  623MPD2    H2 9232   3.768   0.603  16.088 -0.1444  0.9545 -1.4671
  623MPD2    H3 9233   3.981   0.516  16.181  0.2386  0.1421  1.2560
  623MPD2     N 9234   4.066   0.926  16.383 -0.0672  0.1636 -0.0311
  623MPD2    H5 9235   4.037   1.023  16.385 -1.2549 -0.1630 -1.7279
  623MPD2    N1 9236   3.647   0.837  16.168  0.2921  0.5170  0.6098
  623MPD2    H7 9237   3.614   0.929  16.193 -1.1313  0.1285  0.1610
  624TMC3    C1 9238   4.352   0.989  16.734  0.5026 -0.2450 -0.3262
  624TMC3    C2 9239   4.245   1.061  16.795  0.5811  0.8662 -0.7149
  624TMC3    C3 9240   4.149   1.109  16.716  1.2005 -0.2754 -0.7256
  624TMC3    C4 9241   4.329   0.946  16.606  0.7897 -0.0009  0.3075
  624TMC3    C5 9242   4.232   0.995  16.533  0.2351  0.1595  0.1078
  624TMC3    C6 9243   4.136   1.074  16.584 -0.9639  0.3091 -0.2707
  624TMC3     C 9244   4.429   0.900  16.824 -0.1405 -0.1061 -0.4227
  624TMC3     O 9245   4.444   0.935  16.943 -0.5341 -0.0389  0.0982
  624TMC3     H 9246   4.251   1.085  16.900  0.4662 -0.2012 -0.4630
  624TMC3    H1 9247   4.405   0.894  16.549  0.8672  1.6054 -1.0756
  624TMC3    H2 9248   4.043   1.110  16.542 -0.9409  1.4378  0.6341
  624TMC3    C7 9249   4.176   0.888  16.454 -0.2307 -0.1045  0.5831
  624TMC3    C8 9250   4.029   1.153  16.781 -0.2301 -0.6650  0.1340
  624TMC3    O1 9251   4.233   0.783  16.465  0.1871  0.5110  0.4283
  624TMC3    O2 9252   3.974   1.071  16.851 -0.1256 -0.3850 -0.6604
  625MPD2     C 9253   4.314   1.809   0.704  0.5071 -0.0191  0.1067
  625MPD2    C1 9254   4.330   1.946   0.718  0.1364 -0.1485  0.5642
  625MPD2    C2 9255   4.456   1.996   0.760  0.3889 -0.5840  0.8004
  625MPD2    C3 9256   4.568   1.912   0.778  0.2034 -0.3051 -0.0419
  625MPD2    C4 9257   4.547   1.778   0.765  0.0783 -0.8030  1.0004
  625MPD2    C5 9258   4.418   1.732   0.738  0.0628 -0.0002 -0.5565
  625MPD2     H 9259   4.476   2.103   0.757 -2.3251 -0.0902  0.2200
  625MPD2    H1 9260   4.621   1.702   0.790 -1.3197 -2.6625 -0.4808
  625MPD2    H2 9261   4.222   1.753   0.695 -0.0634  1.4501 -3.0007
  625MPD2    H3 9262   4.407   1.626   0.756  0.5784 -0.0066 -0.2716
  625MPD2     N 9263   4.694   1.967   0.806 -0.8724  0.7936  0.0294
  625MPD2    H5 9264   4.702   2.068   0.805  0.0600  0.7124 -0.3035
  625MPD2    N1 9265   4.230   2.036   0.686  0.3556 -0.3721  0.6058
  625MPD2    H7 9266   4.250   2.133   0.707 -1.2859 -0.1419  1.0908
  626TMC3    C1 9267   4.022   2.106   0.618  0.2788 -0.1257  0.4238
  626TMC3    C2 9268   3.919   2.104   0.532 -0.0632  0.7680 -0.1316
  626TMC3    C3 9269   3.807   2.180   0.560 -0.0055  0.2880  0.0030
  626TMC3    C4 9270   4.031   2.197   0.730 -0.0831  0.1135  0.0843
  626TMC3    C5 9271   3.916   2.268   0.752 -0.1713 -0.2176 -0.2817
  626TMC3    C6 9272   3.812   2.269   0.664  0.7173 -0.2479 -0.1402
  626TMC3     C 9273   4.116   2.000   0.619 -0.1197 -0.1403 -0.0539
  626TMC3     O 9274   4.088   1.900   0.557  0.4751 -0.2515  0.3549
  626TMC3     H 9275   3.920   2.029   0.454 -1.2856 -0.0946  0.6733
  626TMC3    H1 9276   4.112   2.209   0.800  0.1152  0.1301 -0.1480
  626TMC3    H2 9277   3.737   2.347   0.672  0.6445  0.0642 -3.9119
  626TMC3    C7 9278   3.887   2.295   0.891  0.4394 -0.6458 -0.8075
  626TMC3    C8 9279   3.733   2.217   0.444 -0.6416  0.1879  0.0734
  626TMC3    O1 9280   3.942   2.222   0.971 -0.0894 -0.3139  0.1770
  626TMC3    O2 9281   3.680   2.326   0.431 -0.2179 -0.2523 -0.4933
  627MPD2     C 9282   2.703   2.586  14.629 -0.6209 -0.1422 -0.3362
  627MPD2    C1 9283   2.779   2.530  14.727 -0.4729  0.2910  0.4425
  627MPD2    C2 9284   2.744   2.404  14.771 -0.4310 -0.6084 -0.1968
  627MPD2    C3 9285   2.631   2.342  14.713 -0.3604 -0.9998  0.3051
  627MPD2    C4 9286   2.558   2.395  14.614 -0.3492  0.0804 -0.4580
  627MPD2    C5 9287   2.595   2.518  14.572  0.2060 -0.7126 -0.2524
  627MPD2     H 9288   2.805   2.346  14.838  1.4406 -1.3871 -2.5666
  627MPD2    H1 9289   2.483   2.343  14.555  0.9757 -1.2375 -0.9716
  627MPD2    H2 9290   2.727   2.684  14.589  0.0905  0.8711  2.6014
  627MPD2    H3 9291   2.547   2.553  14.481 -1.7726  0.6466  1.2999
  627MPD2     N 9292   2.618   2.202  14.744 -0.3831 -0.7451 -0.4850
  627MPD2    H5 9293   2.673   2.171  14.823 -2.1691 -0.0718  1.0331
  627MPD2    N1 9294   2.904   2.573  14.767 -0.5835 -0.0764  0.2778
  627MPD2    H7 9295   2.948   2.519  14.841 -0.9432 -0.4986  0.1798
  628TMC3    C1 9296   3.076   2.731  14.775 -0.3213  0.5386  0.3958
  628TMC3    C2 9297   3.156   2.648  14.848  0.1167  0.1740  0.6294
  628TMC3    C3 9298   3.278   2.702  14.889  1.1675 -0.1792 -0.1017
  628TMC3    C4 9299   3.104   2.861  14.766  0.0879 -0.4091 -0.8767
  628TMC3    C5 9300   3.226   2.910  14.806  0.0751 -0.2358  0.0639
  628TMC3    C6 9301   3.313   2.824  14.868 -0.8593  0.3408  0.0067
  628TMC3     C 9302   2.960   2.680  14.706 -1.0618 -0.6647  0.0015
  628TMC3     O 9303   2.920   2.765  14.623  0.2416 -0.2622  0.0690
  628TMC3     H 9304   3.139   2.541  14.856 -0.3854  0.1669 -0.5346
  628TMC3    H1 9305   3.035   2.925  14.713  0.6838  1.0541  0.1258
  628TMC3    H2 9306   3.411   2.866  14.882 -1.9061  2.2152  1.7728
  628TMC3    C7 9307   3.250   3.057  14.824  0.2828  0.2579 -0.0028
  628TMC3    C8 9308   3.368   2.600  14.935  0.0267 -0.1152 -0.1060
  628TMC3    O1 9309   3.342   3.083  14.897 -0.5066  0.6482  0.0332
  628TMC3    O2 9310   3.343   2.481  14.912  0.2341  0.4495  0.1366
  629MPD2     C 9311   1.565   1.013  16.743 -0.4002  0.8966 -0.0902
  629MPD2    C1 9312   1.512   1.017  16.619  0.0834  0.3472 -0.5819
  629MPD2    C2 9313   1.377   0.992  16.610 -0.1205 -0.6496  0.3213
  629MPD2    C3 9314   1.297   0.951  16.709 -0.2329 -0.5291  0.6841
  629MPD2    C4 9315   1.356   0.936  16.834  0.2353  0.8993 -0.5475
  629MPD2    C5 9316   1.487   0.969  16.847  0.1879  0.6669  0.4756
  629MPD2     H 9317   1.326   1.016  16.517  0.4437  0.1607  0.2159
  629MPD2    H1 9318   1.298   0.901  16.919 -0.8612 -0.3358 -1.8250
  629MPD2    H2 9319   1.664   1.041  16.778 -0.2687 -0.6819  0.8226
  629MPD2    H3 9320   1.539   0.953  16.940 -1.0023 -1.8947  0.7074
  629MPD2     N 9321   1.158   0.930  16.684  0.0942 -0.0899  0.0806
  629MPD2    H5 9322   1.133   0.930  16.586 -0.4499 -1.6210  0.2087
  629MPD2    N1 9323   1.598   1.063  16.512 -0.3136 -0.3557  0.8109
  629MPD2    H7 9324   1.697   1.082  16.529  0.1252  1.0446 -3.3922
  630TMC3    C1 9325   1.667   1.121  16.303  0.4917 -0.0513  0.5982
  630TMC3    C2 9326   1.658   1.226  16.216 -0.1506  0.0636 -0.2773
  630TMC3    C3 9327   1.776   1.254  16.158 -0.2174  0.4599  0.8821
  630TMC3    C4 9328   1.781   1.053  16.329  0.2983 -0.4944  0.4180
  630TMC3    C5 9329   1.897   1.120  16.305  0.2775  0.3232 -0.3602
  630TMC3    C6 9330   1.899   1.204  16.200  0.3407 -0.4223 -0.2811
  630TMC3     C 9331   1.557   1.093  16.387 -0.3780  0.4939  0.2972
  630TMC3     O 9332   1.444   1.096  16.348 -0.1477 -0.0708 -0.2319
  630TMC3     H 9333   1.563   1.262  16.177 -1.7736 -2.8274  0.9558
  630TMC3    H1 9334   1.785   0.970  16.399 -2.9822 -1.0264  0.0171
  630TMC3    H2 9335   1.998   1.246  16.187  0.5116 -0.6224  0.3886
  630TMC3    C7 9336   1.921   1.192  16.430 -0.3726  0.6293 -0.1318
  630TMC3    C8 9337   1.799   1.395  16.121  0.1261 -0.3155  0.4244
  630TMC3    O1 9338   1.885   1.133  16.531 -0.2895 -0.3044 -0.4921
  630TMC3    O2 9339   1.913   1.428  16.087  0.6872  0.0304  0.0079
  631MPD2     C 9340   4.408   1.352  15.669  0.1173  0.0562  0.3853
  631MPD2    C1 9341   4.507   1.396  15.585 -0.1660  0.1145 -0.1377
  631MPD2    C2 9342   4.627   1.320  15.572 -0.5057 -0.2420 -0.2347
  631MPD2    C3 9343   4.627   1.200  15.642 -0.5365 -0.5370 -0.5397
  631MPD2    C4 9344   4.521   1.158  15.724  0.1217  0.2193 -0.5820
  631MPD2    C5 9345   4.416   1.237  15.740  0.1922  0.4829 -0.1894
  631MPD2     H 9346   4.705   1.355  15.505  0.6120 -3.3624 -0.5705
  631MPD2    H1 9347   4.512   1.059  15.766  0.8228  0.5127  0.2663
  631MPD2    H2 9348   4.321   1.416  15.682 -0.8339 -0.7901 -1.7737
  631MPD2    H3 9349   4.339   1.212  15.813 -0.9474 -0.2877 -1.6669
  631MPD2     N 9350   0.017   1.114  15.630 -0.2501  0.3060  0.0475
  631MPD2    H5 9351   0.099   1.149  15.582  1.4252 -2.7166  0.7208
  631MPD2    N1 9352   4.494   1.522  15.522 -0.6008  0.1104  0.0274
  631MPD2    H7 9353   4.421   1.578  15.564 -0.9839  0.9320 -1.7450
  632TMC3    C1 9354   4.500   1.680  15.341 -0.0778 -0.0699 -0.2741
  632TMC3    C2 9355   4.369   1.712  15.361  0.3801 -0.1419 -0.0734
  632TMC3    C3 9356   4.297   1.738  15.245  0.3869 -0.0477  0.3528
  632TMC3    C4 9357   4.566   1.698  15.219  0.2504 -0.0088 -0.2302
  632TMC3    C5 9358   4.497   1.744  15.111 -0.8971 -1.0780 -0.1848
  632TMC3    C6 9359   4.359   1.765  15.122 -0.1072 -0.4907 -0.2219
  632TMC3     C 9360   4.559   1.563  15.409  0.6420 -0.1644 -0.5617
  632TMC3     O 9361   4.642   1.500  15.343  0.0097 -0.0035  0.2986
  632TMC3     H 9362   4.321   1.677  15.451 -1.7692 -0.6898 -1.4292
  632TMC3    H1 9363   4.674   1.693  15.215  0.1807 -0.8554 -1.0908
  632TMC3    H2 9364   4.308   1.789  15.029  1.3520 -1.7032 -1.3511
  632TMC3    C7 9365   4.540   1.719  14.977  0.2538  0.0016  0.5280
  632TMC3    C8 9366   4.159   1.697  15.253 -0.6898 -0.5554 -0.1038
  632TMC3    O1 9367   4.462   1.732  14.883 -0.7746  0.8573  0.2733
  632TMC3    O2 9368   4.120   1.688  15.369  0.3311  0.2846  0.2047
  633MPD2     C 9369   4.153   4.095  17.503  0.1154 -0.4722  0.0221
  633MPD2    C1 9370   4.222   4.015  17.414 -0.2047  0.1321  0.7811
  633MPD2    C2 9371   4.244   3.887  17.462  0.7955  0.0138 -0.2010
  633MPD2    C3 9372   4.211   3.842  17.589 -0.9311  0.0027  0.3203
  633MPD2    C4 9373   4.134   3.927  17.672  0.0223 -0.0390 -0.2996
  633MPD2    C5 9374   4.121   4.051  17.630 -0.6233  0.0804 -0.3682
  633MPD2     H 9375   4.291   3.825  17.386 -0.7248  0.7918 -1.7755
  633MPD2    H1 9376   4.112   3.897   0.083  1.3358  2.1220  0.6105
  633MPD2    H2 9377   4.145   4.200  17.478 -0.3614 -0.0297  2.0359
  633MPD2    H3 9378   4.069   4.118   0.006 -1.7174 -1.2677  0.1148
  633MPD2     N 9379   4.229   3.708  17.631  0.4652 -0.3357 -0.1336
  633MPD2    H5 9380   4.198   3.682   0.033  2.6995 -0.0623  0.6748
  633MPD2    N1 9381   4.273   4.056  17.288  0.1687  0.1530  0.0201
  633MPD2    H7 9382   4.314   3.985  17.227 -0.0346 -0.4750  0.6121
  634TMC3    C1 9383   4.290   4.194  17.096 -0.6511  0.2977 -0.4741
  634TMC3    C2 9384   4.299   4.087  17.016 -0.2418  0.4649 -0.1222
  634TMC3    C3 9385   4.285   4.099  16.882  0.1421 -0.5085 -0.3645
  634TMC3    C4 9386   4.264   4.317  17.039 -0.6254 -0.4200  0.1513
  634TMC3    C5 9387   4.260   4.329  16.906 -0.1844  0.7215 -0.0707
  634TMC3    C6 9388   4.281   4.219  16.816  0.5574  0.1205  0.5651
  634TMC3     C 9389   4.265   4.187  17.241  0.3815 -0.2176  0.0260
  634TMC3     O 9390   4.226   4.289  17.297  0.2673 -0.1184  0.0219
  634TMC3     H 9391   4.309   3.987  17.055  0.4888  1.1956  1.5535
  634TMC3    H1 9392   4.269   4.411  17.094 -0.7495 -0.5742  0.4237
  634TMC3    H2 9393   4.259   4.225  16.710  0.9358 -0.4002  0.4524
  634TMC3    C7 9394   4.201   4.447  16.835 -0.5087  0.0781 -0.1451
  634TMC3    C8 9395   4.253   3.977  16.803  0.1103  0.3975  0.3841
  634TMC3    O1 9396   4.225   4.455  16.715  0.4253  0.0810  0.1302
  634TMC3    O2 9397   4.240   3.874  16.869 -0.5953  0.9249 -0.3892
  635TMC3    C1 9398   0.658   0.131   0.029  0.2340  0.4441 -0.7702
  635TMC3    C2 9399   0.571   0.034  17.682 -0.0170  0.4289 -0.1744
  635TMC3    C3 9400   0.590   4.624   0.029 -0.3829  0.5754 -0.1900
  635TMC3    C4 9401   0.754   0.108   0.121 -0.0718 -0.4854  0.0209
  635TMC3    C5 9402   0.772   4.700   0.167  0.5010 -0.3738  0.7206
  635TMC3    C6 9403   0.692   4.598   0.120  0.1226 -0.4317 -1.1114
  635TMC3     C 9404   0.616   0.268   0.007 -0.0580  0.0909 -0.0292
  635TMC3     O 9405   0.499   0.284   0.033 -0.4049 -0.3191 -0.2777
  635TMC3     H 9406   0.504   0.067  17.604 -1.4556 -0.7598  0.5597
  635TMC3    H1 9407   0.813   0.187   0.165 -1.5062  0.5966 -0.0152
  635TMC3    H2 9408   0.699   4.492   0.143  3.0343 -0.1335 -0.5724
  635TMC3    C7 9409   0.896   4.667   0.234  0.1045 -0.1399  0.1636
  635TMC3    C8 9410   0.538   4.511  17.641 -0.1657  0.2158 -0.1150
  635TMC3    O1 9411   0.992   0.007   0.198  0.0115 -0.2837  0.2281
  635TMC3    O2 9412   0.578   4.393  17.658 -0.0850 -0.5154 -0.3230
  636MPD2     C 9413   0.210   4.128  16.258 -0.0821  0.0124  0.2793
  636MPD2    C1 9414   0.342   4.151  16.292  0.0795  0.2976  0.6718
  636MPD2    C2 9415   0.429   4.041  16.295  0.4184 -0.3284 -0.0874
  636MPD2    C3 9416   0.382   3.910  16.273  0.0890 -0.4615 -0.7587
  636MPD2    C4 9417   0.251   3.893  16.230 -0.3269 -0.0138 -0.0282
  636MPD2    C5 9418   0.162   3.998  16.229  0.3577 -0.1086  0.1016
  636MPD2     H 9419   0.535   4.062  16.302  0.4630 -0.0868 -1.4595
  636MPD2    H1 9420   0.216   3.792  16.213 -0.3010 -0.2657  1.4009
  636MPD2    H2 9421   0.139   4.209  16.246  1.0098  0.8929 -0.2747
  636MPD2    H3 9422   0.056   3.987  16.208  0.6497  0.0765 -1.4958
  636MPD2     N 9423   0.465   3.797  16.295  0.4880 -0.0883 -0.8290
  636MPD2    H5 9424   0.427   3.707  16.268 -0.8498  1.2700 -3.4803
  636MPD2    N1 9425   0.394   4.278  16.315 -0.4982 -0.2315 -0.1177
  636MPD2    H7 9426   0.492   4.279  16.343 -0.6472 -1.9613  0.4800
  637TMC3    C1 9427   0.649   3.677  16.368 -0.0952  0.3620  0.6826
  637TMC3    C2 9428   0.703   3.667  16.489 -1.1313  0.2906  0.1473
  637TMC3    C3 9429   0.810   3.591  16.502 -1.1104  0.0130  0.4409
  637TMC3    C4 9430   0.698   3.620  16.261 -1.3024  0.1920 -0.1312
  637TMC3    C5 9431   0.813   3.550  16.266 -0.2566  0.8046 -0.1401
  637TMC3    C6 9432   0.868   3.540  16.392  0.2948  0.3249 -0.3503
  637TMC3     C 9433   0.594   3.807  16.346  0.7854 -0.1373 -0.1426
  637TMC3     O 9434   0.655   3.897  16.404 -0.2963  0.2379 -0.3588
  637TMC3     H 9435   0.659   3.722  16.572 -0.3915  0.1634  0.6172
  637TMC3    H1 9436   0.653   3.648  16.166 -1.7594 -3.8472 -1.1141
  637TMC3    H2 9437   0.963   3.488  16.395 -0.1140 -0.3718  0.4880
  637TMC3    C7 9438   0.912   3.606  16.180 -0.2839 -0.2673  0.5655
  637TMC3    C8 9439   0.910   3.659  16.579 -0.2178  0.5997 -0.4517
  637TMC3    O1 9440   1.014   3.652  16.231  0.1560  0.5737 -0.0452
  637TMC3    O2 9441   0.984   3.590  16.647  0.4888  0.1232 -0.1854
  638MPD2     C 9442   0.392   3.105  14.516  0.0520 -0.1123  0.7141
  638MPD2    C1 9443   0.395   2.967  14.523 -0.1062 -0.4857  0.1584
  638MPD2    C2 9444   0.369   2.905  14.638 -0.0369  0.2981 -0.1365
  638MPD2    C3 9445   0.356   2.974  14.755 -0.8213 -0.1590  0.2747
  638MPD2    C4 9446   0.358   3.113  14.749 -0.1735  0.6617 -0.3809
  638MPD2    C5 9447   0.376   3.170  14.629  0.4020  0.3804 -0.5952
  638MPD2     H 9448   0.395   2.801  14.648 -3.4629 -0.3728  1.8995
  638MPD2    H1 9449   0.356   3.187  14.829 -1.9749 -1.1221  1.2366
  638MPD2    H2 9450   0.383   3.154  14.419  0.0978 -4.5534 -1.5542
  638MPD2    H3 9451   0.377   3.278  14.621  2.4128  0.3235 -1.0711
  638MPD2     N 9452   0.336   2.900  14.874  0.1193  0.0775 -0.0707
  638MPD2    H5 9453   0.329   2.799  14.871 -0.8390  0.1359  0.3218
  638MPD2    N1 9454   0.429   2.902  14.404  0.8703 -0.1166  0.0585
  638MPD2    H7 9455   0.464   2.962  14.330  0.2230  0.8410  0.5251
  639TMC3    C1 9456   0.339   2.845  15.103  1.0007 -0.4494  0.2007
  639TMC3    C2 9457   0.260   2.741  15.067  0.5075  0.1289  0.4009
  639TMC3    C3 9458   0.291   2.614  15.100 -0.2617  0.1248  0.3288
  639TMC3    C4 9459   0.463   2.804  15.153 -0.0175 -0.3127  0.2429
  639TMC3    C5 9460   0.481   2.680  15.202 -0.2832  0.7326  0.4068
  639TMC3    C6 9461   0.401   2.579  15.167  0.4265  0.4290 -0.4526
  639TMC3     C 9462   0.347   2.952  15.005  0.5035  0.1103 -0.6507
  639TMC3     O 9463   0.385   3.058  15.054  0.1224  0.1424 -0.2797
  639TMC3     H 9464   0.173   2.763  15.007 -0.0127 -2.3449  0.2316
  639TMC3    H1 9465   0.535   2.881  15.182 -0.9938  0.5995  0.2365
  639TMC3    H2 9466   0.395   2.480  15.210  0.7998  1.0094  0.9408
  639TMC3    C7 9467   0.591   2.650  15.291 -0.2440 -0.4827  0.3604
  639TMC3    C8 9468   0.217   2.501  15.062 -0.1579  0.0579  0.2274
  639TMC3    O1 9469   0.611   2.729  15.386  0.3746  0.3708  0.3897
  639TMC3    O2 9470   0.272   2.397  15.027  0.2643  0.0110 -0.0669
  640MPD2     C 9471   1.369   2.430   9.560  0.3574 -0.4261  0.1411
  640MPD2    C1 9472   1.243   2.401   9.597 -0.0052 -0.5188  0.7863
  640MPD2    C2 9473   1.194   2.463   9.706  1.2223  0.0622  0.4136
  640MPD2    C3 9474   1.273   2.541   9.794 -0.4657  0.8301 -1.2365
  640MPD2    C4 9475   1.400   2.568   9.754  0.7481 -0.2039 -0.2180
  640MPD2    C5 9476   1.455   2.510   9.636 -0.6809  0.3492  0.5737
  640MPD2     H 9477   1.093   2.434   9.730  1.2065 -0.6075 -0.4251
  640MPD2    H1 9478   1.450   2.642   9.814  0.5546 -1.3099  1.3153
  640MPD2    H2 9479   1.405   2.387   9.466 -4.4159  0.8262 -2.2205
  640MPD2    H3 9480   1.553   2.544   9.605 -0.1543 -0.1242  1.7035
  640MPD2     N 9481   1.222   2.602   9.909  0.3396 -0.0251  0.2121
  640MPD2    H5 9482   1.285   2.654   9.968 -1.4586  0.4934  1.6864
  640MPD2    N1 9483   1.160   2.323   9.506 -0.4370  0.0098  0.4291
  640MPD2    H7 9484   1.198   2.269   9.429  0.3316  0.0544  0.7768
  641TMC3    C1 9485   0.975   2.203   9.428 -0.4598  0.8407 -0.4318
  641TMC3    C2 9486   1.038   2.080   9.432  0.0328 -0.5966  0.4215
  641TMC3    C3 9487   0.963   1.979   9.370  0.7831 -0.0905  0.8545
  641TMC3    C4 9488   0.844   2.216   9.388 -0.2084  0.1021  0.1150
  641TMC3    C5 9489   0.773   2.113   9.336  0.3771 -0.0692 -0.4583
  641TMC3    C6 9490   0.833   1.991   9.329 -0.6288  0.8680 -0.2546
  641TMC3     C 9491   1.029   2.305   9.520 -0.5249 -0.1684 -0.0996
  641TMC3     O 9492   0.946   2.354   9.596 -0.2192  0.2061  0.3077
  641TMC3     H 9493   1.142   2.064   9.460  0.2294 -0.8467 -0.4505
  641TMC3    H1 9494   0.804   2.316   9.398 -0.8007 -0.0979 -0.2727
  641TMC3    H2 9495   0.793   1.906   9.275  1.4272  0.4808 -1.1870
  641TMC3    C7 9496   0.630   2.110   9.338  0.3236  0.1451  0.3748
  641TMC3    C8 9497   1.012   1.846   9.372  0.0037 -0.3348 -0.0028
  641TMC3    O1 9498   0.579   2.001   9.343  0.0839  0.2678 -0.0863
  641TMC3    O2 9499   0.976   1.755   9.295  0.0152 -0.0649  0.3455
  642TMC3    C1 9500   1.777   2.777  12.055  0.4118  0.2081  0.6850
  642TMC3    C2 9501   1.800   2.766  12.190  0.2069  0.0766  0.1397
  642TMC3    C3 9502   1.836   2.644  12.241 -0.9073 -0.0150  0.4166
  642TMC3    C4 9503   1.796   2.670  11.971  0.2711  0.5990  0.0902
  642TMC3    C5 9504   1.833   2.549  12.024  0.0086  0.2544 -0.4146
  642TMC3    C6 9505   1.855   2.535  12.159  0.6637  0.6158 -0.5710
  642TMC3     C 9506   1.733   2.906  12.001 -0.0947 -0.5352 -0.2780
  642TMC3     O 9507   1.726   2.911  11.880 -0.0356 -0.1092  0.1420
  642TMC3     H 9508   1.805   2.851  12.257 -2.0802 -1.5665  2.3894
  642TMC3    H1 9509   1.787   2.683  11.864  1.3000  0.0912 -0.0608
  642TMC3    H2 9510   1.890   2.444  12.206  1.3520  1.7247  1.0454
  642TMC3    C7 9511   1.854   2.441  11.931  0.1773  0.0113  0.1216
  642TMC3    C8 9512   1.791   2.607  12.376 -0.1102 -0.2938  0.0616
  642TMC3    O1 9513   1.866   2.460  11.809  0.0776  0.0743 -0.7287
  642TMC3    O2 9514   1.807   2.490  12.413 -0.4373  0.0975 -0.2301
  643TMC3    C1 9515   1.433   2.095   0.377  0.4591  0.6869  0.8589
  643TMC3    C2 9516   1.312   2.156   0.382 -0.6542  0.5992  0.2349
  643TMC3    C3 9517   1.218   2.121   0.290 -0.5283  0.2234  0.3181
  643TMC3    C4 9518   1.449   1.985   0.299  0.2588 -0.3497  0.5259
  643TMC3    C5 9519   1.358   1.954   0.206  0.0090  0.4149 -0.4901
  643TMC3    C6 9520   1.245   2.024   0.197 -0.0508  0.4452 -0.6078
  643TMC3     C 9521   1.534   2.114   0.479  0.2381  0.6585 -0.9031
  643TMC3     O 9522   1.635   2.045   0.486 -0.2165  0.6321  0.3599
  643TMC3     H 9523   1.270   2.215   0.463 -0.5294  0.8167  0.1421
  643TMC3    H1 9524   1.540   1.928   0.312 -0.7809 -2.1681 -0.2951
  643TMC3    H2 9525   1.179   2.011   0.112 -1.5778 -0.1067  0.6625
  643TMC3    C7 9526   1.406   1.902   0.081 -0.2642 -0.3378  0.7150
  643TMC3    C8 9527   1.114   2.217   0.254 -0.4617 -0.2781 -0.7472
  643TMC3    O1 9528   1.521   1.933   0.051  0.2207  0.2602  0.3428
  643TMC3    O2 9529   1.021   2.180   0.184 -0.3361 -1.0875  0.1447
  644MPD2     C 9530   1.550   2.446   9.021 -0.0075  0.0082  0.7494
  644MPD2    C1 9531   1.608   2.510   9.131  0.3371 -0.2765  0.4815
  644MPD2    C2 9532   1.521   2.585   9.217 -0.5853 -0.7668 -0.2336
  644MPD2    C3 9533   1.383   2.589   9.204 -0.2192  0.4171 -0.5337
  644MPD2    C4 9534   1.339   2.530   9.085  0.2077 -0.0576  0.5220
  644MPD2    C5 9535   1.418   2.453   9.001 -0.1074 -0.0614 -0.3505
  644MPD2     H 9536   1.563   2.639   9.301 -0.2404 -0.4462 -0.6156
  644MPD2    H1 9537   1.233   2.523   9.064 -0.3353 -0.1041  3.3142
  644MPD2    H2 9538   1.610   2.398   8.944 -0.4186  1.4698 -0.4891
  644MPD2    H3 9539   1.369   2.411   8.914 -1.1129 -1.3284  0.8341
  644MPD2     N 9540   1.297   2.664   9.297  0.7131  0.4364  0.5061
  644MPD2    H5 9541   1.340   2.718   9.372  0.3686  1.8952 -0.3369
  644MPD2    N1 9542   1.745   2.497   9.135 -0.1737 -0.1559 -0.0225
  644MPD2    H7 9543   1.796   2.422   9.091 -0.9851 -0.4931 -0.3790
  645TMC3    C1 9544   1.103   2.705   9.416  0.2503 -0.4072 -0.8919
  645TMC3    C2 9545   0.991   2.642   9.457  0.5612 -0.4893 -0.3652
  645TMC3    C3 9546   0.930   2.685   9.569  0.5302  0.3271  0.3244
  645TMC3    C4 9547   1.169   2.793   9.503 -0.3890 -0.4986 -0.6554
  645TMC3    C5 9548   1.109   2.824   9.629 -0.2829 -0.4688 -0.2731
  645TMC3    C6 9549   0.988   2.769   9.664 -0.0679  0.8031  0.0890
  645TMC3     C 9550   1.162   2.647   9.295  0.6811 -0.4975 -0.3203
  645TMC3     O 9551   1.093   2.579   9.220 -0.0605  0.0960 -0.6917
  645TMC3     H 9552   0.930   2.575   9.397  0.8206 -0.3702 -0.7561
  645TMC3    H1 9553   1.254   2.853   9.475  0.1756 -0.7531  0.5491
  645TMC3    H2 9554   0.938   2.789   9.758 -1.6026  0.7258 -0.7063
  645TMC3    C7 9555   1.185   2.899   9.734 -0.2450 -0.6032 -0.0933
  645TMC3    C8 9556   0.806   2.624   9.595  0.6887  0.5337  0.2908
  645TMC3    O1 9557   1.135   2.902   9.845 -0.2664  0.3156 -0.2987
  645TMC3    O2 9558   0.744   2.585   9.499  0.0252 -0.2478 -0.0964
  646MPD2     C 9559   0.635   1.611  14.792  0.1479 -0.0175 -0.5110
  646MPD2    C1 9560   0.558   1.665  14.892  0.3885  0.7655 -0.0874
  646MPD2    C2 9561   0.450   1.741  14.856  0.1439  0.8964  1.0319
  646MPD2    C3 9562   0.420   1.758  14.724  0.6194  0.4867 -0.2256
  646MPD2    C4 9563   0.494   1.695  14.628  0.8687  0.1931 -0.0918
  646MPD2    C5 9564   0.606   1.625  14.660  0.0239 -0.2610 -0.5676
  646MPD2     H 9565   0.381   1.776  14.931 -1.2962  1.0347 -0.3468
  646MPD2    H1 9566   0.472   1.707  14.522  0.9355  0.1977 -0.1050
  646MPD2    H2 9567   0.731   1.565  14.816  0.7074 -0.1010 -2.8635
  646MPD2    H3 9568   0.668   1.587  14.580 -0.1789  0.0304 -0.8599
  646MPD2     N 9569   0.302   1.828  14.690  0.2925 -0.4618 -0.7496
  646MPD2    H5 9570   0.247   1.850  14.773  0.6687 -0.9401 -0.3714
  646MPD2    N1 9571   0.602   1.641  15.026 -0.1215  0.3139  0.4094
  646MPD2    H7 9572   0.673   1.569  15.033  1.2420  1.4564 -1.6983
  647TMC3    C1 9573   0.631   1.675  15.254 -0.6375 -0.7878 -0.0119
  647TMC3    C2 9574   0.579   1.685  15.376  0.4969  0.0343  1.3749
  647TMC3    C3 9575   0.661   1.684  15.486  0.4935  0.5174  0.2959
  647TMC3    C4 9576   0.770   1.656  15.234 -0.5517 -0.1368  0.0415
  647TMC3    C5 9577   0.847   1.659  15.341 -0.1297  0.0935 -0.1060
  647TMC3    C6 9578   0.798   1.674  15.468  0.1934  0.2109  0.1122
  647TMC3     C 9579   0.544   1.695  15.144 -0.1019 -0.2899  0.7362
  647TMC3     O 9580   0.436   1.746  15.172 -0.8837 -0.1017  0.1529
  647TMC3     H 9581   0.472   1.687  15.392  0.4013  0.2616  0.7036
  647TMC3    H1 9582   0.811   1.643  15.134  0.5637 -0.3173  0.5225
  647TMC3    H2 9583   0.861   1.677  15.556 -0.6065 -1.7782  0.7542
  647TMC3    C7 9584   0.983   1.623  15.335  0.3859  0.2056 -0.1564
  647TMC3    C8 9585   0.615   1.606  15.592 -0.5286 -0.0632  0.4732
  647TMC3    O1 9586   1.006   1.538  15.250 -0.8667  0.0884  0.3256
  647TMC3    O2 9587   0.537   1.657  15.670 -0.2763  0.2275 -0.2076
  648TMC3    C1 9588   4.505   4.062  16.237 -0.0974 -0.0976 -0.2643
  648TMC3    C2 9589   4.521   3.938  16.188  0.0436 -0.0012  0.0361
  648TMC3    C3 9590   4.514   3.914  16.055 -0.4902  0.1730  0.4033
  648TMC3    C4 9591   4.482   4.162  16.150 -0.0583 -0.0518  0.9272
  648TMC3    C5 9592   4.465   4.136  16.019 -0.1906  0.2030 -0.5242
  648TMC3    C6 9593   4.483   4.008  15.968 -0.4243 -0.9184 -0.2849
  648TMC3     C 9594   4.522   4.095  16.379 -0.2863  0.5940  0.2705
  648TMC3     O 9595   4.498   4.212  16.411  0.1360  0.7020 -0.2032
  648TMC3     H 9596   4.558   3.850  16.239 -1.3486 -0.8026 -0.3381
  648TMC3    H1 9597   4.491   4.262  16.190  1.3917  0.8481 -1.6112
  648TMC3    H2 9598   4.461   3.986  15.865  0.4285 -0.3761 -0.5789
  648TMC3    C7 9599   4.434   4.243  15.925 -0.6112 -0.1312 -0.3943
  648TMC3    C8 9600   4.559   3.787  16.004  0.2213 -0.9235 -0.6520
  648TMC3    O1 9601   4.455   4.222  15.806 -0.6609 -0.6592  0.3120
  648TMC3    O2 9602   4.529   3.686  16.064 -0.4344 -0.0934 -0.2625
  649TMC3    C1 9603   3.614   0.306  13.310 -0.2353 -0.1883 -0.1722
  649TMC3    C2 9604   3.703   0.219  13.267 -0.4618 -0.2334 -0.2784
  649TMC3    C3 9605   3.707   0.096  13.332 -0.0245  0.3221 -0.3351
  649TMC3    C4 9606   3.535   0.276  13.417  0.6811 -0.5914 -0.5372
  649TMC3    C5 9607   3.528   0.153  13.472  0.0728 -0.1385 -0.4718
  649TMC3    C6 9608   3.610   0.052  13.427  0.7986  0.1265  0.5135
  649TMC3     C 9609   3.598   0.435  13.248  0.9193 -0.1923 -0.0676
  649TMC3     O 9610   3.490   0.490  13.264 -0.3398 -0.0741 -0.1744
  649TMC3     H 9611   3.751   0.226  13.170  0.9510  0.9589  0.5126
  649TMC3    H1 9612   3.465   0.352  13.451  0.1661 -2.3855  2.3601
  649TMC3    H2 9613   3.606   4.672  13.463  0.6991  0.0926  0.4074
  649TMC3    C7 9614   3.473   0.137  13.608  0.3759  0.3545  0.1963
  649TMC3    C8 9615   3.792   4.722  13.266  0.5236 -0.0323  0.0332
  649TMC3    O1 9616   3.424   0.230  13.673 -0.4915  0.1531 -0.0989
  649TMC3    O2 9617   3.748   4.611  13.248 -0.1768 -0.3938 -0.0424
  650TMC3    C1 9618   1.374   2.346  12.556  0.3261  0.2196 -0.5206
  650TMC3    C2 9619   1.367   2.483  12.586 -0.1273 -0.1674 -0.4170
  650TMC3    C3 9620   1.310   2.557  12.487 -0.5836 -0.4128 -1.0136
  650TMC3    C4 9621   1.321   2.299  12.438 -0.1385 -0.8663  0.5455
  650TMC3    C5 9622   1.269   2.384  12.346 -1.0179 -0.4305  0.3844
  650TMC3    C6 9623   1.258   2.519  12.367 -0.2588 -0.2985  0.4525
  650TMC3     C 9624   1.412   2.265  12.669  0.1991 -0.0355  0.2513
  650TMC3     O 9625   1.422   2.317  12.779  0.1413 -0.2985 -0.4436
  650TMC3     H 9626   1.423   2.524  12.669  1.1294 -0.8285 -0.9462
  650TMC3    H1 9627   1.320   2.191  12.428 -1.8971 -0.7792 -0.1374
  650TMC3    H2 9628   1.218   2.584  12.290  0.3396 -0.5790 -0.0934
  650TMC3    C7 9629   1.219   2.321  12.229 -0.3675  0.6559 -1.2731
  650TMC3    C8 9630   1.289   2.699  12.515 -0.0060  0.9177 -0.4961
  650TMC3    O1 9631   1.262   2.212  12.209  0.3047  0.0590  1.1482
  650TMC3    O2 9632   1.324   2.770  12.427  0.3450 -0.1398 -0.8765
  651MPD2     C 9633   0.462   4.494  10.573 -0.1705 -0.3330  0.1345
  651MPD2    C1 9634   0.483   4.594  10.667  0.3159  0.7446  0.3156
  651MPD2    C2 9635   0.608   4.651  10.665  0.0335 -0.4320  0.2050
  651MPD2    C3 9636   0.704   4.614  10.581 -0.1601  0.1981  0.8045
  651MPD2    C4 9637   0.681   4.512  10.490  0.5909 -0.5328  1.1141
  651MPD2    C5 9638   0.559   4.460  10.487  0.3859 -0.4162 -0.6623
  651MPD2     H 9639   0.630   0.007  10.735 -1.0880 -1.5095  1.7568
  651MPD2    H1 9640   0.756   4.478  10.418  0.3205  0.4556  0.3636
  651MPD2    H2 9641   0.362   4.454  10.556  0.3857 -1.4036 -0.6064
  651MPD2    H3 9642   0.539   4.389  10.408  0.8558 -1.3131  0.0079
  651MPD2     N 9643   0.833   4.673  10.595  0.5291  0.0273 -0.0158
  651MPD2    H5 9644   0.841   0.022  10.667 -1.7690  0.1380  0.1352
  651MPD2    N1 9645   0.393   4.629  10.770 -0.5565  0.1787  0.3015
  651MPD2    H7 9646   0.418   4.708  10.828  1.7718  0.8746 -1.6935
  652TMC3    C1 9647   1.278   0.053  10.468 -0.7963  0.4033 -0.1069
  652TMC3    C2 9648   1.177   4.683  10.484  0.4961 -0.1224 -0.2227
  652TMC3    C3 9649   1.069   4.718  10.552  0.4149  0.2110 -0.2738
  652TMC3    C4 9650   1.267   0.175  10.534 -0.2251 -1.0849  0.3067
  652TMC3    C5 9651   1.163   0.198  10.617 -0.1890  0.0458 -0.5581
  652TMC3    C6 9652   1.063   0.108  10.633 -0.2998  0.2231  0.4596
  652TMC3     C 9653   1.402   4.722  10.521  1.0797  0.2011 -0.2892
  652TMC3     O 9654   1.447   0.060  10.619  0.1258  0.2571  0.6460
  652TMC3     H 9655   1.187   4.585  10.440  0.8377 -0.3381  0.3427
  652TMC3    H1 9656   1.338   0.255  10.516 -2.3123  0.6263 -0.1698
  652TMC3    H2 9657   0.977   0.132  10.696 -1.1078 -2.8727  0.5618
  652TMC3    C7 9658   1.197   0.283  10.731  0.0732 -0.3869 -0.1965
  652TMC3    C8 9659   0.945   4.653  10.512 -0.0357 -0.3212 -0.0170
  652TMC3    O1 9660   1.109   0.292  10.819 -0.3634  0.2279  0.2880
  652TMC3    O2 9661   0.943   4.600  10.403 -0.1915  0.4076  0.5072
  653MPD2     C 9662   3.816   4.025   0.123  0.1714  0.7907  0.6133
  653MPD2    C1 9663   3.740   4.120   0.055  0.5695  0.5402  0.4526
  653MPD2    C2 9664   3.637   4.088  17.662  0.4884  0.0509  0.3843
  653MPD2    C3 9665   3.612   3.957  17.632  0.9149 -0.2453  0.0430
  653MPD2    C4 9666   3.693   3.863   0.008 -0.8533  0.0658 -0.1194
  653MPD2    C5 9667   3.794   3.898   0.088  0.0944  0.2769  0.8062
  653MPD2     H 9668   3.574   4.162  17.613 -0.0313 -0.2857  0.5451
  653MPD2    H1 9669   3.692   3.755  17.686 -3.6012  0.1545 -0.6732
  653MPD2    H2 9670   3.897   4.053   0.189  1.1919  1.7139 -1.0173
  653MPD2    H3 9671   3.865   3.828   0.131 -0.1487 -0.8145 -0.5795
  653MPD2     N 9672   3.513   3.924  17.546 -0.0980 -0.1783  0.2825
  653MPD2    H5 9673   3.456   4.001  17.513 -0.2895  0.0724  1.2013
  653MPD2    N1 9674   3.760   4.261   0.083  0.1638 -0.7658  0.1140
  653MPD2    H7 9675   3.680   4.322   0.067  1.0292  0.1204 -0.8452
  654TMC3    C1 9676   3.412   3.792  17.375  0.1662 -0.1834 -0.0913
  654TMC3    C2 9677   3.376   3.905  17.301 -0.1342  0.6332  0.2344
  654TMC3    C3 9678   3.342   3.872  17.172 -0.4269  0.3539  0.4398
  654TMC3    C4 9679   3.402   3.666  17.328  0.5043 -1.5821 -1.0251
  654TMC3    C5 9680   3.357   3.638  17.202 -0.7908 -0.5279 -0.0078
  654TMC3    C6 9681   3.339   3.747  17.125  0.3392  0.0376 -0.1578
  654TMC3     C 9682   3.498   3.799  17.492 -0.0639 -0.0381 -0.3256
  654TMC3     O 9683   3.534   3.698  17.550 -0.0882  0.3810 -0.1270
  654TMC3     H 9684   3.373   4.005  17.342  2.4632  1.0206 -0.4594
  654TMC3    H1 9685   3.424   3.587  17.399  0.5682 -0.9030 -0.2944
  654TMC3    H2 9686   3.316   3.730  17.021  3.0165  0.0858 -0.7494
  654TMC3    C7 9687   3.328   3.501  17.154  0.7632  0.7878 -0.1948
  654TMC3    C8 9688   3.247   3.964  17.104  0.7344  0.2440 -0.1634
  654TMC3    O1 9689   3.253   3.505  17.053  0.2870  0.2751  0.1032
  654TMC3    O2 9690   3.184   4.044  17.171  0.4876 -0.0293 -0.0917
  655MPD2     C 9691   0.500   4.372  15.692 -0.1755  0.0558  0.1008
  655MPD2    C1 9692   0.404   4.424  15.620 -0.2157  0.0520  0.2196
  655MPD2    C2 9693   0.370   4.366  15.499  0.2806  0.3928 -0.7004
  655MPD2    C3 9694   0.437   4.251  15.456  0.1041 -0.2864  0.6777
  655MPD2    C4 9695   0.535   4.199  15.532 -0.2347  0.2961 -0.2298
  655MPD2    C5 9696   0.568   4.262  15.648 -0.6235  0.3240 -0.4905
  655MPD2     H 9697   0.278   4.397  15.452 -1.8500 -0.7321  2.7423
  655MPD2    H1 9698   0.582   4.104  15.509 -0.5943  0.2760 -0.8922
  655MPD2    H2 9699   0.536   4.417  15.785 -0.6038  1.8265 -0.5990
  655MPD2    H3 9700   0.650   4.215  15.702 -1.3502  2.1068  2.2117
  655MPD2     N 9701   0.402   4.170  15.342  0.3889  0.4776 -0.4968
  655MPD2    H5 9702   0.451   4.082  15.332 -0.4327 -0.0175 -0.2163
  655MPD2    N1 9703   0.315   4.520  15.675 -0.4355 -0.2596 -0.2376
  655MPD2    H7 9704   0.253   4.552  15.601 -0.4258  1.0528  0.3310
  656TMC3    C1 9705   0.190   4.640  15.838  1.0199  0.4213  0.3441
  656TMC3    C2 9706   0.134   4.627  15.958  0.3095  0.9076  0.3419
  656TMC3    C3 9707   0.005   4.674  15.975 -0.0104 -0.8076  0.5152
  656TMC3    C4 9708   0.130   0.005  15.751  0.5527  0.3784  0.0294
  656TMC3    C5 9709   0.002   0.045  15.768  0.5164 -0.6839  0.1449
  656TMC3    C6 9710   4.652   0.017  15.875 -0.5370 -0.8638 -0.4472
  656TMC3     C 9711   0.301   4.555  15.807 -0.0788  0.0499 -0.3514
  656TMC3     O 9712   0.364   4.516  15.902  0.0327  0.1978 -0.0008
  656TMC3     H 9713   0.184   4.578  16.041  0.3434 -1.3563 -1.0381
  656TMC3    H1 9714   0.188   0.033  15.664 -0.3483 -1.5926 -1.1951
  656TMC3    H2 9715   4.544   0.027  15.886 -0.3742  0.4790 -0.1432
  656TMC3    C7 9716   4.665   0.109  15.653  0.2449  0.1188 -0.1382
  656TMC3    C8 9717   4.652   4.614  16.080 -0.4217  0.4210 -0.5184
  656TMC3    O1 9718   4.719   0.087  15.543 -0.2260 -0.4477  0.0321
  656TMC3    O2 9719   4.669   4.493  16.097  0.5792 -0.1793 -0.5728
  657TMC3    C1 9720   4.062   3.870  14.550 -0.8284  0.2049 -0.0339
  657TMC3    C2 9721   4.031   3.862  14.682  0.0423 -0.6930 -0.4274
  657TMC3    C3 9722   3.904   3.863  14.718  0.8688  0.5782  0.4091
  657TMC3    C4 9723   3.968   3.885  14.452 -0.0182  0.4458 -0.2166
  657TMC3    C5 9724   3.843   3.895  14.493  0.3066  0.4717  1.0814
  657TMC3    C6 9725   3.805   3.884  14.623 -0.0385 -0.3316  0.1644
  657TMC3     C 9726   4.204   3.860  14.501 -0.3145 -0.0334  0.1661
  657TMC3     O 9727   4.238   3.914  14.395 -0.1430 -0.1790 -0.1290
  657TMC3     H 9728   4.107   3.862  14.759  0.6959 -1.5346 -1.0763
  657TMC3    H1 9729   3.999   3.877  14.349  3.0269 -0.0554  0.7302
  657TMC3    H2 9730   3.700   3.892  14.646  0.1165  0.3108  0.6587
  657TMC3    C7 9731   3.742   3.895  14.386  0.5741 -0.8232  0.4626
  657TMC3    C8 9732   3.882   3.871  14.861  0.5399  0.1241 -0.6972
  657TMC3    O1 9733   3.768   3.841  14.282 -0.2774 -1.3441 -0.0578
  657TMC3    O2 9734   3.947   3.792  14.926  0.1200  0.3753 -0.2033
  658MPD2     C 9735   0.641   4.394  14.757 -1.0456 -0.2150 -0.2970
  658MPD2    C1 9736   0.541   4.302  14.719  0.3305  0.4717  0.4235
  658MPD2    C2 9737   0.533   4.282  14.582  0.5197 -0.4381 -0.3557
  658MPD2    C3 9738   0.609   4.349  14.484 -0.1040 -0.0626 -0.0140
  658MPD2    C4 9739   0.692   4.453  14.531  1.1970 -0.5470 -0.0408
  658MPD2    C5 9740   0.716   4.462  14.662 -0.4903 -0.7676 -0.5729
  658MPD2     H 9741   0.461   4.211  14.544  0.2689 -1.4913  2.0903
  658MPD2    H1 9742   0.759   4.513  14.471  1.9256 -0.4803  0.8324
  658MPD2    H2 9743   0.670   4.417  14.859  0.6303 -0.5836 -0.6878
  658MPD2    H3 9744   0.784   4.541  14.692 -1.3699 -0.2635  0.0862
  658MPD2     N 9745   0.609   4.310  14.348 -0.1834 -0.5428 -0.8156
  658MPD2    H5 9746   0.563   4.222  14.327 -1.0893 -0.0200 -0.9944
  658MPD2    N1 9747   0.471   4.236  14.820  0.4644  0.4542  0.0936
  658MPD2    H7 9748   0.490   4.273  14.913 -0.0777  0.3406  0.2510
  659TMC3    C1 9749   0.305   4.087  14.918  0.3375 -0.2344 -0.9414
  659TMC3    C2 9750   0.361   4.109  15.044  0.5411 -0.0535 -0.4656
  659TMC3    C3 9751   0.287   4.086  15.159 -0.2886  0.1568  0.3765
  659TMC3    C4 9752   0.183   4.019  14.907 -0.4181  0.7550 -0.3114
  659TMC3    C5 9753   0.106   4.018  15.023  0.4852  0.1894 -0.0507
  659TMC3    C6 9754   0.151   4.050  15.146 -0.2451 -0.1969  0.6811
  659TMC3     C 9755   0.373   4.139  14.794  0.7650  0.7336 -0.1667
  659TMC3     O 9756   0.341   4.090  14.688 -0.4706  0.1761  0.0693
  659TMC3     H 9757   0.459   4.153  15.060 -0.0252  0.1663  2.4318
  659TMC3    H1 9758   0.139   4.000  14.810  1.6229 -0.1687 -1.0411
  659TMC3    H2 9759   0.090   4.045  15.235 -0.7959 -2.5958  0.1724
  659TMC3    C7 9760   4.680   3.993  15.020 -0.9187  0.7132  0.4394
  659TMC3    C8 9761   0.303   4.194  15.255  0.2901  1.2204  0.4527
  659TMC3    O1 9762   4.633   3.945  15.122  0.4371  0.0559 -0.0358
  659TMC3    O2 9763   0.220   4.280  15.257 -0.1540 -0.4280  0.2401
  660MPD2     C 9764   3.263   2.495  12.394  0.3080  0.0462  0.7174
  660MPD2    C1 9765   3.126   2.483  12.404  0.4299  0.2170  0.4168
  660MPD2    C2 9766   3.077   2.376  12.486  0.2951 -0.5668 -0.4269
  660MPD2    C3 9767   3.159   2.275  12.531  0.0635 -0.1523  0.2321
  660MPD2    C4 9768   3.297   2.284  12.500  0.8350  1.0940 -0.2644
  660MPD2    C5 9769   3.344   2.392  12.427  0.0759 -0.4305 -0.4757
  660MPD2     H 9770   2.971   2.379  12.512  0.1231 -1.7649 -0.9652
  660MPD2    H1 9771   3.372   2.216  12.537 -0.4395 -1.2762 -2.0562
  660MPD2    H2 9772   3.304   2.580  12.341  1.6995 -0.4083  1.0842
  660MPD2    H3 9773   3.450   2.398  12.408  0.0350  2.4882  0.0999
  660MPD2     N 9774   3.114   2.173  12.617  0.9932  0.1240 -0.1824
  660MPD2    H5 9775   3.193   2.118  12.648  0.3379 -0.8739 -0.2935
  660MPD2    N1 9776   3.050   2.599  12.366  0.0826 -0.1217  0.4343
  660MPD2    H7 9777   3.100   2.686  12.352 -0.7850  0.6920  2.3553
  661TMC3    C1 9778   2.878   2.738  12.344  0.3363 -0.1935 -0.4638
  661TMC3    C2 9779   2.966   2.814  12.263  0.5047 -0.9955  0.4635
  661TMC3    C3 9780   2.951   2.948  12.254  0.3008  0.0066  0.8472
  661TMC3    C4 9781   2.769   2.794  12.407  0.4285  0.4414  0.4853
  661TMC3    C5 9782   2.763   2.929  12.403 -0.0329  0.5715 -0.3895
  661TMC3    C6 9783   2.848   3.007  12.331  0.1526  0.3648 -0.4816
  661TMC3     C 9784   2.918   2.608  12.382  0.1049 -0.3233  0.1856
  661TMC3     O 9785   2.833   2.526  12.415 -0.3219 -0.0739 -0.5378
  661TMC3     H 9786   3.047   2.766  12.209  0.0520  0.9760 -1.9802
  661TMC3    H1 9787   2.686   2.736  12.447 -0.3314  1.0581 -0.1994
  661TMC3    H2 9788   2.844   3.115  12.324 -2.5735  0.2766 -0.3257
  661TMC3    C7 9789   2.628   2.980  12.420  0.2489 -0.0069  0.9221
  661TMC3    C8 9790   3.047   3.021  12.182 -0.5007 -0.3226 -1.0537
  661TMC3    O1 9791   2.561   2.945  12.517  0.3979  0.2660 -0.2720
  661TMC3    O2 9792   3.089   2.973  12.075 -0.1447 -0.0937 -0.7470
  662MPD2     C 9793   3.118   2.606   0.014 -0.8706 -0.6247  0.5767
  662MPD2    C1 9794   3.201   2.558   0.112 -0.2643  0.1632  0.0900
  662MPD2    C2 9795   3.255   2.643   0.202 -0.3346 -0.2830  0.0228
  662MPD2    C3 9796   3.212   2.778   0.199  1.0552 -0.0552 -1.2023
  662MPD2    C4 9797   3.141   2.820   0.090 -0.3019 -0.4041 -0.0265
  662MPD2    C5 9798   3.095   2.737   0.004  0.1034 -0.0321  0.5085
  662MPD2     H 9799   3.315   2.606   0.283  0.4751  1.9861  0.4500
  662MPD2    H1 9800   3.119   2.926   0.084 -0.2059 -0.3590  0.4131
  662MPD2    H2 9801   3.086   2.542  17.625 -2.1205  0.9075 -0.1332
  662MPD2    H3 9802   3.040   2.773  17.609 -1.1204 -1.4959  0.6855
  662MPD2     N 9803   3.268   2.866   0.292 -0.1406  0.5617 -0.6204
  662MPD2    H5 9804   3.211   2.949   0.300 -2.0445 -0.6427 -1.5373
  662MPD2    N1 9805   3.241   2.421   0.110  0.3839  0.0499  0.5648
  662MPD2    H7 9806   3.312   2.402   0.181 -1.0659 -1.5151  1.5864
  663TMC3    C1 9807   3.227   2.191   0.055 -0.4283  0.1288 -0.2722
  663TMC3    C2 9808   3.248   2.144   0.189 -0.0031  0.1241  0.6293
  663TMC3    C3 9809   3.229   2.007   0.204  0.9120  0.6220  0.2185
  663TMC3    C4 9810   3.216   2.105  17.642 -0.1004  0.1039 -0.4442
  663TMC3    C5 9811   3.228   1.975  17.662  0.1980 -0.0944  0.4819
  663TMC3    C6 9812   3.223   1.925   0.095  0.1397  0.5862 -0.3812
  663TMC3     C 9813   3.186   2.327   0.024  0.5522  0.1962  1.1766
  663TMC3     O 9814   3.121   2.337  17.614 -0.5982 -1.2052  0.0779
  663TMC3     H 9815   3.235   2.211   0.273 -1.7103 -0.0101  0.4810
  663TMC3    H1 9816   3.227   2.136  17.538  2.1714  0.2563 -0.1592
  663TMC3    H2 9817   3.249   1.820   0.108  0.9804  0.5916 -2.0350
  663TMC3    C7 9818   3.292   1.890  17.556 -0.1315  0.1711 -0.2794
  663TMC3    C8 9819   3.306   1.953   0.317  0.3481 -0.0521  0.2227
  663TMC3    O1 9820   3.357   1.943  17.470  0.3178 -0.1335 -0.2077
  663TMC3    O2 9821   3.320   1.830   0.312 -0.5360 -0.0274 -0.1535
  664MPD2     C 9822   1.414   1.112  17.527 -0.1940  0.2987 -0.8106
  664MPD2    C1 9823   1.520   1.201  17.538  0.1874  0.1848 -0.3118
  664MPD2    C2 9824   1.579   1.227  17.664 -0.4236  0.1974 -0.4619
  664MPD2    C3 9825   1.541   1.160   0.086 -0.4383  1.6311  0.1479
  664MPD2    C4 9826   1.443   1.066   0.066  0.1145  0.6474  0.1348
  664MPD2    C5 9827   1.373   1.046  17.638  0.5083 -0.6810 -0.2347
  664MPD2     H 9828   1.670   1.287  17.669 -0.6668  0.3078  2.6250
  664MPD2    H1 9829   1.403   1.013   0.152  1.0205 -0.0153  0.1464
  664MPD2    H2 9830   1.367   1.085  17.433 -0.0773  1.1658 -1.1203
  664MPD2    H3 9831   1.287   0.979  17.638 -0.9845  1.2358  1.3577
  664MPD2     N 9832   1.604   1.178   0.216  0.4442  0.2246 -0.1631
  664MPD2    H5 9833   1.687   1.237   0.214  0.8388 -0.3294 -0.1011
  664MPD2    N1 9834   1.561   1.277  17.429 -0.3496  0.3941  0.0114
  664MPD2    H7 9835   1.622   1.357  17.443 -0.6853  0.5830  0.4144
  665TMC3    C1 9836   1.669   1.143   0.437  0.0729 -0.0974  0.4944
  665TMC3    C2 9837   1.715   1.030   0.499 -0.5254 -0.0672  0.4089
  665TMC3    C3 9838   1.751   1.049   0.630 -0.9491  0.3360 -0.5692
  665TMC3    C4 9839   1.661   1.264   0.495 -0.2403 -0.0247 -0.6208
  665TMC3    C5 9840   1.693   1.274   0.628 -0.5185  0.2503  0.0246
  665TMC3    C6 9841   1.750   1.171   0.696  0.1379 -0.5831  0.2697
  665TMC3     C 9842   1.576   1.106   0.330 -0.7127 -0.5595 -0.5352
  665TMC3     O 9843   1.498   1.015   0.359 -0.0642 -0.1757 -0.6969
  665TMC3     H 9844   1.721   0.935   0.449 -2.7717 -1.3050  2.4987
  665TMC3    H1 9845   1.619   1.344   0.436  1.4007  1.9336  0.8539
  665TMC3    H2 9846   1.788   1.189   0.796  0.2829 -0.4685  0.1936
  665TMC3    C7 9847   1.669   1.408   0.688 -0.3566  0.8617  0.0726
  665TMC3    C8 9848   1.817   0.945   0.706 -0.2813  0.1731  0.5278
  665TMC3    O1 9849   1.637   1.496   0.605 -0.2787  0.2499 -0.0880
  665TMC3    O2 9850   1.868   0.975   0.812 -0.1613  0.3163  0.2560
  666TMC3    C1 9851   1.417   1.096  10.002  0.1922 -0.7245  0.3398
  666TMC3    C2 9852   1.519   1.048  10.075  0.5768  0.6820 -0.1562
  666TMC3    C3 9853   1.617   1.132  10.119  0.5964 -0.3457  0.0515
  666TMC3    C4 9854   1.400   1.225   9.986  0.1969 -0.0407 -0.4967
  666TMC3    C5 9855   1.491   1.309  10.035  0.3523 -0.0009  0.3862
  666TMC3    C6 9856   1.606   1.266  10.101 -0.4669  0.0811 -0.3505
  666TMC3     C 9857   1.313   1.007   9.947  1.0806 -0.2200 -0.4510
  666TMC3     O 9858   1.230   1.064   9.885 -0.2388  0.0242  0.1766
  666TMC3     H 9859   1.533   0.942  10.089  0.0889  0.7192  0.6138
  666TMC3    H1 9860   1.314   1.261   9.930  1.0228  3.8808  0.7930
  666TMC3    H2 9861   1.687   1.332  10.129 -0.0645  0.1202 -1.5925
  666TMC3    C7 9862   1.465   1.447  10.033  0.0591 -0.8180 -0.1296
  666TMC3    C8 9863   1.725   1.077  10.197 -0.4790  0.5694 -0.6693
  666TMC3    O1 9864   1.561   1.530  10.029 -0.3269  0.1984 -0.2955
  666TMC3    O2 9865   1.706   0.962  10.231 -0.0238  0.6084 -0.4443
  667MPD2     C 9866   1.879   0.592  14.505 -0.0793  0.3973 -0.1430
  667MPD2    C1 9867   1.818   0.695  14.570  0.0051 -0.0830 -0.1201
  667MPD2    C2 9868   1.680   0.721  14.552  0.0807 -0.6652 -0.2379
  667MPD2    C3 9869   1.620   0.638  14.447 -0.5657  0.4949 -0.4372
  667MPD2    C4 9870   1.695   0.542  14.376  0.3638 -0.3914  0.0067
  667MPD2    C5 9871   1.822   0.509  14.415  0.4689 -0.3334  0.1615
  667MPD2     H 9872   1.623   0.795  14.608 -1.7652 -0.6554 -2.1004
  667MPD2    H1 9873   1.652   0.496  14.288 -1.8289 -0.6546  1.2158
  667MPD2    H2 9874   1.985   0.572  14.519 -0.1234 -0.1777 -0.6218
  667MPD2    H3 9875   1.876   0.444  14.347  1.1932  0.1658  0.2683
  667MPD2     N 9876   1.494   0.670  14.395 -0.2563  0.5464 -0.5787
  667MPD2    H5 9877   1.458   0.611  14.321 -1.2208  0.8321 -0.3410
  667MPD2    N1 9878   1.884   0.766  14.673 -0.0031  0.1242  0.0736
  667MPD2    H7 9879   1.817   0.815  14.731 -0.2696  1.0509 -1.0141
  668TMC3    C1 9880   2.046   0.807  14.835  0.0691 -0.1888  0.2159
  668TMC3    C2 9881   2.176   0.848  14.858  0.2371  0.6921 -0.8493
  668TMC3    C3 9882   2.214   0.836  14.988 -0.0597  0.1994 -0.2541
  668TMC3    C4 9883   1.951   0.769  14.929 -0.1234 -0.2825  0.1905
  668TMC3    C5 9884   2.001   0.750  15.054 -0.0666  0.4221  0.0914
  668TMC3    C6 9885   2.133   0.786  15.083 -0.0897  0.2537  0.2155
  668TMC3     C 9886   2.021   0.761  14.702  0.1503  0.4638 -0.0463
  668TMC3     O 9887   2.113   0.723  14.632  0.2460  0.2315  0.1113
  668TMC3     H 9888   2.240   0.871  14.774 -0.1582  0.3124 -1.2584
  668TMC3    H1 9889   1.849   0.744  14.903 -0.0233 -1.1971  0.6876
  668TMC3    H2 9890   2.153   0.777  15.189  1.0705 -0.7705 -0.0910
  668TMC3    C7 9891   1.915   0.712  15.158  0.2656 -0.1205  0.3815
  668TMC3    C8 9892   2.338   0.889  15.046 -0.1715 -0.4827 -0.2258
  668TMC3    O1 9893   1.945   0.746  15.270 -0.4830 -0.3348 -1.0047
  668TMC3    O2 9894   2.341   0.901  15.169 -0.0190  1.0154  0.2684
  669TMC3    C1 9895   0.187   0.742  14.628  0.3850  0.4366 -0.2318
  669TMC3    C2 9896   0.081   0.757  14.539 -0.4580  0.1841  0.2357
  669TMC3    C3 9897   0.114   0.821  14.424  0.2500 -0.1326  0.5076
  669TMC3    C4 9898   0.314   0.790  14.612 -0.5814 -0.4201  0.1207
  669TMC3    C5 9899   0.330   0.858  14.486  0.1031  0.5703  0.3268
  669TMC3    C6 9900   0.241   0.862  14.387  0.3090 -0.1552 -0.1155
  669TMC3     C 9901   0.164   0.680  14.758 -0.3995  0.0738  0.4699
  669TMC3     O 9902   0.048   0.661  14.801  0.0139 -0.2524  0.3420
  669TMC3     H 9903   4.706   0.711  14.556 -0.7664  0.8941  0.3804
  669TMC3    H1 9904   0.396   0.788  14.683 -1.3645  0.9656  1.0554
  669TMC3    H2 9905   0.261   0.889  14.284  0.2916 -1.3698 -0.4344
  669TMC3    C7 9906   0.471   0.894  14.455 -0.4776  0.1454  0.0985
  669TMC3    C8 9907   0.013   0.842  14.320 -0.3649  0.6450  0.3240
  669TMC3    O1 9908   0.541   0.915  14.552  0.1031  0.0145  0.2900
  669TMC3    O2 9909   4.665   0.749  14.282 -0.6066  0.5912 -0.3500
  670MPD2     C 9910   2.988   3.212  13.125 -0.4960  0.5073  0.2204
  670MPD2    C1 9911   3.118   3.247  13.148 -0.0573 -0.4277 -0.5087
  670MPD2    C2 9912   3.157   3.291  13.272 -0.0606  0.5366  0.3931
  670MPD2    C3 9913   3.068   3.287  13.376 -0.6113 -0.6094 -0.1289
  670MPD2    C4 9914   2.949   3.227  13.355 -1.0499 -0.4566  0.5431
  670MPD2    C5 9915   2.904   3.197  13.233 -0.0634  0.1473  0.2957
  670MPD2     H 9916   3.258   3.327  13.283  0.1851 -0.1892  0.5360
  670MPD2    H1 9917   2.876   3.209  13.433 -1.7205  1.1636  0.2922
  670MPD2    H2 9918   2.951   3.188  13.026 -3.5072  1.6484  1.0517
  670MPD2    H3 9919   2.807   3.152  13.217 -0.7057  1.4702  0.3970
  670MPD2     N 9920   3.130   3.325  13.499 -0.6103 -0.4699 -0.1996
  670MPD2    H5 9921   3.223   3.364  13.508 -1.7974  1.7076  2.7901
  670MPD2    N1 9922   3.214   3.251  13.047  0.0746  0.0446  0.7668
  670MPD2    H7 9923   3.302   3.296  13.068 -0.3856  2.0928 -1.6580
  671TMC3    C1 9924   3.172   3.322  13.734 -0.9090  0.3788 -0.3778
  671TMC3    C2 9925   3.304   3.308  13.704 -0.4218  0.7552  0.9031
  671TMC3    C3 9926   3.392   3.327  13.806  0.1508  0.2935 -0.0681
  671TMC3    C4 9927   3.123   3.373  13.853  0.4817  0.2055 -0.3291
  671TMC3    C5 9928   3.210   3.386  13.956 -0.1242  0.4675 -0.3434
  671TMC3    C6 9929   3.341   3.365  13.930  0.3414  0.0476  0.1563
  671TMC3     C 9930   3.069   3.301  13.622 -0.2557 -0.9313  0.0169
  671TMC3     O 9931   2.948   3.310  13.653  0.0371 -0.1486 -0.1709
  671TMC3     H 9932   3.339   3.261  13.613 -2.2476 -0.2301  0.7188
  671TMC3    H1 9933   3.017   3.363  13.871  0.6367 -1.0861 -0.1090
  671TMC3    H2 9934   3.408   3.393  14.010  1.6176  2.2621 -1.7013
  671TMC3    C7 9935   3.167   3.316  14.075 -0.1575  0.1175 -0.1789
  671TMC3    C8 9936   3.531   3.270  13.800 -0.2599 -0.4029  0.0651
  671TMC3    O1 9937   3.064   3.252  14.061 -0.4798 -0.3719 -0.8174
  671TMC3    O2 9938   3.592   3.263  13.907 -0.4970  0.5314 -0.1807
  672MPD2     C 9939   3.852   3.449   1.544 -0.6801 -0.6923  0.6909
  672MPD2    C1 9940   3.951   3.390   1.469 -0.1976  0.0962  0.0417
  672MPD2    C2 9941   4.079   3.394   1.518 -0.3279  0.0054  0.5740
  672MPD2    C3 9942   4.110   3.456   1.632 -0.2468 -0.2994  0.2601
  672MPD2    C4 9943   4.009   3.507   1.716  0.2816 -0.0990 -0.4192
  672MPD2    C5 9944   3.878   3.505   1.666 -0.3587  0.1655  0.1396
  672MPD2     H 9945   4.153   3.350   1.452  0.0635  1.4220  0.0699
  672MPD2    H1 9946   4.036   3.561   1.806  0.6054 -0.3977 -0.3372
  672MPD2    H2 9947   3.750   3.445   1.509 -1.5039 -0.7495  3.1490
  672MPD2    H3 9948   3.805   3.566   1.717 -0.3395 -0.0550  0.4337
  672MPD2     N 9949   4.241   3.464   1.682 -0.3899  0.6087  0.1317
  672MPD2    H5 9950   4.256   3.493   1.778 -0.7440  0.0539  0.3499
  672MPD2    N1 9951   3.928   3.324   1.351  0.0660 -0.2394  0.0805
  672MPD2    H7 9952   4.009   3.279   1.310  0.3836  1.8545 -1.5967
  673TMC3    C1 9953   3.833   3.283   1.151 -0.2868 -0.7785 -0.1963
  673TMC3    C2 9954   3.875   3.161   1.123  0.1961  0.2292  0.2675
  673TMC3    C3 9955   3.953   3.148   1.014  0.8703  0.1284 -1.6367
  673TMC3    C4 9956   3.870   3.391   1.074  0.4285  0.7093  0.3165
  673TMC3    C5 9957   3.942   3.376   0.957  0.3720  0.0133  0.4838
  673TMC3    C6 9958   3.992   3.253   0.936 -0.5038 -0.0465  0.0334
  673TMC3     C 9959   3.812   3.306   1.290 -0.4760 -0.2844  0.6011
  673TMC3     O 9960   3.702   3.345   1.320  0.0397 -0.3576  0.2041
  673TMC3     H 9961   3.868   3.072   1.186  2.6695 -0.6747 -0.7193
  673TMC3    H1 9962   3.846   3.492   1.106 -1.0626  0.2619  0.5964
  673TMC3    H2 9963   4.063   3.247   0.853 -0.8388  2.0550 -0.4089
  673TMC3    C7 9964   4.012   3.498   0.903  0.6436  0.5747 -0.3834
  673TMC3    C8 9965   3.969   3.013   0.961  0.8073  0.5836 -0.2674
  673TMC3    O1 9966   4.126   3.486   0.857 -0.2744  0.0146 -0.3975
  673TMC3    O2 9967   3.871   2.943   0.977 -0.2442  0.1831 -0.1699
  674MPD2     C 9968   3.320   4.216   0.309 -0.0814  0.0389 -0.6069
  674MPD2    C1 9969   3.352   4.106   0.384 -0.2653  0.1863  0.0796
  674MPD2    C2 9970   3.253   4.042   0.453 -0.1430 -0.6496  0.5078
  674MPD2    C3 9971   3.124   4.091   0.454  0.2382 -0.3608  0.0288
  674MPD2    C4 9972   3.096   4.202   0.376  0.0485  0.0911 -0.2334
  674MPD2    C5 9973   3.195   4.275   0.320 -0.1386 -0.2125  0.1203
  674MPD2     H 9974   3.271   3.951   0.509 -1.0627  0.6152  2.8762
  674MPD2    H1 9975   2.998   4.248   0.374 -1.2234 -2.6730 -0.4001
  674MPD2    H2 9976   3.390   4.263   0.242  1.4115 -0.1619  0.7869
  674MPD2    H3 9977   3.176   4.370   0.272 -1.3574 -0.1168  0.8104
  674MPD2     N 9978   3.031   4.020   0.531 -0.3245 -0.9510  0.0209
  674MPD2    H5 9979   3.066   3.940   0.583  0.0333  0.1698  1.5340
  674MPD2    N1 9980   3.481   4.060   0.369  0.0875  0.0235  0.3287
  674MPD2    H7 9981   3.552   4.120   0.327  0.0203 -0.9082 -1.1085
  675TMC3    C1 9982   3.659   3.896   0.396  0.1537  0.3294  0.1459
  675TMC3    C2 9983   3.686   3.764   0.428 -0.3857 -0.1096 -0.2367
  675TMC3    C3 9984   3.809   3.732   0.475 -0.2062 -0.2666  0.0021
  675TMC3    C4 9985   3.754   3.988   0.409  0.4936 -0.6588 -0.4248
  675TMC3    C5 9986   3.876   3.948   0.461 -0.0231 -0.1366 -0.4188
  675TMC3    C6 9987   3.911   3.816   0.481  0.5371 -0.2902  0.0114
  675TMC3     C 9988   3.518   3.936   0.427  0.9338 -0.2641 -0.0182
  675TMC3     O 9989   3.453   3.843   0.477 -0.6606 -0.5900  0.0401
  675TMC3     H 9990   3.617   3.680   0.421 -0.4399 -0.2427  1.9695
  675TMC3    H1 9991   3.729   4.093   0.405 -2.8993 -1.4212  0.2583
  675TMC3    H2 9992   4.009   3.785   0.515  0.7772  0.2518 -0.1976
  675TMC3    C7 9993   3.961   4.063   0.498 -0.2686 -0.2371 -0.7696
  675TMC3    C8 9994   3.847   3.595   0.462  0.5615  0.4844 -0.7802
  675TMC3    O1 9995   3.898   4.165   0.524  0.2909  0.5628 -0.6780
  675TMC3    O2 9996   3.952   3.569   0.411  0.2466 -0.0985  0.1356
  676MPD2     C 9997   1.353   2.384  10.801  0.0295  0.0522  0.1826
  676MPD2    C1 9998   1.262   2.296  10.844  0.2018 -0.0380 -0.3341
  676MPD2    C2 9999   1.291   2.158  10.835  0.1907  0.3810  0.1616
  676MPD2    C310000   1.405   2.116  10.770  0.3548 -0.4391 -0.6064
  676MPD2    C410001   1.489   2.205  10.717  0.5927  0.3391  0.2674
  676MPD2    C510002   1.467   2.339  10.737  0.1151 -0.1600  0.4535
  676MPD2     H10003   1.216   2.092  10.876  0.3369  0.4418  0.5266
  676MPD2    H110004   1.578   2.178  10.661 -0.6595 -1.3538 -0.9130
  676MPD2    H210005   1.339   2.491  10.810 -0.2621  0.0666 -0.4637
  676MPD2    H310006   1.534   2.408  10.687  1.8369 -2.1587 -0.0464
  676MPD2     N10007   1.449   1.987  10.771 -0.2749  0.0451 -0.5474
  676MPD2    H510008   1.539   1.969  10.726 -0.2493 -1.9016  0.3051
  676MPD2    N110009   1.144   2.336  10.918 -0.2883  0.4967  0.1882
  676MPD2    H710010   1.112   2.257  10.974  1.6562 -1.5378 -1.5518
  677TMC3    C110011   0.994   2.450  11.047 -0.1841 -0.7371 -0.3565
  677TMC3    C210012   0.884   2.378  11.020 -0.4589 -0.2010  0.8060
  677TMC3    C310013   0.787   2.366  11.121  0.3759  0.0929  0.2104
  677TMC3    C410014   1.022   2.487  11.177 -0.3150 -0.3307  0.4054
  677TMC3    C510015   0.935   2.455  11.277  0.3928  0.4046  0.5531
  677TMC3    C610016   0.807   2.414  11.250 -0.3932 -0.1663 -0.1965
  677TMC3     C10017   1.103   2.465  10.944 -0.0137  0.3658 -0.1609
  677TMC3     O10018   1.150   2.576  10.920 -0.1374 -0.0145 -0.2532
  677TMC3     H10019   0.868   2.333  10.923 -1.2098  0.9175  0.4220
  677TMC3    H110020   1.108   2.551  11.195  1.0299 -2.2477  0.8787
  677TMC3    H210021   0.732   2.399  11.326  0.2782  1.9768  0.9026
  677TMC3    C710022   0.996   2.429  11.405 -0.7513  0.2545  0.1924
  677TMC3    C810023   0.692   2.266  11.088 -0.4527 -0.2628 -0.5972
  677TMC3    O110024   0.926   2.432  11.505 -0.6021  0.2118 -0.1468
  677TMC3    O210025   0.614   2.305  11.000  0.6249  0.6539  0.1503
  678MPD2     C10026   2.476   2.216   2.033 -0.5263 -0.3394  0.2791
  678MPD2    C110027   2.475   2.125   1.925  0.2642  0.5681  0.2080
  678MPD2    C210028   2.356   2.076   1.873  0.7099  0.5602  0.3830
  678MPD2    C310029   2.239   2.104   1.940  0.1294 -0.1805  0.3090
  678MPD2    C410030   2.239   2.166   2.063 -0.1099  0.3341 -0.3720
  678MPD2    C510031   2.357   2.230   2.099 -0.6152  0.0984  0.1010
  678MPD2     H10032   2.364   2.025   1.778  1.3887 -1.4037  1.5051
  678MPD2    H110033   2.151   2.185   2.124  1.5120  0.4324  1.9086
  678MPD2    H210034   2.571   2.254   2.070  1.1361 -2.7578 -1.4799
  678MPD2    H310035   2.351   2.292   2.188 -0.0490  1.7108 -0.9831
  678MPD2     N10036   2.121   2.056   1.879 -0.5119 -0.2072  0.1191
  678MPD2    H510037   2.134   1.988   1.804 -3.5790  1.1787 -1.6349
  678MPD2    N110038   2.588   2.082   1.855  0.1526  0.3590 -0.7400
  678MPD2    H710039   2.561   2.020   1.779 -2.2742 -2.2425  2.2176
  679TMC3    C110040   2.871   1.817   1.715  0.3880  0.0468 -0.3454
  679TMC3    C210041   2.771   1.901   1.755  0.0586 -0.0442 -0.3121
  679TMC3    C310042   2.813   2.027   1.799 -0.2844  0.0160 -0.2337
  679TMC3    C410043   3.004   1.854   1.720 -0.4031  0.0729 -0.2569
  679TMC3    C510044   3.039   1.973   1.779 -0.0747 -0.2787  0.3004
  679TMC3    C610045   2.941   2.062   1.816  0.0105 -0.1291  0.2246
  679TMC3     C10046   2.842   1.714   1.620  0.0982  0.3913 -0.8199
  679TMC3     O10047   2.924   1.625   1.616  0.0568 -0.0396 -0.2086
  679TMC3     H10048   2.666   1.873   1.762 -0.2800  1.7610  1.6442
  679TMC3    H110049   3.085   1.787   1.692 -0.3785  0.6012 -1.4432
  679TMC3    H210050   2.955   2.164   1.849 -1.1089  0.2030 -0.3369
  679TMC3    C710051   3.155   2.035   1.723 -0.2263  0.1870  0.6473
  679TMC3    C810052   2.720   2.118   1.866 -0.1431 -0.9263 -0.2319
  679TMC3    O110053   3.150   2.156   1.693  0.2795  0.1572  0.8328
  679TMC3    O210054   2.765   2.200   1.948 -0.7833  0.6284  0.0590
  680MPD2     C10055   3.088   0.611  14.112  0.3099  0.1429 -0.1786
  680MPD2    C110056   3.214   0.564  14.150 -0.1907 -0.0702  0.2161
  680MPD2    C210057   3.328   0.616  14.095 -0.0459  0.5146 -0.0048
  680MPD2    C310058   3.322   0.713  13.999  0.8207  0.5041  0.3063
  680MPD2    C410059   3.197   0.753  13.959  0.1270  0.0551 -0.1251
  680MPD2    C510060   3.078   0.705  14.011 -0.0528  0.8561  0.3448
  680MPD2     H10061   3.421   0.574  14.131 -0.7438  0.3827  1.6406
  680MPD2    H110062   3.183   0.839  13.895  0.1167 -0.9274 -1.4395
  680MPD2    H210063   2.996   0.574  14.157  1.0841  0.0366  1.2903
  680MPD2    H310064   2.979   0.739  13.983 -0.2691  1.8359  2.3187
  680MPD2     N10065   3.431   0.757  13.923 -0.2336 -0.3913  0.5854
  680MPD2    H510066   3.411   0.837  13.864 -1.3819 -0.7407  0.5135
  680MPD2    N110067   3.224   0.464  14.243 -0.3876 -0.0827  0.8179
  680MPD2    H710068   3.317   0.449  14.280 -1.1336 -2.6494  1.6953
  681TMC3    C110069   3.193   0.275  14.370 -0.1803  0.4133  0.0299
  681TMC3    C210070   3.273   0.307  14.481  0.4142  0.3946  0.1265
  681TMC3    C310071   3.353   0.206  14.529 -0.2437 -0.0322 -0.6025
  681TMC3    C410072   3.216   0.162  14.302 -0.4300 -0.3737  0.0097
  681TMC3    C510073   3.316   0.071  14.348 -0.0077  0.4321  0.2833
  681TMC3    C610074   3.374   0.087  14.469 -0.4548  0.5874 -0.1294
  681TMC3     C10075   3.123   0.377  14.293  0.2838  0.3457 -0.3070
  681TMC3     O10076   3.005   0.356  14.255 -0.6095  0.5350 -0.5651
  681TMC3     H10077   3.261   0.394  14.543  1.6252  1.0216 -0.5321
  681TMC3    H110078   3.171   0.148  14.204  0.1863 -1.0366 -0.1820
  681TMC3    H210079   3.456   0.020  14.492 -0.3257  0.9993  0.6214
  681TMC3    C710080   3.377   4.701  14.256 -0.1945  0.1692 -0.8190
  681TMC3    C810081   3.460   0.231  14.622  0.9305 -0.2667  0.4181
  681TMC3    O110082   3.437   4.610  14.307 -0.6327 -0.3328  0.7233
  681TMC3    O210083   3.479   0.141  14.703  0.2921 -0.5300  0.1022
  682MPD2     C10084   0.377   2.026  10.844 -0.2429  0.2026 -0.0974
  682MPD2    C110085   0.410   1.895  10.860 -0.6706 -0.1396  0.8552
  682MPD2    C210086   0.368   1.844  10.984  0.6554  0.2450 -0.2050
  682MPD2    C310087   0.314   1.913  11.087  0.7674  0.4297 -0.4064
  682MPD2    C410088   0.293   2.044  11.066  0.0099  0.3455  0.3627
  682MPD2    C510089   0.328   2.097  10.947  0.4966 -0.6333  0.3441
  682MPD2     H10090   0.392   1.740  11.002  0.7115  0.4951  1.1848
  682MPD2    H110091   0.236   2.106  11.135 -0.5635  0.0549  0.1471
  682MPD2    H210092   0.402   2.082  10.754  1.2176 -0.7390 -0.2647
  682MPD2    H310093   0.306   2.203  10.944  0.7933 -0.6138 -1.6767
  682MPD2     N10094   0.252   1.855  11.204 -0.0396  0.1747  0.3960
  682MPD2    H510095   0.212   1.921  11.271 -3.1415  0.5647 -1.8379
  682MPD2    N110096   0.480   1.820  10.753  0.1115 -0.3747 -0.5683
  682MPD2    H710097   0.499   1.725  10.786 -1.2547  0.6062  3.0538
  683TMC3    C110098   0.178   1.644  11.554 -0.5393 -0.1499 -0.3294
  683TMC3    C210099   0.159   1.506  11.547  1.0785  0.7048  0.5038
  683TMC3    C310100   0.111   1.471  11.425  0.1627  0.2307  0.2977
  683TMC3    C410101   0.165   1.732  11.450  0.1039  0.8128  0.3577
  683TMC3    C510102   0.133   1.687  11.325  0.1887 -0.0231 -0.4137
  683TMC3    C610103   0.096   1.556  11.320 -0.2064  0.0562  0.1800
  683TMC3     C10104   0.226   1.715  11.673  0.1670 -0.3920 -1.1375
  683TMC3     O10105   0.180   1.825  11.694  0.0235 -0.1844  0.1859
  683TMC3     H10106   0.145   1.440  11.631  1.2681  0.3700  0.2726
  683TMC3    H110107   0.204   1.832  11.468 -1.7005  1.3314  1.3533
  683TMC3    H210108   0.052   1.522  11.227 -0.4199 -0.4041  0.4514
  683TMC3    C710109   0.225   1.721  11.223 -0.7300  0.2642  0.2457
  683TMC3    C810110   0.148   1.336  11.375 -0.3259  0.2517  0.3740
  683TMC3    O110111   0.278   1.625  11.171 -0.2391 -0.0223 -0.1903
  683TMC3    O210112   0.103   1.306  11.266  0.0505  0.3028  0.7084
  684MPD2     C10113   3.539   1.422  16.284 -0.1645 -0.4307  0.1472
  684MPD2    C110114   3.514   1.387  16.149  0.0412  0.5331 -0.1190
  684MPD2    C210115   3.570   1.458  16.044  0.7743 -0.1770  0.1756
  684MPD2    C310116   3.664   1.559  16.076 -0.5196  0.1121 -0.4386
  684MPD2    C410117   3.688   1.598  16.208  0.3261 -0.1898 -0.7893
  684MPD2    C510118   3.623   1.531  16.309  0.4014  0.3168 -0.8167
  684MPD2     H10119   3.560   1.416  15.945  0.9796 -0.2248  0.1754
  684MPD2    H110120   3.764   1.671  16.235  0.3691 -0.5009 -0.0542
  684MPD2    H210121   3.499   1.365  16.367  1.1353 -0.4632  0.7552
  684MPD2    H310122   3.659   1.554  16.408  0.9110  0.2664 -0.9884
  684MPD2     N10123   3.744   1.621  15.979  0.4430  0.4828 -0.3914
  684MPD2    H510124   3.823   1.678  16.009  0.9620 -1.9608  2.7430
  684MPD2    N110125   3.437   1.273  16.114  0.1980 -1.1599  0.0573
  684MPD2    H710126   3.405   1.262  16.019 -0.0700  0.8041 -0.0734
  685TMC3    C110127   3.365   1.067  16.127  0.1515 -0.0492 -0.3936
  685TMC3    C210128   3.302   1.081  16.007  0.0925 -0.6953 -0.2093
  685TMC3    C310129   3.311   0.970  15.923  0.3382 -0.1744  0.3888
  685TMC3    C410130   3.434   0.964  16.179  0.1967  1.0494  0.1297
  685TMC3    C510131   3.439   0.863  16.084 -0.3694 -0.0760 -0.1566
  685TMC3    C610132   3.382   0.864  15.966  0.1142  0.0024  0.3275
  685TMC3     C10133   3.395   1.182  16.203 -0.8180 -0.1187 -0.1792
  685TMC3     O10134   3.437   1.159  16.317 -0.2295  0.5254 -0.1082
  685TMC3     H10135   3.246   1.171  15.988  1.0620  0.2600  1.4795
  685TMC3    H110136   3.471   0.951  16.280 -0.7237 -0.0026  0.3371
  685TMC3    H210137   3.390   0.780  15.898 -0.9776 -0.1987  0.4396
  685TMC3    C710138   3.554   0.774  16.099 -0.6585  0.4264 -0.7325
  685TMC3    C810139   3.196   0.940  15.839  0.0724 -0.0026 -0.1439
  685TMC3    O110140   3.562   0.674  16.030  0.6870  0.1668 -0.1219
  685TMC3    O210141   3.197   0.826  15.806  0.0272  0.0873  0.0298
  686MPD2     C10142   0.207   1.508  15.650  0.2422 -0.4865  0.2132
  686MPD2    C110143   0.243   1.406  15.732  0.0722  0.7083 -0.1630
  686MPD2    C210144   0.333   1.309  15.681  0.4951 -0.1318 -0.4270
  686MPD2    C310145   0.373   1.308  15.551 -0.2569 -0.6737  0.1758
  686MPD2    C410146   0.331   1.408  15.464 -0.1340  0.3115  0.1159
  686MPD2    C510147   0.249   1.504  15.513 -0.3885 -0.2906 -0.1588
  686MPD2     H10148   0.368   1.229  15.745  1.4755 -0.4176 -1.3176
  686MPD2    H110149   0.358   1.402  15.360  0.5063 -0.3552  0.3166
  686MPD2    H210150   0.131   1.581  15.674  0.1640 -0.9735  1.4528
  686MPD2    H310151   0.220   1.582  15.443  1.0411  0.8399  0.4878
  686MPD2     N10152   0.456   1.215  15.490 -0.1785  0.2636  0.2142
  686MPD2    H510153   0.490   1.230  15.395 -0.8800  1.8680  0.2156
  686MPD2    N110154   0.181   1.394  15.851  0.3434  0.2313 -0.4011
  686MPD2    H710155   0.107   1.459  15.874 -1.8324 -2.2151 -0.5303
  687TMC3    C110156   0.394   1.018  15.621 -0.6378  0.9361  0.5348
  687TMC3    C210157   0.259   1.024  15.597  0.2448  0.3450  0.4027
  687TMC3    C310158   0.185   0.969  15.693  1.0012  0.2437  0.6610
  687TMC3    C410159   0.449   0.945  15.723  0.0949 -0.3389 -0.1839
  687TMC3    C510160   0.368   0.895  15.814  0.4168 -1.3855 -0.5481
  687TMC3    C610161   0.235   0.912  15.805 -0.0319  0.1095 -0.7247
  687TMC3     C10162   0.481   1.082  15.524 -0.2215  0.1829 -0.2883
  687TMC3     O10163   0.569   1.008  15.484  0.1589 -0.5503  0.3151
  687TMC3     H10164   0.224   1.068  15.504 -0.8010 -1.0003  0.1669
  687TMC3    H110165   0.556   0.939  15.732  0.0622 -2.0933 -0.7990
  687TMC3    H210166   0.170   0.868  15.880  2.6302 -0.5898  1.1782
  687TMC3    C710167   0.419   0.847  15.938  0.5411 -0.4668  0.0176
  687TMC3    C810168   0.047   0.996  15.697 -0.3426 -0.0120 -0.1762
  687TMC3    O110169   0.371   0.876  16.048 -0.6911  0.0514 -0.1969
  687TMC3    O210170   4.705   0.935  15.786 -0.4430 -0.3771  0.4503
  688MPD2     C10171   4.049   0.145  17.443  0.3465  0.6877  0.5488
  688MPD2    C110172   4.108   0.026  17.488  0.3033 -0.9031 -0.3810
  688MPD2    C210173   4.222   4.698  17.418  0.6929  0.0994 -0.0879
  688MPD2    C310174   4.278   0.042  17.307 -0.2318 -0.0283  0.1114
  688MPD2    C410175   4.213   0.160  17.261  0.2598  0.6823 -0.2079
  688MPD2    C510176   4.109   0.215  17.339  0.3502  0.2820 -0.0841
  688MPD2     H10177   4.268   4.608  17.456 -1.8525 -1.9458 -1.8723
  688MPD2    H110178   4.248   0.200  17.166  0.5946 -1.7026 -1.0881
  688MPD2    H210179   3.963   0.189  17.493 -2.2590 -2.4992 -1.1151
  688MPD2    H310180   4.051   0.299  17.301  0.4217  0.3612 -0.0183
  688MPD2     N10181   4.391   4.713  17.235  0.8350 -0.7541 -0.3404
  688MPD2    H510182   4.425   0.043  17.155 -0.1843  0.8602  0.2707
  688MPD2    N110183   4.074   4.698  17.614 -0.5984  0.2247 -0.3468
  688MPD2    H710184   4.119   4.613  17.645  0.6753  1.3727  0.9774
  689TMC3    C110185   3.969   4.648   0.120  0.1070 -0.7148 -1.2475
  689TMC3    C210186   3.963   4.684   0.252 -0.2128  0.2430  0.6490
  689TMC3    C310187   3.890   4.604   0.343 -0.1149  0.9909  0.0826
  689TMC3    C410188   3.914   4.531   0.075  0.4486 -0.3858  0.4517
  689TMC3    C510189   3.850   4.455   0.167 -0.1354 -0.0443 -0.6623
  689TMC3    C610190   3.839   4.485   0.303  0.1012 -0.4892 -0.7181
  689TMC3     C10191   3.989   0.025   0.020 -0.2158 -0.5908 -0.1316
  689TMC3     O10192   3.921   0.129   0.013 -0.2638  0.2037 -0.7319
  689TMC3     H10193   4.009   0.057   0.273  0.5767 -0.0671  0.3480
  689TMC3    H110194   3.934   4.503  17.664 -1.1146  0.2618 -0.0193
  689TMC3    H210195   3.792   4.413   0.370 -1.6676  1.6474  0.3218
  689TMC3    C710196   3.867   4.315   0.154  0.0566  0.2749  0.1944
  689TMC3    C810197   3.922   4.627   0.486  0.0179 -0.9242  0.4676
  689TMC3    O110198   3.978   4.271   0.180 -0.3413 -0.6370 -0.0809
  689TMC3    O210199   3.858   4.561   0.571  0.7836 -0.3003 -0.2525
  690MPD2     C10200   2.016   2.130  15.949  0.6682  0.1170  0.2240
  690MPD2    C110201   1.987   2.043  15.845 -0.1698 -0.0989  0.0433
  690MPD2    C210202   2.066   2.045  15.732 -0.4248  0.4943 -0.1621
  690MPD2    C310203   2.156   2.151  15.716  0.6088  0.2019  0.3646
  690MPD2    C410204   2.188   2.240  15.817 -0.3458 -0.2218  0.1562
  690MPD2    C510205   2.114   2.224  15.936 -0.3356 -0.1408  0.1128
  690MPD2     H10206   2.047   1.971  15.656  2.3720 -1.1997  0.8177
  690MPD2    H110207   2.263   2.319  15.815 -1.2752  0.6853  1.3960
  690MPD2    H210208   1.958   2.148  16.040  0.5171 -0.2693  0.2038
  690MPD2    H310209   2.148   2.283  16.020 -0.6731 -3.1008  2.3215
  690MPD2     N10210   2.208   2.161  15.583 -0.1865  0.1183  0.4136
  690MPD2    H510211   2.182   2.088  15.517 -1.4250  1.7542 -0.9209
  690MPD2    N110212   1.878   1.957  15.845 -0.2864  0.4526 -0.1058
  690MPD2    H710213   1.875   1.890  15.768 -1.5317  2.3047 -1.6516
  691TMC3    C110214   1.661   1.891  15.888  0.0666  0.8957 -0.3760
  691TMC3    C210215   1.531   1.941  15.881  0.5412  0.1426  0.5196
  691TMC3    C310216   1.433   1.850  15.861 -0.0823  0.3317 -0.7484
  691TMC3    C410217   1.685   1.755  15.864  0.2236 -0.3937  0.4170
  691TMC3    C510218   1.580   1.676  15.834 -1.0696  0.5691 -0.7962
  691TMC3    C610219   1.448   1.718  15.836  0.2296  0.1733 -0.3085
  691TMC3     C10220   1.769   1.979  15.918  0.7763 -0.2436 -0.5757
  691TMC3     O10221   1.740   2.079  15.980 -0.2449  0.1214 -0.1138
  691TMC3     H10222   1.509   2.044  15.908 -1.9850 -0.5581  1.0950
  691TMC3    H110223   1.785   1.718  15.884 -0.0030 -0.7430  0.9125
  691TMC3    H210224   1.358   1.664  15.806  0.5407 -1.2028  1.2536
  691TMC3    C710225   1.617   1.538  15.807 -1.0364  0.3081  0.0942
  691TMC3    C810226   1.322   1.868  15.953 -0.2615 -0.2075 -0.2205
  691TMC3    O110227   1.736   1.511  15.779 -0.8614  0.3889  0.6950
  691TMC3    O210228   1.293   1.767  16.013 -0.8584  0.2054 -0.4606
  692TMC3    C110229   3.301   2.801  16.102  0.3150  0.0346  0.0544
  692TMC3    C210230   3.419   2.815  16.169 -0.0920  0.3076 -0.3042
  692TMC3    C310231   3.529   2.742  16.121  0.6076 -0.1927 -0.8425
  692TMC3    C410232   3.292   2.738  15.982 -0.0414  0.5025 -0.9432
  692TMC3    C510233   3.408   2.676  15.933 -0.5936  1.0084  0.4689
  692TMC3    C610234   3.525   2.667  16.006  1.0184  0.2001 -0.1107
  692TMC3     C10235   3.212   2.913  16.135 -0.2200 -0.7374  0.3716
  692TMC3     O10236   3.102   2.911  16.085  0.2926  0.4090  0.1041
  692TMC3     H10237   3.419   2.830  16.277  2.5205  2.1545 -0.5575
  692TMC3    H110238   3.203   2.747  15.921  0.9543 -1.1234 -2.6385
  692TMC3    H210239   3.614   2.622  15.963  3.2541  3.0898  1.4609
  692TMC3    C710240   3.377   2.565  15.845  0.4041 -0.8833  0.4433
  692TMC3    C810241   3.607   2.679  16.226 -0.5630 -0.3356  1.2717
  692TMC3    O110242   3.267   2.569  15.787  0.5721 -0.0192 -0.2316
  692TMC3    O210243   3.645   2.564  16.203  0.0362  0.2359  0.6694
  693MPD2     C10244   2.949   1.448  11.082 -0.3080 -0.4384 -0.4567
  693MPD2    C110245   2.906   1.381  10.972  0.0191 -0.6988  0.0022
  693MPD2    C210246   2.978   1.275  10.929 -0.0411  0.4123 -0.0238
  693MPD2    C310247   3.083   1.226  11.002  0.1235 -0.4374  0.2225
  693MPD2    C410248   3.114   1.292  11.117 -0.5817 -0.5562 -0.1907
  693MPD2    C510249   3.054   1.404  11.158  0.6847  0.5795  0.2398
  693MPD2     H10250   2.944   1.216  10.845 -1.4865 -0.7091  1.3403
  693MPD2    H110251   3.189   1.250  11.183 -0.0954  0.2478 -0.2347
  693MPD2    H210252   2.904   1.534  11.131 -0.8982 -0.0876 -1.6218
  693MPD2    H310253   3.088   1.448  11.251 -0.5569  0.4221  0.7810
  693MPD2     N10254   3.148   1.106  10.972  0.0327  0.1893 -0.3051
  693MPD2    H510255   3.221   1.075  11.035 -1.9272  0.7316  2.2620
  693MPD2    N110256   2.784   1.436  10.910 -0.2935  0.3020  0.4708
  693MPD2    H710257   2.784   1.535  10.932  1.1486  0.0705  1.5561
  694TMC3    C110258   2.677   1.232  10.862 -0.2094 -1.1151 -0.7499
  694TMC3    C210259   2.617   1.151  10.767  0.2736 -0.6519  0.4410
  694TMC3    C310260   2.586   1.023  10.804  0.0992 -0.2210 -0.0989
  694TMC3    C410261   2.670   1.201  10.997  0.2508  0.2272 -0.7382
  694TMC3    C510262   2.634   1.072  11.026  0.3003  0.0464  0.2759
  694TMC3    C610263   2.599   0.984  10.934 -0.7418  0.2042  0.1979
  694TMC3     C10264   2.703   1.370  10.823  0.0717 -0.2727  0.5146
  694TMC3     O10265   2.632   1.411  10.732  0.1340  0.5700  0.0360
  694TMC3     H10266   2.629   1.184  10.665  0.2588 -1.4355  0.1829
  694TMC3    H110267   2.666   1.275  11.077 -1.5007 -1.2241  0.5099
  694TMC3    H210268   2.576   0.881  10.962  0.7177  0.8873  3.9268
  694TMC3    C710269   2.607   1.044  11.170  1.0167 -0.1684  0.4055
  694TMC3    C810270   2.523   0.922  10.712  1.2890 -0.1342 -0.7675
  694TMC3    O110271   2.610   1.137  11.241 -0.4626  0.4195 -0.1384
  694TMC3    O210272   2.491   0.817  10.767 -0.2650 -0.2950  0.1012
  695MPD2     C10273   3.490   2.341  14.016 -1.0475 -0.5570 -0.4133
  695MPD2    C110274   3.499   2.463  14.082 -0.3272 -0.0206  0.5215
  695MPD2    C210275   3.383   2.523  14.109  0.0659 -0.7888  0.2646
  695MPD2    C310276   3.261   2.472  14.062 -0.2386 -0.3342  0.2333
  695MPD2    C410277   3.252   2.348  13.999 -0.8124 -0.2373  0.1954
  695MPD2    C510278   3.371   2.282  13.992 -0.6647  0.4131 -0.4964
  695MPD2     H10279   3.371   2.617  14.161 -0.9093 -0.9498  0.3135
  695MPD2    H110280   3.159   2.294  13.985 -0.4221 -1.1067  0.9599
  695MPD2    H210281   3.583   2.287  14.000 -0.1211  0.7836  0.4392
  695MPD2    H310282   3.370   2.178  13.960 -0.1973  0.3497 -0.3144
  695MPD2     N10283   3.150   2.549  14.093 -1.2134 -0.4498  0.5191
  695MPD2    H510284   3.174   2.638  14.134  0.0971 -1.3315  1.6661
  695MPD2    N110285   3.618   2.525  14.114  0.1553  0.0826 -0.0958
  695MPD2    H710286   3.622   2.618  14.154  1.5548  0.2689 -0.6786
  696TMC3    C110287   2.931   2.606  14.154  0.5769  0.0737 -0.8322
  696TMC3    C210288   2.978   2.674  14.259 -0.1790 -0.5875 -0.6142
  696TMC3    C310289   2.892   2.761  14.330  0.2381 -0.0764 -0.0464
  696TMC3    C410290   2.800   2.624  14.102 -0.1296  0.0465 -0.1414
  696TMC3    C510291   2.731   2.719  14.168 -0.3768 -0.0795 -0.9335
  696TMC3    C610292   2.769   2.791  14.276 -0.3224 -0.1477 -0.6540
  696TMC3     C10293   3.015   2.520  14.073  0.2103  0.0248  0.0879
  696TMC3     O10294   2.960   2.424  14.017  0.9939 -0.0386 -0.5367
  696TMC3     H10295   3.074   2.653  14.306  0.6966 -1.7949 -2.9532
  696TMC3    H110296   2.773   2.581  14.007 -1.8734 -0.7013  0.6935
  696TMC3    H210297   2.688   2.851  14.315  0.6463  0.8193 -0.1269
  696TMC3    C710298   2.674   2.813  14.066 -0.7485 -0.1986  0.3074
  696TMC3    C810299   2.966   2.890  14.334  0.1825  0.7333 -0.6002
  696TMC3    O110300   2.595   2.769  13.983  0.0214  0.3468  0.1790
  696TMC3    O210301   2.898   2.986  14.294 -0.4415  1.1196 -0.7191
  697MPD2     C10302   2.602   4.466  15.546 -0.9950  0.2990 -0.9714
  697MPD2    C110303   2.627   4.404  15.423  0.0167 -0.2130 -0.3070
  697MPD2    C210304   2.656   4.481  15.316  0.0146 -0.0579  0.0875
  697MPD2    C310305   2.699   4.608  15.332 -1.1729 -0.4410  0.2901
  697MPD2    C410306   2.674   4.673  15.449  0.1255 -0.4002  0.1773
  697MPD2    C510307   2.628   4.604  15.551  0.0006  0.1221 -0.5261
  697MPD2     H10308   2.662   4.440  15.215  0.7294 -1.8194  0.8508
  697MPD2    H110309   2.684   0.058  15.461 -0.1185 -0.1539 -1.7172
  697MPD2    H210310   2.592   4.416  15.641 -1.7069  1.4738 -0.4287
  697MPD2    H310311   2.619   4.658  15.645 -1.4360  1.7736 -1.6139
  697MPD2     N10312   2.762   4.670  15.218 -0.4524 -0.1004 -0.0681
  697MPD2    H510313   2.740   4.623  15.130 -2.0278 -2.3110  1.5337
  697MPD2    N110314   2.596   4.268  15.404  0.0742  0.1676 -0.2267
  697MPD2    H710315   2.598   4.236  15.308 -2.1658 -1.5695  0.2951
  698TMC3    C110316   2.895   0.101  15.096 -0.4311 -0.2463  1.2691
  698TMC3    C210317   3.008   0.170  15.108  0.1596  0.0246 -0.3717
  698TMC3    C310318   3.083   0.195  14.994 -0.6757  0.3199  0.1147
  698TMC3    C410319   2.864   0.049  14.975  0.2171  0.9575  0.0814
  698TMC3    C510320   2.943   0.070  14.863  0.2532 -0.0510  0.2035
  698TMC3    C610321   3.057   0.143  14.867  0.0590 -1.1816  0.7224
  698TMC3     C10322   2.849   0.055  15.224 -0.6831  0.0141 -0.1176
  698TMC3     O10323   2.904   0.094  15.323  0.0399  0.1318 -0.0813
  698TMC3     H10324   3.011   0.229  15.199 -0.4429 -1.8753  0.8806
  698TMC3    H110325   2.766   0.003  14.966  0.5604  0.1038  0.7031
  698TMC3    H210326   3.118   0.165  14.780  0.4460  1.8855  1.7793
  698TMC3    C710327   2.890   0.021  14.735 -0.4865  0.4428  0.4860
  698TMC3    C810328   3.193   0.294  15.003 -0.0791 -0.3237  0.0596
  698TMC3    O110329   2.771   0.029  14.709 -0.3871 -0.2075 -0.6793
  698TMC3    O210330   3.252   0.322  14.899  0.1422 -0.0656  0.3288
  699TMC3    C110331   2.976   2.032  12.752  0.1724  0.1304  0.1132
  699TMC3    C210332   3.082   1.996  12.830 -0.4284 -0.5943  0.3173
  699TMC3    C310333   3.073   1.876  12.891  0.3782  0.0396  0.1611
  699TMC3    C410334   2.864   1.950  12.747 -0.0061  0.4461  0.1770
  699TMC3    C510335   2.867   1.825  12.796 -0.5913  0.6439  0.0996
  699TMC3    C610336   2.976   1.783  12.860 -0.0943  0.1415 -0.1652
  699TMC3     C10337   2.983   2.152  12.673 -0.2951  0.0827  0.3855
  699TMC3     O10338   2.879   2.200  12.632  0.6159  0.1015  0.3324
  699TMC3     H10339   3.157   2.072  12.844  1.3487 -2.2755 -0.1580
  699TMC3    H110340   2.775   1.977  12.693  0.7513  1.5455 -0.5286
  699TMC3    H210341   2.979   1.683  12.902  3.0592 -0.1193 -1.0212
  699TMC3    C710342   2.739   1.785  12.854  0.2903 -0.7459 -0.8139
  699TMC3    C810343   3.139   1.867  13.019  0.4923  0.0580 -0.2703
  699TMC3    O110344   2.637   1.857  12.851 -1.0052 -0.8748  0.1883
  699TMC3    O210345   3.132   1.749  13.062  0.2865  0.6968 -0.3825
  700TMC3    C110346   1.659   0.238  16.996  1.0974  0.3100  0.7725
  700TMC3    C210347   1.780   0.170  16.975  0.5063 -0.5429 -0.7141
  700TMC3    C310348   1.841   0.110  17.082 -0.3036 -0.3234  0.0336
  700TMC3    C410349   1.609   0.250  17.123 -0.1692 -0.0830  0.0135
  700TMC3    C510350   1.678   0.183  17.223 -0.2972 -1.1675 -0.2867
  700TMC3    C610351   1.790   0.111  17.207  0.0844 -0.1894 -0.5987
  700TMC3     C10352   1.613   0.336  16.899 -0.2285 -0.3539 -0.2925
  700TMC3     O10353   1.490   0.339  16.883  0.0957  0.7677  0.3871
  700TMC3     H10354   1.823   0.172  16.875  3.7738 -0.0411  0.7264
  700TMC3    H110355   1.517   0.303  17.146  0.2703  1.1539 -1.1039
  700TMC3    H210356   1.821   0.042  17.285  0.1542 -0.9208 -1.2736
  700TMC3    C710357   1.707   0.270  17.343  0.1950 -0.5854  0.4214
  700TMC3    C810358   1.970   0.038  17.059 -0.2969  0.6741  0.2780
  700TMC3    O110359   1.816   0.259  17.402 -0.7030  0.2148 -0.3327
  700TMC3    O210360   2.002   0.008  16.948  0.3377  0.3352  0.4435
  701TMC3    C110361   1.734   3.480  15.487 -0.0226 -0.3227 -0.6247
  701TMC3    C210362   1.729   3.436  15.359 -0.8113  0.1859 -1.1108
  701TMC3    C310363   1.835   3.454  15.280  0.8862 -0.4694  0.1026
  701TMC3    C410364   1.839   3.556  15.527 -0.0317  0.0030 -0.3563
  701TMC3    C510365   1.940   3.587  15.438 -0.6045  1.3794 -0.0769
  701TMC3    C610366   1.939   3.538  15.307 -0.4070  0.2086 -0.2497
  701TMC3     C10367   1.608   3.521  15.553 -0.4664 -0.2409 -0.0251
  701TMC3     O10368   1.607   3.526  15.672 -0.2901  0.1412 -0.4700
  701TMC3     H10369   1.648   3.372  15.325 -0.0067 -1.0568 -0.6849
  701TMC3    H110370   1.825   3.603  15.623  1.0823  1.1773 -0.7621
  701TMC3    H210371   2.017   3.566  15.237  0.8744 -3.2302 -0.1991
  701TMC3    C710372   2.001   3.716  15.461  0.0181 -0.1410 -0.7305
  701TMC3    C810373   1.807   3.409  15.150 -0.0491 -0.4903 -0.6474
  701TMC3    O110374   2.040   3.777  15.361 -0.2484 -0.1228  0.2798
  701TMC3    O210375   1.750   3.299  15.140 -0.1082  0.4802  0.3778
  702MPD2     C10376   2.049   1.652  10.582 -0.1885 -0.0295  0.7651
  702MPD2    C110377   1.936   1.726  10.560  0.7164 -0.1479 -0.0506
  702MPD2    C210378   1.923   1.811  10.449  0.2886 -0.2228 -0.4492
  702MPD2    C310379   2.030   1.836  10.367 -0.3844  0.1577  0.5277
  702MPD2    C410380   2.145   1.758  10.385  0.0445  0.0728 -0.6613
  702MPD2    C510381   2.154   1.669  10.493 -0.4987 -0.5249  0.1460
  702MPD2     H10382   1.836   1.872  10.428  1.1430  0.9173 -0.6983
  702MPD2    H110383   2.234   1.767  10.325 -0.9355 -1.4633 -2.3371
  702MPD2    H210384   2.065   1.588  10.668 -1.0535 -3.2175 -1.4081
  702MPD2    H310385   2.247   1.614  10.495 -0.0729  0.2115  0.7432
  702MPD2     N10386   2.017   1.933  10.266  0.7263 -0.6401 -0.0426
  702MPD2    H510387   1.936   1.993  10.267  0.0535 -1.5689  1.1864
  702MPD2    N110388   1.818   1.721  10.641 -0.4761 -0.7548  0.1339
  702MPD2    H710389   1.738   1.773  10.609  1.5078  2.1260 -0.1474
  703TMC3    C110390   2.067   2.063  10.088 -0.0176 -0.5820  0.3427
  703TMC3    C210391   1.934   2.078  10.065 -0.1517 -0.0630 -0.5959
  703TMC3    C310392   1.895   2.171   9.976  0.5983  0.5232 -0.1907
  703TMC3    C410393   2.159   2.146  10.033 -0.6671 -0.2982  0.1381
  703TMC3    C510394   2.119   2.226   9.931  0.2698 -0.0689 -0.5752
  703TMC3    C610395   1.985   2.246   9.904  0.4646 -0.3680 -0.4842
  703TMC3     C10396   2.113   1.965  10.177 -0.4226 -0.5914  0.7859
  703TMC3     O10397   2.233   1.938  10.184  0.0081 -0.0219 -0.3182
  703TMC3     H10398   1.864   1.999  10.091 -0.6205  0.3164 -0.6932
  703TMC3    H110399   2.263   2.116  10.043  0.3378  2.9359 -0.7605
  703TMC3    H210400   1.955   2.318   9.828 -2.4700 -0.1031  0.8941
  703TMC3    C710401   2.215   2.328   9.894 -0.7297  0.5652  0.5235
  703TMC3    C810402   1.751   2.182   9.945  0.7563 -0.1467 -0.8559
  703TMC3    O110403   2.319   2.330   9.959 -0.5158 -0.1731 -0.4655
  703TMC3    O210404   1.727   2.230   9.836  0.2697  0.0474  0.1198
  704TMC3    C110405   3.939   4.208  12.288 -0.7332  0.5233 -0.0545
  704TMC3    C210406   4.071   4.232  12.268  0.3242  0.2553  0.4103
  704TMC3    C310407   4.162   4.172  12.350 -0.3001  0.6157 -0.0249
  704TMC3    C410408   3.895   4.105  12.375 -0.1396  0.7163 -0.0110
  704TMC3    C510409   3.994   4.042  12.449 -0.2281 -0.4803  0.4268
  704TMC3    C610410   4.124   4.082  12.436  0.3876  0.3225  0.6703
  704TMC3     C10411   3.847   4.322  12.272  0.0492 -0.3116  0.3437
  704TMC3     O10412   3.751   4.314  12.342  0.0570  0.2963  0.4384
  704TMC3     H10413   4.101   4.307  12.195  0.7738  0.7407  1.0914
  704TMC3    H110414   3.801   4.052  12.365 -0.5434  1.5726 -0.7250
  704TMC3    H210415   4.202   4.030  12.491  0.6681  1.2112  1.1047
  704TMC3    C710416   3.977   3.907  12.491 -0.5120  0.4499 -0.1947
  704TMC3    C810417   4.303   4.175  12.318 -0.2363 -0.2394 -0.5862
  704TMC3    O110418   4.078   3.839  12.503 -0.4571  0.2581 -0.6422
  704TMC3    O210419   4.326   4.210  12.203 -0.1530  0.0855  0.7685
  705MPD2     C10420   3.691   2.030  16.385  0.1438  0.5626 -0.6582
  705MPD2    C110421   3.684   2.164  16.368 -0.1129  0.3225  0.0509
  705MPD2    C210422   3.605   2.235  16.457 -0.0081  0.1414 -0.3416
  705MPD2    C310423   3.539   2.164  16.555  0.6597  0.0355 -0.7754
  705MPD2    C410424   3.556   2.025  16.574 -0.0581  0.7522 -0.6543
  705MPD2    C510425   3.635   1.959  16.489 -0.4674 -0.2216  0.0713
  705MPD2     H10426   3.588   2.342  16.461  0.1684  0.0294  2.8099
  705MPD2    H110427   3.494   1.970  16.644  0.8625 -2.3819 -2.3183
  705MPD2    H210428   3.754   1.972  16.317 -1.2777 -1.0732 -0.5891
  705MPD2    H310429   3.641   1.851  16.485 -2.3300 -0.3132 -0.3225
  705MPD2     N10430   3.437   2.226  16.630  0.5560 -1.4422  0.2911
  705MPD2    H510431   3.363   2.170  16.672 -1.1543 -0.0986 -0.9019
  705MPD2    N110432   3.757   2.246  16.279 -0.1808 -0.9351 -0.0170
  705MPD2    H710433   3.762   2.347  16.286  0.1536 -0.9841  0.4096
  706TMC3    C110434   3.994   2.348  15.880 -0.0824 -0.5277 -0.2499
  706TMC3    C210435   3.991   2.482  15.913  1.0973 -0.1556  0.2906
  706TMC3    C310436   3.945   2.515  16.033  0.1852  0.0194  0.6901
  706TMC3    C410437   3.950   2.242  15.965  0.2980  0.1365  0.4449
  706TMC3    C510438   3.891   2.292  16.083  0.3228  0.0282  0.5178
  706TMC3    C610439   3.893   2.424  16.119  0.6491  0.4006 -0.2561
  706TMC3     C10440   4.097   2.321  15.785  0.0562  0.5371 -0.2113
  706TMC3     O10441   4.203   2.381  15.793 -0.1874  0.1131  1.0795
  706TMC3     H10442   4.043   2.555  15.851 -0.2324 -0.0999 -0.7711
  706TMC3    H110443   3.968   2.138  15.940  2.0712  0.6534 -0.4503
  706TMC3    H210444   3.832   2.462  16.200 -2.0510 -0.0628 -2.0688
  706TMC3    C710445   3.828   2.196  16.172  0.1565 -0.2174 -0.0584
  706TMC3    C810446   3.896   2.645  16.046  0.1019  0.2498 -0.3435
  706TMC3    O110447   3.828   2.082  16.127  0.5991  0.2130  0.3751
  706TMC3    O210448   3.871   2.697  15.938  0.0125 -0.0435  0.2089
  707TMC3    C110449   2.289   1.226   2.015 -0.1159 -0.5377  0.3871
  707TMC3    C210450   2.342   1.103   2.019 -0.9556  0.5595 -0.7149
  707TMC3    C310451   2.470   1.086   2.066  0.3890  0.1667 -0.7840
  707TMC3    C410452   2.356   1.336   2.060  0.5365  0.2352  0.2465
  707TMC3    C510453   2.482   1.316   2.105  0.0539  1.0336  0.3106
  707TMC3    C610454   2.543   1.190   2.115  0.0562  0.6220 -0.5753
  707TMC3     C10455   2.191   1.235   1.911  0.5467  0.5356  0.5261
  707TMC3     O10456   2.178   1.145   1.824 -0.0637  0.2101 -0.0020
  707TMC3     H10457   2.282   1.016   1.993 -0.1993 -0.4588  0.9687
  707TMC3    H110458   2.327   1.439   2.044 -3.3248 -1.2229 -2.1983
  707TMC3    H210459   2.641   1.175   2.159 -1.0395  0.8191  1.9712
  707TMC3    C710460   2.528   1.414   2.205  0.6274 -0.1958  0.0214
  707TMC3    C810461   2.536   0.967   2.024 -0.1150 -0.4579  0.6476
  707TMC3    O110462   2.444   1.487   2.260  0.5848 -0.4397 -0.7221
  707TMC3    O210463   2.631   0.934   2.093 -0.6498  0.5872 -0.3247
  708MPD2     C10464   1.963   0.735  13.476 -0.4569 -0.2814 -0.5816
  708MPD2    C110465   1.994   0.830  13.578  0.9638 -0.4937 -0.2169
  708MPD2    C210466   2.074   0.793  13.690 -0.5155  0.0894  0.0147
  708MPD2    C310467   2.127   0.669  13.696 -0.2387 -0.2824  0.0817
  708MPD2    C410468   2.088   0.575  13.605 -0.4060 -0.1120 -0.3053
  708MPD2    C510469   2.011   0.608  13.495  0.6907  0.6317 -0.2310
  708MPD2     H10470   2.090   0.863  13.771  1.2036 -0.2053 -0.0825
  708MPD2    H110471   2.112   0.472  13.626 -0.7133  0.4349  2.6801
  708MPD2    H210472   1.920   0.768  13.382  0.8858 -0.5372 -1.2820
  708MPD2    H310473   1.983   0.528  13.427  1.7793  0.4921 -0.5142
  708MPD2     N10474   2.188   0.614  13.812 -0.0033 -0.0721 -0.0936
  708MPD2    H510475   2.184   0.513  13.814 -0.8727  0.0218  2.2201
  708MPD2    N110476   1.937   0.959  13.557 -0.8426  0.2986 -0.0236
  708MPD2    H710477   1.887   0.972  13.470 -1.6071 -1.4097  0.1771
  709TMC3    C110478   1.796   1.122  13.639  0.5524  0.1969 -0.0288
  709TMC3    C210479   1.744   1.110  13.513 -0.0496  0.2995 -0.9660
  709TMC3    C310480   1.608   1.082  13.491 -1.0102 -0.4303 -1.3147
  709TMC3    C410481   1.709   1.089  13.736 -0.5339  0.6207 -0.6198
  709TMC3    C510482   1.585   1.039  13.716  0.2567  0.3728 -0.0806
  709TMC3    C610483   1.538   1.037  13.590 -0.2603  0.5105  0.1199
  709TMC3     C10484   1.919   1.056  13.657  0.2979  0.1921 -0.2360
  709TMC3     O10485   1.961   1.065  13.771  0.2708  0.4435 -0.2542
  709TMC3     H10486   1.806   1.140  13.429 -1.7250 -0.3711 -2.4407
  709TMC3    H110487   1.751   1.080  13.836  0.4971 -0.0617 -1.1210
  709TMC3    H210488   1.435   1.006  13.575 -0.0247  0.2888 -1.0200
  709TMC3    C710489   1.551   0.923  13.798  0.3648  0.0087  0.0457
  709TMC3    C810490   1.586   1.013  13.358  0.7136  0.3370  0.4070
  709TMC3    O110491   1.565   0.932  13.918 -0.2163 -0.6139 -0.2882
  709TMC3    O210492   1.551   0.898  13.365 -0.3802  0.0391  0.3528
  710TMC3    C110493   3.383   2.582   1.060 -0.1479  0.2686  0.1591
  710TMC3    C210494   3.436   2.523   0.946  0.0653 -0.1623 -0.1127
  710TMC3    C310495   3.483   2.393   0.949  0.5862  0.0433 -0.0095
  710TMC3    C410496   3.391   2.517   1.179  0.3453  0.1593 -0.7941
  710TMC3    C510497   3.438   2.389   1.182 -0.0487  0.1169 -0.3367
  710TMC3    C610498   3.485   2.328   1.068  0.5622 -0.1628  1.2118
  710TMC3     C10499   3.326   2.714   1.050 -0.0165  0.0676  0.3264
  710TMC3     O10500   3.378   2.783   0.964  0.1139  0.5631  0.1560
  710TMC3     H10501   3.425   2.574   0.850  0.8820  0.4507  0.1188
  710TMC3    H110502   3.354   2.568   1.267 -0.4233  0.6893 -1.4231
  710TMC3    H210503   3.495   2.221   1.076 -1.8248 -0.4939 -0.2645
  710TMC3    C710504   3.420   2.316   1.308 -0.3150  0.2573 -0.2116
  710TMC3    C810505   3.498   2.322   0.821 -0.1166  0.5630 -0.7347
  710TMC3    O110506   3.366   2.376   1.397 -0.1092 -0.1451 -0.2980
  710TMC3    O210507   3.479   2.387   0.720  0.2703 -0.0491  0.0929
  711TMC3    C110508   2.614   3.353  14.930  0.2651  0.2395 -0.7223
  711TMC3    C210509   2.615   3.403  15.058  0.6872  0.0393  0.3226
  711TMC3    C310510   2.740   3.427  15.115 -0.1712 -0.9551  0.7538
  711TMC3    C410511   2.725   3.304  14.870  0.4545 -0.3531 -0.3061
  711TMC3    C510512   2.848   3.317  14.935 -0.0585  0.0747 -0.3907
  711TMC3    C610513   2.857   3.410  15.042 -0.0768 -0.2806 -0.3837
  711TMC3     C10514   2.509   3.267  14.898 -0.3288  1.1827 -0.3083
  711TMC3     O10515   2.528   3.149  14.909 -0.6542  0.4668 -0.1852
  711TMC3     H10516   2.525   3.431  15.110  0.4350 -1.3139  0.6236
  711TMC3    H110517   2.719   3.257  14.772 -0.5345 -0.8214 -0.0197
  711TMC3    H210518   2.956   3.418  15.087 -0.4010  0.2071  0.2431
  711TMC3    C710519   2.897   3.191  14.986  0.3334 -0.0577 -0.1066
  711TMC3    C810520   2.741   3.438  15.262 -0.7550 -0.0404 -0.0051
  711TMC3    O110521   2.995   3.194  15.059 -0.3549 -0.0962 -0.1008
  711TMC3    O210522   2.632   3.423  15.320 -0.2470 -0.4414 -0.1180
  712MPD2     C10523   4.283   4.028  13.437  0.1017 -0.1705  0.0181
  712MPD2    C110524   4.170   4.084  13.374  0.0938 -0.1697  0.8262
  712MPD2    C210525   4.134   4.213  13.412 -0.4111  0.0204 -0.1815
  712MPD2    C310526   4.213   4.289  13.501  0.1997 -0.6306  0.5002
  712MPD2    C410527   4.325   4.228  13.564  0.6071  0.0739  0.0600
  712MPD2    C510528   4.358   4.099  13.528  0.1924  0.0914 -0.1946
  712MPD2     H10529   4.057   4.274  13.366  1.0476  0.8261 -1.5787
  712MPD2    H110530   4.389   4.262  13.645  0.7210 -0.1778  0.0747
  712MPD2    H210531   4.328   3.932  13.414 -1.6631 -0.8165 -0.7562
  712MPD2    H310532   4.449   4.061  13.574  1.3459  1.0276 -1.6916
  712MPD2     N10533   4.195   4.422  13.526  0.2545 -0.4207  0.1478
  712MPD2    H510534   4.276   4.464  13.571  0.2035 -1.8630  1.6105
  712MPD2    N110535   4.112   4.023  13.266  0.0480 -0.0422  0.5392
  712MPD2    H710536   4.024   4.066  13.241  1.7255  2.5764 -0.7659
  713TMC3    C110537   4.104   4.630  13.521  0.0300 -0.0861  0.4331
  713TMC3    C210538   4.224   4.680  13.473 -0.1325  0.0742 -0.0164
  713TMC3    C310539   4.241   0.091  13.480 -0.2059 -0.5858  0.1464
  713TMC3    C410540   4.002   4.712  13.558  0.6415 -0.4068 -0.9061
  713TMC3    C510541   4.026   0.123  13.563  0.0231  0.7939 -0.1603
  713TMC3    C610542   4.143   0.178  13.521 -0.2897 -0.4503  0.4342
  713TMC3     C10543   4.075   4.490  13.511  0.0732  0.5067 -0.0035
  713TMC3     O10544   3.961   4.446  13.506 -0.3858 -0.0498 -0.3241
  713TMC3     H10545   4.295   4.625  13.414 -0.1925 -0.9329  0.8530
  713TMC3    H110546   3.901   4.675  13.576  0.3563  1.4305  1.2645
  713TMC3    H210547   4.159   0.285  13.509  0.9324 -0.7512 -0.5281
  713TMC3    C710548   3.923   0.218  13.594  0.1220 -0.1067 -0.5674
  713TMC3    C810549   4.358   0.140  13.408 -0.1845  0.1780 -0.3237
  713TMC3    O110550   3.821   0.172  13.638 -0.4760 -0.0912  0.3806
  713TMC3    O210551   4.346   0.246  13.352 -0.3627  0.4332 -0.9559
  714MPD2     C10552   0.986   2.821   1.626  0.0163  0.0121 -0.3253
  714MPD2    C110553   1.084   2.799   1.538 -0.7277 -0.2069 -0.5459
  714MPD2    C210554   1.062   2.809   1.402 -0.6206 -0.3951 -0.4249
  714MPD2    C310555   0.937   2.844   1.362 -0.5468 -0.4827  0.3809
  714MPD2    C410556   0.831   2.856   1.451  0.6326 -0.2569 -0.0503
  714MPD2    C510557   0.861   2.851   1.586  0.2608 -0.1830  0.4697
  714MPD2     H10558   1.134   2.778   1.326 -0.3604 -0.1277 -0.2871
  714MPD2    H110559   0.730   2.877   1.417  1.0477 -1.9991 -2.3300
  714MPD2    H210560   1.000   2.801   1.732 -0.1662  2.6349  0.1883
  714MPD2    H310561   0.784   2.883   1.656 -0.0428  0.9045 -0.3617
  714MPD2     N10562   0.919   2.856   1.223 -0.5204  0.3669  0.4057
  714MPD2    H510563   1.004   2.860   1.168 -1.6544  0.7789 -1.3196
  714MPD2    N110564   1.222   2.783   1.589 -0.2272 -0.4168 -0.2051
  714MPD2    H710565   1.250   2.816   1.681  1.9731 -0.9928 -0.6880
  715TMC3    C110566   1.443   2.709   1.588  0.8655 -0.3969 -0.4373
  715TMC3    C210567   1.523   2.611   1.541  0.1284 -0.0614 -0.1142
  715TMC3    C310568   1.649   2.604   1.598 -0.0100  0.7113  0.9525
  715TMC3    C410569   1.474   2.798   1.684  0.6405 -0.2904  0.7749
  715TMC3    C510570   1.606   2.792   1.727  0.1091  0.8558  0.4390
  715TMC3    C610571   1.688   2.690   1.693 -0.2425  0.4242 -0.2767
  715TMC3     C10572   1.317   2.723   1.520  0.1995 -0.4613  0.4100
  715TMC3     O10573   1.300   2.656   1.421 -0.0809  0.1410  0.1486
  715TMC3     H10574   1.483   2.545   1.465  0.4864 -1.8964  1.2899
  715TMC3    H110575   1.407   2.881   1.701 -1.0337 -2.2350  3.5746
  715TMC3    H210576   1.782   2.674   1.744  0.6553 -0.3926 -2.1597
  715TMC3    C710577   1.640   2.858   1.847  0.6432  0.5454  0.3428
  715TMC3    C810578   1.755   2.516   1.538 -0.2364  0.7894 -0.3085
  715TMC3    O110579   1.756   2.847   1.890 -0.0120  0.2647 -0.5668
  715TMC3    O210580   1.740   2.507   1.418 -0.1613  0.4167  0.4857
  716MPD2     C10581   1.127   1.686   9.674 -0.0500  0.1345  1.0100
  716MPD2    C110582   1.127   1.701   9.539  0.4933 -0.7787  0.1409
  716MPD2    C210583   1.176   1.596   9.458  0.1514 -0.3136  0.0600
  716MPD2    C310584   1.240   1.484   9.516 -0.3458 -0.6506 -0.5468
  716MPD2    C410585   1.243   1.483   9.653  0.1953  0.6993  0.8040
  716MPD2    C510586   1.186   1.578   9.723  0.3398 -0.2299 -0.5579
  716MPD2     H10587   1.173   1.598   9.349 -1.1255  2.2257  0.1194
  716MPD2    H110588   1.290   1.402   9.707 -0.7459  1.5837  2.9538
  716MPD2    H210589   1.092   1.765   9.739 -2.4889  1.9336 -2.4811
  716MPD2    H310590   1.199   1.564   9.829 -3.0292 -0.6736 -0.2175
  716MPD2     N10591   1.281   1.377   9.434 -0.4597 -0.3108  0.2968
  716MPD2    H510592   1.270   1.386   9.333  2.9533  0.6640 -0.0169
  716MPD2    N110593   1.077   1.822   9.493 -0.4289 -0.2530 -0.2877
  716MPD2    H710594   1.078   1.907   9.549 -1.4863  0.4002 -1.2583
  717TMC3    C110595   1.392   1.180   9.365 -0.0675 -0.1716  0.2933
  717TMC3    C210596   1.301   1.160   9.269  0.3440 -0.5342  0.5195
  717TMC3    C310597   1.334   1.073   9.170  0.2237  0.4219  0.5540
  717TMC3    C410598   1.509   1.114   9.370 -0.1948 -0.1101 -0.3999
  717TMC3    C510599   1.538   1.020   9.272 -0.4694  0.6399  0.1681
  717TMC3    C610600   1.449   1.005   9.174 -0.2072 -0.1222 -0.3793
  717TMC3     C10601   1.368   1.276   9.473  0.5191 -0.4148 -0.6023
  717TMC3     O10602   1.421   1.252   9.580 -0.7708  0.0735 -0.1294
  717TMC3     H10603   1.210   1.219   9.262  0.4195 -0.6179 -1.1050
  717TMC3    H110604   1.577   1.147   9.447  3.5578  0.9165 -4.1753
  717TMC3    H210605   1.471   0.929   9.100 -1.5083 -1.4623  0.6062
  717TMC3    C710606   1.673   0.966   9.258 -0.1032  0.0812  0.7358
  717TMC3    C810607   1.225   1.028   9.083  0.3103 -0.4426  0.6526
  717TMC3    O110608   1.687   0.877   9.176  0.3789  0.4209 -0.4425
  717TMC3    O210609   1.110   1.044   9.126 -0.1701 -0.1186 -0.0372
  718MPD2     C10610   1.491   4.591  13.032 -0.2896  0.1895  0.7486
  718MPD2    C110611   1.492   4.542  12.902 -0.4672 -0.7365 -0.0140
  718MPD2    C210612   1.375   4.487  12.850 -0.1148 -0.3000 -0.1699
  718MPD2    C310613   1.256   4.487  12.923  0.4626 -0.1961 -0.3339
  718MPD2    C410614   1.260   4.523  13.054 -0.7549 -0.2198  0.3387
  718MPD2    C510615   1.378   4.574  13.106  0.0749  0.0278  0.4572
  718MPD2     H10616   1.383   4.449  12.749  2.5061  1.2784 -0.5538
  718MPD2    H110617   1.167   4.530  13.109 -1.1508 -0.3907 -0.3186
  718MPD2    H210618   1.584   4.623  13.077 -1.0246  3.1745  0.1280
  718MPD2    H310619   1.375   4.604  13.210  0.5384 -0.5727  0.6457
  718MPD2     N10620   1.134   4.461  12.856 -0.0285  0.4363  0.4098
  718MPD2    H510621   1.149   4.429  12.761  1.6041  0.0664  0.7930
  718MPD2    N110622   1.599   4.551  12.815 -0.1255 -0.0751  0.4429
  718MPD2    H710623   1.578   4.528  12.719 -3.0959 -1.1631  1.3447
  719TMC3    C110624   1.796   4.622  12.714  0.2387 -0.0922 -0.6870
  719TMC3    C210625   1.731   4.567  12.602  0.3863 -0.7238  0.3784
  719TMC3    C310626   1.732   4.631  12.486 -0.3535 -0.1237  0.4739
  719TMC3    C410627   1.878   0.007  12.699  0.3568  0.2136 -0.0807
  719TMC3    C510628   1.870   0.072  12.582 -0.2669  1.0093 -0.7071
  719TMC3    C610629   1.796   0.037  12.475  0.4206 -0.4963  0.6400
  719TMC3     C10630   1.720   4.623  12.843 -0.8781 -0.4346 -0.0945
  719TMC3     O10631   1.755   4.687  12.943  0.7323  0.2188  0.2146
  719TMC3     H10632   1.674   4.475  12.609 -0.4469 -0.3679 -1.8413
  719TMC3    H110633   1.943   0.035  12.780 -0.1289 -1.5562  0.9141
  719TMC3    H210634   1.798   0.086  12.379 -0.9148  0.0243  0.8747
  719TMC3    C710635   1.956   0.188  12.567 -0.0501  0.4110 -0.6493
  719TMC3    C810636   1.609   4.602  12.416  0.3311 -0.4173 -0.4164
  719TMC3    O110637   1.983   0.194  12.450  0.3165  0.1428 -0.0850
  719TMC3    O210638   1.566   4.489  12.428  0.3791 -0.0232  0.0776
  720MPD2     C10639   3.941   1.691  13.923  0.0983 -0.1186 -0.4795
  720MPD2    C110640   4.024   1.765  13.852 -0.6442  0.3824  0.4156
  720MPD2    C210641   4.158   1.741  13.867 -0.0611 -0.1342  0.3715
  720MPD2    C310642   4.209   1.650  13.959  0.7098 -0.6941  0.3692
  720MPD2    C410643   4.115   1.582  14.037 -0.2135  0.0581 -0.1242
  720MPD2    C510644   3.985   1.597  14.018 -0.0209  0.4970  0.6607
  720MPD2     H10645   4.231   1.791  13.804 -0.7850  1.9093  1.1603
  720MPD2    H110646   4.138   1.528  14.128  3.5969 -0.9841 -1.6898
  720MPD2    H210647   3.835   1.710  13.911  0.1637  0.4557 -0.0983
  720MPD2    H310648   3.912   1.552  14.085 -0.4724 -1.3144 -1.0779
  720MPD2     N10649   4.340   1.629  13.979 -0.3837  0.4413 -0.1559
  720MPD2    H510650   4.406   1.696  13.941  1.0467 -1.0805 -0.3734
  720MPD2    N110651   3.979   1.852  13.750  0.1273  0.3632 -0.0290
  720MPD2    H710652   4.055   1.892  13.696  0.2446  1.0535  0.6463
  721TMC3    C110653   4.544   1.568  14.079  0.4539 -0.2071  0.7372
  721TMC3    C210654   4.579   1.570  14.204  0.5825  0.8962 -0.6808
  721TMC3    C310655   4.701   1.622  14.238 -0.2961 -0.1697 -0.0073
  721TMC3    C410656   4.630   1.588  13.979 -0.1043 -0.2835 -0.0781
  721TMC3    C510657   0.030   1.617  14.008  0.6117 -0.0893 -0.5339
  721TMC3    C610658   0.070   1.639  14.138  0.0427 -0.3774  0.1819
  721TMC3     C10659   4.409   1.529  14.056  0.2431 -0.3048  0.2406
  721TMC3     O10660   4.362   1.444  14.127 -0.1248  0.2463  0.1427
  721TMC3     H10661   4.506   1.540  14.279  0.0288 -1.8999 -2.3782
  721TMC3    H110662   4.614   1.545  13.881  0.4466 -1.2517  0.2592
  721TMC3    H210663   0.159   1.696  14.162 -0.4239  0.4017  0.0570
  721TMC3    C710664   0.132   1.518  13.962 -0.0601  0.3731 -0.0946
  721TMC3    C810665   0.030   1.569  14.357 -0.2890 -0.6517  0.2444
  721TMC3    O110666   0.136   1.490  13.847 -0.6290  0.6311 -0.1858
  721TMC3    O210667   0.133   1.497  14.343 -0.1009 -0.3803 -0.0502
  722MPD2     C10668   3.025   0.031  13.942  0.4963 -0.2197  0.0469
  722MPD2    C110669   2.958   0.104  13.850  0.4804  0.2594 -0.2079
  722MPD2    C210670   2.845   0.045  13.795 -0.7530 -0.8802  0.2096
  722MPD2    C310671   2.801   4.639  13.823 -0.0118  0.4437 -0.1576
  722MPD2    C410672   2.875   4.563  13.916 -0.4560 -0.1068  0.1217
  722MPD2    C510673   2.982   4.630  13.978  0.4732 -0.5596  0.5659
  722MPD2     H10674   2.795   0.103  13.718  0.4927  1.5373  1.2622
  722MPD2    H110675   2.852   4.464  13.953 -0.9372 -0.5810 -1.4713
  722MPD2    H210676   3.119   0.065  13.985  1.3838 -1.1415 -1.1719
  722MPD2    H310677   3.036   4.564  14.045  1.2923 -0.8596 -0.3920
  722MPD2     N10678   2.686   4.593  13.759 -0.1008  0.2398 -0.4023
  722MPD2    H510679   2.642   4.661  13.697 -1.7268 -0.9318 -0.5287
  722MPD2    N110680   2.998   0.232  13.811  0.0298  0.4439  0.7278
  722MPD2    H710681   2.949   0.271  13.731  1.7720  1.5984  0.2231
  723TMC3    C110682   2.533   4.441  13.669  1.0237  0.4032 -0.3731
  723TMC3    C210683   2.511   4.307  13.638 -0.4273 -0.6802 -0.3933
  723TMC3    C310684   2.386   4.271  13.591 -0.7540  0.3217  0.1615
  723TMC3    C410685   2.429   4.531  13.656  0.4077 -0.6173  0.2569
  723TMC3    C510686   2.316   4.495  13.594 -0.0358  0.3107  0.1628
  723TMC3    C610687   2.297   4.365  13.556 -0.6454 -0.7639 -0.4688
  723TMC3     C10688   2.653   4.460  13.746  0.5124 -0.2586 -0.5274
  723TMC3     O10689   2.704   4.361  13.797 -0.8207  0.1561  0.7797
  723TMC3     H10690   2.583   4.228  13.656  1.2982 -0.1380 -4.8005
  723TMC3    H110691   2.447   4.638  13.666 -2.5580 -0.4144  3.1862
  723TMC3    H210692   2.200   4.339  13.515 -0.3144 -1.2089 -0.9700
  723TMC3    C710693   2.229   4.586  13.525 -0.2638  0.0377 -0.0950
  723TMC3    C810694   2.366   4.139  13.538 -0.0275 -0.4054 -0.8977
  723TMC3    O110695   2.117   4.537  13.507 -0.4349 -0.5282  0.4671
  723TMC3    O210696   2.252   4.096  13.555  0.5143  0.1998  0.1554
  724TMC3    C110697   3.481   3.473  10.481 -0.1848  0.2286  0.0535
  724TMC3    C210698   3.371   3.499  10.405  0.0532  0.3415  0.5011
  724TMC3    C310699   3.379   3.612  10.328  0.2168 -0.1920  0.2489
  724TMC3    C410700   3.577   3.567  10.518 -0.6081 -0.3548 -0.0472
  724TMC3    C510701   3.558   3.688  10.460 -0.2809 -0.2578 -0.0570
  724TMC3    C610702   3.465   3.712  10.365  0.4760  0.4120 -0.2578
  724TMC3     C10703   3.491   3.342  10.546  0.3335  0.4235  0.6671
  724TMC3     O10704   3.558   3.340  10.648 -0.0152  0.1335  0.3573
  724TMC3     H10705   3.295   3.423  10.389  1.0043 -0.1996 -1.3865
  724TMC3    H110706   3.668   3.541  10.570  1.3175  1.9211 -2.2763
  724TMC3    H210707   3.447   3.810  10.324  0.2095 -0.0847 -1.3276
  724TMC3    C710708   3.664   3.785  10.457  0.0368  0.3526 -0.0069
  724TMC3    C810709   3.259   3.643  10.252 -0.0064  0.1152 -0.3245
  724TMC3    O110710   3.683   3.838  10.348 -0.8058 -0.4773  0.1583
  724TMC3    O210711   3.167   3.561  10.272 -0.2057 -0.5779  0.1806
  725TMC3    C110712   0.074   2.046  13.513 -0.1684  0.9317  0.7755
  725TMC3    C210713   0.004   2.161  13.481  0.3727 -0.3151 -0.2773
  725TMC3    C310714   4.672   2.175  13.350 -0.4152 -0.1778 -0.4849
  725TMC3    C410715   0.076   1.940  13.428 -0.0550  0.1349  0.3937
  725TMC3    C510716   0.026   1.962  13.299  0.3914  0.1267 -0.2461
  725TMC3    C610717   4.694   2.081  13.256 -0.4776  0.2222  0.1358
  725TMC3     C10718   0.212   2.091  13.526  0.2172 -0.1665 -0.0777
  725TMC3     O10719   0.223   2.212  13.512  0.8662 -0.1441 -0.5714
  725TMC3     H10720   0.001   2.248  13.546  1.4813  1.3136 -2.4267
  725TMC3    H110721   0.121   1.846  13.458  1.0732  0.5698  0.0208
  725TMC3    H210722   4.648   2.086  13.159 -0.3775  0.2258  0.0887
  725TMC3    C710723   0.089   1.867  13.204  0.0270  0.3085  0.1491
  725TMC3    C810724   4.679   2.312  13.308 -0.0662 -0.8397 -0.1062
  725TMC3    O110725   0.031   1.863  13.094  0.0921  0.3474  0.3784
  725TMC3    O210726   4.673   2.399  13.395 -0.1226  0.0336  0.8738
  726MPD2     C10727   2.756   3.524  11.267 -0.6787  0.1810  0.4943
  726MPD2    C110728   2.708   3.620  11.178 -0.8615  0.9299 -0.1672
  726MPD2    C210729   2.576   3.655  11.195  0.1967 -0.1774  0.0302
  726MPD2    C310730   2.498   3.593  11.281  0.7566 -0.0346 -1.0427
  726MPD2    C410731   2.547   3.488  11.360  0.1277 -0.0383  0.8254
  726MPD2    C510732   2.677   3.456  11.352  0.2622  0.1715 -0.2280
  726MPD2     H10733   2.542   3.745  11.144 -0.4029 -1.4796 -1.8614
  726MPD2    H110734   2.488   3.430  11.431  0.0886 -0.3717  0.5197
  726MPD2    H210735   2.859   3.491  11.267 -0.5760  0.4852  2.7749
  726MPD2    H310736   2.714   3.373  11.411 -0.1035  0.3461  0.2547
  726MPD2     N10737   2.359   3.629  11.293 -0.2218 -0.0782 -0.2533
  726MPD2    H510738   2.312   3.570  11.361 -2.5983  0.3680 -1.5469
  726MPD2    N110739   2.783   3.683  11.083 -0.2031  0.3140 -0.2498
  726MPD2    H710740   2.725   3.754  11.040 -0.2592  0.2612 -0.2615
  727TMC3    C110741   2.977   3.776  10.971  0.2234 -0.1398 -0.2870
  727TMC3    C210742   3.099   3.817  11.011 -0.7670  0.2336  0.1679
  727TMC3    C310743   3.138   3.942  10.952  0.1954 -0.2595 -0.9953
  727TMC3    C410744   2.893   3.851  10.888  0.0003  0.0308  1.1810
  727TMC3    C510745   2.941   3.965  10.823  0.4299  0.0429  0.1190
  727TMC3    C610746   3.060   4.021  10.867  0.3049 -0.2137 -0.1922
  727TMC3     C10747   2.920   3.675  11.057 -0.5323  0.2063 -0.1603
  727TMC3     O10748   2.994   3.590  11.099  0.0540  0.1433  0.3993
  727TMC3     H10749   3.164   3.753  11.070 -1.5619 -2.1218 -1.5390
  727TMC3    H110750   2.801   3.797  10.871  0.8859 -0.8856 -0.7406
  727TMC3    H210751   3.113   4.105  10.823  2.9135 -1.6991  0.1289
  727TMC3    C710752   2.861   4.020  10.715 -0.2076  0.7723 -0.0620
  727TMC3    C810753   3.262   4.006  10.990 -0.0220 -0.8622 -0.1951
  727TMC3    O110754   2.743   3.976  10.701 -0.2699 -0.5062  0.0663
  727TMC3    O210755   3.296   4.102  10.922  0.0635  0.5977  0.0399
  728TMC3    C110756   2.338   2.232  15.410  0.3332  0.3062 -0.4600
  728TMC3    C210757   2.474   2.218  15.396 -0.9221 -0.0305 -0.0266
  728TMC3    C310758   2.525   2.175  15.273 -0.0118 -0.1062 -1.0041
  728TMC3    C410759   2.255   2.203  15.306  0.6367 -0.3567 -1.1698
  728TMC3    C510760   2.310   2.157  15.195 -0.6993 -0.2107 -0.1622
  728TMC3    C610761   2.442   2.136  15.171  0.1636 -0.3889  0.0685
  728TMC3     C10762   2.294   2.260  15.547  0.3567 -0.6282 -0.4193
  728TMC3     O10763   2.354   2.348  15.608  0.2946  0.1191  0.4444
  728TMC3     H10764   2.540   2.243  15.478  1.4580 -2.0810 -1.3003
  728TMC3    H110765   2.149   2.224  15.311  0.6760 -0.5718  0.8089
  728TMC3    H210766   2.480   2.106  15.074 -1.5943  1.7670 -1.2844
  728TMC3    C710767   2.235   2.197  15.074  0.6184  0.1024 -0.4825
  728TMC3    C810768   2.661   2.201  15.238 -0.7236 -0.2397 -0.1032
  728TMC3    O110769   2.167   2.303  15.069  0.4334 -0.6484  0.2913
  728TMC3    O210770   2.709   2.291  15.310  0.6424  0.3268  0.1991
  729MPD2     C10771   3.750   3.829  17.206  0.0371 -0.5247  0.9196
  729MPD2    C110772   3.753   3.692  17.174  0.3671 -0.1559  0.1019
  729MPD2    C210773   3.795   3.603  17.270  0.0802  0.0298 -0.9079
  729MPD2    C310774   3.864   3.648  17.382  0.0979 -0.0237  0.5809
  729MPD2    C410775   3.863   3.781  17.407  0.1964  0.2220  0.8232
  729MPD2    C510776   3.807   3.872  17.324  0.4392 -0.1671 -0.6717
  729MPD2     H10777   3.768   3.498  17.261 -0.1513 -0.0192  0.4503
  729MPD2    H110778   3.930   3.825  17.479  3.0060 -1.9119 -0.4947
  729MPD2    H210779   3.692   3.893  17.140  0.3547 -1.9718 -0.7593
  729MPD2    H310780   3.811   3.977  17.351  1.0336 -0.5261  0.6094
  729MPD2     N10781   3.931   3.562  17.470 -0.0945 -0.1946 -0.0551
  729MPD2    H510782   3.980   3.607  17.547 -0.8213 -1.2824  1.0314
  729MPD2    N110783   3.699   3.654  17.052  0.0471 -0.2262  0.0235
  729MPD2    H710784   3.658   3.725  16.993  0.0832 -1.7647 -1.8434
  730TMC3    C110785   4.027   3.373  17.539  0.4971  0.1232 -0.2165
  730TMC3    C210786   4.092   3.281  17.460  0.0489 -0.0037 -0.0911
  730TMC3    C310787   4.225   3.300  17.437  0.2835  0.8623  0.3712
  730TMC3    C410788   4.102   3.472  17.611  0.4551  0.2435 -0.4912
  730TMC3    C510789   4.238   3.473  17.594  0.2856 -0.5283  0.1303
  730TMC3    C610790   4.304   3.388  17.511 -1.1674 -0.4051 -0.3503
  730TMC3     C10791   3.922   3.429  17.464 -0.1239 -0.3512  0.1122
  730TMC3     O10792   3.845   3.351  17.410  0.2233 -0.2435  0.3300
  730TMC3     H10793   4.035   3.207  17.406  0.4096 -0.3837  0.0482
  730TMC3    H110794   4.060   3.538  17.685  2.2867 -0.9999  1.6416
  730TMC3    H210795   4.412   3.394  17.499 -1.3252  0.8914 -1.1112
  730TMC3    C710796   4.285   3.607  17.558 -0.2074  0.2157 -0.6700
  730TMC3    C810797   4.259   3.283  17.300  0.0431  1.1949  0.1538
  730TMC3    O110798   4.332   3.607  17.441  0.5493 -0.2466  0.8248
  730TMC3    O210799   4.167   3.268  17.223 -0.8479  0.5349  0.3139
  731MPD2     C10800   4.366   2.055  12.244 -0.2222  0.3188 -0.3644
  731MPD2    C110801   4.259   1.994  12.184  0.5027 -0.7839  0.5070
  731MPD2    C210802   4.156   1.965  12.272  0.3967 -0.8389  0.1593
  731MPD2    C310803   4.154   2.003  12.405  0.2399  0.0377  0.1536
  731MPD2    C410804   4.259   2.078  12.454 -0.4438 -0.4127 -0.2145
  731MPD2    C510805   4.363   2.106  12.367  0.4571 -0.5337 -0.8558
  731MPD2     H10806   4.077   1.899  12.239  0.5551 -0.6988 -0.4965
  731MPD2    H110807   4.262   2.119  12.554  0.6846 -0.1957 -0.3377
  731MPD2    H210808   4.454   2.082  12.186  1.0145 -0.8480  0.9508
  731MPD2    H310809   4.448   2.162  12.405 -0.8449 -0.2630  1.6935
  731MPD2     N10810   4.048   1.965  12.490 -0.3414 -0.2154  0.7869
  731MPD2    H510811   3.970   1.919  12.443 -1.1372  1.5306  0.3827
  731MPD2    N110812   4.272   1.954  12.049  0.1068 -0.3128 -0.4892
  731MPD2    H710813   4.357   1.971  11.997  0.3279 -1.2703 -0.4270
  732TMC3    C110814   4.210   1.820  11.860  0.0644 -0.7716  0.6965
  732TMC3    C210815   4.118   1.773  11.771  0.0411  0.3809  0.3402
  732TMC3    C310816   4.156   1.702  11.668  0.1553 -1.1107  0.1732
  732TMC3    C410817   4.338   1.771  11.850  0.5093 -0.6258 -0.0427
  732TMC3    C510818   4.371   1.698  11.741  0.5040 -0.5112  0.0125
  732TMC3    C610819   4.283   1.664  11.641  0.4430  0.1243  0.1505
  732TMC3     C10820   4.164   1.897  11.973 -0.1400 -0.2685  0.6102
  732TMC3     O10821   4.042   1.879  12.002 -0.2810  0.8220  0.5715
  732TMC3     H10822   4.018   1.816  11.769 -0.6027 -1.0841  1.3023
  732TMC3    H110823   4.420   1.801  11.915  0.0899  0.3909  0.0101
  732TMC3    H210824   4.313   1.605  11.555 -0.4048 -0.8444  0.5131
  732TMC3    C710825   4.502   1.625  11.738 -0.1257  0.6255 -0.4888
  732TMC3    C810826   4.061   1.632  11.593  1.2654 -0.3953  0.0461
  732TMC3    O110827   4.531   1.561  11.642 -0.7116 -0.2874  0.4287
  732TMC3    O210828   4.083   1.602  11.475 -0.2764  0.8404  0.3120
  733TMC3    C110829   0.707   4.538  12.708  0.1254 -0.5595 -0.3616
  733TMC3    C210830   0.779   4.488  12.817  0.6886 -0.0417  0.3121
  733TMC3    C310831   0.912   4.449  12.787  0.6317 -0.0425 -0.4940
  733TMC3    C410832   0.756   4.561  12.587  0.1994  0.4911  0.5761
  733TMC3    C510833   0.889   4.539  12.567  0.2767  0.3541  0.0244
  733TMC3    C610834   0.966   4.475  12.660  0.4712 -0.7044 -0.2833
  733TMC3     C10835   0.560   4.536  12.705  0.0072 -0.5328 -0.4173
  733TMC3     O10836   0.496   4.590  12.612  0.2885 -0.0410  0.1578
  733TMC3     H10837   0.738   4.468  12.916  1.5318  1.5777  0.9888
  733TMC3    H110838   0.707   4.625  12.515 -0.3313 -2.4991 -1.7529
  733TMC3    H210839   1.071   4.463  12.637  0.3470 -0.4543 -0.9672
  733TMC3    C710840   0.959   4.635  12.485  0.4607  0.9943 -0.1288
  733TMC3    C810841   1.003   4.463  12.901 -0.1067  0.2821 -0.3904
  733TMC3    O110842   0.899   0.017  12.460  0.2876 -0.6912 -0.3092
  733TMC3    O210843   0.961   4.494  13.014 -0.0583  0.6466  0.3487
  734MPD2     C10844   2.601   2.627  12.103 -0.6927 -0.2214 -0.5985
  734MPD2    C110845   2.495   2.567  12.041  0.1756 -0.3244  0.5136
  734MPD2    C210846   2.447   2.609  11.921 -0.1165 -0.2349  0.3418
  734MPD2    C310847   2.502   2.714  11.859  0.5238  0.1577  0.4959
  734MPD2    C410848   2.605   2.780  11.917 -0.5033 -0.5685 -0.4279
  734MPD2    C510849   2.654   2.739  12.043  0.3791  0.1712 -0.1076
  734MPD2     H10850   2.373   2.553  11.865 -1.3986  0.2075  1.5866
  734MPD2    H110851   2.651   2.867  11.872 -1.1423 -0.0022  0.0140
  734MPD2    H210852   2.636   2.604  12.203 -0.8092 -0.1118 -0.5325
  734MPD2    H310853   2.729   2.799  12.092  1.1524  0.8510 -2.1226
  734MPD2     N10854   2.461   2.736  11.724 -0.3796 -0.7585  0.5383
  734MPD2    H510855   2.395   2.669  11.686  1.4887 -1.7960 -0.8872
  734MPD2    N110856   2.453   2.436  12.089 -0.1212 -0.0202 -0.1728
  734MPD2    H710857   2.506   2.397  12.166 -0.6466  0.4832  0.4448
  735TMC3    C110858   2.334   2.227  12.097 -0.2726 -0.0254  0.3449
  735TMC3    C210859   2.220   2.167  12.046 -0.0309 -0.4721 -0.9150
  735TMC3    C310860   2.228   2.051  11.977  0.0413  0.2805  0.2898
  735TMC3    C410861   2.447   2.157  12.106  0.1756 -0.3567  0.2700
  735TMC3    C510862   2.447   2.027  12.057  0.0447  0.1978 -0.3182
  735TMC3    C610863   2.336   1.975  11.994  0.2104 -0.0596  0.6724
  735TMC3     C10864   2.347   2.360  12.039 -0.2948  0.2405  0.3588
  735TMC3     O10865   2.263   2.380  11.954 -0.0925  0.1109 -0.4470
  735TMC3     H10866   2.125   2.219  12.038  0.0469 -0.3522 -1.0446
  735TMC3    H110867   2.542   2.201  12.136 -0.7770  0.5816  1.8653
  735TMC3    H210868   2.328   1.872  11.962 -1.2456  0.3380 -0.2533
  735TMC3    C710869   2.572   1.976  12.001 -0.4128 -0.0735  0.4274
  735TMC3    C810870   2.165   2.039  11.852  0.6499 -0.0435 -0.1982
  735TMC3    O110871   2.655   2.067  11.978 -0.4730 -0.2128  0.3067
  735TMC3    O210872   2.155   1.939  11.788  0.2581 -0.5552  0.1623
  736MPD2     C10873   2.668   1.618  11.987  0.5061  0.4486 -0.2447
  736MPD2    C110874   2.684   1.747  11.959 -0.3805  0.0696  0.1847
  736MPD2    C210875   2.793   1.800  11.887 -0.5385  0.1156  0.7479
  736MPD2    C310876   2.892   1.710  11.854 -0.0595 -0.3342  0.0205
  736MPD2    C410877   2.880   1.577  11.895  0.3921  0.2446  0.9330
  736MPD2    C510878   2.766   1.529  11.957 -0.4855 -0.0375 -0.5987
  736MPD2     H10879   2.804   1.900  11.847  0.9535 -0.0828  0.6459
  736MPD2    H110880   2.953   1.499  11.878 -0.1742  0.0347 -0.5338
  736MPD2    H210881   2.591   1.586  12.056  3.2519 -0.9677  2.2191
  736MPD2    H310882   2.754   1.423  11.977  0.2310  0.0561  0.2819
  736MPD2     N10883   3.015   1.740  11.784  0.3101  0.3515 -0.1048
  736MPD2    H510884   3.070   1.665  11.744  0.7413  0.4565  0.2844
  736MPD2    N110885   2.580   1.838  12.000  0.1086 -0.3956  0.7593
  736MPD2    H710886   2.497   1.794  12.038  0.9564 -0.3890  2.6141
  737TMC3    C110887   3.185   1.878  11.692  0.0441 -0.6634  0.5531
  737TMC3    C210888   3.214   1.999  11.635 -0.3620 -0.1740  0.5079
  737TMC3    C310889   3.315   2.003  11.547 -0.6494  0.0086  0.2470
  737TMC3    C410890   3.249   1.763  11.654  0.3417 -0.0545  0.1138
  737TMC3    C510891   3.342   1.762  11.552 -0.1981 -1.2274  0.1114
  737TMC3    C610892   3.377   1.888  11.502  0.3403 -0.3591  0.2601
  737TMC3     C10893   3.059   1.868  11.752  0.6785 -0.3058 -0.6828
  737TMC3     O10894   3.010   1.977  11.788 -0.1794  0.1271 -0.3210
  737TMC3     H10895   3.163   2.089  11.667 -0.0039  0.1582  0.1414
  737TMC3    H110896   3.224   1.664  11.691 -1.3211  0.5762  0.6660
  737TMC3    H210897   3.465   1.894  11.439 -1.0438 -2.4064 -1.8912
  737TMC3    C710898   3.339   1.648  11.462 -0.1870 -0.5798  0.6793
  737TMC3    C810899   3.334   2.120  11.472 -0.2555 -0.7679 -0.4674
  737TMC3    O110900   3.258   1.557  11.480  0.6016 -0.5347  0.8670
  737TMC3    O210901   3.297   2.233  11.511 -0.2553  0.2552 -0.5452
  738MPD2     C10902   3.308   0.456  15.301 -0.2979  0.9346  0.6537
  738MPD2    C110903   3.314   0.427  15.167  0.6130  0.3915 -0.0995
  738MPD2    C210904   3.413   0.495  15.093  0.0448  0.2881 -0.0963
  738MPD2    C310905   3.506   0.576  15.154 -0.2503 -1.2540 -0.5380
  738MPD2    C410906   3.497   0.592  15.289  0.7559 -0.2635  0.1995
  738MPD2    C510907   3.402   0.534  15.365 -0.7184  0.1442  1.5537
  738MPD2     H10908   3.414   0.476  14.986  1.7067 -1.0741  0.1536
  738MPD2    H110909   3.564   0.665  15.335  1.4839 -0.3657 -0.6943
  738MPD2    H210910   3.235   0.406  15.364  0.4055  0.3628  1.0114
  738MPD2    H310911   3.405   0.549  15.472 -0.4310  3.2407  1.1232
  738MPD2     N10912   3.606   0.643  15.084  0.5033  0.8043 -0.8601
  738MPD2    H510913   3.683   0.690  15.130  0.7592 -0.3016 -0.1533
  738MPD2    N110914   3.215   0.334  15.130 -0.2694  0.3280 -0.7615
  738MPD2    H710915   3.163   0.280  15.199  1.9791 -2.4489 -1.2491
  739TMC3    C110916   3.729   0.728  14.893 -0.3323  0.4183 -0.1884
  739TMC3    C210917   3.777   0.714  14.764  0.3101  0.6354  0.4546
  739TMC3    C310918   3.874   0.792  14.721  0.0571  0.8319 -0.5717
  739TMC3    C410919   3.777   0.823  14.980  0.5742 -0.1198 -0.5534
  739TMC3    C510920   3.879   0.905  14.933 -0.4415 -0.2574 -0.6081
  739TMC3    C610921   3.931   0.887  14.803 -0.0785  0.0046  0.0538
  739TMC3     C10922   3.613   0.653  14.945 -0.3797 -0.0565  0.9451
  739TMC3     O10923   3.525   0.637  14.859 -0.3970  0.6069  0.5618
  739TMC3     H10924   3.738   0.639  14.697  1.8027  1.0785 -0.9154
  739TMC3    H110925   3.726   0.855  15.069 -3.1221  0.6398 -2.9594
  739TMC3    H210926   3.980   0.966  14.747  0.9928  0.1698  1.2366
  739TMC3    C710927   3.934   1.015  15.008 -0.2020 -0.2504 -0.2003
  739TMC3    C810928   3.900   0.797  14.574 -0.0322 -0.0758 -0.4957
  739TMC3    O110929   3.871   1.063  15.101  0.3723  0.2942 -0.1325
  739TMC3    O210930   3.805   0.766  14.501  0.2296  0.3294  1.1443
  740TMC3    C110931   4.162   2.023  14.273  0.1677  0.7424  0.3913
  740TMC3    C210932   4.198   1.929  14.361 -0.0642  1.0920 -0.7951
  740TMC3    C310933   4.302   1.853  14.323  0.8320  0.7507 -0.3173
  740TMC3    C410934   4.230   2.064  14.159 -0.0723  0.1161 -0.7375
  740TMC3    C510935   4.344   1.986  14.135 -0.0670 -0.3411  0.4921
  740TMC3    C610936   4.383   1.887  14.219 -0.0448 -0.2783  0.1976
  740TMC3     C10937   4.040   2.092  14.291  0.3257 -0.5572  0.3949
  740TMC3     O10938   4.040   2.217  14.273 -0.2549 -0.0079 -0.0448
  740TMC3     H10939   4.139   1.895  14.446 -0.8832  0.3539 -1.6523
  740TMC3    H110940   4.186   2.144  14.102 -0.3288  1.2048  0.9787
  740TMC3    H210941   4.462   1.820  14.188 -0.4318 -0.8397  0.4179
  740TMC3    C710942   4.398   1.981  13.999 -0.5168  0.0850 -0.7069
  740TMC3    C810943   4.340   1.739  14.402  0.1673  0.4971  0.1163
  740TMC3    O110944   4.474   1.889  13.974 -0.3599  0.2472 -0.5013
  740TMC3    O210945   4.457   1.728  14.427 -0.0745 -0.1559  0.0433
  741TMC3    C110946   3.624   1.070  14.650  0.5078  0.1667  0.6606
  741TMC3    C210947   3.560   0.963  14.592 -0.4721 -0.3079 -0.4400
  741TMC3    C310948   3.467   0.901  14.672  0.3601  0.9313  0.0539
  741TMC3    C410949   3.605   1.109  14.774 -0.2489  0.7000  0.2720
  741TMC3    C510950   3.496   1.058  14.850 -0.3793  0.0642  0.4811
  741TMC3    C610951   3.434   0.949  14.798 -0.5839  0.4096  0.3462
  741TMC3     C10952   3.745   1.112  14.585 -0.1065  0.2530 -0.0901
  741TMC3     O10953   3.844   1.127  14.655  0.6937  0.0320  0.4522
  741TMC3     H10954   3.599   0.916  14.503  1.0739 -0.7619  0.4650
  741TMC3    H110955   3.643   1.206  14.806 -2.6428  1.1771  1.6659
  741TMC3    H210956   3.341   0.910  14.839 -0.2677  0.6609  1.2975
  741TMC3    C710957   3.456   1.129  14.964 -0.1568  0.1103  0.1860
  741TMC3    C810958   3.394   0.799  14.604  0.2805 -0.4201  0.2539
  741TMC3    O110959   3.525   1.223  15.009 -0.1394  0.0817 -0.1451
  741TMC3    O210960   3.413   0.783  14.483  0.2203 -0.1979 -0.1610
  742TMC3    C110961   3.285   4.670  15.406  0.1435 -0.0469  0.3315
  742TMC3    C210962   3.206   4.625  15.303  0.2167  0.5745  0.3180
  742TMC3    C310963   3.273   4.595  15.184  0.2310  0.3599 -0.4575
  742TMC3    C410964   3.422   4.666  15.408 -0.5222 -0.4411 -0.0097
  742TMC3    C510965   3.480   4.623  15.288 -0.9021  0.7929  0.1412
  742TMC3    C610966   3.408   4.586  15.174 -0.0963  0.9448 -0.5697
  742TMC3     C10967   3.223   4.690  15.533 -0.1528  0.5234 -0.4161
  742TMC3     O10968   3.285   0.022  15.628 -0.4266  0.5803 -0.3913
  742TMC3     H10969   3.102   4.656  15.297 -0.1988 -0.5058  2.1256
  742TMC3    H110970   3.474   4.689  15.500  0.7927  2.3414 -1.4548
  742TMC3    H210971   3.454   4.546  15.084 -2.1095 -1.3227 -0.6090
  742TMC3    C710972   3.623   4.612  15.286 -0.0154 -0.1356  0.0355
  742TMC3    C810973   3.201   4.554  15.063 -0.4681 -0.1508 -0.0419
  742TMC3    O110974   3.660   4.537  15.197 -0.1320  0.3412  0.1909
  742TMC3    O210975   3.271   4.543  14.961  0.0691 -0.2063 -0.4111
  743MPD2     C10976   2.902   0.454   1.093  0.3268  0.1077 -0.0950
  743MPD2    C110977   2.790   0.485   1.029 -1.0251  0.2019 -0.4114
  743MPD2    C210978   2.801   0.534   0.901 -0.2065 -0.2337 -0.3295
  743MPD2    C310979   2.925   0.540   0.840 -0.0981 -0.6554  0.3387
  743MPD2    C410980   3.040   0.503   0.911 -0.0398 -0.8433 -0.1903
  743MPD2    C510981   3.024   0.461   1.036  0.0638  1.1535 -0.3791
  743MPD2     H10982   2.713   0.558   0.842  0.0585 -1.5840 -1.2533
  743MPD2    H110983   3.137   0.519   0.865 -1.3487  0.7212 -2.4470
  743MPD2    H210984   2.903   0.413   1.193  0.9862  0.4553  0.0449
  743MPD2    H310985   3.115   0.437   1.091 -0.3441 -1.9288 -1.0691
  743MPD2     N10986   2.930   0.612   0.719 -0.2355 -0.0357  0.2500
  743MPD2    H510987   2.840   0.645   0.686  0.9218 -0.1129 -2.9468
  743MPD2    N110988   2.670   0.479   1.099  0.5013 -1.0652  0.4687
  743MPD2    H710989   2.669   0.478   1.200  0.1150 -1.6079  0.4609
  744TMC3    C110990   2.434   0.525   1.134  0.0696 -0.0730 -0.1292
  744TMC3    C210991   2.447   0.594   1.250  0.0264  0.8818  0.4251
  744TMC3    C310992   2.339   0.647   1.318 -0.4681  0.2651 -0.4613
  744TMC3    C410993   2.313   0.532   1.066 -0.7320 -0.1535 -0.0067
  744TMC3    C510994   2.213   0.604   1.127 -0.1970  0.0647 -0.3243
  744TMC3    C610995   2.222   0.654   1.253 -0.5610 -0.5478  0.0333
  744TMC3     C10996   2.543   0.494   1.041 -0.3058  0.6195 -0.1211
  744TMC3     O10997   2.514   0.480   0.924 -0.0162 -0.0800 -0.2724
  744TMC3     H10998   2.548   0.604   1.289 -0.4839  2.1542  1.4212
  744TMC3    H110999   2.302   0.501   0.963  0.8935  0.7484 -0.4485
  744TMC3    H211000   2.143   0.709   1.302  0.2840  1.0030 -0.3482
  744TMC3    C711001   2.088   0.633   1.053 -0.5308 -0.1407 -0.8263
  744TMC3    C811002   2.354   0.681   1.457 -0.3225 -0.5217 -0.4229
  744TMC3    O111003   2.009   0.717   1.100  0.2305 -0.1380  0.5861
  744TMC3    O211004   2.271   0.758   1.500 -0.0425  0.3762  0.2852
  745TMC3    C111005   4.091   3.868  13.095  0.3941 -0.2222 -0.3414
  745TMC3    C211006   4.012   3.761  13.114  0.4130 -0.2169  0.2037
  745TMC3    C311007   3.893   3.745  13.048  0.5130  0.5714  0.3905
  745TMC3    C411008   4.067   3.958  13.000  0.6187  0.3017  0.1564
  745TMC3    C511009   3.952   3.935  12.919 -0.2849 -0.0975  0.0095
  745TMC3    C611010   3.867   3.829  12.940 -0.1723 -0.0826 -0.1960
  745TMC3     C11011   4.160   3.904  13.210 -0.2357 -0.3374 -0.0929
  745TMC3     O11012   4.214   3.810  13.264 -0.0546  0.2048 -0.6264
  745TMC3     H11013   4.037   3.687  13.190  2.8394  1.2673  0.8564
  745TMC3    H111014   4.115   4.055  13.012  0.6019  0.1335  1.6008
  745TMC3    H211015   3.769   3.824  12.893 -0.5312 -1.6286  0.6762
  745TMC3    C711016   3.899   4.040  12.837 -0.1508  0.3116 -0.3079
  745TMC3    C811017   3.778   3.765  13.131 -0.5153 -0.1868  0.3929
  745TMC3    O111018   3.788   4.035  12.783  0.1009 -1.3632 -0.0430
  745TMC3    O211019   3.670   3.723  13.093 -0.3371 -0.2734  0.2063
  746TMC3    C111020   1.459   1.757  10.823 -0.6728 -0.2479  0.1281
  746TMC3    C211021   1.585   1.762  10.782 -0.2686 -0.6055  0.4913
  746TMC3    C311022   1.672   1.665  10.820  0.7819  0.0759 -0.5957
  746TMC3    C411023   1.413   1.658  10.900  0.7216 -0.0419 -0.3733
  746TMC3    C511024   1.504   1.561  10.947 -0.9195  0.8140 -0.0219
  746TMC3    C611025   1.635   1.565  10.905 -0.0669  0.1982 -0.1042
  746TMC3     C11026   1.375   1.875  10.808  0.1706  0.1914 -0.9283
  746TMC3     O11027   1.266   1.861  10.856  0.4784  0.0814 -0.6835
  746TMC3     H11028   1.616   1.849  10.724 -0.5459  0.7416  2.3833
  746TMC3    H111029   1.306   1.649  10.916  0.6406 -0.8706 -1.3904
  746TMC3    H211030   1.707   1.493  10.943  0.5676  0.8825 -0.0106
  746TMC3    C711031   1.451   1.434  10.966 -0.3887  0.9742 -0.0983
  746TMC3    C811032   1.805   1.653  10.758 -0.2357  0.9570 -0.0352
  746TMC3    O111033   1.344   1.411  10.916  0.0599  0.4908 -0.2995
  746TMC3    O211034   1.884   1.581  10.819  0.0397 -0.9418 -0.5846
  747TMC3    C111035   3.666   1.905  10.562  0.2369  0.1003 -0.2422
  747TMC3    C211036   3.632   1.782  10.615 -0.2363  0.3268 -0.6416
  747TMC3    C311037   3.670   1.748  10.738 -0.5891  0.6845  0.3294
  747TMC3    C411038   3.750   1.993  10.633 -0.1984 -0.2215  0.0220
  747TMC3    C511039   3.790   1.951  10.762 -0.1627 -0.1694  0.4326
  747TMC3    C611040   3.745   1.832  10.813  0.0934  0.1604  0.6412
  747TMC3     C11041   3.642   1.947  10.424  0.0912  0.7917  0.3671
  747TMC3     O11042   3.655   2.062  10.393  0.2161  0.8586 -0.2166
  747TMC3     H11043   3.560   1.713  10.574  0.3414 -0.8078  0.2488
  747TMC3    H111044   3.791   2.083  10.589 -0.7470 -0.8115 -1.7416
  747TMC3    H211045   3.779   1.795  10.909  0.1114 -0.7952  0.2647
  747TMC3    C711046   3.879   2.028  10.839 -0.4758 -0.7685 -0.1223
  747TMC3    C811047   3.620   1.632  10.801  0.3435  0.1382 -0.7693
  747TMC3    O111048   3.885   2.002  10.959 -0.4137 -0.0122  0.5098
  747TMC3    O211049   3.582   1.547  10.719 -0.0658  0.3451  0.1529
  748MPD2     C11050   0.518   2.885   1.890 -0.6358  0.1659 -0.1223
  748MPD2    C111051   0.456   2.774   1.845 -0.0161 -0.4754 -0.6595
  748MPD2    C211052   0.530   2.655   1.832  0.1143 -0.2878  0.2721
  748MPD2    C311053   0.667   2.650   1.862 -0.7650 -0.2361 -1.0373
  748MPD2    C411054   0.725   2.767   1.898  0.2213 -0.0436  0.4956
  748MPD2    C511055   0.654   2.886   1.912 -0.5071 -0.9051  0.2514
  748MPD2     H11056   0.479   2.565   1.799  0.3834 -0.2686 -0.1921
  748MPD2    H111057   0.831   2.771   1.919  0.2682  1.7102 -0.1282
  748MPD2    H211058   0.477   2.985   1.896 -1.0200 -0.0279  0.5590
  748MPD2    H311059   0.701   2.977   1.948  2.5876 -3.2741  2.1670
  748MPD2     N11060   0.734   2.532   1.845  0.0638  0.1607 -0.4739
  748MPD2    H511061   0.671   2.453   1.831 -1.0762  1.0359 -0.3063
  748MPD2    N111062   0.315   2.788   1.805 -0.7828 -0.1928  0.1390
  748MPD2    H711063   0.274   2.880   1.819  0.1626  0.0291  1.4785
  749TMC3    C111064   0.897   2.369   1.860 -0.9327  0.8638  0.4877
  749TMC3    C211065   0.995   2.312   1.935 -0.7809  0.6142 -0.1689
  749TMC3    C311066   1.076   2.212   1.883  0.3892 -0.2792  0.2902
  749TMC3    C411067   0.885   2.332   1.727  0.6017  0.0023 -0.1025
  749TMC3    C511068   0.958   2.223   1.680  0.5326 -0.6100  0.0212
  749TMC3    C611069   1.063   2.172   1.755 -0.2573 -0.1171  1.1408
  749TMC3     C11070   0.862   2.507   1.888 -0.1134  0.2044  0.7831
  749TMC3     O11071   0.946   2.583   1.933  0.0999  0.2077  0.0310
  749TMC3     H11072   1.002   2.344   2.038  4.0603 -0.8492 -0.0658
  749TMC3    H111073   0.813   2.382   1.663  1.5516 -0.6650 -1.6658
  749TMC3    H211074   1.125   2.092   1.718 -0.1634  0.6862 -0.4369
  749TMC3    C711075   0.948   2.197   1.536 -0.3982  0.2066 -0.2028
  749TMC3    C811076   1.177   2.164   1.979 -0.0324  0.6141 -0.4535
  749TMC3    O111077   0.848   2.247   1.485 -0.5823  0.1806 -0.4502
  749TMC3    O211078   1.163   2.193   2.096 -0.1832  0.1611  0.5934
  750MPD2     C11079   1.193   3.773  11.177 -0.0553 -0.2222  0.2136
  750MPD2    C111080   1.190   3.647  11.231  0.3165 -0.5355  0.8164
  750MPD2    C211081   1.206   3.535  11.148 -0.2114 -0.1251 -0.7511
  750MPD2    C311082   1.219   3.555  11.006  0.1174 -0.7140 -0.0593
  750MPD2    C411083   1.206   3.684  10.959 -0.5834 -0.3388  0.3468
  750MPD2    C511084   1.191   3.783  11.041  0.1968  0.5385  0.7877
  750MPD2     H11085   1.227   3.441  11.198 -0.8481 -0.7327 -1.6251
  750MPD2    H111086   1.198   3.703  10.853 -0.6017  0.1570  0.4324
  750MPD2    H211087   1.199   3.865  11.233 -1.0621  0.0366 -0.1057
  750MPD2    H311088   1.202   3.886  11.010 -0.5172  1.2775  2.9449
  750MPD2     N11089   1.238   3.449  10.918 -0.3141  0.0796  0.5103
  750MPD2    H511090   1.250   3.468  10.820 -2.3716  0.5357  0.3320
  750MPD2    N111091   1.185   3.645  11.372 -0.0949  0.5714  0.6262
  750MPD2    H711092   1.194   3.734  11.419  2.5662  1.6141 -1.8539
  751TMC3    C111093   1.227   3.236  10.830 -0.4852 -0.2131  0.1611
  751TMC3    C211094   1.140   3.128  10.804 -0.1948 -0.0917 -0.3162
  751TMC3    C311095   1.164   3.057  10.690 -0.0609  0.1874 -0.2697
  751TMC3    C411096   1.331   3.261  10.754  0.7245  0.3674  0.3173
  751TMC3    C511097   1.353   3.183  10.645  0.8527 -0.2292  0.5404
  751TMC3    C611098   1.274   3.074  10.613  0.7367 -0.5797 -0.1620
  751TMC3     C11099   1.220   3.313  10.946 -0.3060 -1.0192 -0.1280
  751TMC3     O11100   1.162   3.264  11.038 -0.5460 -0.6333 -0.2180
  751TMC3     H11101   1.064   3.103  10.878 -0.1169  2.0763  0.5117
  751TMC3    H111102   1.408   3.333  10.777  0.5719 -0.6280  3.9123
  751TMC3    H211103   1.297   3.008  10.530  2.5089  0.4443 -0.4804
  751TMC3    C711104   1.463   3.223  10.553  0.3169  0.1644 -0.2216
  751TMC3    C811105   1.104   2.929  10.680  0.4248 -0.2027  0.2166
  751TMC3    O111106   1.522   3.329  10.579  0.2320  0.3731  0.1156
  751TMC3    O211107   1.154   2.845  10.605 -0.1237 -0.0603  0.3373
  752TMC3    C111108   4.193   2.950  17.250  0.1493  0.2976  0.4288
  752TMC3    C211109   4.323   2.907  17.270  0.0641  0.5000 -0.2169
  752TMC3    C311110   4.371   2.865  17.390 -0.5728 -0.1225 -0.4145
  752TMC3    C411111   4.100   2.934  17.351 -0.1990  0.8364 -0.2631
  752TMC3    C511112   4.151   2.885  17.465  0.7284  0.8238 -0.6215
  752TMC3    C611113   4.278   2.852  17.491 -0.1349 -0.9314  0.1427
  752TMC3     C11114   4.144   2.961  17.110 -0.0963  0.2467 -0.4336
  752TMC3     O11115   4.217   2.906  17.031 -0.5508 -0.4550  0.2208
  752TMC3     H11116   4.396   2.911  17.190  0.2065 -1.4686 -0.1790
  752TMC3    H111117   3.994   2.939  17.332 -0.3885  1.7734  1.0517
  752TMC3    H211118   4.300   2.836  17.596 -2.3709 -1.5458  0.5212
  752TMC3    C711119   4.058   2.879  17.578 -0.2684 -0.2074  0.4933
  752TMC3    C811120   4.482   2.773  17.380  1.1152  0.8945 -0.3383
  752TMC3    O111121   4.087   2.817  17.679  1.0971 -0.6794  0.0895
  752TMC3    O211122   4.553   2.785  17.281  0.4151 -0.1584 -0.2852
  753TMC3    C111123   2.039   3.838  13.274 -0.9663 -0.3179  0.0463
  753TMC3    C211124   2.043   3.871  13.410  0.3422 -0.4269  0.2291
  753TMC3    C311125   1.945   3.812  13.489  0.2735  0.3918  1.0758
  753TMC3    C411126   1.950   3.753  13.212  0.3634 -0.3973 -0.3191
  753TMC3    C511127   1.852   3.706  13.293 -0.4998 -0.1557  0.4354
  753TMC3    C611128   1.850   3.734  13.430  0.2197 -0.7522  0.1229
  753TMC3     C11129   2.120   3.909  13.184  0.1564 -0.2092 -0.6385
  753TMC3     O11130   2.158   3.854  13.084 -0.5964 -0.5037  0.0549
  753TMC3     H11131   2.130   3.921  13.450  0.2809 -0.3035  0.2078
  753TMC3    H111132   1.952   3.753  13.103 -0.6758  0.9483 -0.3427
  753TMC3    H211133   1.768   3.698  13.492 -3.6324  3.9369 -2.2438
  753TMC3    C711134   1.752   3.634  13.215  0.1095 -0.4482 -0.3995
  753TMC3    C811135   1.972   3.814  13.637 -0.0898 -0.5151  0.0614
  753TMC3    O111136   1.784   3.612  13.099  0.2169 -0.2852 -0.7516
  753TMC3    O211137   1.924   3.719  13.695 -0.2525  0.2413  0.0316
  754MPD2     C11138   1.437   2.766  13.291  0.1916  0.0543  0.3359
  754MPD2    C111139   1.399   2.650  13.228  0.4346 -0.2565  0.6454
  754MPD2    C211140   1.273   2.638  13.161 -0.2431 -0.2985  0.3076
  754MPD2    C311141   1.175   2.737  13.171  0.0835 -0.8155  0.5044
  754MPD2    C411142   1.218   2.856  13.230 -0.4280 -0.3637  0.0134
  754MPD2    C511143   1.344   2.869  13.284  0.0403  0.1587 -0.8973
  754MPD2     H11144   1.259   2.549  13.102 -1.6398 -0.4182  0.8165
  754MPD2    H111145   1.147   2.933  13.257 -0.0975 -1.2078  3.3773
  754MPD2    H211146   1.538   2.775  13.330  0.2944  0.2591  0.0176
  754MPD2    H311147   1.368   2.967  13.323  2.4012 -0.6172 -0.3759
  754MPD2     N11148   1.038   2.718  13.146  0.8200 -0.5979  0.0677
  754MPD2    H511149   0.981   2.800  13.164 -0.1287 -1.1784 -0.3465
  754MPD2    N111150   1.481   2.538  13.243  0.0741 -0.2487  0.6506
  754MPD2    H711151   1.577   2.562  13.266 -0.3567  2.2159 -0.0381
  755MPD2     C11152   0.442   3.320  13.054 -0.0862  0.3842  0.3423
  755MPD2    C111153   0.434   3.244  13.173 -0.2283 -0.0684  0.8889
  755MPD2    C211154   0.479   3.118  13.187 -0.2379  0.8567 -0.4907
  755MPD2    C311155   0.533   3.057  13.071  0.5720 -0.9917  0.3251
  755MPD2    C411156   0.544   3.127  12.950  0.2384  0.5642 -0.2247
  755MPD2    C511157   0.495   3.257  12.945 -0.4831 -0.0609 -0.1447
  755MPD2     H11158   0.461   3.066  13.281  0.6709  2.8229  0.7604
  755MPD2    H111159   0.589   3.079  12.864  3.5548 -0.0221  1.8619
  755MPD2    H211160   0.390   3.415  13.052 -1.0572 -0.1501  0.1409
  755MPD2    H311161   0.497   3.309  12.850  0.2742 -0.2287 -0.2154
  755MPD2     N11162   0.569   2.917  13.066  0.0738 -0.2197  0.4084
  755MPD2    H511163   0.626   2.882  12.990 -1.9171 -2.0614 -0.2472
  755MPD2    N111164   0.386   3.302  13.291 -0.1937 -0.1274  1.2033
  755MPD2    H711165   0.409   3.246  13.373  1.1222  0.6167  1.3384
  756MPD2     C11166   1.782   3.899  10.100 -0.2577  0.0091  0.8183
  756MPD2    C111167   1.659   3.924  10.164 -0.2001 -0.7907  0.9149
  756MPD2    C211168   1.553   3.847  10.118 -0.2901  0.5141  0.4111
  756MPD2    C311169   1.561   3.744  10.030 -0.0728 -0.4524  0.4421
  756MPD2    C411170   1.680   3.729   9.966  0.2445 -0.4723  0.2351
  756MPD2    C511171   1.792   3.804  10.005 -0.6288 -0.0066 -0.5660
  756MPD2     H11172   1.456   3.851  10.167  0.0169 -1.9617  1.2109
  756MPD2    H111173   1.700   3.644   9.902 -0.8075  0.2021 -1.0034
  756MPD2    H211174   1.866   3.962  10.127 -1.1171  1.5934 -0.1919
  756MPD2    H311175   1.889   3.790   9.959 -0.5778 -0.4718 -0.3072
  756MPD2     N11176   1.447   3.660  10.005  0.4007 -0.2937  0.2966
  756MPD2    H511177   1.370   3.675  10.069 -0.1942 -0.4320 -0.3858
  756MPD2    N111178   1.640   4.017  10.266  0.2307  0.0349 -1.3016
  756MPD2    H711179   1.553   4.006  10.318  1.9050  1.5641  1.7966
  757MPD2     C11180   0.858   3.015   9.328  0.6883  0.2431 -0.2900
  757MPD2    C111181   0.802   3.015   9.449 -0.2591  0.1354 -0.2369
  757MPD2    C211182   0.873   3.067   9.560 -0.4466 -0.2080 -0.3789
  757MPD2    C311183   0.994   3.128   9.544  0.1616 -0.0706  0.5733
  757MPD2    C411184   1.047   3.135   9.413 -0.1110 -0.4244  0.3199
  757MPD2    C511185   0.975   3.080   9.307  0.0168  0.1315  0.2472
  757MPD2     H11186   0.817   3.063   9.653 -0.3350 -1.4202 -0.3596
  757MPD2    H111187   1.135   3.189   9.381 -0.3280 -0.5012 -0.4099
  757MPD2    H211188   0.799   2.975   9.246 -0.8139  1.6373  0.1181
  757MPD2    H311189   1.002   3.081   9.202 -0.4496  3.7376  0.1614
  757MPD2     N11190   1.049   3.200   9.658 -0.0434  0.4143  0.9272
  757MPD2    H511191   0.984   3.207   9.735  0.2692 -1.4325  1.3704
  757MPD2    N111192   0.675   2.958   9.463  0.3980 -0.3900  0.2020
  757MPD2    H711193   0.624   2.933   9.378  1.1528 -0.2239 -0.2992
  758MPD2     C11194   1.035   2.830  15.954 -0.1759  0.0440  0.5603
  758MPD2    C111195   1.036   2.725  16.052  0.3227 -0.1631  0.2057
  758MPD2    C211196   0.948   2.724  16.156  0.3551  0.2212  0.3188
  758MPD2    C311197   0.858   2.829  16.168 -0.3078  0.1505  0.2892
  758MPD2    C411198   0.844   2.918  16.064 -0.0517 -0.3123 -0.6678
  758MPD2    C511199   0.940   2.922  15.963  0.4300 -0.4780  0.3238
  758MPD2     H11200   0.941   2.636  16.219 -1.0615  1.0576  1.3283
  758MPD2    H111201   0.766   2.993  16.061 -0.2775 -0.4378  2.8266
  758MPD2    H211202   1.090   2.828  15.861  0.7197  2.2491  1.0363
  758MPD2    H311203   0.938   3.004  15.893 -0.9219 -1.1157 -0.3850
  758MPD2     N11204   0.791   2.835  16.291 -0.0497  0.3149 -0.1373
  758MPD2    H511205   0.809   2.762  16.359  0.3135 -0.5962 -1.2128
  758MPD2    N111206   1.138   2.629  16.031  0.3973 -0.0093 -0.4840
  758MPD2    H711207   1.194   2.642  15.947  1.2700  1.5180  0.3507
  759MPD2     C11208   4.429   0.557  10.473  0.8297  0.0903 -0.4115
  759MPD2    C111209   4.555   0.522  10.437  0.1177 -0.7491  0.1399
  759MPD2    C211210   4.616   0.578  10.324 -0.3305 -0.0810  0.7236
  759MPD2    C311211   4.545   0.678  10.251  0.0992  0.0396 -0.1470
  759MPD2    C411212   4.420   0.722  10.293 -0.3331 -0.0296 -0.2249
  759MPD2    C511213   4.370   0.661  10.409 -0.6510  0.4989 -0.3386
  759MPD2     H11214   4.702   0.531  10.277  0.4122  0.4205  1.5896
  759MPD2    H111215   4.361   0.799  10.244 -0.9725  0.7015  1.6716
  759MPD2    H211216   4.377   0.527  10.564 -0.4395 -0.2586 -1.2585
  759MPD2    H311217   4.274   0.691  10.450 -0.8242  0.8235 -0.9874
  759MPD2     N11218   4.609   0.719  10.131 -0.7949  0.1938 -0.6211
  759MPD2    H511219   4.707   0.694  10.123 -0.6155  0.4360  0.8900
  759MPD2    N111220   4.623   0.411  10.501  0.2531 -0.1962  0.3647
  759MPD2    H711221   4.709   0.377  10.459  1.0489  0.0053  1.8230
  760MPD2     C11222   4.637   2.868  11.675  0.3924 -0.5144 -0.3017
  760MPD2    C111223   4.700   2.937  11.786  0.2507 -0.6110  0.1731
  760MPD2    C211224   4.714   2.878  11.907  0.0344  0.8728 -0.0112
  760MPD2    C311225   4.658   2.752  11.929  0.5990  0.0049 -0.8071
  760MPD2    C411226   4.601   2.681  11.825 -0.2487  0.3456  0.2788
  760MPD2    C511227   4.582   2.744  11.699 -0.5724  0.4879  0.0919
  760MPD2     H11228   0.045   2.926  11.988 -0.1559 -1.5831  1.5886
  760MPD2    H111229   4.557   2.582  11.833  1.1625 -0.2127  1.0142
  760MPD2    H211230   4.627   2.916  11.578 -1.0543 -3.0938 -1.4353
  760MPD2    H311231   4.536   2.689  11.618  0.6829  0.5044 -0.6167
  760MPD2     N11232   4.665   2.685  12.053  0.3160  0.3871 -0.4228
  760MPD2    H511233   4.624   2.593  12.058  1.5641 -0.1126  0.7872
  760MPD2    N111234   0.038   3.060  11.769  0.1329  0.3538  0.3502
  760MPD2    H711235   0.067   3.103  11.856 -2.5834  1.3287  0.7613
  761MPD2     C11236   0.723   2.596  10.768 -0.4294 -0.1741 -0.2706
  761MPD2    C111237   0.840   2.580  10.696 -0.0732 -0.2244 -0.1476
  761MPD2    C211238   0.920   2.694  10.677  0.2858  0.5664  0.3777
  761MPD2    C311239   0.888   2.819  10.731 -0.3750 -0.2485 -0.2666
  761MPD2    C411240   0.764   2.830  10.796 -0.2593 -1.0748  0.1884
  761MPD2    C511241   0.685   2.721  10.812  0.2818 -0.2398  0.1904
  761MPD2     H11242   1.010   2.674  10.621 -0.0133  0.3795 -0.0378
  761MPD2    H111243   0.739   2.924  10.845  2.7722 -1.3073  2.1295
  761MPD2    H211244   0.668   2.506  10.792  0.5131 -0.5167  0.6183
  761MPD2    H311245   0.591   2.730  10.865 -0.5353 -0.3087 -1.2356
  761MPD2     N11246   0.975   2.934  10.727  0.0949 -0.3325 -0.4106
  761MPD2    H511247   0.938   3.017  10.772 -0.6032 -0.2580 -1.1295
  761MPD2    N111248   0.882   2.445  10.660  0.1575 -0.2356 -0.0060
  761MPD2    H711249   0.817   2.368  10.669  0.8979 -0.6755  1.5961
  762MPD2     C11250   1.252   2.189  10.055  0.5380  0.8046 -0.5791
  762MPD2    C111251   1.316   2.138  10.165 -0.4259  0.1790 -0.2817
  762MPD2    C211252   1.450   2.108  10.157  0.2872  0.2430 -0.3486
  762MPD2    C311253   1.523   2.142  10.037 -0.7995 -0.1692  0.1784
  762MPD2    C411254   1.457   2.181   9.923 -0.5790 -0.1637 -0.1644
  762MPD2    C511255   1.327   2.208   9.934 -0.5556 -1.0403 -0.2201
  762MPD2     H11256   1.510   2.083  10.244 -1.2906 -1.5415  0.2227
  762MPD2    H111257   1.505   2.209   9.830 -1.5627 -0.7732 -0.8642
  762MPD2    H211258   1.150   2.224  10.061  0.1690 -0.0078 -2.0452
  762MPD2    H311259   1.280   2.250   9.845 -0.9261 -0.8006  0.0913
  762MPD2     N11260   1.663   2.138  10.041  0.4154  0.1693 -0.1736
  762MPD2    H511261   1.709   2.121  10.130  0.2559 -1.1422 -0.3554
  762MPD2    N111262   1.233   2.120  10.274 -0.3600  0.3889  0.2622
  762MPD2    H711263   1.137   2.147  10.259 -0.6632 -1.0615 -0.4197
  763MPD2     C11264   3.254   2.346  16.134  0.2447  0.7505 -0.2024
  763MPD2    C111265   3.144   2.428  16.153 -0.1518 -0.5064 -0.3231
  763MPD2    C211266   3.148   2.519  16.256  0.2690  0.1823 -0.2540
  763MPD2    C311267   3.259   2.538  16.332  0.3726 -0.5134  0.5644
  763MPD2    C411268   3.368   2.455  16.309  0.3207  0.4414 -0.4090
  763MPD2    C511269   3.357   2.348  16.221 -0.5316  0.7316 -0.6211
  763MPD2     H11270   3.069   2.591  16.270 -0.8728 -0.8799 -1.2870
  763MPD2    H111271   3.452   2.464  16.377  1.2463  0.5093 -1.5809
  763MPD2    H211272   3.268   2.282  16.048 -0.4823  2.1740 -1.3789
  763MPD2    H311273   3.445   2.285  16.212 -0.5185  0.9991 -2.3123
  763MPD2     N11274   3.277   2.627  16.441  0.2430  0.2258  0.0511
  763MPD2    H511275   3.355   2.613  16.503  0.4005 -0.9848 -0.4224
  763MPD2    N111276   3.041   2.426  16.058  0.6758 -0.0269  0.1887
  763MPD2    H711277   2.992   2.514  16.043  2.1465  0.7310 -0.1316
  764MPD2     C11278   0.973   4.366  17.658  0.5955  0.8163  0.0125
  764MPD2    C111279   0.912   4.290  17.560  0.7052  0.8723 -0.2270
  764MPD2    C211280   0.927   4.156  17.560  0.2339  0.3808 -0.0298
  764MPD2    C311281   1.000   4.088  17.657  0.5430 -0.5279  0.1099
  764MPD2    C411282   1.059   4.168   0.062 -0.8165 -0.5897 -0.1880
  764MPD2    C511283   1.044   4.307   0.064  0.4995 -0.4385 -0.0450
  764MPD2     H11284   0.885   4.101  17.477 -3.1071 -0.0790  1.9744
  764MPD2    H111285   1.117   4.122   0.142 -0.3792  0.1551 -0.0783
  764MPD2    H211286   0.973   4.474  17.650  0.0340  0.7780 -0.5092
  764MPD2    H311287   1.084   4.373   0.140 -0.3153 -1.6191  1.4123
  764MPD2     N11288   1.005   3.946  17.658  0.1741  0.2772  0.3225
  764MPD2    H511289   0.950   3.905  17.583  3.6899 -1.3262 -1.4206
  764MPD2    N111290   0.850   4.352  17.448  0.1648 -0.1991  0.5869
  764MPD2    H711291   0.827   4.282  17.379 -1.9381  1.0649  0.0067
  765MPD2     C11292   0.951   2.136  16.169 -0.3079  0.3650 -0.7708
  765MPD2    C111293   0.978   2.202  16.051 -0.9753  0.1345  0.7393
  765MPD2    C211294   1.088   2.155  15.986  0.2489 -0.5642 -0.8783
  765MPD2    C311295   1.150   2.034  16.019 -0.7210 -0.4708  0.0847
  765MPD2    C411296   1.120   1.964  16.136 -0.0668 -0.7465  0.0985
  765MPD2    C511297   1.016   2.017  16.211  0.0214 -0.3482 -0.2977
  765MPD2     H11298   1.118   2.210  15.898  0.8516 -0.1588 -0.4200
  765MPD2    H111299   1.182   1.891  16.188  0.4670 -0.8170 -0.6355
  765MPD2    H211300   0.873   2.185  16.226 -0.1271 -0.3393  0.0761
  765MPD2    H311301   0.973   1.967  16.297 -0.7993  1.0004  0.0864
  765MPD2     N11302   1.265   2.001  15.947  0.1974 -0.3572  0.3472
  765MPD2    H511303   1.302   2.072  15.885  1.2026  0.6943  2.1434
  765MPD2    N111304   0.897   2.309  16.001 -0.1972 -0.1681  0.0928
  765MPD2    H711305   0.816   2.328  16.059  1.0323 -0.1429  1.8278
  766MPD2     C11306   0.236   2.427  15.475  0.4073  0.8464 -0.3269
  766MPD2    C111307   0.366   2.385  15.512 -0.6250  0.0149 -0.4756
  766MPD2    C211308   0.439   2.284  15.444  0.2469  0.1235  0.0775
  766MPD2    C311309   0.375   2.214  15.346  0.1660  0.4855  0.1712
  766MPD2    C411310   0.246   2.260  15.305 -0.1585 -0.1483  0.1722
  766MPD2    C511311   0.181   2.365  15.370  0.6841 -0.0144 -0.3074
  766MPD2     H11312   0.545   2.272  15.465  0.2982  2.0220  0.9798
  766MPD2    H111313   0.190   2.214  15.224  0.1193 -1.3565  0.6647
  766MPD2    H211314   0.188   2.508  15.529 -0.5882 -0.4463  0.7114
  766MPD2    H311315   0.074   2.383  15.359  0.7130  0.0036 -0.5559
  766MPD2     N11316   0.450   2.146  15.244  0.7809  0.5403 -0.3930
  766MPD2    H511317   0.413   2.129  15.151  0.3876  0.5357 -0.2374
  766MPD2    N111318   0.422   2.443  15.631  0.5996  0.3781  0.0844
  766MPD2    H711319   0.369   2.522  15.665  2.2502  1.0705  1.0463
  767MPD2     C11320   4.573   2.459  15.079  0.0462 -0.3504 -0.1343
  767MPD2    C111321   4.697   2.447  15.028 -0.5420 -0.5938  0.3572
  767MPD2    C211322   4.715   2.353  14.926 -0.9922  0.1069 -0.5943
  767MPD2    C311323   4.616   2.265  14.889  0.3582 -0.1626 -0.2270
  767MPD2    C411324   4.492   2.269  14.946 -0.5556  0.2160 -0.1684
  767MPD2    C511325   4.472   2.373  15.031 -0.4602 -0.0876  0.1720
  767MPD2     H11326   0.086   2.339  14.873 -0.0738  1.5047  0.6475
  767MPD2    H111327   4.405   2.217  14.906  1.6212 -2.5563 -1.2568
  767MPD2    H211328   4.537   2.534  15.148 -0.2760  0.3060 -1.0099
  767MPD2    H311329   4.366   2.391  15.048 -0.5194 -1.0222  0.8056
  767MPD2     N11330   4.649   2.174  14.785 -0.3304  0.6504  0.1194
  767MPD2    H511331   0.025   2.171  14.760 -0.2993 -1.0124  0.4018
  767MPD2    N111332   0.079   2.528  15.078  0.4517  0.1509 -0.2063
  767MPD2    H711333   0.047   2.598  15.143  0.3213 -1.1284  1.1208
  768MPD2     C11334   1.539   1.021  10.637  0.2558  0.7128  0.0370
  768MPD2    C111335   1.545   0.939  10.744 -0.4487  0.3138 -0.0474
  768MPD2    C211336   1.646   0.945  10.838 -0.6107 -0.0134  0.6838
  768MPD2    C311337   1.755   1.026  10.814 -0.3771  0.1615  0.1504
  768MPD2    C411338   1.746   1.112  10.708 -0.5682 -0.4146 -0.0794
  768MPD2    C511339   1.645   1.106  10.616  0.4841  1.1366  0.0653
  768MPD2     H11340   1.645   0.877  10.922  1.1874 -2.3833 -1.2512
  768MPD2    H111341   1.832   1.179  10.701 -0.5205 -0.3998  0.7033
  768MPD2    H211342   1.451   1.031  10.575  0.3001 -1.4142 -0.3479
  768MPD2    H311343   1.649   1.169  10.527 -0.9154  0.7770 -0.2465
  768MPD2     N11344   1.860   1.054  10.909 -0.4314 -0.1727  0.1621
  768MPD2    H511345   1.896   1.149  10.900 -1.3249  0.0892 -0.6125
  768MPD2    N111346   1.445   0.844  10.765  0.3453  0.3248 -0.1505
  768MPD2    H711347   1.436   0.817  10.863 -0.0268 -0.0970 -0.3035
  769MPD2     C11348   1.676   3.518  14.658  0.0622  0.7073 -0.6130
  769MPD2    C111349   1.669   3.401  14.735  0.8870  0.3568  0.2296
  769MPD2    C211350   1.706   3.404  14.867  0.2591  0.1198 -0.5029
  769MPD2    C311351   1.761   3.513  14.928 -0.2120  0.1623  0.1773
  769MPD2    C411352   1.771   3.624  14.846 -0.1554  0.2032  0.0103
  769MPD2    C511353   1.733   3.627  14.714  0.0292 -0.7845  0.4081
  769MPD2     H11354   1.691   3.310  14.919 -0.4630 -0.1890 -1.2844
  769MPD2    H111355   1.805   3.715  14.895  1.1673 -1.3337  1.9747
  769MPD2    H211356   1.652   3.524  14.552  0.8024  2.3906 -0.6811
  769MPD2    H311357   1.742   3.714  14.650 -0.9221 -1.4172 -0.5813
  769MPD2     N11358   1.809   3.512  15.058  0.3436  0.1818 -0.3186
  769MPD2    H511359   1.850   3.602  15.082 -0.1560  0.7458 -1.5887
  769MPD2    N111360   1.629   3.280  14.672 -0.5446  0.4668  0.3025
  769MPD2    H711361   1.586   3.292  14.581  4.5239  0.1983 -2.1485
  770MPD2     C11362   1.678   2.229  14.661 -0.1382 -0.1005 -0.6892
  770MPD2    C111363   1.585   2.297  14.738 -0.0001 -0.2165 -0.9037
  770MPD2    C211364   1.568   2.433  14.719  0.2840  0.0280  0.0990
  770MPD2    C311365   1.658   2.499  14.631  0.1373  0.3181 -0.1269
  770MPD2    C411366   1.752   2.428  14.560  0.5693  0.2123 -0.3976
  770MPD2    C511367   1.766   2.291  14.572  0.0821 -0.7032 -0.2164
  770MPD2     H11368   1.490   2.487  14.773  0.0619 -0.1105 -0.0844
  770MPD2    H111369   1.817   2.479  14.489 -1.8027  0.4180 -2.4049
  770MPD2    H211370   1.705   2.125  14.674 -2.4836 -0.3869  1.9840
  770MPD2    H311371   1.831   2.237  14.503  2.0831  0.9857  0.3644
  770MPD2     N11372   1.638   2.641  14.622 -0.0158 -0.4070  0.1216
  770MPD2    H511373   1.573   2.684  14.687 -0.9822 -2.0217  0.2042
  770MPD2    N111374   1.507   2.226  14.829 -0.0236  0.0654 -0.1373
  770MPD2    H711375   1.526   2.128  14.846 -0.2480  0.2056  0.9418
  771MPD2     C11376   2.903   1.056  13.669 -0.2943 -0.3399 -0.2624
  771MPD2    C111377   2.819   1.159  13.634  1.0079  0.0362 -0.9599
  771MPD2    C211378   2.698   1.131  13.588 -0.3925 -0.0081  0.1947
  771MPD2    C311379   2.654   0.997  13.578 -0.4945 -0.3688 -0.7309
  771MPD2    C411380   2.734   0.895  13.632 -0.1152 -0.3723 -0.3546
  771MPD2    C511381   2.857   0.930  13.678 -0.0732 -0.1945  0.1196
  771MPD2     H11382   2.634   1.208  13.547 -1.0042 -0.1290  0.9040
  771MPD2    H111383   2.709   0.790  13.639  1.3193 -0.7157 -0.3749
  771MPD2    H211384   3.003   1.068  13.708 -1.3807  1.2992  2.0516
  771MPD2    H311385   2.921   0.860  13.732 -1.0263 -0.4112  0.9698
  771MPD2     N11386   2.537   0.965  13.501 -0.5158  0.5815 -0.0858
  771MPD2    H511387   2.503   1.036  13.436 -0.3854  0.1979 -0.5706
  771MPD2    N111388   2.865   1.289  13.647  0.1172  0.3643 -0.9559
  771MPD2    H711389   2.804   1.367  13.625  1.6514  0.8239 -3.5560
  772MPD2     C11390   2.648   1.882  13.973  0.1587 -0.5680  0.4099
  772MPD2    C111391   2.625   1.819  13.853 -1.0052 -0.5068 -0.8534
  772MPD2    C211392   2.489   1.805  13.813  0.0741 -0.2794  0.5229
  772MPD2    C311393   2.382   1.855  13.890  0.6264  0.6323  0.1049
  772MPD2    C411394   2.416   1.920  14.006  0.4573  0.1067  0.0020
  772MPD2    C511395   2.548   1.944  14.041  0.7806  0.3547 -0.3242
  772MPD2     H11396   2.463   1.745  13.727  1.0371 -1.2479  0.9110
  772MPD2    H111397   2.343   1.962  14.074 -1.9961 -5.0107  0.5087
  772MPD2    H211398   2.746   1.884  14.020  1.6535 -1.7739 -2.6846
  772MPD2    H311399   2.572   2.002  14.129 -1.2105  1.6549 -0.6269
  772MPD2     N11400   2.243   1.830  13.862  0.0184  0.2171  0.8858
  772MPD2    H511401   2.186   1.858  13.942  0.4077  2.6440  0.3184
  772MPD2    N111402   2.723   1.740  13.790  0.2679  0.4926 -0.6013
  772MPD2    H711403   2.695   1.685  13.710  3.4784  3.1203 -3.4971
  773MPD2     C11404   1.592   3.088   0.708 -0.0897  0.6103  0.1626
  773MPD2    C111405   1.568   2.994   0.612  0.0179  0.2701  0.2673
  773MPD2    C211406   1.641   2.876   0.618 -0.0749  0.5329 -0.1308
  773MPD2    C311407   1.740   2.849   0.716 -0.1194 -0.0014  0.3409
  773MPD2    C411408   1.734   2.935   0.825 -0.1800  0.7755 -0.2248
  773MPD2    C511409   1.667   3.055   0.815 -0.3400  0.4489 -0.5560
  773MPD2     H11410   1.630   2.802   0.540  0.9006 -1.1387  1.3178
  773MPD2    H111411   1.792   2.923   0.916 -1.1914  0.7376  0.4097
  773MPD2    H211412   1.555   3.189   0.699 -2.4627 -0.1867  0.7424
  773MPD2    H311413   1.677   3.131   0.891  0.5912  0.8436 -1.0735
  773MPD2     N11414   1.825   2.738   0.696  0.1532  0.1612 -0.2161
  773MPD2    H511415   1.809   2.686   0.611 -1.5946  0.5598 -0.1334
  773MPD2    N111416   1.504   3.020   0.489  0.2557 -0.9157  0.1579
  773MPD2    H711417   1.485   2.939   0.430  1.8383 -2.2938  1.5134
  774MPD2     C11418   0.849   1.630  13.145 -0.0111  0.1117 -0.3619
  774MPD2    C111419   0.876   1.669  13.275 -0.1749 -0.2916 -0.4964
  774MPD2    C211420   0.919   1.793  13.301 -0.4056 -0.3064 -1.2686
  774MPD2    C311421   0.964   1.866  13.192 -0.6699 -1.0634  0.0884
  774MPD2    C411422   0.937   1.825  13.064 -0.5439 -0.2308  0.5154
  774MPD2    C511423   0.879   1.710  13.040  0.5901  0.2276 -0.4236
  774MPD2     H11424   0.928   1.833  13.401  2.5415  2.5524 -2.6800
  774MPD2    H111425   0.972   1.888  12.983 -3.0999 -2.5264 -2.3670
  774MPD2    H211426   0.788   1.545  13.117 -0.7378  0.9421 -1.3317
  774MPD2    H311427   0.862   1.678  12.938 -0.6510  0.2795 -0.2379
  774MPD2     N11428   1.041   1.978  13.226  0.4878 -0.3919  0.0526
  774MPD2    H511429   1.046   1.996  13.326 -1.3169 -3.0658  0.6293
  774MPD2    N111430   0.842   1.576  13.374 -0.9988  0.3083  0.0582
  774MPD2    H711431   0.805   1.486  13.344  0.6371  0.2664 -1.8359
  775MPD2     C11432   2.257   3.225  15.687  0.4792  0.2299  0.2009
  775MPD2    C111433   2.213   3.352  15.734 -0.1250 -0.1275 -0.3514
  775MPD2    C211434   2.272   3.473  15.689  0.1689 -0.1702  0.4615
  775MPD2    C311435   2.373   3.469  15.595  0.0950  0.2598  0.6075
  775MPD2    C411436   2.419   3.343  15.559  0.4612  0.4098  0.0589
  775MPD2    C511437   2.369   3.225  15.602  0.2512 -0.3255  0.7704
  775MPD2     H11438   2.224   3.561  15.729 -0.0704 -0.1189  0.0603
  775MPD2    H111439   2.506   3.335  15.495 -0.6510 -2.0115 -1.1336
  775MPD2    H211440   2.222   3.126  15.713 -0.4784  0.4223 -0.3654
  775MPD2    H311441   2.415   3.130  15.579  1.3265 -0.8191  4.8783
  775MPD2     N11442   2.450   3.585  15.551 -0.5143 -0.1356 -0.0289
  775MPD2    H511443   2.529   3.574  15.489 -0.4387 -0.1462  0.0701
  775MPD2    N111444   2.113   3.353  15.827  0.6555  0.2195  0.8404
  775MPD2    H711445   2.096   3.262  15.867 -1.2914 -0.1776 -0.8767
  776MPD2     C11446   1.732   3.679  11.869  0.0162  0.3088 -0.4865
  776MPD2    C111447   1.624   3.766  11.855 -0.2071  0.5122  0.4692
  776MPD2    C211448   1.634   3.906  11.873  1.3196  0.6890  1.0885
  776MPD2    C311449   1.756   3.963  11.909  0.3992  0.2884  0.0961
  776MPD2    C411450   1.857   3.876  11.947  0.0928 -0.2823 -0.2379
  776MPD2    C511451   1.847   3.740  11.926 -0.6945  0.3097  0.3721
  776MPD2     H11452   1.555   3.976  11.849  1.4688 -0.0671 -1.6514
  776MPD2    H111453   1.951   3.913  11.986  1.3956 -1.3366 -2.3838
  776MPD2    H211454   1.728   3.575  11.840 -1.5850  0.5705 -1.1898
  776MPD2    H311455   1.928   3.676  11.958  0.9549  1.9665 -0.5211
  776MPD2     N11456   1.783   4.102  11.922  0.7972  0.1935 -0.6967
  776MPD2    H511457   1.872   4.127  11.963  0.7675 -0.6307 -0.1264
  776MPD2    N111458   1.506   3.700  11.800 -0.4471 -0.1270  0.0010
  776MPD2    H711459   1.516   3.612  11.749 -0.0004 -0.4032  0.5687
  777MPD2     C11460   1.617   1.759   1.064 -0.3179 -0.1332 -0.2933
  777MPD2    C111461   1.692   1.652   1.115  0.7684  0.1639  0.0203
  777MPD2    C211462   1.724   1.542   1.036 -1.3211 -0.3802  0.8302
  777MPD2    C311463   1.677   1.533   0.903  0.0094 -0.7370 -0.8481
  777MPD2    C411464   1.588   1.630   0.858 -0.4489  0.2274  0.3140
  777MPD2    C511465   1.568   1.739   0.939 -0.7146 -0.0593  0.0634
  777MPD2     H11466   1.796   1.471   1.074  0.4607  1.6041  1.1261
  777MPD2    H111467   1.525   1.615   0.771  0.0763 -1.2040  0.1842
  777MPD2    H211468   1.581   1.845   1.119 -0.0613 -1.1294  1.4310
  777MPD2    H311469   1.493   1.805   0.897 -2.0483 -1.5187  0.1332
  777MPD2     N11470   1.703   1.413   0.823 -0.2589 -0.4845 -0.3655
  777MPD2    H511471   1.744   1.325   0.853  0.4315 -0.7869 -2.1390
  777MPD2    N111472   1.738   1.677   1.245  0.3582  0.6376 -0.3785
  777MPD2    H711473   1.705   1.766   1.281  0.8552  1.2594 -1.4788
  778MPD2     C11474   2.595   1.026  15.104  0.1294  0.2756  0.6099
  778MPD2    C111475   2.535   1.032  14.982  0.6183  0.1322  0.2550
  778MPD2    C211476   2.597   1.122  14.892  0.1262  0.0186 -0.5451
  778MPD2    C311477   2.698   1.216  14.926 -0.2673 -0.5439 -0.1693
  778MPD2    C411478   2.751   1.207  15.052  0.3839  0.2389 -0.4228
  778MPD2    C511479   2.702   1.112  15.136  0.3049 -0.3283 -0.2414
  778MPD2     H11480   2.560   1.121  14.790 -1.0717 -0.2387 -0.0981
  778MPD2    H111481   2.845   1.254  15.079  1.0546 -1.3349 -0.0312
  778MPD2    H211482   2.560   0.959  15.181 -1.7417 -0.6383 -1.0167
  778MPD2    H311483   2.740   1.100  15.237  0.5685 -0.2157 -0.3262
  778MPD2     N11484   2.738   1.309  14.830  0.1657  0.2964  0.2047
  778MPD2    H511485   2.704   1.308  14.734  2.8984  1.4575 -0.7642
  778MPD2    N111486   2.422   0.947  14.954  0.1621 -0.5161  0.7938
  778MPD2    H711487   2.389   0.939  14.858  1.5711 -1.3848  0.3860
  779MPD2     C11488   2.497   0.276  13.790  1.0590  0.0740 -0.0943
  779MPD2    C111489   2.536   0.255  13.915  0.7070 -0.1795 -0.6803
  779MPD2    C211490   2.608   0.355  13.981 -0.5428  0.3452 -0.1840
  779MPD2    C311491   2.613   0.479  13.921  0.0451  0.2175  0.3011
  779MPD2    C411492   2.550   0.502  13.798 -0.2843  0.4714 -0.3003
  779MPD2    C511493   2.497   0.398  13.727  0.2683 -0.7289 -0.4522
  779MPD2     H11494   2.657   0.331  14.074 -0.9961 -2.2745 -0.6233
  779MPD2    H111495   2.549   0.601  13.753 -1.5032  1.4728  1.9379
  779MPD2    H211496   2.451   0.191  13.740 -0.1660  1.5166 -1.4017
  779MPD2    H311497   2.461   0.421  13.627  0.0365  1.9027  0.2413
  779MPD2     N11498   2.663   0.582  14.001 -0.7462  0.1462  0.2427
  779MPD2    H511499   2.704   0.563  14.092 -0.4883  1.0517  0.3128
  779MPD2    N111500   2.507   0.134  13.980  0.4626 -0.0861  0.4786
  779MPD2    H711501   2.553   0.116  14.068 -0.0312 -2.0351  0.3331
  780MPD2     C11502   0.888   0.362   0.349  0.6765 -0.3421  0.1678
  780MPD2    C111503   0.974   0.266   0.397  0.5684 -0.1212  0.7118
  780MPD2    C211504   1.096   0.252   0.334  0.6273 -0.3838  0.0504
  780MPD2    C311505   1.146   0.341   0.243 -0.5057  1.1846  0.1026
  780MPD2    C411506   1.064   0.444   0.202  0.0782 -0.5522 -0.2900
  780MPD2    C511507   0.934   0.443   0.252 -0.2492 -0.3817 -0.5752
  780MPD2     H11508   1.157   0.162   0.340 -0.6377 -1.0945  2.0899
  780MPD2    H111509   1.084   0.519   0.126  1.1971 -0.6879 -0.1283
  780MPD2    H211510   0.791   0.374   0.396  1.2833 -0.6178  1.4873
  780MPD2    H311511   0.863   0.520   0.226  1.1252  0.5268 -1.6953
  780MPD2     N11512   1.277   0.316   0.194  0.3047  0.3555  0.3169
  780MPD2    H511513   1.311   0.223   0.216 -0.5082 -0.4928 -1.9485
  780MPD2    N111514   0.928   0.178   0.504 -0.0165  0.0433  0.1540
  780MPD2    H711515   0.836   0.192   0.543 -1.1839  1.1402 -2.9532
  781MPD2     C11516   3.712   2.525  11.855 -0.4034  0.3779 -0.3983
  781MPD2    C111517   3.821   2.443  11.889 -0.8240 -0.0417 -0.5137
  781MPD2    C211518   3.929   2.444  11.803 -0.3713 -0.4130 -0.0402
  781MPD2    C311519   3.937   2.522  11.699 -0.2910 -0.4471  0.2847
  781MPD2    C411520   3.829   2.596  11.668 -0.1195 -0.4202  0.3006
  781MPD2    C511521   3.715   2.592  11.740  0.2335 -0.2659 -0.2637
  781MPD2     H11522   4.012   2.377  11.824  0.1653  0.7887  1.7455
  781MPD2    H111523   3.834   2.663  11.583 -1.5450 -0.3724  0.2469
  781MPD2    H211524   3.629   2.541  11.923 -1.5751 -0.7085 -1.5594
  781MPD2    H311525   3.636   2.661  11.712  0.7897  0.5738  0.2364
  781MPD2     N11526   4.045   2.517  11.607  0.6574  0.1533 -0.0213
  781MPD2    H511527   4.045   2.588  11.535 -1.8524 -2.5178 -2.6135
  781MPD2    N111528   3.834   2.363  12.002  0.2101  1.0573 -0.0042
  781MPD2    H711529   3.925   2.323  12.023 -0.2308  0.5379  0.9133
  782MPD2     C11530   1.710   3.860  10.585 -0.4031  0.1454  0.2294
  782MPD2    C111531   1.835   3.819  10.582 -0.2038  0.1606 -0.7384
  782MPD2    C211532   1.893   3.786  10.706  0.4883  0.6001  0.1248
  782MPD2    C311533   1.830   3.817  10.824 -0.2113 -0.2888 -0.0243
  782MPD2    C411534   1.707   3.865  10.823 -0.2939 -0.1575 -0.5966
  782MPD2    C511535   1.644   3.892  10.706 -0.2517  0.5813  0.1051
  782MPD2     H11536   1.997   3.755  10.715  0.1625 -0.3271  0.6413
  782MPD2    H111537   1.650   3.899  10.909  0.0175 -1.1665  0.0079
  782MPD2    H211538   1.676   3.885  10.484  0.4621 -0.8432 -0.3046
  782MPD2    H311539   1.545   3.935  10.709 -0.7139 -0.4997  0.5512
  782MPD2     N11540   1.896   3.792  10.946 -0.0437  0.9768 -0.0934
  782MPD2    H511541   1.996   3.780  10.934 -0.0387  1.8221 -0.8855
  782MPD2    N111542   1.889   3.797  10.454  0.0301  0.3293  0.5280
  782MPD2    H711543   1.836   3.804  10.368 -0.2414 -0.3603  0.6395
  783MPD2     C11544   1.612   3.029  10.281  0.3754  0.3726  0.0269
  783MPD2    C111545   1.588   3.144  10.353  0.3841 -0.5065 -0.4730
  783MPD2    C211546   1.655   3.259  10.324 -0.2260 -0.1662  0.2260
  783MPD2    C311547   1.752   3.266  10.227 -0.2063  0.3545 -0.1506
  783MPD2    C411548   1.783   3.148  10.159  0.3734 -0.1335 -0.6740
  783MPD2    C511549   1.712   3.033  10.181 -0.5742 -0.5051  0.3648
  783MPD2     H11550   1.629   3.355  10.366 -1.5221 -0.0378 -0.8433
  783MPD2    H111551   1.856   3.152  10.079  0.5777 -0.4695 -0.5068
  783MPD2    H211552   1.547   2.943  10.293 -0.4593  0.6795 -2.1522
  783MPD2    H311553   1.738   2.944  10.124  1.0114  1.1258 -1.4740
  783MPD2     N11554   1.820   3.389  10.198 -0.8806  0.6378 -0.0490
  783MPD2    H511555   1.789   3.469  10.251 -1.0557 -0.0771  0.9240
  783MPD2    N111556   1.492   3.127  10.455 -0.6352  0.4770  0.5724
  783MPD2    H711557   1.452   3.034  10.457  2.8753 -1.0701 -0.0174
  784MPD2     C11558   4.273   2.616   0.902  0.2066  0.6781  0.1609
  784MPD2    C111559   4.334   2.714   0.975 -0.5910  0.5172  0.2201
  784MPD2    C211560   4.278   2.838   0.985 -0.1706  0.1056 -0.7173
  784MPD2    C311561   4.149   2.852   0.942 -1.1230  0.2111  0.6976
  784MPD2    C411562   4.084   2.756   0.873 -0.0603 -0.1494  0.2246
  784MPD2    C511563   4.149   2.637   0.843  0.1172 -0.4611  0.6937
  784MPD2     H11564   4.329   2.920   1.035  0.4250 -0.3033 -0.6566
  784MPD2    H111565   3.983   2.765   0.834  0.1887 -1.2759 -0.6800
  784MPD2    H211566   4.319   2.520   0.882  1.3324  1.5027 -1.2155
  784MPD2    H311567   4.102   2.559   0.785 -0.9471 -0.7410  1.9316
  784MPD2     N11568   4.099   2.980   0.961  0.0612  0.1507 -0.3348
  784MPD2    H511569   4.164   3.054   0.985  1.9549 -2.3740  2.3941
  784MPD2    N111570   4.461   2.694   1.026 -0.0528  0.0027  0.3561
  784MPD2    H711571   4.506   2.766   1.082 -2.1841  1.5563  0.0924
  785MPD2     C11572   0.194   1.164   9.799 -0.0264  0.0179 -0.8371
  785MPD2    C111573   0.073   1.155   9.864  0.5035 -0.1968 -0.1927
  785MPD2    C211574   4.678   1.164   9.780 -0.2786 -0.4390  0.0193
  785MPD2    C311575   4.691   1.194   9.649 -0.0447  1.3441  0.8010
  785MPD2    C411576   0.089   1.188   9.588  1.0273 -0.2250 -1.1057
  785MPD2    C511577   0.197   1.164   9.666 -0.9651 -0.6960 -0.1921
  785MPD2     H11578   4.577   1.169   9.818  0.0362  1.1747  0.6545
  785MPD2    H111579   0.104   1.199   9.481  0.4932  0.4189 -1.1095
  785MPD2    H211580   0.290   1.148   9.846 -0.7730 -3.3730 -0.4995
  785MPD2    H311581   0.299   1.163   9.627 -0.8598 -0.0115  0.0634
  785MPD2     N11582   4.570   1.219   9.577 -0.1188 -0.9613  0.0658
  785MPD2    H511583   4.483   1.219   9.630  0.9887 -0.8430  1.8952
  785MPD2    N111584   0.072   1.143  10.007 -0.7061  0.4696  0.4071
  785MPD2    H711585   0.155   1.128  10.064 -0.9703 -2.6737 -0.0457
  786MPD2     C11586   2.807   4.320  14.839 -0.5646  0.4582 -0.0228
  786MPD2    C111587   2.936   4.349  14.784 -0.6921  0.0358  0.2048
  786MPD2    C211588   3.028   4.424  14.862  0.5501 -0.2673  0.0753
  786MPD2    C311589   3.000   4.436  14.995 -0.3245 -0.0001  0.4275
  786MPD2    C411590   2.878   4.399  15.047  0.3911 -0.2565 -0.0876
  786MPD2    C511591   2.773   4.354  14.969 -1.0183  0.1859  0.1036
  786MPD2     H11592   3.127   4.447  14.823  0.6053 -1.8446 -0.7264
  786MPD2    H111593   2.867   4.417  15.153  0.8435  1.4060 -0.3195
  786MPD2    H211594   2.726   4.269  14.789 -0.2863 -1.0656  1.0655
  786MPD2    H311595   2.682   4.322  15.018 -0.8201 -0.0542  0.3166
  786MPD2     N11596   3.079   4.505  15.088  0.3910  0.0686 -0.1174
  786MPD2    H511597   3.047   4.486  15.182  0.3388 -2.8944 -0.7320
  786MPD2    N111598   2.980   4.294  14.657  0.8345 -0.1567 -0.2728
  786MPD2    H711599   3.079   4.299  14.633  0.6980  0.4551 -0.6800
  787MPD2     C11600   3.349   3.969  14.828 -0.2878 -0.1728 -0.6729
  787MPD2    C111601   3.361   3.918  14.703  0.1377 -0.2456  0.3540
  787MPD2    C211602   3.411   3.792  14.696  0.2433 -0.1443  0.3482
  787MPD2    C311603   3.473   3.729  14.796  0.1293 -0.4354  0.2642
  787MPD2    C411604   3.468   3.787  14.916 -0.3619 -0.1157  0.1320
  787MPD2    C511605   3.396   3.898  14.930  0.7061  0.1596  0.0474
  787MPD2     H11606   3.413   3.732  14.605  1.5051 -1.4558  1.2456
  787MPD2    H111607   3.514   3.746  15.005  0.6590 -0.1394 -0.4126
  787MPD2    H211608   3.294   4.058  14.857 -0.3565 -0.4532  0.0433
  787MPD2    H311609   3.374   3.930  15.032  2.7615  3.1748 -0.4610
  787MPD2     N11610   3.538   3.609  14.776  0.1092 -0.3147 -0.7170
  787MPD2    H511611   3.562   3.589  14.680  1.5790 -0.6028 -0.2855
  787MPD2    N111612   3.293   3.980  14.602  0.1260 -0.5199  0.3964
  787MPD2    H711613   3.254   4.071  14.623  1.3082 -0.0260  0.4283
  788MPD2     C11614   0.336   2.606   0.965 -0.0390 -0.2302 -1.2827
  788MPD2    C111615   0.239   2.546   0.880 -0.1619 -0.3563 -0.4154
  788MPD2    C211616   0.139   2.616   0.824  0.0150  0.2493  0.0423
  788MPD2    C311617   0.115   2.749   0.848 -0.0067 -0.4741  0.0428
  788MPD2    C411618   0.196   2.810   0.944  0.5206 -0.1046  0.4275
  788MPD2    C511619   0.307   2.743   0.997 -0.4439  0.2290 -0.6005
  788MPD2     H11620   0.064   2.561   0.768 -1.3231  1.6810  0.4241
  788MPD2    H111621   0.187   2.917   0.960 -0.3575 -0.1694  0.3978
  788MPD2    H211622   0.416   2.558   1.019 -1.9353 -1.8684  0.0700
  788MPD2    H311623   0.370   2.789   1.072 -1.1788 -1.4038  1.0215
  788MPD2     N11624   0.004   2.821   0.800 -0.0017 -0.4505 -0.0761
  788MPD2    H511625   4.714   2.915   0.834  0.7731 -0.1828 -0.5258
  788MPD2    N111626   0.226   2.405   0.865 -1.1745  0.7127 -0.3035
  788MPD2    H711627   0.154   2.365   0.806 -0.2257  0.0533 -1.0173
  789MPD2     C11628   0.449   2.556  16.432 -0.2787 -1.3497 -0.2524
  789MPD2    C111629   0.397   2.467  16.527  0.2878  0.8762  0.2209
  789MPD2    C211630   0.279   2.497  16.595  0.3366 -0.2924  0.5219
  789MPD2    C311631   0.209   2.612  16.563  0.0661 -0.3705  0.5041
  789MPD2    C411632   0.253   2.691  16.458 -0.6391 -0.7708 -0.0869
  789MPD2    C511633   0.369   2.661  16.393  0.3875  0.3844 -0.4316
  789MPD2     H11634   0.246   2.432  16.675 -0.3273  0.8228  1.1549
  789MPD2    H111635   0.195   2.775  16.423 -1.0342 -0.9230  0.1948
  789MPD2    H211636   0.547   2.541  16.389 -0.4630 -0.1882 -1.0680
  789MPD2    H311637   0.404   2.724  16.312 -0.6470  1.1144 -0.3047
  789MPD2     N11638   0.095   2.659  16.637  0.0918  0.2844  0.1815
  789MPD2    H511639   0.047   2.736  16.592 -0.8531 -0.2459  0.2934
  789MPD2    N111640   0.462   2.343  16.562 -0.5457  0.0357  0.5223
  789MPD2    H711641   0.423   2.282  16.633  0.3594  1.3209  2.1218
  790MPD2     C11642   1.671   4.034  13.706 -0.0811  0.2674  1.0375
  790MPD2    C111643   1.572   3.943  13.685  0.5294  0.2653  0.6320
  790MPD2    C211644   1.528   3.912  13.560  0.2377  0.2596 -0.2053
  790MPD2    C311645   1.588   3.974  13.453  0.4088  0.4550  0.1512
  790MPD2    C411646   1.680   4.077  13.473  0.6161  0.1726 -0.3595
  790MPD2    C511647   1.724   4.108  13.598 -0.0732 -0.3193  1.1089
  790MPD2     H11648   1.446   3.843  13.543 -0.3252  0.2910  2.2961
  790MPD2    H111649   1.725   4.132  13.391 -0.4482 -0.1015 -1.1194
  790MPD2    H211650   1.702   4.048  13.809 -1.6402  0.5401  1.4626
  790MPD2    H311651   1.802   4.181  13.607  1.8979 -2.8442  4.4923
  790MPD2     N11652   1.551   3.926  13.325  0.6860  0.4632 -0.5704
  790MPD2    H511653   1.464   3.876  13.313  1.1436 -0.0302 -1.8971
  790MPD2    N111654   1.531   3.876  13.803 -0.6042  0.3939  0.1140
  790MPD2    H711655   1.567   3.891  13.897 -0.9132  1.9814 -0.0113
  791MPD2     C11656   0.978   3.835  13.215  0.0763  0.2455  0.2231
  791MPD2    C111657   1.031   3.814  13.086 -1.0188 -0.3509 -0.1066
  791MPD2    C211658   0.949   3.762  12.986 -0.7752  0.6908  0.0343
  791MPD2    C311659   0.818   3.750  13.014 -0.0143 -0.7027 -0.9131
  791MPD2    C411660   0.768   3.785  13.136 -0.5013 -0.0401 -0.7452
  791MPD2    C511661   0.847   3.821  13.242  0.3316  0.0961  0.6535
  791MPD2     H11662   0.986   3.717  12.894 -0.6491 -0.5628  0.6920
  791MPD2    H111663   0.663   3.770  13.161 -0.7053  0.5595 -1.2316
  791MPD2    H211664   1.035   3.889  13.290  1.1058  0.8941 -1.0285
  791MPD2    H311665   0.798   3.845  13.336 -2.1654  0.4958 -0.7564
  791MPD2     N11666   0.733   3.695  12.916 -0.0794 -0.2174  0.0500
  791MPD2    H511667   0.771   3.685  12.822  0.0391  1.7191 -0.1257
  791MPD2    N111668   1.166   3.824  13.071  0.0983 -0.0328 -0.4521
  791MPD2    H711669   1.220   3.858  13.150 -0.0408 -1.2695  0.1649
  792MPD2     C11670   1.831   4.337  11.483  0.2677 -0.1203  0.3163
  792MPD2    C111671   1.783   4.411  11.379 -0.2406 -0.0708  0.4661
  792MPD2    C211672   1.652   4.459  11.380 -0.4939  0.1741  0.4483
  792MPD2    C311673   1.569   4.429  11.487  0.2683 -0.2423 -0.2858
  792MPD2    C411674   1.617   4.349  11.582 -0.1912  0.2488  0.9527
  792MPD2    C511675   1.744   4.303  11.587  0.5163  0.7063  0.4272
  792MPD2     H11676   1.616   4.518  11.297  3.0790  0.6779 -0.7460
  792MPD2    H111677   1.551   4.306  11.657 -0.2408 -0.9838  0.2115
  792MPD2    H211678   1.935   4.307  11.480 -0.3177 -1.9906 -0.8847
  792MPD2    H311679   1.775   4.244  11.672 -2.5903  0.9526  1.7523
  792MPD2     N11680   1.431   4.455  11.497 -0.2065  0.3770 -0.1564
  792MPD2    H511681   1.383   4.424  11.581 -0.3744 -0.7525 -0.6652
  792MPD2    N111682   1.872   4.429  11.274 -0.1498  0.3758 -0.5050
  792MPD2    H711683   1.963   4.385  11.286 -0.4681 -0.3959 -0.8660
  793MPD2     C11684   1.117   4.359  10.658  0.7086  0.3145  0.2899
  793MPD2    C111685   1.237   4.392  10.725  0.5613 -0.1230  0.5118
  793MPD2    C211686   1.217   4.438  10.854  0.2104 -0.1967 -0.0838
  793MPD2    C311687   1.095   4.465  10.909  0.6536 -0.1818 -0.2196
  793MPD2    C411688   0.982   4.449  10.830 -0.3791 -0.4026 -0.0334
  793MPD2    C511689   0.986   4.389  10.708 -0.2510  0.0862 -0.0611
  793MPD2     H11690   1.298   4.448  10.926  0.1999 -0.2719 -0.0611
  793MPD2    H111691   0.892   4.490  10.874 -1.6155 -1.4286 -1.6377
  793MPD2    H211692   1.118   4.339  10.552 -0.1354  0.6738  0.2153
  793MPD2    H311693   0.899   4.382  10.644 -0.5121 -0.5927  0.3699
  793MPD2     N11694   1.096   4.497  11.047 -0.2153  0.2916  0.0259
  793MPD2    H511695   1.185   4.511  11.094  0.2549 -3.3109  0.1641
  793MPD2    N111696   1.369   4.376  10.678  0.5227  0.0343  0.4659
  793MPD2    H711697   1.445   4.409  10.736  1.7129 -1.7677 -0.0685
  794MPD2     C11698   1.331   3.532  17.495  0.8498  0.3156 -0.2377
  794MPD2    C111699   1.262   3.411  17.488 -0.0950  0.2999  0.0518
  794MPD2    C211700   1.173   3.389  17.382  0.1209  0.2851  0.2949
  794MPD2    C311701   1.145   3.495  17.296  1.1494  0.1858  0.4312
  794MPD2    C411702   1.213   3.611  17.309  0.5993 -0.5586 -0.2856
  794MPD2    C511703   1.308   3.626  17.403 -0.5543 -0.5630  0.5093
  794MPD2     H11704   1.126   3.293  17.369  0.2923  0.1431  0.6944
  794MPD2    H111705   1.202   3.703  17.252 -1.4462 -0.9489 -0.5175
  794MPD2    H211706   1.397   3.546  17.580  1.1105 -1.1777 -0.2008
  794MPD2    H311707   1.352   3.723  17.421  0.0254 -0.7228 -0.0492
  794MPD2     N11708   1.055   3.499  17.187 -0.1264 -0.2079 -0.2219
  794MPD2    H511709   1.030   3.587  17.144 -1.2842  0.7192  2.3360
  794MPD2    N111710   1.275   3.318  17.595  0.8087  0.2570  0.1205
  794MPD2    H711711   1.219   3.233  17.585 -0.3559  1.0175  0.2265
  795MPD2     C11712   3.675   0.666  13.530  0.1374  0.2064 -0.2246
  795MPD2    C111713   3.636   0.555  13.602 -0.1248 -0.5050  0.5010
  795MPD2    C211714   3.723   0.448  13.610  0.0429 -0.4539  0.2368
  795MPD2    C311715   3.853   0.458  13.563  0.6918 -0.0704 -0.0072
  795MPD2    C411716   3.896   0.578  13.512  0.0306 -0.4742 -0.9024
  795MPD2    C511717   3.801   0.676  13.484 -0.3516  0.6608  0.3854
  795MPD2     H11718   3.688   0.355  13.654 -0.5881 -1.5447 -2.5510
  795MPD2    H111719   3.995   0.599  13.472  0.2965 -0.0621 -0.0265
  795MPD2    H211720   3.622   0.760  13.516 -2.3913 -1.0633  0.7750
  795MPD2    H311721   3.813   0.766  13.425 -0.8341  1.7355  1.9407
  795MPD2     N11722   3.948   0.349  13.566 -0.3513 -0.2747 -0.4407
  795MPD2    H511723   4.037   0.366  13.520 -1.2033  3.2568 -0.7757
  795MPD2    N111724   3.502   0.533  13.651  0.4305 -0.0885 -0.0204
  795MPD2    H711725   3.495   0.444  13.698  0.8126  0.1324  0.4523
  796MPD2     C11726   3.391   2.077  15.718  0.0033  0.4844 -0.3505
  796MPD2    C111727   3.523   2.118  15.723 -0.2185  0.3130 -0.1219
  796MPD2    C211728   3.551   2.255  15.760  0.8428  0.3112  0.4062
  796MPD2    C311729   3.442   2.335  15.791 -0.3444  0.0571  0.5407
  796MPD2    C411730   3.312   2.283  15.782  0.2338 -1.3722 -0.4160
  796MPD2    C511731   3.288   2.158  15.751 -0.5237 -0.3161  0.7100
  796MPD2     H11732   3.650   2.297  15.771  0.5833  0.9775  0.2062
  796MPD2    H111733   3.225   2.343  15.807  1.9302  1.7547 -2.0110
  796MPD2    H211734   3.373   1.973  15.694  1.9986 -0.3224  1.7052
  796MPD2    H311735   3.195   2.102  15.749 -1.0541  0.5733  0.1316
  796MPD2     N11736   3.471   2.461  15.841  0.2304 -0.3286 -0.0397
  796MPD2    H511737   3.566   2.481  15.871  0.0032 -1.9891  1.7730
  796MPD2    N111738   3.621   2.023  15.698 -0.3092 -0.6635  1.0241
  796MPD2    H711739   3.589   1.928  15.684  1.7532 -1.2714  0.3978
  797MPD2     C11740   4.095   1.533  17.164 -0.4047 -0.2112  0.2963
  797MPD2    C111741   4.147   1.661  17.152 -0.6113 -0.0728  0.3049
  797MPD2    C211742   4.118   1.743  17.046 -0.5313 -0.0114  0.4352
  797MPD2    C311743   4.019   1.705  16.965 -0.7723 -0.5170 -0.1157
  797MPD2    C411744   3.954   1.587  16.981 -0.4780  1.0632  0.0970
  797MPD2    C511745   3.998   1.499  17.075  0.2234  0.0276  0.6596
  797MPD2     H11746   4.149   1.847  17.047 -1.0029  0.1465 -1.3926
  797MPD2    H111747   3.880   1.561  16.906  2.2325  0.7254 -2.4827
  797MPD2    H211748   4.120   1.455  17.234  3.4932  1.7204  1.0892
  797MPD2    H311749   3.945   1.404  17.080 -2.9458  1.8554  2.0347
  797MPD2     N11750   3.975   1.807  16.873  0.7941  0.8272 -0.1781
  797MPD2    H511751   4.040   1.883  16.857  2.2298 -0.4341 -0.3164
  797MPD2    N111752   4.232   1.716  17.251  0.3174  0.1887 -0.3551
  797MPD2    H711753   4.260   1.813  17.257 -0.3776  0.2573  2.1190
  798MPD2     C11754   3.787   2.223  17.340  0.0376  0.2273 -0.0651
  798MPD2    C111755   3.871   2.206  17.232  0.2188 -0.3401  0.6415
  798MPD2    C211756   3.999   2.176  17.256  0.0208 -0.3125 -0.2758
  798MPD2    C311757   4.052   2.159  17.383 -0.7805 -1.1631 -0.4481
  798MPD2    C411758   3.970   2.183  17.490 -0.7080  0.1550  0.2287
  798MPD2    C511759   3.836   2.220  17.467 -0.0328 -0.3646 -0.5278
  798MPD2     H11760   4.058   2.145  17.171 -1.5108  0.0096 -1.4642
  798MPD2    H111761   3.996   2.172  17.595  0.3656  2.0880  0.1570
  798MPD2    H211762   3.682   2.253  17.342 -0.3109 -1.0079 -0.2266
  798MPD2    H311763   3.766   2.241  17.547  0.2811  0.0913 -0.3754
  798MPD2     N11764   4.179   2.102  17.400  0.0382  0.6131 -0.6303
  798MPD2    H511765   4.219   2.065  17.315  0.5452 -0.2611 -0.0052
  798MPD2    N111766   3.820   2.213  17.100  0.3072  0.1952  0.0398
  798MPD2    H711767   3.722   2.198  17.077  0.0204  1.5553  0.4129
  799MPD2     C11768   3.232   3.348  14.835 -0.4157 -0.8236 -0.2567
  799MPD2    C111769   3.167   3.272  14.736  0.2448 -0.6235 -0.2130
  799MPD2    C211770   3.112   3.335  14.625  0.1876 -0.2834 -0.0128
  799MPD2    C311771   3.120   3.474  14.601 -0.4934 -0.2197  0.1612
  799MPD2    C411772   3.189   3.544  14.702  0.2117  0.0341 -1.1985
  799MPD2    C511773   3.235   3.484  14.811 -0.0093  0.2081 -0.2454
  799MPD2     H11774   3.077   3.275  14.542  2.2350 -1.6760  0.1229
  799MPD2    H111775   3.202   3.651  14.697 -1.9929  0.3559 -0.2943
  799MPD2    H211776   3.284   3.311  14.922  1.9422  1.7157 -0.5610
  799MPD2    H311777   3.296   3.539  14.882 -0.2856 -0.6236  0.6271
  799MPD2     N11778   3.071   3.552  14.488 -0.4629  0.1359 -1.1363
  799MPD2    H511779   3.097   3.650  14.480  0.9211  0.0362  2.0980
  799MPD2    N111780   3.171   3.133  14.736  0.0291  0.7070 -0.3964
  799MPD2    H711781   3.107   3.085  14.673 -0.4730  1.2178 -0.2768
  800MPD2     C11782   3.616   3.970  13.582 -0.2241  0.8350 -0.5592
  800MPD2    C111783   3.757   3.968  13.579 -0.6222  0.6632  0.1673
  800MPD2    C211784   3.817   3.919  13.462 -0.4048 -1.5373 -0.2022
  800MPD2    C311785   3.740   3.879  13.354 -0.0712  0.4414  0.0306
  800MPD2    C411786   3.602   3.885  13.360  0.1317 -0.2878  0.2268
  800MPD2    C511787   3.543   3.919  13.478 -0.0801  0.5442  0.2070
  800MPD2     H11788   3.925   3.922  13.462 -0.4220 -0.8265 -0.0011
  800MPD2    H111789   3.539   3.851  13.278  0.5168 -1.5174  0.4315
  800MPD2    H211790   3.571   4.005  13.674 -0.2393 -0.5175 -0.0530
  800MPD2    H311791   3.435   3.931  13.487  0.2558  3.6390  0.2833
  800MPD2     N11792   3.820   3.830  13.246 -0.2503 -0.0208 -0.1017
  800MPD2    H511793   3.916   3.860  13.256 -0.5104  1.1574 -1.2416
  800MPD2    N111794   3.834   4.009  13.692  0.6639  0.2959  0.1614
  800MPD2    H711795   3.784   4.040  13.775  0.9252  0.1539  0.3701
  801MPD2     C11796   3.785   0.006  13.949  0.3999  0.5042  0.5779
  801MPD2    C111797   3.918   4.695  13.974 -0.0306 -0.5758 -0.2026
  801MPD2    C211798   4.005   0.070  14.017  0.5291  0.6286 -0.4001
  801MPD2    C311799   3.964   0.204  14.027 -0.3370 -0.3104  0.5193
  801MPD2    C411800   3.831   0.238  13.991  0.2233  0.1911  0.1137
  801MPD2    C511801   3.747   0.137  13.960 -0.9035 -0.1506 -0.2673
  801MPD2     H11802   4.108   0.042  14.038 -0.2419 -1.6303  0.3821
  801MPD2    H111803   3.798   0.339  13.970  1.6647  0.9579  1.4759
  801MPD2    H211804   3.711   4.662  13.907  1.8752  0.1411 -1.4581
  801MPD2    H311805   3.648   0.160  13.923 -0.3579 -0.3127 -1.8331
  801MPD2     N11806   4.051   0.309  14.069  1.0268  1.2688  0.7570
  801MPD2    H511807   4.005   0.399  14.077  0.9247  1.2892 -0.0611
  801MPD2    N111808   3.976   4.567  13.958  0.3765 -0.6922  0.2373
  801MPD2    H711809   4.073   4.565  13.986  0.2110  1.2023  0.8871
  802MPD2     C11810   2.681   0.112  16.750  0.0495 -0.6109 -0.6810
  802MPD2    C111811   2.744   0.078  16.867  0.1647  0.0349  0.0674
  802MPD2    C211812   2.858   4.718  16.863 -0.3641  0.7312  0.3818
  802MPD2    C311813   2.893   4.654  16.745  0.1380  0.5025  0.1302
  802MPD2    C411814   2.820   4.684  16.631  0.1170 -0.8033 -0.1163
  802MPD2    C511815   2.721   0.055  16.632 -0.4094 -0.0278  0.0800
  802MPD2     H11816   2.920   4.714  16.951 -0.6331  1.0484  0.5818
  802MPD2    H111817   2.844   4.630  16.541  1.7325 -2.4025  1.2725
  802MPD2    H211818   2.584   0.160  16.743 -0.7518 -1.9247  1.4144
  802MPD2    H311819   2.663   0.062  16.541 -0.5499 -0.6824  0.1165
  802MPD2     N11820   3.012   4.567  16.748  0.5470  0.2969 -0.0871
  802MPD2    H511821   3.067   4.575  16.833  1.9457  1.0984 -1.0593
  802MPD2    N111822   2.713   0.137  17.000  0.4648 -0.1834  0.4419
  802MPD2    H711823   2.777   0.106  17.073 -0.4267 -1.0143  0.8698
  803MPD2     C11824   4.606   3.414  11.872 -0.7418  0.7472 -0.0915
  803MPD2    C111825   4.637   3.497  11.970 -0.2476 -0.4375  0.4826
  803MPD2    C211826   4.560   3.485  12.087  1.3200 -0.6774  0.6763
  803MPD2    C311827   4.470   3.377  12.110 -0.4121  0.4728  0.2549
  803MPD2    C411828   4.450   3.293  12.003 -0.3221 -0.0737 -0.4737
  803MPD2    C511829   4.512   3.315  11.889  0.6912  0.7339 -0.0911
  803MPD2     H11830   4.576   3.561  12.162  1.6267 -0.2150  0.1472
  803MPD2    H111831   4.377   3.213  12.001  0.1976 -0.5799  0.7349
  803MPD2    H211832   4.652   3.422  11.774 -0.7678  0.8843 -0.0934
  803MPD2    H311833   4.496   3.252  11.802  0.7755 -0.2743  0.6221
  803MPD2     N11834   4.398   3.359  12.236 -0.1828  0.2561  0.4754
  803MPD2    H511835   4.420   3.405  12.324 -0.4508  0.3889  0.4725
  803MPD2    N111836   0.014   3.597  11.971 -0.0901  0.2963  0.2274
  803MPD2    H711837   0.024   3.640  12.063 -2.7404 -1.3708  1.3126
  804MPD2     C11838   3.757   0.401  17.208  0.2123  0.1843 -0.2504
  804MPD2    C111839   3.752   0.370  17.343  0.2798  0.9164 -0.1962
  804MPD2    C211840   3.769   0.474  17.435  0.1606  0.3422  1.1802
  804MPD2    C311841   3.832   0.590  17.395  0.3729 -1.7538  0.5915
  804MPD2    C411842   3.835   0.619  17.262  0.4004 -0.5765  0.5506
  804MPD2    C511843   3.795   0.529  17.171 -0.7592  0.2546 -0.0606
  804MPD2     H11844   3.756   0.449  17.539 -0.5861  0.5650  1.1398
  804MPD2    H111845   3.867   0.716  17.226 -0.8444 -0.7115 -0.9016
  804MPD2    H211846   3.731   0.327  17.132  1.4889  0.7158 -1.2069
  804MPD2    H311847   3.799   0.536  17.063 -0.7980 -0.9641 -0.1451
  804MPD2     N11848   3.880   0.685  17.490 -0.3636  0.4953 -0.6002
  804MPD2    H511849   3.859   0.664  17.587 -1.3830  0.9557 -0.7257
  804MPD2    N111850   3.724   0.240  17.390 -0.5405  0.5963  0.5894
  804MPD2    H711851   3.719   0.227  17.491  1.6437  2.0938  0.8900
  805MPD2     C11852   2.800   3.428  15.545  0.2548  0.9006  0.0066
  805MPD2    C111853   2.901   3.432  15.455 -0.0308 -1.0077  0.3896
  805MPD2    C211854   3.033   3.431  15.495  0.1934 -0.5070  0.4275
  805MPD2    C311855   3.059   3.401  15.628  0.2588 -0.8821  0.3374
  805MPD2    C411856   2.950   3.394  15.718 -0.8223  0.1371  0.2732
  805MPD2    C511857   2.822   3.398  15.673  1.1076  0.6434  0.8438
  805MPD2     H11858   3.114   3.437  15.423 -0.3388  0.7546 -0.0652
  805MPD2    H111859   2.957   3.383  15.826 -0.7952 -0.7053  0.1825
  805MPD2    H211860   2.694   3.422  15.521  0.1053 -0.0945  0.9247
  805MPD2    H311861   2.734   3.394  15.736 -1.0797  0.0229 -2.2286
  805MPD2     N11862   3.196   3.378  15.671 -1.1237  0.3217  0.6305
  805MPD2    H511863   3.263   3.419  15.607  1.7712 -1.2831  2.6023
  805MPD2    N111864   2.867   3.443  15.321  0.7325 -0.7766 -0.2346
  805MPD2    H711865   2.944   3.456  15.256  0.9073  0.1623  0.1562
  806MPD2     C11866   3.804   3.134   0.671  0.1038 -0.2638 -0.3397
  806MPD2    C111867   3.717   3.218   0.739 -0.5681  0.6064  0.1914
  806MPD2    C211868   3.709   3.349   0.695  0.0609 -0.2973  1.2366
  806MPD2    C311869   3.783   3.390   0.580  0.1112 -0.5738  0.5157
  806MPD2    C411870   3.865   3.305   0.513  0.7517  0.3244 -0.4576
  806MPD2    C511871   3.875   3.179   0.563 -0.2647  0.3368 -0.7982
  806MPD2     H11872   3.649   3.427   0.742  0.6273  1.1839 -0.5182
  806MPD2    H111873   3.918   3.334   0.423 -1.5369 -0.4856 -2.0647
  806MPD2    H211874   3.820   3.031   0.700  0.5537  0.3152  1.4585
  806MPD2    H311875   3.947   3.109   0.520 -2.5073 -1.3346 -1.8443
  806MPD2     N11876   3.754   3.521   0.542 -0.6596 -0.3598  0.0003
  806MPD2    H511877   3.678   3.563   0.593 -0.0027 -1.6320  2.0170
  806MPD2    N111878   3.646   3.163   0.855 -0.6502  0.6213  0.0607
  806MPD2    H711879   3.652   3.063   0.872  1.5287  0.6253 -0.8066
  807MPD2     C11880   3.082   3.302   1.510 -0.9808 -0.4427  0.0886
  807MPD2    C111881   3.151   3.182   1.519 -0.4149 -0.4719 -0.2342
  807MPD2    C211882   3.112   3.090   1.610  0.0528  0.2132  0.4091
  807MPD2    C311883   3.008   3.116   1.697  0.2456 -0.1750  0.5163
  807MPD2    C411884   2.933   3.225   1.682 -0.0967  0.4020  0.4747
  807MPD2    C511885   2.973   3.320   1.593  0.1962  0.3383  0.4625
  807MPD2     H11886   3.173   3.001   1.617  0.4607  0.5692  1.2136
  807MPD2    H111887   2.850   3.243   1.750 -0.8537 -0.9169 -0.0882
  807MPD2    H211888   3.107   3.375   1.434  2.6869 -0.1051  1.6298
  807MPD2    H311889   2.912   3.410   1.591  1.7058  1.2616 -3.0750
  807MPD2     N11890   2.979   3.023   1.800  0.2122 -0.3765  0.1040
  807MPD2    H511891   3.030   2.936   1.793  0.8678 -0.0813  1.2594
  807MPD2    N111892   3.258   3.151   1.435  0.6372 -0.0451  0.1896
  807MPD2    H711893   3.304   3.065   1.463 -3.0712 -2.5532 -1.4606
  808MPD2     C11894   3.523   4.687   9.287 -0.6989  0.2264  0.1109
  808MPD2    C111895   3.534   4.643   9.413  0.0591 -0.3219  0.1539
  808MPD2    C211896   3.648   4.676   9.487  0.2341  0.1103  0.2455
  808MPD2    C311897   3.751   0.024   9.426  0.3403  0.0663  0.3317
  808MPD2    C411898   3.732   0.069   9.295 -0.1984 -0.6074 -0.6253
  808MPD2    C511899   3.619   0.037   9.226 -0.6494  0.5776 -0.5686
  808MPD2     H11900   3.664   4.641   9.589  0.8253  3.2265  1.2446
  808MPD2    H111901   3.810   0.132   9.253 -1.5779  1.0087 -0.7414
  808MPD2    H211902   3.431   4.671   9.232 -0.4173 -3.4649  0.6999
  808MPD2    H311903   3.596   0.084   9.131 -1.9522 -0.9140 -0.9799
  808MPD2     N11904   3.871   0.056   9.489 -0.1791  0.2094 -0.2318
  808MPD2    H511905   3.932   0.111   9.429 -0.1750 -0.6832 -1.0463
  808MPD2    N111906   3.422   4.562   9.456  0.0478  0.1140  0.2854
  808MPD2    H711907   3.353   4.534   9.388 -0.5707 -2.2273  1.8801
  809MPD2     C11908   4.600   0.249   9.025  0.7163 -0.3739  0.0958
  809MPD2    C111909   4.648   0.187   9.143 -0.5595 -0.4361 -0.1489
  809MPD2    C211910   4.568   0.171   9.255  0.3371 -0.6467 -1.3274
  809MPD2    C311911   4.431   0.209   9.242  0.6288 -0.0579  0.4246
  809MPD2    C411912   4.383   0.259   9.124  0.4668 -0.0764  0.3541
  809MPD2    C511913   4.471   0.286   9.019  0.4520  0.3188  1.0086
  809MPD2     H11914   4.608   0.133   9.348  0.7355  0.3390 -1.0925
  809MPD2    H111915   4.276   0.271   9.110  0.2057 -0.5050  2.0780
  809MPD2    H211916   4.657   0.279   8.938 -2.3556  1.2807 -1.3620
  809MPD2    H311917   4.430   0.327   8.927 -0.1455  1.6499  1.8733
  809MPD2     N11918   4.337   0.192   9.346  0.2711  0.4839 -0.0090
  809MPD2    H511919   4.243   0.212   9.314 -0.1623 -2.4642 -0.6115
  809MPD2    N111920   0.060   0.151   9.144 -0.2479  0.0108 -0.0118
  809MPD2    H711921   0.127   0.173   9.071  0.3592 -0.1042  0.5069
  810MPD2     C11922   3.618   4.703  10.252  0.5857  0.2427 -0.9382
  810MPD2    C111923   3.618   4.572  10.289  0.0845 -0.0139  0.4289
  810MPD2    C211924   3.691   4.532  10.397 -0.5187 -0.7772 -0.6156
  810MPD2    C311925   3.763   4.629  10.471 -0.4203 -0.4759  0.0071
  810MPD2    C411926   3.756   0.036  10.428  0.0485  0.2557  0.0450
  810MPD2    C511927   3.677   0.075  10.325 -0.0824  0.4019  0.1043
  810MPD2     H11928   3.699   4.430  10.432  2.5113  0.1595  1.3748
  810MPD2    H111929   3.808   0.117  10.478 -0.1647  0.3119  0.1722
  810MPD2    H211930   3.559   0.025  10.174  0.7684 -0.8453 -1.7039
  810MPD2    H311931   3.671   0.182  10.306  0.2338  0.3446 -0.2980
  810MPD2     N11932   3.822   4.590  10.595 -0.2626  1.0283  0.0059
  810MPD2    H511933   3.874   4.666  10.638  1.0472 -0.2607  0.6990
  810MPD2    N111934   3.536   4.489  10.222 -0.4357  0.2773 -0.1499
  810MPD2    H711935   3.476   4.529  10.151  1.6837  0.4667 -1.8144
  811MPD2     C11936   2.737   4.317   9.994  0.3745 -0.4731 -0.2040
  811MPD2    C111937   2.854   4.392   9.966  0.2918 -0.3272  0.1082
  811MPD2    C211938   2.852   4.505   9.893  0.5719  0.4855  0.4065
  811MPD2    C311939   2.732   4.561   9.860  0.1169  0.1591 -0.2868
  811MPD2    C411940   2.618   4.488   9.883 -0.0176 -0.1855 -0.0632
  811MPD2    C511941   2.626   4.368   9.950 -0.3423 -0.4663 -0.3151
  811MPD2     H11942   2.942   4.564   9.880  0.4521  0.2251 -1.5171
  811MPD2    H111943   2.521   4.531   9.858  0.1473 -0.1495 -0.6497
  811MPD2    H211944   2.738   4.229  10.057 -2.0553  0.1427  0.7184
  811MPD2    H311945   2.530   4.320   9.965  0.0203 -1.3049 -0.6952
  811MPD2     N11946   2.736   4.696   9.816 -0.7599  0.2209 -0.2985
  811MPD2    H511947   2.827   0.018   9.819 -0.5255 -0.3000  0.2215
  811MPD2    N111948   2.971   4.339  10.022  0.0934  0.1052  0.4536
  811MPD2    H711949   2.973   4.251  10.072  1.0180  0.3006  0.7600
  812MPD2     C11950   2.852   3.621  12.126 -0.6895  0.0154  0.2518
  812MPD2    C111951   2.742   3.686  12.168  0.3055  0.4445  0.2700
  812MPD2    C211952   2.657   3.633  12.264  0.3909  0.5439  0.2651
  812MPD2    C311953   2.688   3.511  12.327 -0.3729 -0.4291  0.6303
  812MPD2    C411954   2.799   3.441  12.282  0.2898  0.2513  0.2735
  812MPD2    C511955   2.878   3.500  12.186 -0.1565 -0.4254  0.0675
  812MPD2     H11956   2.561   3.682  12.276  0.2363  0.4344 -0.5533
  812MPD2    H111957   2.826   3.343  12.322 -0.6452 -0.2573 -0.3364
  812MPD2    H211958   2.930   3.661  12.062  0.8748 -0.9157  1.5953
  812MPD2    H311959   2.967   3.445  12.155  0.3352  0.9386 -0.9112
  812MPD2     N11960   2.607   3.464  12.430  0.2629 -0.5269 -0.0760
  812MPD2    H511961   2.523   3.517  12.451  0.2743 -0.3892 -0.3844
  812MPD2    N111962   2.725   3.813  12.112 -0.1961 -0.9483 -0.5780
  812MPD2    H711963   2.775   3.838  12.027 -0.8367 -0.0343 -0.6788
  813MPD2     C11964   1.525   0.895  12.468 -0.2964  0.5686 -0.2826
  813MPD2    C111965   1.507   1.025  12.505  0.6296 -0.2376  0.2203
  813MPD2    C211966   1.424   1.055  12.615 -0.3549 -0.1473  0.4824
  813MPD2    C311967   1.371   0.947  12.684  0.1275 -0.5643  0.1585
  813MPD2    C411968   1.384   0.815  12.641 -0.2295  0.1716  0.5616
  813MPD2    C511969   1.461   0.791  12.536 -0.1084 -0.3677  0.5150
  813MPD2     H11970   1.404   1.156  12.646  2.1331 -0.1098  1.9152
  813MPD2    H111971   1.331   0.736  12.692 -2.0684  0.2221 -1.2933
  813MPD2    H211972   1.603   0.886  12.393  0.8380  0.3905  0.9106
  813MPD2    H311973   1.469   0.686  12.510  0.2966 -0.9399  2.9258
  813MPD2     N11974   1.311   0.985  12.809  0.4792 -0.1634  1.0612
  813MPD2    H511975   1.269   1.077  12.820 -0.2036 -0.6194  2.3030
  813MPD2    N111976   1.589   1.123  12.444  0.4299 -0.4423  1.1152
  813MPD2    H711977   1.669   1.092  12.391 -1.5312 -1.4185 -1.2727
  814MPD2     C11978   1.731   1.955  11.794  0.3183  0.1106  0.1646
  814MPD2    C111979   1.721   2.079  11.731 -0.5263  0.4840 -0.4152
  814MPD2    C211980   1.769   2.193  11.794 -0.4134  0.6017  0.0475
  814MPD2    C311981   1.827   2.185  11.918  0.0265 -0.5101  0.0531
  814MPD2    C411982   1.823   2.067  11.991  1.4221  0.2902 -0.0476
  814MPD2    C511983   1.768   1.954  11.926  0.4193 -0.3079  0.3529
  814MPD2     H11984   1.747   2.290  11.751  2.1648  0.8802 -0.6122
  814MPD2    H111985   1.857   2.066  12.094 -2.3819 -1.1969  1.1963
  814MPD2    H211986   1.688   1.863  11.755 -0.0860  0.6478 -0.6687
  814MPD2    H311987   1.763   1.858  11.977  1.8731  1.1290  3.2339
  814MPD2     N11988   1.846   2.312  11.990  0.3344  0.6259 -0.1679
  814MPD2    H511989   1.849   2.297  12.090  1.7490 -1.4755 -0.5312
  814MPD2    N111990   1.667   2.083  11.602 -0.7529 -0.4666 -0.4482
  814MPD2    H711991   1.683   2.170  11.553 -2.1991 -0.4805 -0.9632
  815MPD2     C11992   2.879   1.060  11.732 -0.2942  0.3281  0.0950
  815MPD2    C111993   2.855   0.929  11.749  0.1693 -0.3648  0.0896
  815MPD2    C211994   2.779   0.884  11.852  0.7879  0.4163 -0.1703
  815MPD2    C311995   2.713   0.974  11.929  0.0748  0.1535  0.3703
  815MPD2    C411996   2.739   1.112  11.921 -0.3925 -0.1733  0.1023
  815MPD2    C511997   2.824   1.155  11.819  0.0923 -0.0929 -0.2064
  815MPD2     H11998   2.755   0.779  11.863  1.9633  0.3877  2.1430
  815MPD2    H111999   2.693   1.178  11.993 -0.1639  1.3100 -1.1015
  815MPD2    H212000   2.951   1.102  11.663  0.8166  1.2043  1.7793
  815MPD2    H312001   2.859   1.258  11.823 -1.0999  0.4739 -4.8006
  815MPD2     N12002   2.614   0.925  12.014 -0.4228 -0.1584  0.5226
  815MPD2    H512003   2.599   0.824  12.010 -0.8010 -0.1048  0.5720
  815MPD2    N112004   2.912   0.845  11.647 -0.1259 -0.0501  0.2193
  815MPD2    H712005   2.969   0.891  11.577  1.6536 -0.0252  1.7011
  816MPD2     C12006   2.254   0.031  17.292  0.1216  0.4849  0.5815
  816MPD2    C112007   2.187   0.003  17.176 -0.1496 -0.4416 -0.1529
  816MPD2    C212008   2.250   4.661  17.073 -0.0972 -0.1441 -0.1947
  816MPD2    C312009   2.385   4.632  17.090  0.3353 -0.1869 -0.1195
  816MPD2    C412010   2.452   4.663  17.206 -0.8571  0.5800 -0.3676
  816MPD2    C512011   2.387   0.002  17.308  0.0866 -0.7885 -0.8042
  816MPD2     H12012   2.208   4.627  16.978 -2.6460  1.2046  0.4461
  816MPD2    H112013   2.557   4.637  17.217 -1.4638 -0.7273  2.1429
  816MPD2    H212014   2.208   0.090  17.371  0.2929  1.8215 -0.3134
  816MPD2    H312015   2.438   0.038  17.396 -1.1372 -0.4257 -0.2426
  816MPD2     N12016   2.441   4.571  16.980 -0.5402  0.6268  0.2235
  816MPD2    H512017   2.382   4.575  16.898 -0.3046 -0.7583 -0.0113
  816MPD2    N112018   2.050   0.050  17.166 -0.0931  0.7492 -0.0797
  816MPD2    H712019   2.009   0.097  17.246  2.3294  0.0852  1.5788
  817MPD2     C12020   2.077   1.873   9.797  0.2466  0.4458  0.2472
  817MPD2    C112021   2.200   1.933   9.772  0.5128  0.7035  0.2125
  817MPD2    C212022   2.210   2.033   9.676 -0.2062  0.0680 -0.1918
  817MPD2    C312023   2.099   2.067   9.600  0.0026 -0.8851 -0.1364
  817MPD2    C412024   1.974   2.005   9.627  0.1416  0.0531  0.3112
  817MPD2    C512025   1.967   1.907   9.725 -0.1280 -0.0065  0.0374
  817MPD2     H12026   2.310   2.061   9.647 -0.9003  1.5654 -1.1431
  817MPD2    H112027   1.881   2.044   9.587 -0.0949 -0.1017  0.7115
  817MPD2    H212028   2.062   1.789   9.864 -1.0063  0.9946  0.6594
  817MPD2    H312029   1.876   1.864   9.765 -0.5645  1.2184  0.3704
  817MPD2     N12030   2.112   2.167   9.501 -0.9839 -0.1648 -0.1212
  817MPD2    H512031   2.201   2.216   9.502  0.4974 -2.8378 -2.8272
  817MPD2    N112032   2.317   1.894   9.835  0.0658 -0.1835 -0.6526
  817MPD2    H712033   2.399   1.954   9.832 -1.3323  1.8082  0.9934
  818MPD2     C12034   1.109   1.820  10.138  0.3692  0.4161 -0.0553
  818MPD2    C112035   1.062   1.701  10.176  0.4968 -0.6373 -0.0314
  818MPD2    C212036   1.129   1.583  10.136 -0.4390 -0.0687 -0.3726
  818MPD2    C312037   1.254   1.583  10.079 -0.0628 -0.1178 -0.1524
  818MPD2    C412038   1.299   1.707  10.043  0.1124 -0.8859 -0.3526
  818MPD2    C512039   1.228   1.823  10.063  0.1636  0.5403 -0.6925
  818MPD2     H12040   1.087   1.490  10.172  1.3853 -0.9290 -0.4872
  818MPD2    H112041   1.395   1.709   9.992  0.2475  2.4414  0.0244
  818MPD2    H212042   1.063   1.912  10.173 -0.3612 -0.3756  1.0851
  818MPD2    H312043   1.258   1.918  10.020  0.4296  0.5614 -0.4540
  818MPD2     N12044   1.324   1.464  10.063 -0.2079 -0.4830  0.3366
  818MPD2    H512045   1.276   1.379  10.088 -2.4314  1.3800  2.3599
  818MPD2    N112046   0.954   1.684  10.257  0.7320 -0.0112  0.5913
  818MPD2    H712047   0.931   1.589  10.287  0.5076 -1.0570 -2.9271
  819MPD2     C12048   3.545   3.132  15.504 -0.5944  0.4607  0.8745
  819MPD2    C112049   3.597   3.009  15.536  0.9048  0.0547 -0.0107
  819MPD2    C212050   3.713   3.002  15.610  0.3928 -0.3163  0.1447
  819MPD2    C312051   3.762   3.108  15.680 -0.3090 -0.3096 -0.2503
  819MPD2    C412052   3.700   3.229  15.659  0.1976 -0.3802  0.7634
  819MPD2    C512053   3.595   3.245  15.567  0.0637 -0.2571  0.4728
  819MPD2     H12054   3.758   2.903  15.612  0.1754 -0.4073  0.6269
  819MPD2    H112055   3.723   3.319  15.715 -0.5936  1.1911 -1.4056
  819MPD2    H212056   3.459   3.130  15.439 -1.0490  1.3807  1.4597
  819MPD2    H312057   3.556   3.344  15.547 -2.0844 -0.8397  1.8671
  819MPD2     N12058   3.878   3.094  15.763 -0.1699  0.5317  0.1786
  819MPD2    H512059   3.927   3.006  15.755 -0.9624  0.0594  0.5164
  819MPD2    N112060   3.538   2.896  15.482  0.0586 -0.1297 -0.0798
  819MPD2    H712061   3.472   2.926  15.411  2.1649  2.6525 -0.8227
  820MPD2     C12062   2.716   2.874  14.992 -0.4020 -0.0669  0.3571
  820MPD2    C112063   2.833   2.948  15.007  0.0457 -0.1855  0.3899
  820MPD2    C212064   2.945   2.902  15.073 -0.5245 -0.3513 -0.2522
  820MPD2    C312065   2.950   2.765  15.112 -0.0152 -0.1886  0.5170
  820MPD2    C412066   2.832   2.684  15.085  0.0595 -0.5056 -0.1877
  820MPD2    C512067   2.722   2.746  15.035 -0.2713 -0.1532  0.3321
  820MPD2     H12068   3.026   2.970  15.095 -1.3535  0.7023 -0.4569
  820MPD2    H112069   2.819   2.582  15.118  0.4709 -0.8287 -1.0260
  820MPD2    H212070   2.636   2.914  14.931 -0.1825 -1.0540 -0.5694
  820MPD2    H312071   2.640   2.676  15.022 -0.3063 -0.1691  0.6374
  820MPD2     N12072   3.067   2.713  15.174  0.7252 -0.1874 -0.2575
  820MPD2    H512073   3.081   2.613  15.168  2.6946  0.2431 -2.4984
  820MPD2    N112074   2.815   3.078  14.952  0.1565 -0.7999 -0.7641
  820MPD2    H712075   2.723   3.087  14.908 -0.3341 -0.3066  0.3634
  821MPD2     C12076   3.858   4.301  12.695  0.3159 -0.3300 -0.5724
  821MPD2    C112077   3.980   4.245  12.735 -0.4922 -0.4618 -0.3514
  821MPD2    C212078   4.091   4.320  12.698  0.1068 -0.1956  0.4706
  821MPD2    C312079   4.073   4.439  12.620 -0.4293 -0.8480  0.3361
  821MPD2    C412080   3.954   4.487  12.585 -0.2358 -0.0588 -0.2317
  821MPD2    C512081   3.844   4.410  12.616 -0.6346  0.2490 -0.0559
  821MPD2     H12082   4.183   4.265  12.714  0.6016  0.3100 -0.6560
  821MPD2    H112083   3.941   4.573  12.521 -2.3921 -0.0759  0.1820
  821MPD2    H212084   3.772   4.238  12.713 -1.2862  1.2235 -2.7480
  821MPD2    H312085   3.744   4.428  12.579 -0.5098  1.3464  0.1569
  821MPD2     N12086   4.189   4.509  12.572 -0.2283  0.1610 -0.2091
  821MPD2    H512087   4.165   4.579  12.503 -1.2650  0.3829  0.3777
  821MPD2    N112088   4.000   4.124  12.804  0.7302 -0.0316  0.0139
  821MPD2    H712089   4.093   4.092  12.828  0.6149 -0.4053 -0.0446
  822MPD2     C12090   4.378   4.512  15.795  0.1767 -0.5116  0.0308
  822MPD2    C112091   4.344   4.475  15.926  0.9767  0.3807 -1.1541
  822MPD2    C212092   4.279   4.566  16.007  0.0011 -1.7888  0.1240
  822MPD2    C312093   4.241   4.689  15.956  0.6327 -0.0372  0.0232
  822MPD2    C412094   4.267   0.002  15.825  0.1199 -0.0788  0.2422
  822MPD2    C512095   4.346   4.638  15.759  0.1288 -0.3414  0.1577
  822MPD2     H12096   4.251   4.539  16.108  2.1215  3.5316  2.1542
  822MPD2    H112097   4.232   0.093  15.778 -1.6325 -0.0833  1.5233
  822MPD2    H212098   4.426   4.442  15.727 -0.0473  0.9526 -1.6261
  822MPD2    H312099   4.371   4.664  15.656 -2.0210 -0.9074 -0.5153
  822MPD2     N12100   4.173   0.049  16.045  0.7446  0.1273  0.4506
  822MPD2    H512101   4.160   0.016  16.140 -1.7788  0.5452  0.2372
  822MPD2    N112102   4.385   4.354  15.989  0.2372  0.3511 -0.8797
  822MPD2    H712103   4.362   4.345  16.088 -0.8097  0.7906 -1.0831
  823MPD2     C12104   3.965   0.173  16.848 -0.2152 -0.0154 -0.3094
  823MPD2    C112105   4.006   0.096  16.738 -0.0308  0.3350 -0.1478
  823MPD2    C212106   4.052   4.690  16.756  0.4395 -0.6310 -0.3624
  823MPD2    C312107   4.059   4.640  16.886  0.0721 -0.0864  1.4277
  823MPD2    C412108   4.004   4.711  16.990  0.2110 -0.0431 -0.5027
  823MPD2    C512109   3.952   0.113  16.970  0.3174  0.2612  0.3543
  823MPD2     H12110   4.094   4.633  16.674  0.5114 -1.5677  0.3160
  823MPD2    H112111   4.016   4.673  17.091  0.0074  2.5181  0.4724
  823MPD2    H212112   3.954   0.280  16.851 -0.1560  0.0488 -2.0896
  823MPD2    H312113   3.923   0.183  17.047  0.1940  0.0523  0.4955
  823MPD2     N12114   4.130   4.525  16.923 -0.0089  0.0709  0.0550
  823MPD2    H512115   4.139   4.500  17.021 -0.5102 -0.9530 -0.1594
  823MPD2    N112116   4.002   0.148  16.608 -0.2259  0.6767  0.6046
  823MPD2    H712117   3.977   0.246  16.606 -2.1605  0.1982  1.7115
  824MPD2     C12118   4.643   3.567  15.825 -0.1045 -0.2482  0.4786
  824MPD2    C112119   4.708   3.684  15.835  0.4550 -0.4015  0.0996
  824MPD2    C212120   0.105   3.700  15.760  0.5725  0.7492 -0.0783
  824MPD2    C312121   0.157   3.590  15.689 -0.4483 -0.2294 -0.3426
  824MPD2    C412122   0.090   3.466  15.697 -1.0712 -0.3350  0.1209
  824MPD2    C512123   4.695   3.458  15.760 -0.6032  0.3553 -0.2420
  824MPD2     H12124   0.158   3.794  15.758 -0.0015  1.0438 -2.1196
  824MPD2    H112125   0.130   3.371  15.662  0.6181  0.8058 -1.0706
  824MPD2    H212126   4.555   3.546  15.883 -1.7028  1.0299 -1.4645
  824MPD2    H312127   4.651   3.361  15.777  2.8219 -1.1110  0.2692
  824MPD2     N12128   0.278   3.604  15.616 -0.0569  0.3789  0.5156
  824MPD2    H512129   0.324   3.692  15.635  1.4148  0.0865 -1.6543
  824MPD2    N112130   4.649   3.800  15.901  0.0341 -0.0140  0.0784
  824MPD2    H712131   4.691   3.891  15.889 -1.4708  0.5849 -0.6314
  825MPD2     C12132   0.964   4.028  15.377  0.7877 -0.5626 -1.1454
  825MPD2    C112133   0.830   4.026  15.343 -0.6593 -0.7998  0.1969
  825MPD2    C212134   0.765   4.135  15.294 -0.2494 -0.0473 -0.4703
  825MPD2    C312135   0.830   4.260  15.309 -0.1297  0.4673 -0.8844
  825MPD2    C412136   0.957   4.269  15.360  0.5123 -0.4114 -0.3406
  825MPD2    C512137   1.028   4.152  15.383 -1.0628 -0.7568 -0.0328
  825MPD2     H12138   0.667   4.135  15.248 -1.5189 -2.3061  2.2992
  825MPD2    H112139   1.011   4.362  15.370 -0.0136 -0.2844  1.2572
  825MPD2    H212140   1.012   3.942  15.423  0.1352  1.0275  2.5307
  825MPD2    H312141   1.125   4.156  15.432 -0.1311  0.6817 -2.0005
  825MPD2     N12142   0.775   4.382  15.265 -0.2359  0.0003 -0.1148
  825MPD2    H512143   0.816   4.467  15.301 -2.6154  1.3806 -0.7063
  825MPD2    N112144   0.770   3.901  15.367  0.4390  0.2482 -0.3265
  825MPD2    H712145   0.836   3.828  15.392 -0.0526 -1.0894 -2.8892
  826MPD2     C12146   0.659   3.704  13.543  0.3287  0.0574  0.3990
  826MPD2    C112147   0.601   3.679  13.426 -0.4954 -0.6708 -0.3389
  826MPD2    C212148   0.487   3.753  13.387 -0.0121  0.1783 -0.6354
  826MPD2    C312149   0.444   3.859  13.463 -0.1534  0.2963 -0.1886
  826MPD2    C412150   0.502   3.883  13.587 -0.3605  0.4458 -0.3115
  826MPD2    C512151   0.608   3.805  13.617  0.0392 -0.1181 -0.0211
  826MPD2     H12152   0.440   3.726  13.293 -3.6430  0.5930  1.0731
  826MPD2    H112153   0.473   3.967  13.649 -0.0811  2.3276 -2.7324
  826MPD2    H212154   0.750   3.659  13.578  0.9655  0.6870 -0.4438
  826MPD2    H312155   0.656   3.820  13.713 -2.2333  0.5512  0.9994
  826MPD2     N12156   0.343   3.951  13.416 -0.5295 -0.0533 -0.0323
  826MPD2    H512157   0.306   4.017  13.484 -0.2720 -1.3325  1.3425
  826MPD2    N112158   0.644   3.569  13.341 -0.2037 -0.0187 -0.2574
  826MPD2    H712159   0.629   3.576  13.241 -2.0533  4.4410  0.3120
  827MPD2     C12160   1.688   0.549  10.111  0.0846  0.0714 -0.1565
  827MPD2    C112161   1.717   0.427  10.144 -0.1934  0.1634 -0.5371
  827MPD2    C212162   1.666   0.330  10.059 -0.1515 -0.0477 -0.0938
  827MPD2    C312163   1.583   0.349   9.951  0.1273 -0.0723 -0.0021
  827MPD2    C412164   1.551   0.481   9.926  0.3390 -0.5214 -0.7878
  827MPD2    C512165   1.615   0.579   9.998  0.2534  0.5914 -0.5118
  827MPD2     H12166   1.699   0.228  10.077  0.0047 -0.1185 -0.8052
  827MPD2    H112167   1.499   0.510   9.835  1.2413 -2.4581 -1.9143
  827MPD2    H212168   1.730   0.630  10.170 -0.6881  0.2246  0.1854
  827MPD2    H312169   1.609   0.677   9.951 -0.3947  0.5194 -0.5856
  827MPD2     N12170   1.538   0.238   9.884 -0.1917  0.2032 -0.2107
  827MPD2    H512171   1.561   0.144   9.912 -0.4080 -0.3558 -1.8828
  827MPD2    N112172   1.811   0.409  10.256 -0.7185  0.2388 -0.1913
  827MPD2    H712173   1.845   0.495  10.297 -1.9741  0.7711 -0.2604
  828MPD2     C12174   4.456   4.506  12.203  0.3047  0.5931 -0.3293
  828MPD2    C112175   4.432   4.621  12.134 -0.6840 -0.0762  0.5176
  828MPD2    C212176   4.513   4.645  12.028 -0.4026 -0.1908  0.1200
  828MPD2    C312177   4.624   4.566  11.988 -0.0040 -0.6097  0.1911
  828MPD2    C412178   4.638   4.446  12.053 -0.0001 -0.3330  0.8669
  828MPD2    C512179   4.568   4.430  12.168  0.1300 -0.1774  0.1142
  828MPD2     H12180   4.502   0.018  11.979 -0.5764 -1.4729 -2.3522
  828MPD2    H112181   4.722   4.380  12.032  0.1823 -0.2702  1.3866
  828MPD2    H212182   4.402   4.474  12.292 -0.7010  0.1015 -1.1123
  828MPD2    H312183   4.587   4.333  12.212 -0.9930  0.1132  1.2566
  828MPD2     N12184   4.703   4.596  11.871  0.3666 -0.6291 -0.1724
  828MPD2    H512185   0.065   4.540  11.864  0.1836 -0.7197 -1.6347
  828MPD2    N112186   4.329   4.718  12.167 -0.4019  0.1543 -0.8155
  828MPD2    H712187   4.328   0.076  12.104  1.6604 -0.4729 -1.6573
  829MPD2     C12188   4.326   0.688  11.707 -0.7116 -0.3775 -0.5524
  829MPD2    C112189   4.206   0.708  11.774  0.6542  0.4858 -0.2934
  829MPD2    C212190   4.164   0.620  11.869  0.2106  0.5087 -0.0100
  829MPD2    C312191   4.253   0.532  11.926 -0.9682 -0.1401 -0.3689
  829MPD2    C412192   4.375   0.522  11.862 -0.2030  0.6107  1.1352
  829MPD2    C512193   4.408   0.588  11.748  0.5616 -0.5705 -0.6540
  829MPD2     H12194   4.064   0.625  11.912 -0.5901 -1.1743 -1.6423
  829MPD2    H112195   4.448   0.449  11.895 -0.4688 -0.2731 -0.2160
  829MPD2    H212196   4.347   0.744  11.617  0.2782 -1.2197 -0.8509
  829MPD2    H312197   4.508   0.570  11.708  0.7220  1.5303 -1.1885
  829MPD2     N12198   4.220   0.439  12.032  0.1507 -0.2560  0.0870
  829MPD2    H512199   4.297   0.394  12.080  0.3381  0.8430  0.8324
  829MPD2    N112200   4.138   0.825  11.729 -0.4641  0.3246 -0.0263
  829MPD2    H712201   4.178   0.874  11.650 -0.9425  1.2065  0.2744
  830MPD2     C12202   0.018   3.055  15.774 -0.2687 -0.2281 -1.2253
  830MPD2    C112203   4.627   3.093  15.708  0.4737 -0.0262  1.0954
  830MPD2    C212204   4.626   3.153  15.580 -0.2436 -0.2083 -0.3664
  830MPD2    C312205   0.029   3.160  15.517 -0.1171  0.5205 -0.4340
  830MPD2    C412206   0.147   3.118  15.584  0.3054  0.4651 -0.1371
  830MPD2    C512207   0.134   3.074  15.713 -0.1229  0.2358  0.4486
  830MPD2     H12208   4.532   3.193  15.541  0.8793  1.2936 -1.5600
  830MPD2    H112209   0.240   3.113  15.530  0.0672  1.6691 -0.6654
  830MPD2    H212210   0.022   3.013  15.874 -1.0140  1.9945 -0.2691
  830MPD2    H312211   0.222   3.045  15.770  0.8374  0.9052 -0.6875
  830MPD2     N12212   0.041   3.212  15.392  1.0264 -0.9871 -0.1436
  830MPD2    H512213   0.136   3.223  15.357  0.5478  0.2873 -1.0707
  830MPD2    N112214   4.510   3.083  15.783 -0.3314  0.4848 -0.1418
  830MPD2    H712215   4.523   3.064  15.882  1.8006 -1.8544 -0.8522
  831MPD2     C12216   4.503   0.080  16.354  0.1817  0.3457 -0.2697
  831MPD2    C112217   4.509   4.697  16.272 -0.5446 -0.4153  0.6824
  831MPD2    C212218   4.438   4.577  16.306 -0.5203 -0.5294 -0.1163
  831MPD2    C312219   4.351   4.575  16.415 -0.0059 -0.2629  0.3054
  831MPD2    C412220   4.344   4.687  16.489  0.4717  0.5388 -0.0491
  831MPD2    C512221   4.422   0.070  16.465 -0.1595  0.3456  0.6715
  831MPD2     H12222   4.444   4.502  16.228 -0.4607  0.5611 -1.1604
  831MPD2    H112223   4.282   4.701  16.576  0.9080  1.4021  0.1281
  831MPD2    H212224   4.559   0.172  16.346  0.4135  0.3430  1.4581
  831MPD2    H312225   4.408   0.155  16.531  1.9317 -0.0515  1.6457
  831MPD2     N12226   4.262   4.465  16.437  0.2221  0.0365  0.0275
  831MPD2    H512227   4.214   4.462  16.527 -0.3461  1.6279 -0.2337
  831MPD2    N112228   4.597   4.711  16.159 -0.0802  0.3629 -0.0943
  831MPD2    H712229   4.636   0.080  16.138  3.7540 -1.4918 -1.0127
  832MPD2     C12230   2.837   0.615  17.109 -0.2052  0.5433 -1.0499
  832MPD2    C112231   2.794   0.742  17.117 -0.5204  0.0317 -0.0782
  832MPD2    C212232   2.708   0.794  17.012  0.2916  0.8173  0.4508
  832MPD2    C312233   2.663   0.712  16.908 -0.0688 -0.4596 -0.4815
  832MPD2    C412234   2.711   0.584  16.904  0.5237 -0.7151  0.2600
  832MPD2    C512235   2.794   0.542  17.000  0.7682  0.2235 -0.3071
  832MPD2     H12236   2.656   0.887  17.026 -1.6455 -0.2810  0.5244
  832MPD2    H112237   2.695   0.522  16.816 -2.1064 -0.7382  0.7621
  832MPD2    H212238   2.905   0.579  17.184  0.7630  0.7858 -1.8120
  832MPD2    H312239   2.834   0.445  16.974  1.7306  0.4799  0.2132
  832MPD2     N12240   2.570   0.756  16.810  0.4291 -0.4117 -0.1436
  832MPD2    H512241   2.546   0.692  16.735  0.4235  1.0637 -1.4132
  832MPD2    N112242   2.841   0.818  17.226 -0.5426 -0.4906  0.2075
  832MPD2    H712243   2.867   0.770  17.312 -1.1017 -0.1843  0.5483
  833MPD2     C12244   0.319   2.661  12.765 -0.5028 -0.0008  0.0170
  833MPD2    C112245   0.339   2.708  12.638 -0.8470  0.5422 -0.0711
  833MPD2    C212246   0.402   2.627  12.545 -0.2003  0.4691 -0.1419
  833MPD2    C312247   0.430   2.496  12.572 -0.3347  0.8762 -0.0006
  833MPD2    C412248   0.401   2.448  12.696 -1.0545  0.4664  0.8641
  833MPD2    C512249   0.362   2.536  12.794  0.2377  0.4416 -0.0902
  833MPD2     H12250   0.431   2.668  12.449  3.3524 -1.4989  0.0935
  833MPD2    H112251   0.430   2.348  12.726 -0.7324  0.2875 -0.0457
  833MPD2    H212252   0.269   2.722  12.839 -1.8565  0.6287 -1.4407
  833MPD2    H312253   0.364   2.491  12.892  0.2314 -0.3089 -0.4349
  833MPD2     N12254   0.502   2.404  12.492 -0.1871  0.2178 -0.1527
  833MPD2    H512255   0.506   2.306  12.517  2.3021  0.3286 -0.1261
  833MPD2    N112256   0.305   2.846  12.620 -0.2749 -0.3309  0.2754
  833MPD2    H712257   0.254   2.902  12.688 -1.6379 -1.2394 -0.0094
  834MPD2     C12258   0.425   1.577  11.951 -0.2787  0.1080  0.1948
  834MPD2    C112259   0.368   1.675  11.879  0.1686  0.3476 -0.2891
  834MPD2    C212260   0.385   1.801  11.917  0.0007 -0.3864 -0.6990
  834MPD2    C312261   0.434   1.826  12.045 -0.0060  0.0896  0.1721
  834MPD2    C412262   0.489   1.727  12.126 -0.3922 -0.1695  0.0080
  834MPD2    C512263   0.488   1.603  12.072 -0.2693 -0.3788  0.0399
  834MPD2     H12264   0.328   1.873  11.859  0.8651  0.4031 -0.5701
  834MPD2    H112265   0.538   1.751  12.219  1.9208 -2.5755 -0.6216
  834MPD2    H212266   0.435   1.482  11.899 -1.8048 -1.0533  2.0423
  834MPD2    H312267   0.536   1.520  12.124  0.1518  0.2767  0.7050
  834MPD2     N12268   0.422   1.967  12.080  0.0153 -0.4213 -0.6133
  834MPD2    H512269   0.374   2.029  12.015 -0.8609 -1.4054 -0.9040
  834MPD2    N112270   0.306   1.636  11.757  0.0878  0.4768  0.2232
  834MPD2    H712271   0.325   1.541  11.729  1.1530  0.4747  0.9739
  835MPD2     C12272   0.649   0.682  10.814 -0.2916  0.6008 -0.3752
  835MPD2    C112273   0.517   0.689  10.787  0.5193  0.5294 -0.5697
  835MPD2    C212274   0.431   0.669  10.895  0.4768 -0.1917  0.4781
  835MPD2    C312275   0.478   0.631  11.025 -0.1708 -0.5709  0.7981
  835MPD2    C412276   0.610   0.615  11.038 -0.5964  0.5630  1.0212
  835MPD2    C512277   0.701   0.655  10.941 -0.6039 -0.4613  0.1622
  835MPD2     H12278   0.326   0.697  10.887  0.7505  0.2329 -1.4793
  835MPD2    H112279   0.660   0.589  11.131  0.6864 -0.0213  0.1661
  835MPD2    H212280   0.721   0.686  10.733  0.8541 -2.3479  0.4959
  835MPD2    H312281   0.806   0.630  10.949 -0.0749  1.2799 -1.4379
  835MPD2     N12282   0.400   0.619  11.143  0.0313  0.1085 -0.7800
  835MPD2    H512283   0.445   0.603  11.233 -0.2130 -1.2126 -0.8837
  835MPD2    N112284   0.473   0.732  10.659 -0.1280 -0.3537 -0.0892
  835MPD2    H712285   0.550   0.759  10.600  0.1985  0.8411  0.8833
  836MPD2     C12286   4.619   1.139  11.482 -0.6225  0.1884 -0.8345
  836MPD2    C112287   4.640   1.025  11.551  0.0040 -0.6012 -0.0147
  836MPD2    C212288   4.580   1.009  11.671  0.4014 -0.2207 -0.2145
  836MPD2    C312289   4.495   1.105  11.721  1.0848  0.1205 -0.6632
  836MPD2    C412290   4.471   1.218  11.648  0.1419 -0.2220  0.2077
  836MPD2    C512291   4.545   1.238  11.534 -0.1694  0.4338 -0.8573
  836MPD2     H12292   4.594   0.912  11.716  0.7947  0.0019  0.1362
  836MPD2    H112293   4.396   1.291  11.676  2.0058  2.1698 -1.0958
  836MPD2    H212294   4.678   1.159  11.394  0.4720  1.9987  0.2916
  836MPD2    H312295   4.530   1.330  11.480 -0.7984  2.0962  2.1777
  836MPD2     N12296   4.419   1.087  11.843  0.2195  0.5771 -0.7696
  836MPD2    H512297   4.339   1.144  11.868 -1.6136 -2.1508 -0.3656
  836MPD2    N112298   4.719   0.919  11.490 -0.2785 -0.3903  0.4638
  836MPD2    H712299   0.013   0.921  11.390 -2.0278 -0.1121  0.1776
  837MPD2     C12300   3.050   0.642   9.979  0.1834  0.2902  0.0718
  837MPD2    C112301   2.976   0.651   9.860  0.0565  0.9278  0.1885
  837MPD2    C212302   2.921   0.774   9.830 -1.0450 -0.9422 -0.1577
  837MPD2    C312303   2.937   0.884   9.915 -0.6570 -0.1932 -0.2125
  837MPD2    C412304   3.014   0.866  10.026 -0.0675 -0.0838  0.4260
  837MPD2    C512305   3.079   0.751  10.056 -0.0399  0.1742  0.9556
  837MPD2     H12306   2.857   0.788   9.743  0.3031  0.4426 -0.9164
  837MPD2    H112307   3.031   0.949  10.094  0.1928  0.7753 -0.6966
  837MPD2    H212308   3.098   0.547  10.002  0.7385  1.0005  1.8131
  837MPD2    H312309   3.144   0.741  10.142  2.8024 -1.3050 -1.3267
  837MPD2     N12310   2.888   1.008   9.865  0.9066  0.2337  0.1759
  837MPD2    H512311   2.842   1.002   9.774  0.2065 -1.1728  0.6260
  837MPD2    N112312   2.942   0.542   9.780 -0.5598 -0.3143  0.0052
  837MPD2    H712313   2.910   0.570   9.688  1.1983  0.6121 -0.3251
  838MPD2     C12314   1.149   2.870  11.137  0.0228 -0.1707  0.6740
  838MPD2    C112315   1.174   2.869  11.277  0.1823  0.5070  0.2890
  838MPD2    C212316   1.067   2.848  11.361  0.5870 -0.0475 -0.1022
  838MPD2    C312317   0.947   2.813  11.315 -0.1726 -0.0830  0.2897
  838MPD2    C412318   0.927   2.811  11.178 -0.0306  0.1973  0.2814
  838MPD2    C512319   1.030   2.827  11.091 -0.3234  0.0676 -0.1733
  838MPD2     H12320   1.084   2.848  11.468 -0.2420 -1.3086  0.0393
  838MPD2    H112321   0.833   2.778  11.135  0.1228 -0.9422  0.8209
  838MPD2    H212322   1.213   2.876  11.050  0.0028 -1.0841  0.5975
  838MPD2    H312323   1.008   2.813  10.985 -1.7485 -1.2784  0.3043
  838MPD2     N12324   0.850   2.786  11.416  0.0127 -0.5277 -0.2862
  838MPD2    H512325   0.884   2.803  11.510  1.2101  1.6014 -1.1031
  838MPD2    N112326   1.305   2.873  11.339 -0.2070  0.6517 -0.3536
  838MPD2    H712327   1.310   2.849  11.437 -0.4095 -1.8023 -0.9618
  839MPD2     C12328   1.189   2.374  11.631 -0.8594  0.2353  0.2092
  839MPD2    C112329   1.230   2.412  11.504  0.6726 -0.3349  0.1852
  839MPD2    C212330   1.359   2.436  11.471  0.0173 -0.2352 -0.0533
  839MPD2    C312331   1.444   2.447  11.574 -0.5441  0.3263  0.3335
  839MPD2    C412332   1.405   2.417  11.701 -0.2106  0.5247 -0.5401
  839MPD2    C512333   1.282   2.368  11.729  0.3727 -0.8126 -0.0477
  839MPD2     H12334   1.389   2.458  11.369  2.3578  0.6969  0.8342
  839MPD2    H112335   1.474   2.420  11.785  0.0884  1.3057 -0.8177
  839MPD2    H212336   1.088   2.336  11.647 -1.5535  1.2389 -1.7629
  839MPD2    H312337   1.265   2.327  11.828  0.2202  0.3321  0.4101
  839MPD2     N12338   1.563   2.506  11.542 -0.7539  0.0707 -0.2456
  839MPD2    H512339   1.580   2.519  11.443  1.1047  0.0919  0.0812
  839MPD2    N112340   1.134   2.423  11.400  0.0389 -0.3208 -0.2901
  839MPD2    H712341   1.173   2.437  11.307 -0.7517  0.0244 -0.5706
  840MPD2     C12342   2.240   0.799  10.288 -0.2349  0.2498  0.4698
  840MPD2    C112343   2.264   0.725  10.404  0.5065 -0.3753 -0.1214
  840MPD2    C212344   2.359   0.773  10.499 -0.9970 -0.6010  0.3565
  840MPD2    C312345   2.420   0.895  10.481  0.1610  0.0931 -0.0891
  840MPD2    C412346   2.398   0.964  10.365  0.7453  0.7980  0.7259
  840MPD2    C512347   2.307   0.923  10.274 -0.1452 -0.0139  0.1819
  840MPD2     H12348   2.392   0.717  10.586  2.5816  1.0763  0.1033
  840MPD2    H112349   2.448   1.058  10.345 -0.3295  1.1723 -0.2270
  840MPD2    H212350   2.169   0.768  10.213 -0.6109  2.3461 -0.0396
  840MPD2    H312351   2.270   0.978  10.188  0.5638  0.7510  0.3678
  840MPD2     N12352   2.500   0.961  10.580 -0.3643  0.3061 -0.2370
  840MPD2    H512353   2.540   1.051  10.553  0.8648  0.0268  0.6481
  840MPD2    N112354   2.194   0.597  10.423 -0.5097  0.3161  0.7564
  840MPD2    H712355   2.120   0.592  10.354 -0.2838 -1.4211  0.6521
  841MPD2     C12356   1.112   0.024  14.714  0.1088 -0.0736 -0.1496
  841MPD2    C112357   1.080   0.016  14.579  0.1533  0.4513  0.0275
  841MPD2    C212358   1.063   0.135  14.510  0.0344 -0.3101 -0.2886
  841MPD2    C312359   1.067   0.258  14.574  0.3785  0.6218  0.4727
  841MPD2    C412360   1.085   0.264  14.710  0.3541  0.2303  0.0363
  841MPD2    C512361   1.104   0.144  14.776 -0.4641 -0.1931 -0.0716
  841MPD2     H12362   1.034   0.127  14.406 -1.5715 -0.4559  0.1766
  841MPD2    H112363   1.108   0.353  14.768  1.4042 -0.1054  0.1453
  841MPD2    H212364   1.152   4.666  14.774 -0.6395 -1.3360 -1.3180
  841MPD2    H312365   1.121   0.142  14.883  0.6652 -1.8228 -0.2802
  841MPD2     N12366   1.059   0.379  14.500  0.0353 -0.0972 -0.1882
  841MPD2    H512367   1.076   0.371  14.400  3.0033 -0.8745  0.3889
  841MPD2    N112368   1.073   4.614  14.512 -0.4277  0.2878  0.0025
  841MPD2    H712369   1.042   4.610  14.415  1.3906  0.4442 -0.5912
  842MPD2     C12370   1.964   1.542  16.470 -0.9961  0.4131 -0.2049
  842MPD2    C112371   1.910   1.420  16.501  0.5307  0.4999  0.3573
  842MPD2    C212372   1.846   1.403  16.625  0.3862 -0.0524  0.3272
  842MPD2    C312373   1.826   1.516  16.713  0.2850  1.4303  0.3733
  842MPD2    C412374   1.879   1.636  16.672  0.4770  1.0406 -0.1723
  842MPD2    C512375   1.938   1.651  16.549  0.0261 -0.6858 -0.1260
  842MPD2     H12376   1.796   1.311  16.653 -2.7461  2.3437  2.5921
  842MPD2    H112377   1.862   1.721  16.736  1.7401  0.8651  0.3912
  842MPD2    H212378   2.022   1.558  16.380  0.4288  0.7073  0.7648
  842MPD2    H312379   1.974   1.747  16.514  1.6040 -0.1778  2.8809
  842MPD2     N12380   1.762   1.504  16.837 -0.3049 -0.4818  0.1734
  842MPD2    H512381   1.744   1.587  16.893 -2.3860 -0.1668 -0.9646
  842MPD2    N112382   1.952   1.322  16.412 -0.0682  0.3195 -0.0321
  842MPD2    H712383   1.989   1.349  16.322 -2.5395 -1.7698 -1.6550
  843MPD2     C12384   3.679   1.615  17.384  0.6067  0.1028 -0.2988
  843MPD2    C112385   3.657   1.620  17.520  0.7910 -0.2190 -0.2167
  843MPD2    C212386   3.727   1.710  17.602  0.6312 -0.9930  0.1137
  843MPD2    C312387   3.830   1.785  17.545  0.2012 -0.1431  0.2243
  843MPD2    C412388   3.852   1.784  17.406 -0.0561 -0.1827  0.0695
  843MPD2    C512389   3.775   1.695  17.329  0.0736  0.2426 -0.0280
  843MPD2     H12390   3.709   1.719   0.016 -1.0489 -0.0737 -0.2415
  843MPD2    H112391   3.935   1.839  17.364  2.4846 -3.0052  1.4475
  843MPD2    H212392   3.631   1.546  17.315 -1.9505  0.5145  1.0728
  843MPD2    H312393   3.796   1.686  17.223 -0.0722  0.2731 -0.0590
  843MPD2     N12394   3.926   1.858  17.616 -0.1848 -0.2138  0.1387
  843MPD2    H512395   3.975   1.931  17.565 -1.1993  0.2171 -0.2313
  843MPD2    N112396   3.568   1.526  17.565 -0.0157  0.2514 -0.1080
  843MPD2    H712397   3.543   1.456  17.496 -2.6392  2.0803 -1.0330
  844MPD2     C12398   2.634   0.693  16.205  0.1518  0.1747  0.3116
  844MPD2    C112399   2.727   0.594  16.236  0.0455 -0.1686 -0.1692
  844MPD2    C212400   2.801   0.605  16.349  0.8654  0.0179 -0.3859
  844MPD2    C312401   2.784   0.706  16.438  0.2371 -0.8252 -0.3567
  844MPD2    C412402   2.690   0.804  16.406  0.1342  0.5636 -0.3735
  844MPD2    C512403   2.613   0.795  16.293 -0.8843  0.1085 -0.2191
  844MPD2     H12404   2.872   0.528  16.376  0.2798 -0.6299 -0.6898
  844MPD2    H112405   2.672   0.889  16.471 -0.3484  0.2123 -0.0488
  844MPD2    H212406   2.573   0.693  16.116  0.7294  1.5765 -0.0767
  844MPD2    H312407   2.536   0.870  16.284  0.6800  1.6663 -0.6208
  844MPD2     N12408   2.859   0.710  16.554 -0.1384 -0.2574 -0.6541
  844MPD2    H512409   2.921   0.631  16.571  0.7015  0.8539  1.3375
  844MPD2    N112410   2.736   0.477  16.156 -0.0022  0.2952  0.1763
  844MPD2    H712411   2.798   0.401  16.182  0.8480  1.7333  2.3906
  845MPD2     C12412   3.186   1.508  16.986 -0.3401 -0.1158 -0.5395
  845MPD2    C112413   3.076   1.467  17.036  0.1463  0.4812  0.2022
  845MPD2    C212414   3.035   1.331  17.021  0.1337  0.2250  0.4207
  845MPD2    C312415   3.122   1.250  16.957  0.0060  0.6668  0.3810
  845MPD2    C412416   3.233   1.294  16.891 -0.6874 -0.6244  0.5597
  845MPD2    C512417   3.270   1.430  16.910 -0.2706 -0.6791  0.2047
  845MPD2     H12418   2.938   1.290  17.046 -0.2332  0.7656 -0.1228
  845MPD2    H112419   3.294   1.234  16.824 -0.1832 -0.5554  0.9523
  845MPD2    H212420   3.213   1.613  16.989  1.6897 -0.6869  1.4787
  845MPD2    H312421   3.355   1.479  16.863 -0.7954  0.0538  0.0180
  845MPD2     N12422   3.080   1.116  16.942  1.3473 -0.2625 -0.5816
  845MPD2    H512423   2.986   1.096  16.975  1.2841 -1.7202 -1.6427
  845MPD2    N112424   3.004   1.564  17.111 -0.5694 -0.0371 -0.7656
  845MPD2    H712425   3.034   1.660  17.118  2.0889 -0.8619 -0.7972
  846MPD2     C12426   4.408   2.060  13.495  0.3131  0.3842 -0.9566
  846MPD2    C112427   4.341   2.166  13.549 -0.0082  1.3116  0.2865
  846MPD2    C212428   4.322   2.165  13.686  0.4076  0.3641  0.7660
  846MPD2    C312429   4.364   2.066  13.769  0.2532 -0.2685  0.5012
  846MPD2    C412430   4.431   1.966  13.707  0.0262  0.0432 -0.1018
  846MPD2    C512431   4.449   1.959  13.575  0.3195 -0.5001  0.2190
  846MPD2     H12432   4.251   2.238  13.723 -1.8364 -0.3306 -2.1847
  846MPD2    H112433   4.473   1.881  13.759  1.4349 -0.2670 -1.7201
  846MPD2    H212434   4.430   2.049  13.389  1.8489  1.6809 -0.7842
  846MPD2    H312435   4.502   1.873  13.534 -0.2483 -0.3791 -0.7562
  846MPD2     N12436   4.335   2.065  13.913 -0.2837 -0.5775 -0.2576
  846MPD2    H512437   4.276   2.138  13.951 -0.7314 -1.3510  0.5496
  846MPD2    N112438   4.314   2.278  13.465  0.2393 -0.2297  0.1116
  846MPD2    H712439   4.279   2.360  13.515 -1.0890 -0.8956  0.2820
  847MPD2     C12440   0.056   3.083  14.095  0.7307 -0.4767 -0.6257
  847MPD2    C112441   0.090   3.128  14.221 -0.4581 -0.4015 -0.0780
  847MPD2    C212442   0.085   3.030  14.321 -0.3012  0.3400  0.4642
  847MPD2    C312443   0.060   2.896  14.285  0.6793  0.1798  0.1187
  847MPD2    C412444   0.043   2.854  14.150  0.1082 -0.1009 -0.4983
  847MPD2    C512445   0.039   2.952  14.057 -0.2466 -0.5317 -0.0452
  847MPD2     H12446   0.110   3.069  14.419  0.4859  2.1004 -0.4420
  847MPD2    H112447   0.028   2.752  14.115  1.3688 -0.7109  0.7530
  847MPD2    H212448   0.050   3.149  14.009 -2.7708 -0.4931 -0.4083
  847MPD2    H312449   0.024   2.929  13.952 -1.6604 -0.1053  0.0666
  847MPD2     N12450   0.041   2.810  14.394  0.2282  0.1500  0.3576
  847MPD2    H512451   0.044   2.852  14.486  3.0905 -0.8138  0.7014
  847MPD2    N112452   0.109   3.262  14.243 -0.1337  0.2052  1.0010
  847MPD2    H712453   0.110   3.290  14.341 -2.1881  0.5602  0.9117
  848MPD2     C12454   2.261   1.234  16.199 -0.6728 -0.2521 -0.2123
  848MPD2    C112455   2.297   1.280  16.327  0.2635 -0.2813  0.4743
  848MPD2    C212456   2.321   1.415  16.353  0.3199 -1.2956  0.4344
  848MPD2    C312457   2.284   1.512  16.257 -0.2337  0.6678 -0.3162
  848MPD2    C412458   2.232   1.464  16.135  0.8443 -0.3937 -0.7700
  848MPD2    C512459   2.222   1.332  16.111 -0.2894 -0.0310 -0.3623
  848MPD2     H12460   2.366   1.441  16.448  0.1975  1.1414 -0.1702
  848MPD2    H112461   2.182   1.530  16.065  0.5483  2.2561  1.9210
  848MPD2    H212462   2.258   1.132  16.162  1.5756 -0.5528  0.4322
  848MPD2    H312463   2.175   1.306  16.017 -2.8047  3.2848  0.0016
  848MPD2     N12464   2.268   1.659  16.286  0.0439 -0.4020  0.3791
  848MPD2    H512465   2.224   1.708  16.208 -0.4202 -0.2672  0.7265
  848MPD2    N112466   2.318   1.191  16.427  0.3116  0.7166  0.2322
  848MPD2    H712467   2.352   1.227  16.516 -2.4703  3.8229  0.0373
  849MPD2     C12468   1.613   0.592  13.647  0.7038 -0.1953  0.2385
  849MPD2    C112469   1.630   0.694  13.733 -0.6735  0.7554 -0.1814
  849MPD2    C212470   1.713   0.678  13.838 -0.1953 -0.3871 -0.2270
  849MPD2    C312471   1.787   0.562  13.858 -0.8349 -0.5156  0.2138
  849MPD2    C412472   1.768   0.464  13.765 -0.0970  0.6555 -0.2113
  849MPD2    C512473   1.688   0.480  13.652 -0.1930 -0.4080  0.5688
  849MPD2     H12474   1.725   0.763  13.904  1.3824 -1.5343  0.9799
  849MPD2    H112475   1.824   0.371  13.776  0.0381  0.5668 -1.6606
  849MPD2    H212476   1.545   0.592  13.562 -1.3911 -2.3460  1.9439
  849MPD2    H312477   1.691   0.408  13.571  1.5191 -0.6442  0.8497
  849MPD2     N12478   1.881   0.549  13.965 -0.1825 -0.8139  0.4404
  849MPD2    H512479   1.926   0.458  13.964 -0.8838 -1.1901  2.1350
  849MPD2    N112480   1.562   0.819  13.713  0.5223 -0.4986  0.3308
  849MPD2    H712481   1.548   0.839  13.614 -0.8794 -4.0161 -0.1949
  850MPD2     C12482   4.207   4.126  14.878  0.0871  0.5512 -0.0914
  850MPD2    C112483   4.249   4.054  14.989  0.2520 -0.6508 -0.6176
  850MPD2    C212484   4.384   4.016  14.997 -0.1332 -0.2637 -0.2332
  850MPD2    C312485   4.471   4.055  14.889 -0.3325  0.1449 -0.3578
  850MPD2    C412486   4.419   4.111  14.774  0.6842 -0.1335  0.7414
  850MPD2    C512487   4.293   4.159  14.778 -0.0011  0.6163  0.3940
  850MPD2     H12488   4.413   3.960  15.085  1.1624 -0.3285 -0.6989
  850MPD2    H112489   4.486   4.121  14.689  1.9262 -2.0709  1.4882
  850MPD2    H212490   4.113   4.176  14.857  1.0343  2.3490 -0.1032
  850MPD2    H312491   4.250   4.201  14.687  2.6578  0.7685 -0.8171
  850MPD2     N12492   4.612   4.043  14.910 -0.1376 -0.1201 -0.4198
  850MPD2    H512493   4.666   4.077  14.832  2.3552 -0.3306  1.2084
  850MPD2    N112494   4.162   4.036  15.098  0.4532  1.0629 -0.0439
  850MPD2    H712495   4.075   4.088  15.099 -0.1960 -0.0308 -0.8774
  851MPD2     C12496   4.682   4.053  15.613 -0.2865 -0.5089 -0.4675
  851MPD2    C112497   4.583   3.964  15.579 -0.6235 -0.3762  0.4502
  851MPD2    C212498   4.610   3.848  15.506  0.3492  0.5739  0.3612
  851MPD2    C312499   0.011   3.827  15.458 -0.0245 -0.3547  0.0963
  851MPD2    C412500   0.110   3.917  15.493 -0.4112 -0.4644 -0.7153
  851MPD2    C512501   0.086   4.027  15.578 -0.5702  0.0307  0.3113
  851MPD2     H12502   4.532   3.782  15.469  0.0475  0.1705  1.7175
  851MPD2    H112503   0.214   3.892  15.478  0.3827  0.7493  2.7883
  851MPD2    H212504   4.676   4.145  15.670 -1.7407 -1.5537  1.0859
  851MPD2    H312505   0.171   4.087  15.607 -1.8877  1.3507  1.4786
  851MPD2     N12506   0.037   3.712  15.379 -0.5116  0.6431  0.4150
  851MPD2    H512507   4.676   3.654  15.373 -0.7653  1.1016 -0.5104
  851MPD2    N112508   4.450   3.998  15.599 -0.0940 -0.3213  0.5504
  851MPD2    H712509   4.441   4.097  15.622 -0.4417  0.3277 -2.3273
  852MPD2     C12510   4.249   1.949   9.498  0.5527 -0.1901  0.3037
  852MPD2    C112511   4.282   1.862   9.598  0.1685  0.2755 -0.5846
  852MPD2    C212512   4.315   1.919   9.717  0.4609  0.3121 -0.4666
  852MPD2    C312513   4.310   2.054   9.740 -0.5362  0.3665  0.2123
  852MPD2    C412514   4.262   2.141   9.642 -0.0326  1.1494 -0.6072
  852MPD2    C512515   4.239   2.092   9.518  0.2184 -0.0137 -0.7913
  852MPD2     H12516   4.354   1.862   9.801  0.2025 -0.8097 -1.1089
  852MPD2    H112517   4.248   2.246   9.665  2.5331  1.5881 -1.0410
  852MPD2    H212518   4.229   1.916   9.397 -0.0395  0.4701  0.2053
  852MPD2    H312519   4.225   2.161   9.436 -0.3085 -0.9580 -1.5019
  852MPD2     N12520   4.339   2.091   9.873 -0.6685 -0.1825  0.1427
  852MPD2    H512521   4.343   2.009   9.932 -0.1810 -1.9819 -2.3840
  852MPD2    N112522   4.289   1.723   9.583 -0.2341 -0.1728  0.3034
  852MPD2    H712523   4.325   1.675   9.665  0.9202 -0.2015 -0.2198
  853MPD2     C12524   0.826   1.924  12.092 -0.7999  0.1109  0.0563
  853MPD2    C112525   0.957   1.889  12.120  0.2339 -0.5651 -0.3907
  853MPD2    C212526   1.031   1.835  12.020  0.0021  0.2325 -0.6220
  853MPD2    C312527   0.986   1.821  11.885  0.0670 -0.4870 -0.1314
  853MPD2    C412528   0.852   1.856  11.854  0.7849 -0.5941 -0.4190
  853MPD2    C512529   0.777   1.903  11.959 -0.4987  0.5860  0.5281
  853MPD2     H12530   1.131   1.804  12.047 -1.0558 -0.7930  2.1625
  853MPD2    H112531   0.806   1.852  11.756 -3.4795 -0.6412  1.6004
  853MPD2    H212532   0.769   1.963  12.175  0.2664  0.5791  0.5751
  853MPD2    H312533   0.671   1.916  11.941 -0.9216 -3.0917  0.2565
  853MPD2     N12534   1.065   1.777  11.776 -0.5410 -0.1311  0.1986
  853MPD2    H512535   1.014   1.740  11.697 -0.8651  3.3520 -1.2134
  853MPD2    N112536   1.001   1.913  12.252  0.1204  0.3855  0.5239
  853MPD2    H712537   0.929   1.948  12.316  1.3304  0.6562  1.7297
  854MPD2     C12538   2.692   1.074  13.157  0.4372 -0.0627  0.1726
  854MPD2    C112539   2.723   1.137  13.034 -0.1961 -0.1731  0.8628
  854MPD2    C212540   2.850   1.204  13.023 -0.1993 -0.2157 -0.1155
  854MPD2    C312541   2.936   1.202  13.131 -0.5725 -0.4828 -0.1857
  854MPD2    C412542   2.901   1.142  13.249 -0.2053  0.2267  0.6548
  854MPD2    C512543   2.780   1.077  13.256  0.5048  0.2475 -0.1231
  854MPD2     H12544   2.888   1.245  12.930 -0.3296 -1.6048 -0.7818
  854MPD2    H112545   2.967   1.144  13.335  1.5444  1.2270 -0.6855
  854MPD2    H212546   2.611   1.003  13.171  0.4819 -0.4324 -1.4136
  854MPD2    H312547   2.752   1.017  13.342  1.2388 -0.3240 -0.2869
  854MPD2     N12548   3.065   1.261  13.134  0.2109 -0.0087 -0.1100
  854MPD2    H512549   3.120   1.241  13.217 -0.2998 -2.5931 -0.3938
  854MPD2    N112550   2.636   1.106  12.922 -0.6165 -0.6358  0.3297
  854MPD2    H712551   2.554   1.049  12.941 -1.4021  0.3916  0.0791
  855MPD2     C12552   3.882   1.389  13.648 -0.1098 -0.1053 -0.3686
  855MPD2    C112553   3.792   1.294  13.601 -0.3027 -0.1330  0.4818
  855MPD2    C212554   3.692   1.337  13.516 -0.1462 -0.5099 -0.3160
  855MPD2    C312555   3.693   1.466  13.457  0.2998 -0.3749  0.0577
  855MPD2    C412556   3.800   1.547  13.492  0.3859  0.2090  0.5816
  855MPD2    C512557   3.891   1.510  13.589 -0.5808  0.5615  0.2718
  855MPD2     H12558   3.622   1.265  13.475  0.5702 -1.5590  0.3270
  855MPD2    H112559   3.806   1.641  13.438 -3.8489  0.6992  0.9755
  855MPD2    H212560   3.951   1.359  13.727 -0.3360  0.8487  0.1939
  855MPD2    H312561   3.968   1.579  13.621 -0.6555 -0.3207  2.3292
  855MPD2     N12562   3.593   1.512  13.364 -0.3387  0.4557  0.2505
  855MPD2    H512563   3.608   1.598  13.313 -0.1184  1.7639  2.5613
  855MPD2    N112564   3.805   1.165  13.651  0.0802 -0.0287 -0.6591
  855MPD2    H712565   3.877   1.149  13.721  0.2644  1.5143 -0.4873
  856MPD2     C12566   0.349   2.222  13.822  0.0962  0.1415 -0.2164
  856MPD2    C112567   0.465   2.291  13.824 -0.5820  0.1632  0.2728
  856MPD2    C212568   0.462   2.429  13.839 -0.0342  0.0057  0.4440
  856MPD2    C312569   0.348   2.500  13.858  1.2528  0.2766  0.7623
  856MPD2    C412570   0.232   2.431  13.852  0.3367  0.3373 -0.4087
  856MPD2    C512571   0.231   2.296  13.828  0.5421 -0.6318 -0.2728
  856MPD2     H12572   0.557   2.477  13.861 -0.1212 -0.5975  2.1156
  856MPD2    H112573   0.137   2.480  13.837 -0.2778 -1.2385 -1.6893
  856MPD2    H212574   0.341   2.114  13.809  2.5481  0.0048 -0.6291
  856MPD2    H312575   0.140   2.236  13.828 -0.6461  1.1698  0.5447
  856MPD2     N12576   0.335   2.639  13.873 -0.1000  0.7903  0.1957
  856MPD2    H512577   0.244   2.684  13.867 -1.2433 -1.7814 -1.7798
  856MPD2    N112578   0.596   2.224  13.817  0.3892  0.2064 -0.2091
  856MPD2    H712579   0.678   2.276  13.786  0.4225  1.7431  2.4805
  857MPD2     C12580   2.445   3.741  13.269  0.0992 -0.3500  0.5023
  857MPD2    C112581   2.507   3.846  13.212  0.8550  0.3323 -0.0381
  857MPD2    C212582   2.526   3.959  13.278  0.5174  0.6276  0.1960
  857MPD2    C312583   2.472   3.975  13.403  0.4708  0.7517 -0.0516
  857MPD2    C412584   2.407   3.870  13.469 -0.4160  0.2449  0.0766
  857MPD2    C512585   2.402   3.749  13.400 -0.4517 -0.6520 -0.1533
  857MPD2     H12586   2.583   4.039  13.232  0.2120  0.0332 -1.2267
  857MPD2    H112587   2.364   3.881  13.568  0.6357 -0.5047  0.6340
  857MPD2    H212588   2.446   3.641  13.228  2.5054 -0.6034  1.1520
  857MPD2    H312589   2.367   3.655  13.441 -0.4191 -0.5244  0.1712
  857MPD2     N12590   2.470   4.100  13.464 -0.4131  0.1268  0.1082
  857MPD2    H512591   2.545   4.161  13.434  0.4386 -0.8058  0.3499
  857MPD2    N112592   2.553   3.820  13.081 -0.1307  0.0081 -0.3548
  857MPD2    H712593   2.519   3.736  13.035 -0.9499 -0.6091  1.3562
  858MPD2     C12594   2.787   3.178  16.673  0.5498  0.4603 -0.5348
  858MPD2    C112595   2.913   3.223  16.703  0.2926 -0.7415  0.3597
  858MPD2    C212596   2.925   3.352  16.762  0.2778  0.8113  1.0099
  858MPD2    C312597   2.814   3.433  16.782  0.2763 -0.1758  0.3808
  858MPD2    C412598   2.688   3.389  16.747  0.5115 -0.1109 -0.5431
  858MPD2    C512599   2.674   3.259  16.698  0.0842  0.6461 -0.8405
  858MPD2     H12600   3.024   3.385  16.790  0.3664 -0.4526  2.1940
  858MPD2    H112601   2.597   3.444  16.766  3.3150  4.8628 -1.4814
  858MPD2    H212602   2.766   3.081  16.628 -0.3246 -0.6790  2.3007
  858MPD2    H312603   2.574   3.219  16.682  0.2063 -0.5111  1.2416
  858MPD2     N12604   2.822   3.551  16.856 -1.0313  0.0380  0.2465
  858MPD2    H512605   2.737   3.577  16.904 -2.3294  0.4475 -2.2967
  858MPD2    N112606   3.017   3.133  16.680  0.4763 -0.3779 -0.2971
  858MPD2    H712607   3.001   3.055  16.618  2.4125 -0.0855 -1.1529
  859MPD2     C12608   1.302   0.723  14.949  0.7201  1.1980 -0.1987
  859MPD2    C112609   1.428   0.763  14.907  0.2843  0.3790  0.8821
  859MPD2    C212610   1.509   0.666  14.847 -0.5898 -0.0448  0.3195
  859MPD2    C312611   1.459   0.539  14.834  0.8790  1.5055  0.2550
  859MPD2    C412612   1.335   0.500  14.881 -0.0217  0.2165 -0.0862
  859MPD2    C512613   1.258   0.593  14.935 -0.3759 -0.4279  0.0013
  859MPD2     H12614   1.608   0.690  14.811 -0.1234 -2.5706 -0.0637
  859MPD2    H112615   1.295   0.400  14.868  2.3995 -0.8287  0.6461
  859MPD2    H212616   1.233   0.797  14.986 -0.6633 -0.8841  1.3852
  859MPD2    H312617   1.153   0.579  14.956 -0.4696  0.4960  0.1657
  859MPD2     N12618   1.539   0.434  14.793  0.8721  0.5360  0.2628
  859MPD2    H512619   1.493   0.351  14.758  1.5247 -0.9323  2.9784
  859MPD2    N112620   1.468   0.894  14.941  0.1980  0.0765  0.3835
  859MPD2    H712621   1.397   0.951  14.986  0.7792  1.4990 -0.4885
  860MPD2     C12622   3.803   1.507  11.468  0.2438  0.5814 -0.1145
  860MPD2    C112623   3.836   1.523  11.604 -0.1393  0.0151 -0.1355
  860MPD2    C212624   3.744   1.472  11.701 -0.5413  0.5276 -0.2337
  860MPD2    C312625   3.622   1.414  11.653  0.0903  0.0013  0.4363
  860MPD2    C412626   3.594   1.413  11.519  0.4165 -0.1471  0.4685
  860MPD2    C512627   3.687   1.445  11.426  0.3834  0.3409  0.6122
  860MPD2     H12628   3.761   1.461  11.808  1.8380 -1.1432 -0.7854
  860MPD2    H112629   3.498   1.385  11.478  0.3130 -1.5014  1.6409
  860MPD2    H212630   3.861   1.558  11.392  0.6811 -0.4984 -0.5175
  860MPD2    H312631   3.649   1.441  11.325 -0.4183  0.0458  0.9281
  860MPD2     N12632   3.536   1.376  11.750  0.4863 -0.6460 -0.1225
  860MPD2    H512633   3.550   1.414  11.842 -0.5421  0.6626 -0.5017
  860MPD2    N112634   3.949   1.592  11.659 -0.0957 -0.5819 -0.1573
  860MPD2    H712635   3.949   1.612  11.759  1.0688 -0.3793 -0.1928
  861MPD2     C12636   3.467   4.581  10.809 -0.2064  0.6009  0.2487
  861MPD2    C112637   3.345   4.557  10.866  0.2332 -0.2027 -0.8030
  861MPD2    C212638   3.234   4.593  10.789  0.3336  0.6568  0.2413
  861MPD2    C312639   3.237   4.654  10.668  0.6346 -0.2020  0.1993
  861MPD2    C412640   3.364   4.686  10.615  0.7508  0.4513 -0.0872
  861MPD2    C512641   3.471   4.643  10.687 -0.0530 -0.3276 -1.1115
  861MPD2     H12642   3.140   4.566  10.837  0.0416  1.0250 -0.1274
  861MPD2    H112643   3.379   0.003  10.515  0.0618  1.4139  0.1928
  861MPD2    H212644   3.567   4.558  10.846 -0.4521 -0.0114  0.5334
  861MPD2    H312645   3.568   4.667  10.645  0.8325  2.6277  2.6272
  861MPD2     N12646   3.116   4.696  10.601  0.0251  0.2549 -0.0179
  861MPD2    H512647   3.124   0.028  10.515  0.1247 -1.4729 -1.0940
  861MPD2    N112648   3.324   4.502  10.996 -0.4968 -0.1464  0.1267
  861MPD2    H712649   3.226   4.494  11.022 -0.2203 -1.7689  0.6805
  862MPD2     C12650   2.376   4.436  10.635 -0.3051  0.1001  0.1596
  862MPD2    C112651   2.488   4.462  10.709 -0.0011 -0.5890  0.3832
  862MPD2    C212652   2.517   4.379  10.817 -0.8275 -0.1035 -0.2036
  862MPD2    C312653   2.438   4.265  10.833  0.0121 -0.0987  0.3353
  862MPD2    C412654   2.324   4.249  10.759 -0.2848 -0.8004  0.4803
  862MPD2    C512655   2.293   4.330  10.661  0.2500 -0.3052  1.0366
  862MPD2     H12656   2.600   4.401  10.883 -0.7654 -1.5453  0.1951
  862MPD2    H112657   2.257   4.166  10.778  0.5454 -1.2234  1.5871
  862MPD2    H212658   2.348   4.488  10.545  2.4814  0.6903 -0.3631
  862MPD2    H312659   2.207   4.296  10.606  0.9799  0.3738 -0.5179
  862MPD2     N12660   2.450   4.190  10.950 -0.5820  0.3223  0.3004
  862MPD2    H512661   2.376   4.124  10.970  0.4392 -1.0218 -0.3985
  862MPD2    N112662   2.572   4.569  10.676 -0.2481  0.0123  0.0204
  862MPD2    H712663   2.668   4.568  10.711 -0.0583 -2.9334 -0.5683
  863MPD2     C12664   0.744   2.393  16.890 -0.3659 -0.0795  0.2667
  863MPD2    C112665   0.812   2.514  16.868 -0.7194 -1.1026 -0.3321
  863MPD2    C212666   0.939   2.513  16.918 -0.2181  0.6566 -1.2656
  863MPD2    C312667   0.994   2.409  16.988  0.2347  0.6601 -0.2805
  863MPD2    C412668   0.917   2.298  17.013  0.5708  0.1639 -0.2086
  863MPD2    C512669   0.798   2.287  16.954  0.0821  0.6884 -0.1134
  863MPD2     H12670   0.990   2.609  16.914 -1.4930  1.3231 -1.6298
  863MPD2    H112671   0.962   2.211  17.060  0.8975 -0.2838 -1.3611
  863MPD2    H212672   0.639   2.386  16.865  0.1599 -1.7084 -1.4956
  863MPD2    H312673   0.741   2.196  16.966  0.6001  0.2832 -0.7096
  863MPD2     N12674   1.120   2.408  17.042  0.1925  0.1591  0.5486
  863MPD2    H512675   1.139   2.321  17.090 -2.4019 -0.8528 -0.2940
  863MPD2    N112676   0.748   2.618  16.796  0.4948 -0.8129 -0.1900
  863MPD2    H712677   0.650   2.616  16.771 -0.3883  0.7368  3.1434
  864MPD2     C12678   1.427   4.128  16.901  0.5616  0.1448  0.5234
  864MPD2    C112679   1.530   4.039  16.873  0.4180  0.0128 -0.0443
  864MPD2    C212680   1.641   4.086  16.804 -0.0043  0.2351  0.3341
  864MPD2    C312681   1.632   4.212  16.751 -0.5435  0.6201  0.0366
  864MPD2    C412682   1.527   4.296  16.780 -0.1269  0.9121  0.3802
  864MPD2    C512683   1.426   4.262  16.859 -0.2123 -0.2772  0.8323
  864MPD2     H12684   1.729   4.024  16.793 -1.1782 -1.9598  3.4005
  864MPD2    H112685   1.520   4.395  16.736  3.5486  0.9938 -0.0412
  864MPD2    H212686   1.349   4.096  16.969  2.3378 -3.6521  0.7448
  864MPD2    H312687   1.349   4.330  16.893  0.9159  3.1451 -3.4872
  864MPD2     N12688   1.726   4.264  16.661 -0.6434  0.0547 -0.3114
  864MPD2    H512689   1.710   4.348  16.606 -1.0819  1.2570  1.6464
  864MPD2    N112690   1.530   3.905  16.905  0.3889 -0.0639  0.2641
  864MPD2    H712691   1.603   3.844  16.868 -0.0346  0.2646 -1.1088
  865MPD2     C12692   1.680   3.888  15.774 -0.3382  0.3895 -0.1548
  865MPD2    C112693   1.693   3.836  15.901  0.2097 -0.8372  0.4181
  865MPD2    C212694   1.729   3.912  16.018  0.7187  0.5888  0.1554
  865MPD2    C312695   1.764   4.044  15.991  0.2277 -0.7322  1.0656
  865MPD2    C412696   1.770   4.091  15.864 -0.6987  0.1021  0.2897
  865MPD2    C512697   1.720   4.019  15.762 -0.2269  0.6907 -1.0861
  865MPD2     H12698   1.745   3.864  16.114  0.3815 -0.1611 -0.1609
  865MPD2    H112699   1.792   4.194  15.837 -2.1438 -0.0917 -1.5937
  865MPD2    H212700   1.653   3.819  15.694  0.6333  0.5032 -0.5930
  865MPD2    H312701   1.711   4.064  15.664 -0.1095  1.5189 -0.7109
  865MPD2     N12702   1.823   4.128  16.087 -0.4547 -0.1098 -0.7031
  865MPD2    H512703   1.853   4.221  16.059  2.1509  0.0109  2.5133
  865MPD2    N112704   1.668   3.697  15.913 -0.6813  0.1699  0.2055
  865MPD2    H712705   1.661   3.639  15.830 -0.5745 -0.7768  0.8502
  866MPD2     C12706   3.621   0.113  11.561  0.2274 -0.0476 -0.0888
  866MPD2    C112707   3.688   0.148  11.445  0.3812 -0.4033  0.0525
  866MPD2    C212708   3.611   0.201  11.344 -0.6044 -0.2277 -0.0376
  866MPD2    C312709   3.472   0.211  11.348  0.5299 -0.2384 -0.2246
  866MPD2    C412710   3.413   0.190  11.470  0.9522 -0.4408  0.9402
  866MPD2    C512711   3.485   0.136  11.577  0.3094  0.3048 -0.4653
  866MPD2     H12712   3.669   0.213  11.253  0.8323 -1.3612  0.7325
  866MPD2    H112713   3.308   0.203  11.491  0.8875 -0.8843  0.8972
  866MPD2    H212714   3.679   0.088  11.649  2.6904 -0.3293 -1.8025
  866MPD2    H312715   3.451   0.115  11.678 -2.1858 -1.4604 -1.6812
  866MPD2     N12716   3.397   0.233  11.233  0.0212 -0.4799 -0.3293
  866MPD2    H512717   3.297   0.244  11.245 -0.0751  0.8307 -2.2254
  866MPD2    N112718   3.828   0.134  11.434  0.4702 -0.2261  0.6792
  866MPD2    H712719   3.869   0.077  11.507 -0.6037 -0.4721  1.0837
  867MPD2     C12720   0.537   3.918  16.685  0.0974 -0.0065  0.0650
  867MPD2    C112721   0.612   3.893  16.802  0.3811 -0.6065  0.3450
  867MPD2    C212722   0.655   4.005  16.872 -0.3188  0.3832  0.3044
  867MPD2    C312723   0.633   4.136  16.830  0.4768 -0.0109  0.4704
  867MPD2    C412724   0.574   4.157  16.716 -0.3889 -0.0378 -0.2968
  867MPD2    C512725   0.525   4.047  16.653 -0.1333 -0.2766  1.6576
  867MPD2     H12726   0.704   3.982  16.966 -0.8231  1.8448  0.9284
  867MPD2    H112727   0.548   4.259  16.690 -0.5460 -0.0191 -0.0706
  867MPD2    H212728   0.501   3.841  16.618  0.2749 -0.5282  0.5667
  867MPD2    H312729   0.477   4.058  16.556 -0.5692 -0.8453  1.8092
  867MPD2     N12730   0.670   4.248  16.910  0.3011 -0.0097 -0.1208
  867MPD2    H512731   0.662   4.337  16.862  2.4021 -0.0345 -0.5215
  867MPD2    N112732   0.632   3.764  16.838 -0.0674 -0.0060  0.0145
  867MPD2    H712733   0.572   3.693  16.798 -0.2948  0.6393 -0.7862
  868MPD2     C12734   2.590   1.465  12.960 -0.0885  0.2382 -0.2001
  868MPD2    C112735   2.624   1.596  12.968  0.5828  0.0015 -0.6494
  868MPD2    C212736   2.551   1.680  13.054 -0.4515 -0.1096 -0.3519
  868MPD2    C312737   2.456   1.628  13.141  0.7831 -0.4875  0.1279
  868MPD2    C412738   2.419   1.495  13.127  0.5574  0.0751  0.9295
  868MPD2    C512739   2.491   1.416  13.038  0.2396  0.1032  0.0287
  868MPD2     H12740   2.577   1.784  13.071 -0.9570  0.2719 -1.8812
  868MPD2    H112741   2.346   1.448  13.191 -1.2807  0.2869 -1.0066
  868MPD2    H212742   2.642   1.395  12.896 -1.3886 -2.2470  1.4715
  868MPD2    H312743   2.476   1.309  13.025 -0.9116  0.1795  0.7332
  868MPD2     N12744   2.392   1.720  13.237 -0.3718 -0.1091  0.1663
  868MPD2    H512745   2.434   1.812  13.227 -0.6299  0.3327  3.2651
  868MPD2    N112746   2.728   1.651  12.883 -0.2660  0.3209  0.8824
  868MPD2    H712747   2.794   1.581  12.850  0.3887  1.5544 -0.4311
  869MPD2     C12748   3.724   1.117   1.093 -0.1330  0.6705  1.1090
  869MPD2    C112749   3.637   1.055   1.178  0.8688 -0.2733  0.1796
  869MPD2    C212750   3.499   1.063   1.159  0.2054 -0.0334 -0.0399
  869MPD2    C312751   3.448   1.129   1.051 -0.8435  0.1752 -0.0239
  869MPD2    C412752   3.539   1.190   0.961  0.3693 -0.1312 -0.1074
  869MPD2    C512753   3.674   1.175   0.980 -0.5066  1.3531 -0.4731
  869MPD2     H12754   3.434   1.003   1.221 -0.8620  1.3280  0.1519
  869MPD2    H112755   3.500   1.248   0.878  0.2284 -0.8877 -0.5715
  869MPD2    H212756   3.832   1.107   1.093 -0.2422 -0.5655  0.2682
  869MPD2    H312757   3.740   1.234   0.917 -0.8803  1.7899 -0.4467
  869MPD2     N12758   3.312   1.142   1.017 -0.4585  0.5564  0.0797
  869MPD2    H512759   3.293   1.195   0.933  0.6712  0.5119 -0.2036
  869MPD2    N112760   3.700   0.986   1.289  0.3605 -0.0931 -0.1518
  869MPD2    H712761   3.801   0.991   1.295  0.1963  2.6014  0.3488
  870MPD2     C12762   2.680   4.469   1.706 -0.0842  0.3105  0.4301
  870MPD2    C112763   2.764   4.423   1.610 -1.1208 -0.2735 -0.4032
  870MPD2    C212764   2.730   4.446   1.478  0.0349 -0.9621  0.3962
  870MPD2    C312765   2.605   4.499   1.441  0.0372 -0.5296 -0.1642
  870MPD2    C412766   2.529   4.555   1.536 -0.7583 -0.1067 -0.2063
  870MPD2    C512767   2.564   4.528   1.665 -0.4621  0.6999  0.0045
  870MPD2     H12768   2.778   4.385   1.403 -1.6553 -0.3785 -1.1886
  870MPD2    H112769   2.438   4.613   1.524  0.3189  1.5575 -0.3533
  870MPD2    H212770   2.699   4.457   1.812  0.2545 -1.9468  0.1100
  870MPD2    H312771   2.501   4.564   1.745  0.5195 -0.6223  1.3727
  870MPD2     N12772   2.565   4.467   1.307  0.1419  0.2501 -0.4130
  870MPD2    H512773   2.633   4.421   1.248 -0.4823 -0.7699 -0.3511
  870MPD2    N112774   2.876   4.336   1.654 -0.1047  0.3021 -0.0037
  870MPD2    H712775   2.888   4.317   1.753 -0.5755 -1.6516 -0.3129
  871MPD2     C12776   4.181   3.904  16.450  0.4387  0.0165 -0.9183
  871MPD2    C112777   4.171   3.903  16.586  0.7641  0.4095  0.2276
  871MPD2    C212778   4.080   3.813  16.638 -0.8058  0.5778 -0.7668
  871MPD2    C312779   4.003   3.724  16.564 -0.2166  0.1218 -1.0937
  871MPD2    C412780   4.021   3.727  16.429  0.1175 -0.5572  0.1643
  871MPD2    C512781   4.109   3.821  16.374  0.3884 -0.5340 -0.6654
  871MPD2     H12782   4.050   3.826  16.742  0.2376 -1.8056 -0.1752
  871MPD2    H112783   3.960   3.670  16.361 -0.4415 -1.2954  1.2764
  871MPD2    H212784   4.244   3.969  16.390  1.2928  1.3233  1.3632
  871MPD2    H312785   4.103   3.820  16.266 -1.8924  0.3739 -0.5429
  871MPD2     N12786   3.905   3.642  16.625  0.2155 -0.2895 -0.3547
  871MPD2    H512787   3.906   3.658  16.725 -0.4845  2.4262 -0.7692
  871MPD2    N112788   4.247   3.991  16.669 -0.3353  0.6121 -0.0418
  871MPD2    H712789   4.306   4.063  16.629 -0.2965 -0.1020 -1.2604
  872MPD2     C12790   0.516   1.187  14.034  0.3017 -0.1315 -0.1622
  872MPD2    C112791   0.509   1.293  13.941  0.7103  0.3935 -0.3369
  872MPD2    C212792   0.398   1.375  13.941 -0.1017 -0.4120 -0.2001
  872MPD2    C312793   0.304   1.361  14.045  0.1728  0.6864  0.1973
  872MPD2    C412794   0.310   1.256  14.132 -0.1461  0.2422 -0.3353
  872MPD2    C512795   0.418   1.175  14.123 -1.0916  1.1310 -0.5456
  872MPD2     H12796   0.389   1.461  13.876 -0.3871 -1.1352 -1.1236
  872MPD2    H112797   0.228   1.245  14.201  0.0631  0.4564 -0.0515
  872MPD2    H212798   0.599   1.118  14.047  0.6908 -0.0621 -2.3040
  872MPD2    H312799   0.423   1.102  14.203 -2.1078  1.0762 -0.5312
  872MPD2     N12800   0.192   1.453  14.071 -0.0392 -0.3944 -0.1397
  872MPD2    H512801   0.159   1.463  14.167 -0.5456 -0.4896 -0.3021
  872MPD2    N112802   0.619   1.330  13.857  0.1227  0.8212  0.6406
  872MPD2    H712803   0.601   1.405  13.791 -2.8164  0.9273  1.5368
  873MPD2     C12804   1.823   2.005   1.086  0.0788  0.4424  0.1582
  873MPD2    C112805   1.922   1.975   1.179  0.0282  0.1889 -0.1034
  873MPD2    C212806   2.047   1.932   1.131  0.5731  0.8229  0.2020
  873MPD2    C312807   2.062   1.889   0.998  0.1976  0.1177  0.2081
  873MPD2    C412808   1.960   1.920   0.913  0.2706 -0.1362 -0.4543
  873MPD2    C512809   1.842   1.978   0.954 -0.0853 -0.1367 -1.0435
  873MPD2     H12810   2.126   1.925   1.205  0.5764  2.0149  0.3068
  873MPD2    H112811   1.961   1.881   0.812 -1.0285  1.1443 -0.9536
  873MPD2    H212812   1.724   2.038   1.112  1.0266  2.3765  1.2896
  873MPD2    H312813   1.768   2.016   0.885  0.7475 -0.9700 -2.3892
  873MPD2     N12814   2.186   1.843   0.944  0.3418  0.9101 -0.7907
  873MPD2    H512815   2.186   1.840   0.843  1.5193  2.5771 -0.8375
  873MPD2    N112816   1.888   2.023   1.312  0.3058  0.1989  0.2306
  873MPD2    H712817   1.792   2.053   1.326  0.2612 -0.2814  0.9346
  874MPD2     C12818   1.576   1.676  16.203  0.0222  0.4681  0.3213
  874MPD2    C112819   1.695   1.605  16.188 -0.3239 -0.6105  0.0529
  874MPD2    C212820   1.816   1.673  16.214 -0.0404  0.0557  0.6247
  874MPD2    C312821   1.821   1.809  16.246  0.5025 -0.5742 -0.0657
  874MPD2    C412822   1.697   1.876  16.258  0.0795  0.0980  0.3301
  874MPD2    C512823   1.581   1.811  16.233  0.2000  0.2392 -0.5417
  874MPD2     H12824   1.910   1.622  16.198 -0.6998 -0.6649 -0.9272
  874MPD2    H112825   1.691   1.983  16.277 -1.8755 -0.0852  0.7431
  874MPD2    H212826   1.481   1.625  16.193  0.3371  0.3857 -2.2501
  874MPD2    H312827   1.488   1.862  16.252  0.8679  0.7007  1.4527
  874MPD2     N12828   1.943   1.871  16.277  0.0505  0.7189  0.4628
  874MPD2    H512829   2.025   1.821  16.242  0.4156 -0.4371  3.0129
  874MPD2    N112830   1.688   1.470  16.156 -0.3213  0.9851 -0.0351
  874MPD2    H712831   1.597   1.427  16.168  0.7362 -1.1868  0.1956
  875MPD2     C12832   2.936   4.468  14.305 -0.0101 -1.2526 -0.0143
  875MPD2    C112833   2.831   4.530  14.361  0.2510 -0.2782  0.0486
  875MPD2    C212834   2.853   4.617  14.471 -0.0776  0.9867  0.2198
  875MPD2    C312835   2.975   4.619  14.536  0.9406 -0.1406 -0.2537
  875MPD2    C412836   3.082   4.547  14.477  0.1557 -0.0965 -0.3692
  875MPD2    C512837   3.063   4.490  14.352  0.0351 -0.4401 -0.6086
  875MPD2     H12838   2.769   4.681  14.496 -2.3185 -1.8604  0.0287
  875MPD2    H112839   3.177   4.543  14.530 -0.1874 -2.4158  0.1048
  875MPD2    H212840   2.932   4.409  14.214 -0.1676 -2.8586  1.0441
  875MPD2    H312841   3.144   4.443  14.298  0.5146  0.7176 -0.9010
  875MPD2     N12842   2.992   4.685  14.654 -0.5565  0.2277 -0.1000
  875MPD2    H512843   3.085   4.696  14.693 -1.1977  0.3756  1.4115
  875MPD2    N112844   2.702   4.526  14.297  0.3926 -0.2699  0.2558
  875MPD2    H712845   2.635   4.600  14.316  1.1287  0.3632  0.3714
  876MPD2     C12846   1.701   1.153  15.887 -0.5735 -0.5719  0.0626
  876MPD2    C112847   1.830   1.126  15.860  0.7796  0.0941  0.1069
  876MPD2    C212848   1.877   1.005  15.919 -0.2166  0.0541  0.7935
  876MPD2    C312849   1.795   0.918  15.992  0.4558 -0.1550 -0.6962
  876MPD2    C412850   1.662   0.951  16.009  0.4637  0.1617  0.0215
  876MPD2    C512851   1.618   1.058  15.946  0.4934  0.0256  0.8948
  876MPD2     H12852   1.978   0.969  15.901 -0.9008 -0.5725 -1.7369
  876MPD2    H112853   1.587   0.889  16.056 -1.4636  1.8600 -0.8277
  876MPD2    H212854   1.654   1.248  15.866  0.4238  0.1006  0.8616
  876MPD2    H312855   1.512   1.082  15.954  0.1466 -1.3340  0.3699
  876MPD2     N12856   1.839   0.794  16.033 -0.1152 -0.2788 -0.1875
  876MPD2    H512857   1.922   0.766  15.982  0.0070  0.3797 -0.3583
  876MPD2    N112858   1.900   1.201  15.766 -0.8807 -0.1317  0.3310
  876MPD2    H712859   1.847   1.270  15.715  0.9443  2.2716  1.6469
  877MPD2     C12860   1.810   1.645  15.178 -0.3831 -0.5242 -0.3263
  877MPD2    C112861   1.941   1.600  15.167  0.2988  0.0127 -0.1647
  877MPD2    C212862   1.995   1.601  15.036 -0.5047 -0.0990 -0.5779
  877MPD2    C312863   1.925   1.666  14.940  0.4402  0.5093 -0.2520
  877MPD2    C412864   1.798   1.707  14.956  0.5100  0.9602 -0.0009
  877MPD2    C512865   1.737   1.682  15.072  0.1141  0.4632 -0.5391
  877MPD2     H12866   2.096   1.566  15.019 -1.0525 -0.6275 -2.8292
  877MPD2    H112867   1.735   1.757  14.883 -1.3648  0.3171  1.1731
  877MPD2    H212868   1.757   1.622  15.270  0.1695 -1.0723 -0.1452
  877MPD2    H312869   1.642   1.734  15.079 -0.6277 -0.5427 -3.0501
  877MPD2     N12870   1.963   1.661  14.807 -0.5258  0.5108 -0.0274
  877MPD2    H512871   1.887   1.684  14.743 -1.5177 -1.7073  0.3814
  877MPD2    N112872   2.013   1.546  15.275  0.6290  0.1539 -0.0508
  877MPD2    H712873   2.106   1.508  15.259  0.3565 -1.3797  1.9343
  878MPD2     C12874   1.691   0.933  12.870  0.3477 -0.4331 -0.4502
  878MPD2    C112875   1.715   1.065  12.891  0.0530  0.5587 -0.0401
  878MPD2    C212876   1.685   1.107  13.015 -0.2136  0.4372  0.6874
  878MPD2    C312877   1.634   1.030  13.114  0.3943 -0.0955  0.7536
  878MPD2    C412878   1.593   0.902  13.082  0.5349  0.2048  0.4929
  878MPD2    C512879   1.645   0.850  12.967 -0.1947 -0.5566  0.2308
  878MPD2     H12880   1.709   1.209  13.044 -1.4254  0.8128  0.3545
  878MPD2    H112881   1.561   0.822  13.147  0.6206 -1.2176 -1.2135
  878MPD2    H212882   1.728   0.888  12.779 -1.1562 -0.8114 -0.8751
  878MPD2    H312883   1.643   0.743  12.947 -2.3460 -0.2009 -1.4061
  878MPD2     N12884   1.633   1.085  13.245 -0.0869  0.0804 -0.3801
  878MPD2    H512885   1.652   1.183  13.260 -0.6577  0.6891 -3.5388
  878MPD2    N112886   1.763   1.141  12.783 -0.0753 -0.1447  0.4659
  878MPD2    H712887   1.766   1.094  12.694 -0.5531 -0.6152  0.6947
  879MPD2     C12888   2.677   2.627  17.068  0.7259 -0.4590 -0.6740
  879MPD2    C112889   2.571   2.690  17.131  0.6831 -0.2288  0.2664
  879MPD2    C212890   2.439   2.650  17.104  0.4107  0.2585  0.1921
  879MPD2    C312891   2.421   2.548  17.015  0.3367  0.4667 -0.1581
  879MPD2    C412892   2.528   2.495  16.949  0.8842  0.3131 -0.0153
  879MPD2    C512893   2.653   2.531  16.976  0.0388  0.6121  0.1586
  879MPD2     H12894   2.353   2.693  17.153 -0.4384 -2.2361  0.8838
  879MPD2    H112895   2.522   2.406  16.887  1.1775  0.5719 -0.4133
  879MPD2    H212896   2.781   2.651  17.086 -0.2966  2.5816  1.2128
  879MPD2    H312897   2.733   2.475  16.931  1.1140  1.5070  0.9628
  879MPD2     N12898   2.294   2.481  16.997  0.1496  0.5300  0.3521
  879MPD2    H512899   2.292   2.410  16.925  0.9582 -1.1107  1.9552
  879MPD2    N112900   2.604   2.794  17.220  0.2572  0.1757 -0.0356
  879MPD2    H712901   2.703   2.809  17.230  0.1782  0.4735  0.3015
  880MPD2     C12902   3.982   3.998   0.827  0.1104  0.7995  0.7934
  880MPD2    C112903   3.854   3.956   0.829  0.3568  0.4364 -0.2970
  880MPD2    C212904   3.835   3.821   0.862  0.0702 -0.7127 -0.0399
  880MPD2    C312905   3.941   3.732   0.864  0.1011 -0.2322  0.1621
  880MPD2    C412906   4.071   3.775   0.844 -0.5953  0.4729 -0.0810
  880MPD2    C512907   4.094   3.909   0.837 -0.0765 -0.6560 -0.3864
  880MPD2     H12908   3.739   3.773   0.875 -0.0023 -0.5228  0.1347
  880MPD2    H112909   4.158   3.711   0.841 -1.0162 -0.1044  0.2127
  880MPD2    H212910   4.011   4.102   0.814  1.0731  0.3832 -0.3483
  880MPD2    H312911   4.192   3.955   0.843 -0.1139 -0.4529 -1.2912
  880MPD2     N12912   3.911   3.594   0.892  0.5552 -0.1009 -0.5582
  880MPD2    H512913   3.817   3.577   0.925  0.4122 -3.4051 -2.6229
  880MPD2    N112914   3.743   4.046   0.805  0.0242  0.6387  0.2627
  880MPD2    H712915   3.770   4.141   0.781  1.0212 -0.4031 -2.8114
  881MPD2     C12916   3.480   0.111   0.275 -0.2083  0.5521 -0.4887
  881MPD2    C112917   3.504   4.710   0.216 -0.6500  0.4086 -0.6639
  881MPD2    C212918   3.507   4.601   0.307 -0.0400  0.9954  0.6555
  881MPD2    C312919   3.466   4.618   0.441 -0.2734 -0.0657  0.3138
  881MPD2    C412920   3.434   0.026   0.490 -0.1644  0.1112  0.1740
  881MPD2    C512921   3.441   0.127   0.406 -0.2231  0.4860 -0.1543
  881MPD2     H12922   3.529   4.499   0.279  0.2546  1.0805  0.5845
  881MPD2    H112923   3.383   0.036   0.585  0.9495  1.3709  0.6452
  881MPD2    H212924   3.450   0.188   0.205 -0.6250 -1.0284 -2.0329
  881MPD2    H312925   3.417   0.225   0.447 -0.0885 -0.7097  2.7606
  881MPD2     N12926   3.448   4.512   0.531  0.4087  0.7001 -0.0054
  881MPD2    H512927   3.414   4.541   0.622  3.8061  1.4159  1.0373
  881MPD2    N112928   3.570   4.705   0.090 -0.3546  0.0973 -0.4632
  881MPD2    H712929   3.596   0.073   0.053 -1.0601  0.9669  1.2134
  882MPD2     C12930   1.872   1.379  14.057 -0.0178  0.2466 -0.2170
  882MPD2    C112931   1.844   1.455  14.170  0.4783  0.9046 -0.1426
  882MPD2    C212932   1.725   1.425  14.231  0.1215 -0.4660 -0.4033
  882MPD2    C312933   1.640   1.329  14.184  0.0619  0.0727  0.3463
  882MPD2    C412934   1.665   1.262  14.071  0.1247  0.7832  0.4189
  882MPD2    C512935   1.782   1.286  14.006  1.0361 -0.0254  0.2393
  882MPD2     H12936   1.702   1.467  14.329 -0.2617  0.8200 -1.0389
  882MPD2    H112937   1.596   1.191  14.028 -0.5717 -0.0410  2.9004
  882MPD2    H212938   1.972   1.390  14.016 -0.1211  0.7600 -0.3277
  882MPD2    H312939   1.820   1.216  13.932  2.1488  0.7542  0.0681
  882MPD2     N12940   1.520   1.287  14.251 -0.4613 -0.1648 -0.3115
  882MPD2    H512941   1.470   1.210  14.208  0.5685 -1.4069  0.7608
  882MPD2    N112942   1.944   1.531  14.220 -0.1001 -0.2620  0.3356
  882MPD2    H712943   2.034   1.523  14.173 -1.2276 -3.9349 -1.2729
  883MPD2     C12944   3.805   1.231  16.185  0.4311 -0.0158 -0.2630
  883MPD2    C112945   3.872   1.276  16.076 -0.0815 -0.1659  0.0995
  883MPD2    C212946   3.972   1.367  16.093 -0.4238 -0.0272 -0.1711
  883MPD2    C312947   3.997   1.420  16.214  0.1495  0.2435 -0.3751
  883MPD2    C412948   3.921   1.392  16.318 -0.4842 -0.0043 -0.0452
  883MPD2    C512949   3.833   1.291  16.304  0.1264  0.9723  0.2418
  883MPD2     H12950   4.034   1.396  16.010 -0.6916  0.3225 -0.2509
  883MPD2    H112951   3.927   1.432  16.419 -0.7333  1.0840 -0.4585
  883MPD2    H212952   3.730   1.153  16.189  0.9675 -0.6247 -1.7517
  883MPD2    H312953   3.780   1.261  16.393  0.4237  1.8883  0.7288
  883MPD2     N12954   4.101   1.514  16.219 -0.6881 -0.6281 -0.2488
  883MPD2    H512955   4.173   1.510  16.148 -2.1059 -1.7574 -1.6206
  883MPD2    N112956   3.847   1.236  15.948 -0.0305  0.2268 -0.2367
  883MPD2    H712957   3.895   1.274  15.867 -2.0851 -0.6324 -1.8621
  884MPD2     C12958   0.988   2.347  15.437 -0.2512  0.0135  0.9898
  884MPD2    C112959   0.955   2.316  15.309 -0.3641 -0.4164 -0.8108
  884MPD2    C212960   0.846   2.374  15.249 -0.7476 -0.7292  0.4911
  884MPD2    C312961   0.758   2.464  15.320 -0.5492  0.3183  0.1596
  884MPD2    C412962   0.806   2.505  15.439 -1.0819 -0.4224 -0.6540
  884MPD2    C512963   0.918   2.451  15.489 -0.2374 -0.5322 -0.2002
  884MPD2     H12964   0.811   2.340  15.152  0.0650  0.5613 -0.2466
  884MPD2    H112965   0.763   2.576  15.509 -3.0995 -1.2891 -1.0042
  884MPD2    H212966   1.074   2.321  15.498 -0.4194 -1.3433  0.6393
  884MPD2    H312967   0.961   2.495  15.578 -1.1851 -0.6279  0.2967
  884MPD2     N12968   0.642   2.523  15.260 -0.2362 -0.2106  0.3115
  884MPD2    H512969   0.602   2.484  15.175  1.7519  2.1715 -1.7639
  884MPD2    N112970   1.029   2.225  15.229  0.0976 -0.2535 -0.8810
  884MPD2    H712971   1.005   2.216  15.131 -1.6851 -1.4745 -0.3240
  885MPD2     C12972   3.648   2.004   0.177 -0.4215  0.6288 -0.5706
  885MPD2    C112973   3.664   2.122   0.240  0.3008 -0.3154 -0.2370
  885MPD2    C212974   3.629   2.236   0.179  0.5527  0.3060 -0.8618
  885MPD2    C312975   3.575   2.238   0.053  0.3993 -0.1511 -0.4389
  885MPD2    C412976   3.544   2.121  17.683 -0.3635  0.0173 -0.5511
  885MPD2    C512977   3.582   2.001   0.052 -0.9726  0.3865 -0.2463
  885MPD2     H12978   3.660   2.334   0.213  0.7526  0.1508 -0.5964
  885MPD2    H112979   3.492   2.112  17.588  2.3447  4.0417 -2.4122
  885MPD2    H212980   3.669   1.913   0.232 -0.0161  0.6944 -0.6143
  885MPD2    H312981   3.567   1.905   0.003  1.8589  0.7662 -1.8261
  885MPD2     N12982   3.555   2.368  17.687 -0.2447 -0.1045  0.0081
  885MPD2    H512983   3.587   2.454   0.039  0.4921 -1.1146  1.4137
  885MPD2    N112984   3.719   2.111   0.363 -0.1930 -0.3873  0.2931
  885MPD2    H712985   3.749   2.020   0.397  3.3583  0.3096 -0.9493
  886MPD2     C12986   0.656   1.185  15.885 -0.4205 -0.0754  0.2778
  886MPD2    C112987   0.727   1.167  15.768 -0.9412 -0.4568  0.2178
  886MPD2    C212988   0.731   1.266  15.671  0.4246  0.6004 -0.4596
  886MPD2    C312989   0.676   1.385  15.699  0.0545  0.6508  0.3538
  886MPD2    C412990   0.593   1.398  15.812  0.0042  0.1183  0.4494
  886MPD2    C512991   0.585   1.294  15.901  0.1481  0.1360  0.9704
  886MPD2     H12992   0.783   1.245  15.578 -0.6058  0.5136 -1.0151
  886MPD2    H112993   0.528   1.483  15.827 -0.5086 -0.2193  0.1104
  886MPD2    H212994   0.631   1.099  15.947  2.0129 -2.1993 -1.6730
  886MPD2    H312995   0.515   1.294  15.983 -0.9297 -2.5958  0.0793
  886MPD2     N12996   0.674   1.480  15.592 -0.8080 -0.0415 -0.3213
  886MPD2    H512997   0.731   1.457  15.511 -0.3858 -1.1302  0.2749
  886MPD2    N112998   0.817   1.063  15.747 -0.0559  0.4117  0.1304
  886MPD2    H712999   0.857   1.054  15.654 -2.5454 -0.7422 -0.8377
  887MPD2     C13000   1.505   1.128  15.527  0.0004 -0.7005 -0.7621
  887MPD2    C113001   1.399   1.155  15.616  0.1575  0.9616 -0.3669
  887MPD2    C213002   1.404   1.267  15.691 -0.1614  0.7034 -0.2093
  887MPD2    C313003   1.512   1.353  15.680  0.1467  0.5661  0.2275
  887MPD2    C413004   1.621   1.330  15.595  0.7656 -0.3220 -0.0943
  887MPD2    C513005   1.613   1.214  15.523  0.0524 -0.3596 -0.2368
  887MPD2     H13006   1.329   1.302  15.761 -1.2073 -0.5051 -0.7373
  887MPD2    H113007   1.696   1.406  15.574 -0.5496  1.6643  2.4244
  887MPD2    H213008   1.509   1.040  15.464  1.8290  1.5758 -3.8522
  887MPD2    H313009   1.682   1.197  15.442  0.6287 -0.8133  0.3485
  887MPD2     N13010   1.508   1.469  15.761 -0.1490 -0.1738  0.2553
  887MPD2    H513011   1.418   1.496  15.800 -0.4949  0.6173 -1.0946
  887MPD2    N113012   1.290   1.065  15.635  0.0414  0.1472  0.6972
  887MPD2    H713013   1.222   1.099  15.702 -0.4129  1.0973 -0.2473
  888MPD2     C13014   3.112   1.062  14.640 -0.2382  0.0784 -0.3061
  888MPD2    C113015   3.065   1.108  14.762  0.1798  0.3479  0.3398
  888MPD2    C213016   3.113   1.227  14.818  0.6829 -0.4969 -0.9862
  888MPD2    C313017   3.199   1.302  14.745  0.3078  0.0787  0.9749
  888MPD2    C413018   3.255   1.256  14.625 -0.3867  0.4171  0.3804
  888MPD2    C513019   3.209   1.137  14.574 -0.0637 -0.2631 -0.3876
  888MPD2     H13020   3.070   1.263  14.911 -0.9358  1.6765 -2.5858
  888MPD2    H113021   3.317   1.313  14.557 -3.0275  1.3627 -1.2370
  888MPD2    H213022   3.088   0.965  14.599  0.1342 -1.0227  2.0745
  888MPD2    H313023   3.234   1.106  14.473 -0.8802  2.0297 -1.2787
  888MPD2     N13024   3.227   1.430  14.802 -0.5195  0.4271 -0.6369
  888MPD2    H513025   3.194   1.447  14.896  0.3774 -0.4844 -0.1554
  888MPD2    N113026   2.979   1.024  14.832  0.2698 -0.1278  0.0073
  888MPD2    H713027   2.998   1.032  14.932 -1.3422 -2.8602  0.5209
  889MPD2     C13028   2.075   0.067  13.387  0.3028 -1.3532  0.3115
  889MPD2    C113029   2.203   0.088  13.438  0.2674  0.1048  0.3442
  889MPD2    C213030   2.271   0.205  13.404 -0.1318  0.3925 -0.3088
  889MPD2    C313031   2.211   0.305  13.330  0.2010  0.6921  0.6503
  889MPD2    C413032   2.076   0.293  13.299 -0.7010  0.1080  1.0187
  889MPD2    C513033   2.010   0.178  13.335  0.5929  0.7209  0.5925
  889MPD2     H13034   2.369   0.217  13.448 -0.4607 -3.0166  1.3793
  889MPD2    H113035   2.019   0.368  13.246 -2.1320 -0.8883  1.1448
  889MPD2    H213036   2.011   4.707  13.414  1.7716 -2.2296  1.1480
  889MPD2    H313037   1.902   0.171  13.329  0.9480 -1.9882 -3.1381
  889MPD2     N13038   2.277   0.426  13.301  0.2640 -0.0967  0.1700
  889MPD2    H513039   2.367   0.444  13.344  0.4710 -2.6031  0.8253
  889MPD2    N113040   2.283   4.707  13.489 -0.0276 -0.5774 -0.2922
  889MPD2    H713041   2.383   0.003  13.498 -0.0908 -0.8660  0.9855
  890MPD2     C13042   2.182   2.150  14.571 -0.2120 -0.2782 -0.0552
  890MPD2    C113043   2.170   2.262  14.650  0.5322 -0.1504  0.7115
  890MPD2    C213044   2.194   2.248  14.784  0.2402  0.5572 -0.4175
  890MPD2    C313045   2.233   2.124  14.843 -0.2733 -1.2059  0.2117
  890MPD2    C413046   2.230   2.014  14.765  0.6482  0.2861 -0.5766
  890MPD2    C513047   2.197   2.025  14.630  0.7888 -0.6871 -0.3073
  890MPD2     H13048   2.191   2.328  14.857  1.4108  1.3469 -1.2371
  890MPD2    H113049   2.251   1.921  14.816 -0.7818  0.7739  0.9017
  890MPD2    H213050   2.172   2.148  14.463  0.7207  0.3266 -0.1496
  890MPD2    H313051   2.189   1.939  14.564 -1.6173 -0.6710 -0.0135
  890MPD2     N13052   2.258   2.100  14.979  0.1139 -0.2477  0.6584
  890MPD2    H513053   2.306   2.015  15.007 -0.2820 -1.0896 -1.2891
  890MPD2    N113054   2.136   2.379  14.583  0.5731 -0.7109  0.2781
  890MPD2    H713055   2.142   2.381  14.482  0.6254 -0.6677  0.2815
  891MPD2     C13056   4.508   0.543  16.756 -0.3022  1.0172 -0.2368
  891MPD2    C113057   4.512   0.665  16.825 -0.1943 -0.8493  0.3709
  891MPD2    C213058   4.590   0.670  16.940  0.5640 -0.1278  0.2870
  891MPD2    C313059   4.686   0.568  16.960  0.2059  0.8459 -0.5238
  891MPD2    C413060   4.686   0.454  16.881 -0.1795 -0.0137 -0.4901
  891MPD2    C513061   4.593   0.446  16.784 -0.9919  0.2729  0.1233
  891MPD2     H13062   4.599   0.760  17.000  1.4853 -0.0651  0.0544
  891MPD2    H113063   0.036   0.375  16.898  1.3532  1.0697 -2.1189
  891MPD2    H213064   4.444   0.532  16.670 -0.9857  1.3294  0.2341
  891MPD2    H313065   4.600   0.358  16.721 -1.7121 -2.0707  3.3853
  891MPD2     N13066   0.069   0.598  17.047 -0.8048  0.0710 -0.3687
  891MPD2    H513067   0.070   0.690  17.090  2.5287  0.0683 -0.3967
  891MPD2    N113068   4.448   0.776  16.761 -0.1012 -0.5522  0.3142
  891MPD2    H713069   4.410   0.755  16.669 -1.7248  1.0883  0.6021
  892MPD2     C13070   1.184   1.708  15.041  0.3811  0.7018 -0.6861
  892MPD2    C113071   1.076   1.701  14.948  0.3259  0.0265 -0.2163
  892MPD2    C213072   1.082   1.606  14.851 -0.4375  0.2003  0.7965
  892MPD2    C313073   1.181   1.511  14.856  0.1914 -0.4417  0.0883
  892MPD2    C413074   1.289   1.518  14.943 -0.2131  0.1030 -0.1519
  892MPD2    C513075   1.284   1.616  15.036  0.8882  0.0964 -0.8141
  892MPD2     H13076   0.996   1.592  14.786 -1.8626 -0.0362  2.7451
  892MPD2    H113077   1.369   1.445  14.935  0.8225  1.1541  0.5952
  892MPD2    H213078   1.192   1.773  15.127 -0.0409  2.0364 -1.6571
  892MPD2    H313079   1.370   1.627  15.102  0.5966 -1.7033 -0.1237
  892MPD2     N13080   1.193   1.419  14.752  0.5205 -0.0318 -0.1540
  892MPD2    H513081   1.282   1.370  14.747  0.7821  0.3841  0.5717
  892MPD2    N113082   0.973   1.799  14.945 -0.1361  0.0735 -0.5858
  892MPD2    H713083   0.901   1.790  14.875 -0.9438  1.0984  0.1219
  893MPD2     C13084   2.642   0.091   0.954 -0.7770 -0.3595 -0.3885
  893MPD2    C113085   2.675   0.097   1.090 -0.3902 -0.0727 -0.2092
  893MPD2    C213086   2.580   0.116   1.188  0.6930  1.0956 -0.3644
  893MPD2    C313087   2.458   0.157   1.146  0.2412 -0.3306 -0.4861
  893MPD2    C413088   2.423   0.160   1.014  0.0200  0.0463  0.3213
  893MPD2    C513089   2.516   0.125   0.922  0.3658  0.5923 -0.1798
  893MPD2     H13090   2.606   0.117   1.293  0.6523  0.2087 -0.3402
  893MPD2    H113091   2.329   0.198   0.977 -0.1390 -0.2981  0.3750
  893MPD2    H213092   2.720   0.065   0.883  0.9987  2.1587  0.6591
  893MPD2    H313093   2.489   0.128   0.817 -1.0008  0.9552  0.1802
  893MPD2     N13094   2.358   0.204   1.237  0.3157  0.5264  0.2533
  893MPD2    H513095   2.273   0.241   1.196  0.6493 -1.4635 -2.2280
  893MPD2    N113096   2.814   0.091   1.106 -0.5676  1.0023 -0.3166
  893MPD2    H713097   2.873   0.070   1.026 -0.2250 -0.3003  0.2790
  894MPD2     C13098   0.852   2.169   0.624  0.2208 -0.0350  1.1316
  894MPD2    C113099   0.806   2.185   0.752 -0.0825  0.4233  0.4030
  894MPD2    C213100   0.783   2.315   0.800  0.0974  0.0412  0.3868
  894MPD2    C313101   0.799   2.429   0.719 -0.6666  0.4828  0.0986
  894MPD2    C413102   0.841   2.405   0.586  0.1950 -0.5506 -0.1208
  894MPD2    C513103   0.861   2.280   0.540 -0.0887 -0.0264 -0.1080
  894MPD2     H13104   0.750   2.327   0.903  1.0549 -1.1235  0.8181
  894MPD2    H113105   0.873   2.479   0.513 -1.0840  0.0821 -0.0398
  894MPD2    H213106   0.875   2.074   0.578 -2.2427 -0.9515  1.8218
  894MPD2    H313107   0.893   2.272   0.437 -2.2546 -1.2388 -0.6921
  894MPD2     N13108   0.796   2.557   0.780  0.6190  0.0795 -0.1839
  894MPD2    H513109   0.779   2.558   0.880  1.2093 -0.4142 -0.0775
  894MPD2    N113110   0.783   2.080   0.843  0.0865 -0.6216  0.7954
  894MPD2    H713111   0.734   2.100   0.930 -0.7372 -1.7149  0.5796
  895MPD2     C13112   0.188   1.168  13.412  0.0057 -0.2538 -0.5107
  895MPD2    C113113   0.076   1.112  13.361  1.2349 -0.3542 -0.1788
  895MPD2    C213114   0.106   1.007  13.274  0.2534 -0.3326  0.7335
  895MPD2    C313115   0.229   0.947  13.265 -1.0629  0.1600  0.3935
  895MPD2    C413116   0.332   1.004  13.330 -0.1265 -1.0661  0.8180
  895MPD2    C513117   0.312   1.115  13.406  0.3230  0.6529 -0.1058
  895MPD2     H13118   0.020   0.958  13.228  0.7872  0.0746 -0.7074
  895MPD2    H113119   0.435   0.970  13.332  1.0877  2.5853  1.6859
  895MPD2    H213120   0.188   1.262  13.467  1.0089 -1.0323  0.8012
  895MPD2    H313121   0.399   1.171  13.438  0.4548  1.0665 -1.1855
  895MPD2     N13122   0.255   0.834  13.180  0.2919  0.8427 -0.2507
  895MPD2    H513123   0.348   0.793  13.181 -0.1910 -0.2875 -1.1218
  895MPD2    N113124   4.661   1.152  13.382  0.1897  0.3602 -0.2488
  895MPD2    H713125   4.599   1.120  13.308  0.8686  0.5572 -0.9064
  896MPD2     C13126   1.803   3.693   1.970  0.5753 -0.3174  0.5228
  896MPD2    C113127   1.827   3.650   1.838 -0.1809 -0.1022 -0.4400
  896MPD2    C213128   1.737   3.574   1.765 -0.9377  0.0721  0.0138
  896MPD2    C313129   1.612   3.544   1.832 -0.0667  0.3220  0.2633
  896MPD2    C413130   1.593   3.571   1.968  0.8910  0.5201  0.4029
  896MPD2    C513131   1.682   3.655   2.031  0.4400 -0.3160  0.8221
  896MPD2     H13132   1.745   3.532   1.665  0.2234 -0.7611  0.4576
  896MPD2    H113133   1.504   3.557   2.028 -0.1884  0.3457 -1.2363
  896MPD2    H213134   1.890   3.728   2.025 -0.7616  0.2640  2.2657
  896MPD2    H313135   1.666   3.672   2.137  0.6339  0.1899  0.7739
  896MPD2     N13136   1.522   3.462   1.763 -0.1794  0.2303 -0.5632
  896MPD2    H513137   1.551   3.436   1.669  1.4521 -1.8222  0.5174
  896MPD2    N113138   1.959   3.683   1.788  0.8086 -0.3513  0.5090
  896MPD2    H713139   2.009   3.756   1.839  0.6614 -0.1950  0.4291
  897MPD2     C13140   3.413   0.752  10.097  0.4946  0.3579  0.1465
  897MPD2    C113141   3.389   0.883  10.140  0.5277  0.2554 -0.3563
  897MPD2    C213142   3.385   0.908  10.276  0.3852 -0.0300 -0.3831
  897MPD2    C313143   3.410   0.798  10.358  0.1514  0.7936 -0.0131
  897MPD2    C413144   3.444   0.673  10.309 -0.2415  0.1283 -0.1441
  897MPD2    C513145   3.454   0.650  10.179  0.4752  0.5700 -0.2135
  897MPD2     H13146   3.339   0.998  10.314 -1.5656 -1.6018  0.9882
  897MPD2    H113147   3.478   0.598  10.380  0.7243 -0.7034 -1.4905
  897MPD2    H213148   3.418   0.741   9.989  0.4137 -3.3935  0.5360
  897MPD2    H313149   3.459   0.548  10.143  0.3012  0.6312 -0.4145
  897MPD2     N13150   3.397   0.818  10.499 -0.3709  0.6030 -0.2005
  897MPD2    H513151   3.361   0.908  10.531 -1.2010 -0.9164  3.1514
  897MPD2    N113152   3.360   0.986  10.046  0.4573  0.5981 -0.2338
  897MPD2    H713153   3.364   0.968   9.946 -0.4608 -1.2454  0.0613
  898MPD2     C13154   1.181   1.372  17.650  0.0324 -0.2540 -0.0109
  898MPD2    C113155   1.070   1.416   0.029 -0.1461  0.1667  0.2125
  898MPD2    C213156   0.964   1.470  17.657  0.1432  0.6075  0.0307
  898MPD2    C313157   0.963   1.477  17.516  0.3866 -0.5737  0.5678
  898MPD2    C413158   1.068   1.426  17.444  0.7931  0.1659 -0.4105
  898MPD2    C513159   1.176   1.377  17.514  0.5097  0.2901  0.2429
  898MPD2     H13160   0.880   1.513   0.019 -1.2506 -0.7469 -1.0589
  898MPD2    H113161   1.061   1.419  17.336  0.0746  2.1807 -0.4854
  898MPD2    H213162   1.276   1.348   0.004  0.8885  1.1595 -1.0305
  898MPD2    H313163   1.267   1.350  17.461 -0.0047 -1.0431  0.0443
  898MPD2     N13164   0.841   1.530  17.462  0.3842 -0.1125 -0.5218
  898MPD2    H513165   0.776   1.576  17.525  0.9780  1.3343 -0.9782
  898MPD2    N113166   1.057   1.408   0.175  0.1423  0.1583  0.5023
  898MPD2    H713167   0.976   1.437   0.228 -1.5138 -0.8808 -1.4611
  899MPD2     C13168   1.274   1.908  17.294 -0.0507  0.2414 -0.0903
  899MPD2    C113169   1.347   1.999  17.358 -0.3132  0.0033 -0.1317
  899MPD2    C213170   1.365   1.981  17.490  0.6569  0.1423 -0.2606
  899MPD2    C313171   1.317   1.865  17.553 -0.2683 -0.4618 -0.6016
  899MPD2    C413172   1.262   1.759  17.482 -0.7147  0.3944  0.3039
  899MPD2    C513173   1.252   1.776  17.351  0.0453  0.3386  0.8273
  899MPD2     H13174   1.409   2.060  17.548 -2.9677  1.9183  0.0680
  899MPD2    H113175   1.226   1.667  17.528  2.2520 -1.2772 -0.6972
  899MPD2    H213176   1.232   1.920  17.194 -1.4917  0.6582  0.5669
  899MPD2    H313177   1.206   1.708  17.280  0.2421  0.4393  0.6064
  899MPD2     N13178   1.311   1.850   0.000 -1.2103  0.0853  0.0097
  899MPD2    H513179   1.236   1.805   0.052 -1.0242 -0.8393 -0.5293
  899MPD2    N113180   1.381   2.120  17.295 -0.2743 -0.0171 -0.2637
  899MPD2    H713181   1.350   2.123  17.199 -2.6193 -0.9318  0.4533
  900MPD2     C13182   1.065   3.990  12.700 -0.2867 -0.2535  0.1386
  900MPD2    C113183   1.105   3.922  12.589  0.5446  0.6056  0.2053
  900MPD2    C213184   1.034   3.949  12.472  0.7955  0.1604  0.2739
  900MPD2    C313185   0.936   4.042  12.453 -0.0457 -0.1257 -0.4351
  900MPD2    C413186   0.902   4.112  12.567  0.1314  0.2293 -1.0890
  900MPD2    C513187   0.965   4.087  12.689 -0.3220 -0.2507 -0.0312
  900MPD2     H13188   1.055   3.890  12.384 -3.4363  0.1574 -0.7232
  900MPD2    H113189   0.829   4.192  12.572 -0.3516 -0.2142 -1.1119
  900MPD2    H213190   1.110   3.971  12.797 -0.7688 -2.7164 -0.1031
  900MPD2    H313191   0.944   4.152  12.773 -1.1896 -0.7852  0.1760
  900MPD2     N13192   0.889   4.070  12.328  0.9248  0.1392 -0.4025
  900MPD2    H513193   0.932   4.026  12.247 -0.4159 -0.4773 -0.7923
  900MPD2    N113194   1.181   3.805  12.596  0.3557  0.5716 -0.4891
  900MPD2    H713195   1.190   3.773  12.693 -0.4252  0.1520 -0.5523
  901MPD2     C13196   1.154   2.852  12.832  0.2341 -0.1113 -0.5219
  901MPD2    C113197   1.214   2.844  12.702 -0.7030  0.2097 -0.1978
  901MPD2    C213198   1.245   2.960  12.643 -0.9542  0.0329 -0.2591
  901MPD2    C313199   1.234   3.082  12.714 -0.4565 -0.4118 -0.1713
  901MPD2    C413200   1.178   3.084  12.839 -0.3383  0.6034 -1.2800
  901MPD2    C513201   1.135   2.969  12.897 -0.1146  0.2888 -0.3626
  901MPD2     H13202   1.261   2.957  12.535 -2.1404  2.8021 -0.5198
  901MPD2    H113203   1.168   3.174  12.898  0.2095  0.5353 -1.0782
  901MPD2    H213204   1.120   2.764  12.886 -2.3945  0.8438 -0.6396
  901MPD2    H313205   1.083   2.963  12.992 -1.0262 -2.6251 -1.0529
  901MPD2     N13206   1.280   3.206  12.662 -0.0245 -0.2326 -0.0839
  901MPD2    H513207   1.319   3.199  12.569 -0.3172 -0.5728 -0.1803
  901MPD2    N113208   1.244   2.718  12.643  0.0601  0.4680  0.2981
  901MPD2    H713209   1.217   2.633  12.692 -0.4528 -0.0697 -0.9021
  902MPD2     C13210   0.453   1.848  13.174  0.1982  0.1416 -0.3709
  902MPD2    C113211   0.321   1.821  13.135 -0.4396 -0.0707 -0.2236
  902MPD2    C213212   0.292   1.747  13.018  0.5581  0.3074 -0.3823
  902MPD2    C313213   0.394   1.715  12.931 -0.0245 -0.1504 -0.1851
  902MPD2    C413214   0.527   1.741  12.969  0.1241  0.2359 -0.3099
  902MPD2    C513215   0.549   1.808  13.088 -0.5356 -0.1244 -0.4954
  902MPD2     H13216   0.190   1.713  12.999  0.4285  0.6129 -0.2277
  902MPD2    H113217   0.612   1.713  12.908 -0.2444 -1.2059 -0.1576
  902MPD2    H213218   0.480   1.904  13.263  0.0847 -2.2047  1.1338
  902MPD2    H313219   0.649   1.834  13.121 -0.4209 -0.1858 -0.7891
  902MPD2     N13220   0.366   1.646  12.808 -0.0043  0.5251  0.6391
  902MPD2    H513221   0.443   1.621  12.746 -0.1464 -0.2713  0.7888
  902MPD2    N113222   0.226   1.873  13.220  0.3444 -0.4616  0.2261
  902MPD2    H713223   0.266   1.926  13.296  0.4911 -0.6736  0.2953
  903MPD2     C13224   0.108   1.312  11.997 -0.0253  0.3098 -0.1665
  903MPD2    C113225   0.069   1.415  12.079 -0.0410  0.3648  0.0648
  903MPD2    C213226   4.694   1.509  12.036  0.2342  0.0370 -0.6039
  903MPD2    C313227   4.649   1.507  11.910  0.3420  0.5529 -0.1688
  903MPD2    C413228   4.689   1.405  11.828  0.4643  0.3835  0.0113
  903MPD2    C513229   0.055   1.311  11.874  0.7869  0.2148  0.7969
  903MPD2     H13230   4.664   1.583  12.109 -1.0851 -1.5191  0.4462
  903MPD2    H113231   4.645   1.386  11.730  1.4602  0.0813 -0.3764
  903MPD2    H213232   0.175   1.231  12.023 -0.1002  0.1183 -0.5684
  903MPD2    H313233   0.087   1.237  11.802  1.2060  0.4616  0.7280
  903MPD2     N13234   4.554   1.606  11.866 -0.4118  0.0108 -0.0934
  903MPD2    H513235   4.529   1.653  11.952 -1.6231 -0.0844 -0.3891
  903MPD2    N113236   0.119   1.409  12.210  0.3208 -0.7649  0.0962
  903MPD2    H713237   0.199   1.346  12.214  0.1227 -1.2240 -2.5804
  904MPD2     C13238   4.401   0.291  13.760  0.4536  0.2448 -0.6604
  904MPD2    C113239   4.472   0.399  13.706  0.7092  0.0721 -0.3327
  904MPD2    C213240   4.611   0.381  13.678  0.2600 -0.5599 -0.3232
  904MPD2    C313241   4.671   0.266  13.716 -0.4139  0.4739 -0.7317
  904MPD2    C413242   4.599   0.164  13.779 -0.5406 -0.1758  0.2215
  904MPD2    C513243   4.463   0.176  13.792  0.1421  0.2432 -0.0964
  904MPD2     H13244   4.656   0.466  13.629  0.8338 -0.7471 -0.1141
  904MPD2    H113245   4.653   0.073  13.804  1.4798  0.8843 -0.2088
  904MPD2    H213246   4.294   0.301  13.775  0.6627  0.2574  0.7846
  904MPD2    H313247   4.408   0.095  13.838 -0.4293  0.5446 -0.2468
  904MPD2     N13248   0.089   0.259  13.691 -0.4002 -0.3056  0.4811
  904MPD2    H513249   0.107   0.333  13.624 -1.4690 -1.6490 -1.3069
  904MPD2    N113250   4.420   0.527  13.689  0.3379 -0.2717 -0.4285
  904MPD2    H713251   4.486   0.603  13.684 -0.8910  0.7602 -1.2130
  905MPD2     C13252   4.212   0.669  13.026 -0.2558 -0.0586 -0.7372
  905MPD2    C113253   4.306   0.725  13.104 -0.6386  0.2357 -0.1026
  905MPD2    C213254   4.441   0.710  13.069  0.0717 -0.3357 -0.5172
  905MPD2    C313255   4.479   0.651  12.954  0.5458 -0.0029  1.0361
  905MPD2    C413256   4.383   0.585  12.881  0.3205  0.3992  0.6746
  905MPD2    C513257   4.248   0.598  12.919  0.0399  0.0430 -0.6148
  905MPD2     H13258   4.519   0.749  13.133 -1.3004  0.6650  0.5338
  905MPD2    H113259   4.408   0.513  12.803 -0.5663 -0.2173  0.9591
  905MPD2    H213260   4.115   0.644  13.067 -0.2042  0.7100 -0.1464
  905MPD2    H313261   4.170   0.542  12.868 -0.6089  1.8853 -1.6444
  905MPD2     N13262   4.619   0.634  12.925 -0.4914 -0.3332  0.0421
  905MPD2    H513263   4.680   0.686  12.987 -0.3545  0.2946 -0.6245
  905MPD2    N113264   4.267   0.768  13.231 -0.3252 -0.1804 -0.0814
  905MPD2    H713265   4.169   0.755  13.251 -0.0632 -0.1122  1.2367
  906MPD2     C13266   2.577   0.941  11.454  0.2769 -0.5905 -0.3310
  906MPD2    C113267   2.602   0.860  11.342 -0.1884  0.0336  0.2536
  906MPD2    C213268   2.613   0.722  11.356 -0.7240 -0.2320 -0.3800
  906MPD2    C313269   2.588   0.664  11.481 -0.0023  0.1067 -0.2950
  906MPD2    C413270   2.572   0.747  11.585  0.4094  0.9387  0.0158
  906MPD2    C513271   2.568   0.881  11.575 -0.2980  0.8926 -0.3303
  906MPD2     H13272   2.629   0.663  11.266 -0.1094  1.5224 -1.4338
  906MPD2    H113273   2.573   0.699  11.682  0.2778 -0.2385 -0.5544
  906MPD2    H213274   2.564   1.048  11.447 -0.5156 -0.6665 -0.0516
  906MPD2    H313275   2.558   0.942  11.664  0.3791  0.8909 -0.2519
  906MPD2     N13276   2.599   0.524  11.516  0.0015 -0.4072 -0.3692
  906MPD2    H513277   2.590   0.496  11.614 -0.4068  0.9851 -0.0066
  906MPD2    N113278   2.606   0.912  11.207 -0.1609  0.2523 -0.1161
  906MPD2    H713279   2.624   0.841  11.137  0.1580  0.0854  0.1370
  907MPD2     C13280   0.605   0.079  15.766  0.5519  0.1749 -0.2447
  907MPD2    C113281   0.664   4.693  15.700  0.5294 -0.9592 -0.3898
  907MPD2    C213282   0.732   4.605  15.782  0.8478 -0.2633 -1.2351
  907MPD2    C313283   0.723   4.609  15.919  0.1085  0.2280  0.6932
  907MPD2    C413284   0.656   4.711  15.979 -1.1191 -0.9564 -0.4638
  907MPD2    C513285   0.593   0.081  15.899 -0.2978  0.3455  0.4645
  907MPD2     H13286   0.787   4.525  15.732  0.0739 -1.2281 -0.5372
  907MPD2    H113287   0.642   4.718  16.086  1.7077 -2.6778  0.0069
  907MPD2    H213288   0.559   0.160  15.710  1.1251 -0.4011 -1.5325
  907MPD2    H313289   0.550   0.167  15.949  2.9106  1.5645  1.1167
  907MPD2     N13290   0.800   4.516  15.991 -0.6276 -0.3478 -0.0909
  907MPD2    H513291   0.856   4.452  15.934  0.3001  0.4979 -0.1181
  907MPD2    N113292   0.661   4.672  15.562 -0.6603 -0.1046  0.1954
  907MPD2    H713293   0.703   4.597  15.508 -1.4108  0.8619 -1.7410
  908MPD2     C13294   2.937   0.773   9.419 -0.2971  0.4335  0.0176
  908MPD2    C113295   3.064   0.734   9.474 -0.3128  1.1097  0.4248
  908MPD2    C213296   3.128   0.826   9.555  0.2779  0.1640 -0.6329
  908MPD2    C313297   3.068   0.950   9.571 -0.9559  0.5994  0.5038
  908MPD2    C413298   2.942   0.982   9.528  0.0153  0.6045  0.7273
  908MPD2    C513299   2.873   0.893   9.452  0.0484 -0.4313 -0.0597
  908MPD2     H13300   3.216   0.798   9.613 -1.5426  0.8629  2.4437
  908MPD2    H113301   2.891   1.077   9.540 -2.0140 -0.5300  1.0010
  908MPD2    H213302   2.879   0.703   9.361 -0.2665 -0.6204  1.2564
  908MPD2    H313303   2.774   0.915   9.413  0.3279 -0.0196 -0.5475
  908MPD2     N13304   3.133   1.043   9.656  0.3827 -0.0162 -0.0208
  908MPD2    H513305   3.220   1.017   9.700  0.2205 -0.6570 -0.0743
  908MPD2    N113306   3.128   0.610   9.461  0.1061  0.2559  0.5627
  908MPD2    H713307   3.223   0.602   9.495  0.0459 -1.1619  0.4152
  909MPD2     C13308   4.265   3.733  12.175 -0.3875  0.4795  0.1696
  909MPD2    C113309   4.216   3.842  12.105 -0.2289  0.2958 -0.0629
  909MPD2    C213310   4.081   3.862  12.101 -0.7507 -0.0103  0.6140
  909MPD2    C313311   3.989   3.772  12.147 -0.0756 -0.6095 -0.1294
  909MPD2    C413312   4.041   3.662  12.205  0.7334 -0.1425  0.3078
  909MPD2    C513313   4.172   3.647  12.227  0.1969 -0.0021 -0.4557
  909MPD2     H13314   4.038   3.950  12.055 -2.1148 -0.7618  0.4525
  909MPD2    H113315   3.972   3.584  12.235  1.0290  0.1822  1.8564
  909MPD2    H213316   4.366   3.698  12.192 -0.5312  0.2369  0.5152
  909MPD2    H313317   4.205   3.556  12.277  1.9068 -0.3059 -2.1474
  909MPD2     N13318   3.850   3.801  12.152 -0.1665 -0.3464 -0.4547
  909MPD2    H513319   3.820   3.889  12.111 -1.3479  0.4113  2.0230
  909MPD2    N113320   4.303   3.923  12.032  0.4945  0.4724 -0.2594
  909MPD2    H713321   4.263   3.995  11.973  0.6911  1.4339  0.7858
  910MPD2     C13322   0.329   0.401  16.215  0.1327 -0.4011 -0.5219
  910MPD2    C113323   0.343   0.300  16.122  0.4045 -0.1042 -0.6948
  910MPD2    C213324   0.300   0.318  15.992  0.4603 -0.0246 -0.0418
  910MPD2    C313325   0.247   0.442  15.955 -0.1955  0.0269 -0.1008
  910MPD2    C413326   0.232   0.542  16.053 -0.6707  0.3118  0.2628
  910MPD2    C513327   0.275   0.521  16.180  0.2992 -0.2813  0.3399
  910MPD2     H13328   0.311   0.235  15.923 -1.4574  0.8055 -1.3498
  910MPD2    H113329   0.179   0.634  16.031  0.8514  1.4690  1.4367
  910MPD2    H213330   0.365   0.404  16.317 -1.2176  1.1238 -0.0943
  910MPD2    H313331   0.267   0.599  16.255  2.2932  1.6706 -1.4869
  910MPD2     N13332   0.170   0.470  15.840 -0.9662  0.3439  0.4399
  910MPD2    H513333   0.117   0.556  15.847 -1.1506  0.0637  2.5067
  910MPD2    N113334   0.408   0.173  16.164  0.2363 -0.2007 -0.3194
  910MPD2    H713335   0.394   0.086  16.115 -1.8735  0.0009 -0.0675
  911MPD2     C13336   3.032   0.715  16.101 -0.7630  0.1845  0.0093
  911MPD2    C113337   3.019   0.814  16.195 -0.2129  0.0336 -0.0764
  911MPD2    C213338   2.912   0.907  16.188 -0.6501 -0.4933 -0.1217
  911MPD2    C313339   2.837   0.909  16.070 -0.0131 -0.4305  0.1147
  911MPD2    C413340   2.857   0.818  15.975  0.1516 -0.3926  0.3749
  911MPD2    C513341   2.951   0.721  15.991 -0.2858 -0.4942  0.1643
  911MPD2     H13342   2.890   0.974  16.270 -0.9261 -2.4602  1.4046
  911MPD2    H113343   2.791   0.818  15.889  2.1774  0.0724 -1.1507
  911MPD2    H213344   3.108   0.639  16.108 -2.0564 -1.0447  0.7500
  911MPD2    H313345   2.965   0.645  15.914  2.4870  0.4980 -0.3159
  911MPD2     N13346   2.738   1.003  16.050 -0.1203 -0.3512 -0.7800
  911MPD2    H513347   2.682   0.989  15.966 -0.4097 -0.3999 -0.5760
  911MPD2    N113348   3.107   0.811  16.306  0.6826 -0.0795 -0.0445
  911MPD2    H713349   3.173   0.735  16.320 -0.7992 -1.4458 -0.5035
  912MPD2     C13350   2.474   0.884  15.477 -0.2922  0.3165 -0.1976
  912MPD2    C113351   2.497   0.885  15.612  0.0850 -0.0538 -0.3437
  912MPD2    C213352   2.534   0.763  15.676  0.2267 -0.3135  0.1353
  912MPD2    C313353   2.568   0.652  15.594  0.1658  0.2133  0.0260
  912MPD2    C413354   2.560   0.664  15.458  0.2503  0.1404  0.6955
  912MPD2    C513355   2.503   0.776  15.406  0.0994  0.7127 -0.5013
  912MPD2     H13356   2.541   0.758  15.784 -0.8366 -0.0703  0.2097
  912MPD2    H113357   2.575   0.588  15.383  0.9601  1.1100 -0.1493
  912MPD2    H213358   2.434   0.965  15.417 -2.4266  1.3001  2.5826
  912MPD2    H313359   2.500   0.772  15.297  1.6932 -3.1147 -0.3962
  912MPD2     N13360   2.598   0.532  15.660 -0.2707  0.0639 -0.6593
  912MPD2    H513361   2.598   0.535  15.761  1.5911 -1.3692 -0.6172
  912MPD2    N113362   2.456   1.003  15.687 -0.5327 -0.1714 -0.3534
  912MPD2    H713363   2.475   1.093  15.644 -2.5905 -0.4947 -1.9085
  913MPD2     C13364   3.745   2.392  10.963 -0.3052  0.7121  0.1080
  913MPD2    C113365   3.772   2.525  10.933  0.3451  0.1228  0.7631
  913MPD2    C213366   3.737   2.572  10.809 -0.1850  0.5319  0.6440
  913MPD2    C313367   3.662   2.497  10.714 -0.2971 -0.6187 -0.6734
  913MPD2    C413368   3.636   2.370  10.743  0.1247  0.2340 -0.2557
  913MPD2    C513369   3.674   2.324  10.863  0.1370 -0.3137  0.2657
  913MPD2     H13370   3.764   2.675  10.785 -2.0914  1.5307  2.7782
  913MPD2    H113371   3.590   2.310  10.665 -0.6782  0.0774  0.3309
  913MPD2    H213372   3.785   2.339  11.048  0.1337 -0.9920 -1.1659
  913MPD2    H313373   3.682   2.217  10.876 -2.7092 -0.8831 -2.7437
  913MPD2     N13374   3.599   2.550  10.608 -0.7681  0.2000 -0.2220
  913MPD2    H513375   3.550   2.492  10.541 -2.3523  0.3845  0.7998
  913MPD2    N113376   3.837   2.611  11.028 -0.1251  0.4471 -0.8038
  913MPD2    H713377   3.845   2.578  11.124  1.0835  1.6688 -0.4930
  914MPD2     C13378   0.914   2.280  11.817  0.3955  0.0892  1.0030
  914MPD2    C113379   0.904   2.406  11.868 -0.6247  0.2782 -0.4091
  914MPD2    C213380   0.973   2.426  11.984  0.1452 -0.0594  0.5502
  914MPD2    C313381   1.069   2.343  12.033  0.7788 -0.9441 -0.1863
  914MPD2    C413382   1.083   2.216  11.980 -0.0502  0.5554 -0.4354
  914MPD2    C513383   1.000   2.185  11.872 -0.1105  0.0718 -0.4453
  914MPD2     H13384   0.960   2.527  12.023  1.5175 -0.4370  1.9897
  914MPD2    H113385   1.150   2.139  12.017 -0.7818 -0.6161 -1.5434
  914MPD2    H213386   0.854   2.244  11.734  3.0297 -0.5334 -0.6340
  914MPD2    H313387   1.002   2.086  11.828  2.2972 -0.6223  1.1993
  914MPD2     N13388   1.132   2.394  12.149 -0.2211  0.1269  0.1728
  914MPD2    H513389   1.084   2.474  12.190 -1.1135 -0.0306 -0.5590
  914MPD2    N113390   0.826   2.491  11.796  0.3044 -0.0876  0.4687
  914MPD2    H713391   0.780   2.456  11.712  3.3050 -2.1403 -0.3035
  915MPD2     C13392   4.289   2.116  15.359 -0.7085  0.3600  0.3811
  915MPD2    C113393   4.155   2.105  15.347  0.0346  0.0405  0.5440
  915MPD2    C213394   4.085   2.138  15.467 -0.4643  0.8872  0.7553
  915MPD2    C313395   4.144   2.199  15.576  0.5615 -0.6744  0.3175
  915MPD2    C413396   4.281   2.195  15.584  0.3105  0.3613 -0.0310
  915MPD2    C513397   4.355   2.164  15.469 -0.2912 -0.1747  0.0699
  915MPD2     H13398   3.977   2.125  15.476 -0.3331 -1.8630 -1.7132
  915MPD2    H113399   4.332   2.228  15.673  0.9609  1.4978 -0.8291
  915MPD2    H213400   4.345   2.094  15.268 -0.9087  1.4341  0.0000
  915MPD2    H313401   4.462   2.173  15.462 -0.2785  0.3773  1.0030
  915MPD2     N13402   4.059   2.247  15.680 -0.0742 -0.4508 -0.3268
  915MPD2    H513403   3.958   2.238  15.671 -0.2616 -0.3087  1.5773
  915MPD2    N113404   4.102   2.029  15.240 -0.1717 -0.1901 -0.6171
  915MPD2    H713405   4.163   2.033  15.159  1.4339 -0.0994  0.5723
  916MPD2     C13406   2.200   0.484  15.663 -0.3050  0.1919 -0.4062
  916MPD2    C113407   2.144   0.384  15.737  0.4901 -0.7194  0.2506
  916MPD2    C213408   2.162   0.255  15.691  0.1291 -0.0873 -0.2141
  916MPD2    C313409   2.248   0.219  15.586 -0.3166 -0.2666 -0.0859
  916MPD2    C413410   2.302   0.321  15.518  0.2734 -0.6245 -0.6960
  916MPD2    C513411   2.274   0.448  15.551 -0.7507 -0.2413 -0.1280
  916MPD2     H13412   2.116   0.175  15.748  0.3671  0.3888  0.6343
  916MPD2    H113413   2.373   0.309  15.437 -0.8781 -0.3471 -1.7358
  916MPD2    H213414   2.211   0.586  15.698  2.2485 -0.2777  0.1874
  916MPD2    H313415   2.319   0.530  15.497 -2.0896 -0.1603 -1.1223
  916MPD2     N13416   2.259   0.080  15.548  0.5291 -0.0542  0.3124
  916MPD2    H513417   2.231   0.009  15.615 -2.8831  0.1884 -0.8502
  916MPD2    N113418   2.065   0.416  15.851 -0.1338 -0.1247 -0.0181
  916MPD2    H713419   2.064   0.514  15.878  1.5068  0.0569 -0.6352
  917MPD2     C13420   2.496   3.073  11.118  0.3975  0.0839  0.2152
  917MPD2    C113421   2.501   3.087  11.257  0.7041 -0.2396  0.4465
  917MPD2    C213422   2.623   3.128  11.318 -0.1246 -0.0582 -0.2149
  917MPD2    C313423   2.736   3.145  11.239 -0.1936  0.7079  0.3812
  917MPD2    C413424   2.729   3.140  11.103 -0.0077 -0.2727 -0.5167
  917MPD2    C513425   2.613   3.104  11.044  0.1189  0.0100  0.2956
  917MPD2     H13426   2.632   3.146  11.425  1.9891 -2.5861  0.0314
  917MPD2    H113427   2.804   3.168  11.030  1.6296 -1.4724  0.7260
  917MPD2    H213428   2.416   3.054  11.046 -0.3269 -1.3117  1.3737
  917MPD2    H313429   2.610   3.099  10.936 -2.8965  0.7732  0.3257
  917MPD2     N13430   2.862   3.182  11.287 -0.1031 -0.7675 -0.2364
  917MPD2    H513431   2.921   3.228  11.219 -1.4310 -0.2722 -1.0604
  917MPD2    N113432   2.378   3.065  11.331 -0.2938 -0.5147 -0.3888
  917MPD2    H713433   2.299   3.058  11.268  0.3077  1.7023 -1.3893
  918MPD2     C13434   2.340   3.036  12.352  0.4424  0.6165  0.0832
  918MPD2    C113435   2.447   3.032  12.253  0.0498 -0.1443  0.2968
  918MPD2    C213436   2.418   3.037  12.122  0.3084  0.2926 -0.5331
  918MPD2    C313437   2.293   3.041  12.074 -0.4923  0.2240 -0.1923
  918MPD2    C413438   2.188   3.047  12.165 -0.0769  0.1482  0.0515
  918MPD2    C513439   2.213   3.051  12.300 -0.0784  0.2185  0.7922
  918MPD2     H13440   2.495   3.018  12.047 -0.3415  0.3198 -1.2101
  918MPD2    H113441   2.087   3.044  12.126 -0.4923 -0.6114  1.2044
  918MPD2    H213442   2.349   3.054  12.458 -0.1507 -1.5477  0.4945
  918MPD2    H313443   2.124   3.056  12.362 -0.7728 -0.8059 -0.1120
  918MPD2     N13444   2.270   3.022  11.940 -0.6514 -0.3012  0.0293
  918MPD2    H513445   2.347   3.044  11.878 -0.3523  1.2496  0.9444
  918MPD2    N113446   2.581   3.020  12.294 -0.4163  0.5406  0.4281
  918MPD2    H713447   2.653   3.026  12.223 -0.6127  0.8905  0.2582
  919MPD2     C13448   3.369   2.306  11.250 -0.7805  0.2627  0.3317
  919MPD2    C113449   3.378   2.172  11.239 -0.1284  0.6575  0.3222
  919MPD2    C213450   3.390   2.117  11.115 -0.2910 -0.8438  0.4480
  919MPD2    C313451   3.383   2.200  11.001 -0.0904  0.3003 -0.5115
  919MPD2    C413452   3.369   2.333  11.015 -0.4812  0.3121  0.1502
  919MPD2    C513453   3.377   2.384  11.140 -0.9923 -0.2921  0.7219
  919MPD2     H13454   3.387   2.009  11.102  0.0776 -0.5032 -2.5131
  919MPD2    H113455   3.357   2.392  10.925  1.5483  1.4401  0.6180
  919MPD2    H213456   3.361   2.362  11.343 -1.4470 -0.2233  0.5656
  919MPD2    H313457   3.368   2.491  11.155  0.6222  0.1720 -1.6530
  919MPD2     N13458   3.364   2.151  10.870  0.5205 -0.2860  0.0627
  919MPD2    H513459   3.366   2.224  10.799 -2.4622  0.1042  0.3733
  919MPD2    N113460   3.378   2.086  11.351  0.7638  0.0483  0.2716
  919MPD2    H713461   3.400   1.990  11.324  0.2596  0.5319 -1.8548
  920MPD2     C13462   2.925   2.733  10.601  1.0767 -0.0449 -0.0728
  920MPD2    C113463   2.902   2.674  10.476 -0.1966  0.6821  0.2149
  920MPD2    C213464   2.959   2.550  10.452 -0.2931  0.0851  0.1618
  920MPD2    C313465   3.046   2.494  10.543 -0.2686  0.5783 -0.1554
  920MPD2    C413466   3.071   2.560  10.665  0.4627  0.5141 -0.6396
  920MPD2    C513467   3.006   2.677  10.693  0.7424 -0.2463 -0.5085
  920MPD2     H13468   2.937   2.501  10.357 -0.5242  0.4003  0.0515
  920MPD2    H113469   3.147   2.523  10.732  1.3163  0.0584 -1.8511
  920MPD2    H213470   2.890   2.833  10.623  1.0157 -0.0838  0.0063
  920MPD2    H313471   3.031   2.728  10.785 -2.1710  1.2705 -0.5523
  920MPD2     N13472   3.104   2.372  10.506 -0.2819 -0.4576 -0.2868
  920MPD2    H513473   3.084   2.331  10.415 -1.6928 -1.5745  0.5367
  920MPD2    N113474   2.822   2.735  10.374 -0.4680  0.5610 -0.1365
  920MPD2    H713475   2.809   2.685  10.287 -1.1660 -1.4576  1.1441
  921MPD2     C13476   3.796   1.421  16.710 -0.2819  0.2405 -0.4743
  921MPD2    C113477   3.836   1.289  16.723 -0.0632 -0.9909  0.0958
  921MPD2    C213478   3.740   1.192  16.703  0.3949 -0.6014  0.4019
  921MPD2    C313479   3.607   1.213  16.664  0.2647 -0.4099 -0.3733
  921MPD2    C413480   3.569   1.344  16.656  0.4572  0.1598 -0.3535
  921MPD2    C513481   3.662   1.444  16.675  0.0373 -0.6950  0.0829
  921MPD2     H13482   3.777   1.091  16.699  1.8633 -0.0924  1.1723
  921MPD2    H113483   3.466   1.369  16.632  0.6776  1.7383  0.3159
  921MPD2    H213484   3.858   1.509  16.705 -0.2664  0.3058  0.8578
  921MPD2    H313485   3.631   1.548  16.669 -0.9982 -1.2950 -4.5116
  921MPD2     N13486   3.511   1.115  16.642 -0.6383 -0.7847 -0.0176
  921MPD2    H513487   3.422   1.154  16.612 -0.4174 -0.3599 -0.1286
  921MPD2    N113488   3.975   1.260  16.726  0.4082 -0.2791  0.2155
  921MPD2    H713489   4.047   1.316  16.683  0.7540 -0.5479  0.4413
  922MPD2     C13490   4.547   3.409  16.887  0.4386  0.4896 -0.2127
  922MPD2    C113491   4.609   3.462  16.999  0.6987 -0.3693  0.1693
  922MPD2    C213492   4.557   3.429  17.131  0.5622 -0.2105  0.3611
  922MPD2    C313493   4.446   3.339  17.141 -0.5462  0.2243  0.0448
  922MPD2    C413494   4.390   3.284  17.024 -0.2481 -0.4977 -0.0000
  922MPD2    C513495   4.445   3.320  16.897  0.2246 -0.4474 -0.3173
  922MPD2     H13496   4.614   3.460  17.218 -0.0964  3.3995 -0.4526
  922MPD2    H113497   4.309   3.212  17.024  0.5753 -1.3834 -3.9832
  922MPD2    H213498   4.582   3.435  16.788 -0.5634 -0.4717 -0.8129
  922MPD2    H313499   4.403   3.280  16.805  2.6521  0.3293 -1.7670
  922MPD2     N13500   4.391   3.324  17.267  0.2896 -0.4768  0.0670
  922MPD2    H513501   4.445   3.360  17.345 -0.5643  0.3448  0.2723
  922MPD2    N113502   4.719   3.541  16.996  0.6136 -1.0127  0.1410
  922MPD2    H713503   0.028   3.563  17.090  0.3225  1.7662 -0.4129
  923MPD2     C13504   1.050   0.710   8.720 -0.8287  0.3055  0.2502
  923MPD2    C113505   0.983   0.791   8.810 -0.2092 -0.4507  0.2228
  923MPD2    C213506   1.051   0.885   8.893  0.4996 -0.4337 -0.1887
  923MPD2    C313507   1.189   0.888   8.880 -0.5535 -0.0701 -0.0107
  923MPD2    C413508   1.258   0.815   8.781 -0.2770  0.6663  0.1417
  923MPD2    C513509   1.187   0.729   8.700  0.4940 -0.7736  0.5040
  923MPD2     H13510   0.999   0.943   8.969  0.5167 -1.4085  0.5687
  923MPD2    H113511   1.365   0.828   8.764 -0.0149 -1.8409 -0.2039
  923MPD2    H213512   0.997   0.649   8.647 -0.3221 -1.0220  0.9841
  923MPD2    H313513   1.242   0.666   8.631 -1.0271 -0.5226 -0.9332
  923MPD2     N13514   1.271   0.958   8.976 -1.1630 -0.9191 -0.9003
  923MPD2    H513515   1.368   0.962   8.946 -0.7438 -0.7135  0.4753
  923MPD2    N113516   0.842   0.772   8.819 -0.1447  0.0778 -0.0768
  923MPD2    H713517   0.798   0.695   8.769 -0.4334  0.8876 -1.0619
  924MPD2     C13518   0.853   3.730  15.844  0.0095 -0.4243  0.1092
  924MPD2    C113519   0.898   3.737  15.967  0.3561  0.4029  0.8099
  924MPD2    C213520   0.968   3.860  16.001  0.3170  0.3719  0.0682
  924MPD2    C313521   0.979   3.969  15.913 -0.4455  0.0667 -0.0409
  924MPD2    C413522   0.934   3.947  15.786  0.1299 -0.0230  0.5492
  924MPD2    C513523   0.874   3.830  15.753 -0.1212 -0.3396 -0.2757
  924MPD2     H13524   1.000   3.866  16.104 -2.2993 -0.9168  0.9888
  924MPD2    H113525   0.942   4.022  15.708  1.1169  0.0144  0.6841
  924MPD2    H213526   0.800   3.645  15.802 -2.1570  0.1820  1.6391
  924MPD2    H313527   0.850   3.812  15.649 -0.3647  0.5049 -0.3625
  924MPD2     N13528   1.033   4.095  15.952 -0.6454 -0.3353 -0.0690
  924MPD2    H513529   1.026   4.172  15.886  2.9082 -0.5338 -0.6829
  924MPD2    N113530   0.856   3.630  16.055  0.2562 -0.0440 -0.2207
  924MPD2    H713531   0.775   3.577  16.023 -1.1325  0.8798  1.7973
  925MPD2     C13532   0.144   1.517  14.631  0.3309 -0.1777 -0.3557
  925MPD2    C113533   0.034   1.595  14.610  0.4791 -0.0501  0.1285
  925MPD2    C213534   4.688   1.642  14.725 -0.2820  0.9404  0.3563
  925MPD2    C313535   0.010   1.624  14.855  0.2459 -0.4985  1.2985
  925MPD2    C413536   0.122   1.546  14.873  0.0273  0.6894  0.0759
  925MPD2    C513537   0.183   1.494  14.761  0.5213  0.6890  0.7562
  925MPD2     H13538   4.595   1.691  14.701 -0.5182  0.5870  0.5589
  925MPD2    H113539   0.161   1.521  14.972 -1.1866 -3.9806 -0.6457
  925MPD2    H213540   0.203   1.486  14.545  1.8896  0.5361  0.4456
  925MPD2    H313541   0.267   1.428  14.776  0.0535 -0.0526  0.0782
  925MPD2     N13542   4.667   1.669  14.972 -0.5587 -0.0756  0.2243
  925MPD2    H513543   4.717   1.649  15.059  2.1444 -1.1457 -1.5875
  925MPD2    N113544   4.706   1.624  14.477  0.3014 -0.3525 -0.3063
  925MPD2    H713545   4.626   1.686  14.475  0.9811  0.5124 -0.5870
  926MPD2     C13546   3.427   4.542  14.016 -0.2263 -0.8197  0.0171
  926MPD2    C113547   3.413   4.674  14.009  0.4001  0.1654  0.7090
  926MPD2    C213548   3.428   0.020  13.888  0.3010 -0.7312 -0.2933
  926MPD2    C313549   3.455   4.669  13.773  0.7768 -0.0027 -0.1757
  926MPD2    C413550   3.455   4.532  13.782  0.3084  0.9391  0.0098
  926MPD2    C513551   3.435   4.468  13.902  0.0456 -0.2883  0.2023
  926MPD2     H13552   3.424   0.129  13.892 -0.1005 -0.7197 -1.0495
  926MPD2    H113553   3.462   4.473  13.692  1.0962  1.8014 -0.4983
  926MPD2    H213554   3.412   4.494  14.112 -1.0381  0.2313  0.4222
  926MPD2    H313555   3.443   4.359  13.900  0.3793 -0.2942  2.7469
  926MPD2     N13556   3.476   0.005  13.643  0.7903 -0.1621  0.5411
  926MPD2    H513557   3.506   4.654  13.579 -3.9758 -1.2405 -0.4127
  926MPD2    N113558   3.389   0.019  14.125  0.2279  0.1896 -0.2872
  926MPD2    H713559   3.377   0.119  14.116 -0.1568  0.1859  0.1734
  927MPD2     C13560   3.502   1.957   0.797 -0.0578 -0.2292 -0.2509
  927MPD2    C113561   3.503   2.085   0.750  0.6808 -0.0648 -0.1859
  927MPD2    C213562   3.454   2.112   0.621 -0.0814  0.6708 -0.4017
  927MPD2    C313563   3.417   2.012   0.535  0.0418  0.6657 -0.0872
  927MPD2    C413564   3.432   1.883   0.579  0.5767 -0.4670 -0.0025
  927MPD2    C513565   3.461   1.857   0.710 -0.4105 -0.0845  0.5829
  927MPD2     H13566   3.444   2.214   0.583 -0.1459 -0.5784 -3.7676
  927MPD2    H113567   3.408   1.793   0.522  0.3082  0.1702 -0.9027
  927MPD2    H213568   3.540   1.939   0.897  0.2594 -0.5547 -0.4292
  927MPD2    H313569   3.467   1.753   0.742  0.8637 -0.3719 -0.5806
  927MPD2     N13570   3.356   2.044   0.411 -0.0700 -0.1816  0.4756
  927MPD2    H513571   3.340   2.144   0.395  2.4031 -0.1661 -1.7033
  927MPD2    N113572   3.533   2.187   0.842 -0.3077  0.7266  0.0724
  927MPD2    H713573   3.564   2.157   0.934  0.2622 -2.1138 -1.0355
  928MPD2     C13574   1.917   0.445   0.796  0.9494 -1.0133  0.8442
  928MPD2    C113575   1.956   0.557   0.868 -0.1151 -0.4240 -0.4207
  928MPD2    C213576   1.908   0.683   0.831  0.2118  0.1788 -0.0999
  928MPD2    C313577   1.826   0.698   0.716  0.0508  0.4171  0.0806
  928MPD2    C413578   1.795   0.579   0.642 -0.6972 -0.2188 -0.3440
  928MPD2    C513579   1.846   0.452   0.679  0.2883 -0.0039 -0.1693
  928MPD2     H13580   1.951   0.769   0.882  0.2007  0.7724 -1.1099
  928MPD2    H113581   1.744   0.581   0.547 -0.2073 -1.8085 -0.6382
  928MPD2    H213582   1.954   0.347   0.823  3.4148 -0.0519  0.9430
  928MPD2    H313583   1.823   0.363   0.622  2.1784 -2.5570  3.0663
  928MPD2     N13584   1.787   0.818   0.657  0.2195  0.0509  0.0859
  928MPD2    H513585   1.742   0.798   0.568 -2.9165  1.8173  1.2716
  928MPD2    N113586   2.060   0.541   0.952  0.6410 -0.4273 -0.3637
  928MPD2    H713587   2.109   0.452   0.949  0.7128 -0.4311  0.8535
  929MPD2     C13588   2.129   1.146  10.502  0.0795 -0.4416 -0.7992
  929MPD2    C113589   2.036   1.046  10.499  0.1572  0.3170 -0.1200
  929MPD2    C213590   1.936   1.046  10.401  0.4960 -0.5571 -1.0305
  929MPD2    C313591   1.927   1.141  10.307  0.0279 -0.0044  0.1977
  929MPD2    C413592   2.017   1.245  10.312  0.8013 -0.1537 -0.1393
  929MPD2    C513593   2.112   1.248  10.408  0.0512  0.6704 -1.0306
  929MPD2     H13594   1.874   0.956  10.400 -0.9250  0.4076 -0.6691
  929MPD2    H113595   1.994   1.328  10.245  2.2352  0.6627  0.3732
  929MPD2    H213596   2.214   1.153  10.568  1.9887 -0.1296 -3.2778
  929MPD2    H313597   2.173   1.337  10.423  0.5912  0.2385 -0.6514
  929MPD2     N13598   1.831   1.157  10.215 -0.3469  0.0204 -0.4506
  929MPD2    H513599   1.843   1.240  10.159 -1.4600  1.2505  1.1281
  929MPD2    N113600   2.062   0.946  10.597 -0.0545 -0.4311  0.1704
  929MPD2    H713601   2.153   0.937  10.641  0.2005  0.6354 -0.1412
  930MPD2     C13602   3.365   3.206  14.351 -0.5298  0.4454 -0.1289
  930MPD2    C113603   3.256   3.205  14.270 -0.4303  0.2292 -0.1581
  930MPD2    C213604   3.156   3.108  14.283  0.4818  0.8874  0.0574
  930MPD2    C313605   3.187   2.999  14.362  0.0697  0.2261 -0.3254
  930MPD2    C413606   3.304   2.997  14.440  0.0789  0.4840 -0.1822
  930MPD2    C513607   3.391   3.099  14.432  0.3866  0.5852  0.3292
  930MPD2     H13608   3.067   3.105  14.222  2.6565 -2.6979 -2.9503
  930MPD2    H113609   3.316   2.906  14.499  3.3847  1.7030  0.9938
  930MPD2    H213610   3.430   3.293  14.349 -0.0522  0.0628 -1.2853
  930MPD2    H313611   3.483   3.109  14.490 -0.2381  3.6495  0.7954
  930MPD2     N13612   3.099   2.889  14.368 -0.3604  0.1672  0.1064
  930MPD2    H513613   3.130   2.801  14.409 -0.8731 -1.0276 -2.0960
  930MPD2    N113614   3.251   3.312  14.181 -0.2306 -0.1416 -0.6612
  930MPD2    H713615   3.335   3.368  14.189  1.5580 -3.1218  1.5249
  931MPD2     C13616   3.571   2.001   1.422  0.0903 -0.1167 -0.7807
  931MPD2    C113617   3.473   2.092   1.418 -0.0552 -0.7108 -0.1043
  931MPD2    C213618   3.375   2.092   1.519 -0.5349  0.1657 -0.1966
  931MPD2    C313619   3.362   1.983   1.600 -0.1036  0.3725  0.5643
  931MPD2    C413620   3.464   1.881   1.596 -0.7081 -0.5119 -0.1506
  931MPD2    C513621   3.575   1.900   1.514 -0.0759  0.3900 -0.5770
  931MPD2     H13622   3.295   2.164   1.508 -1.2158 -0.6513 -0.5655
  931MPD2    H113623   3.461   1.792   1.659  0.1217  0.4909  1.2990
  931MPD2    H213624   3.644   1.996   1.341  0.2268 -0.7430 -0.6178
  931MPD2    H313625   3.656   1.828   1.519 -1.4346 -1.0312  1.0274
  931MPD2     N13626   3.258   1.954   1.692  0.4816 -0.2600 -0.2370
  931MPD2    H513627   3.253   1.856   1.716 -2.7935 -0.6340 -2.5550
  931MPD2    N113628   3.492   2.197   1.317  0.1261  0.2080  0.3591
  931MPD2    H713629   3.557   2.187   1.239 -0.9930 -1.0957 -0.4141
  932MPD2     C13630   0.316   1.110  11.284 -0.7952 -0.3475 -0.3273
  932MPD2    C113631   0.296   1.143  11.417  0.3533  0.3492 -0.3757
  932MPD2    C213632   0.352   1.073  11.514  0.6620  0.4393 -0.2323
  932MPD2    C313633   0.421   0.951  11.492 -0.3128  0.2109 -0.2683
  932MPD2    C413634   0.446   0.919  11.361 -0.8758  0.4050  0.0832
  932MPD2    C513635   0.391   0.996  11.259 -0.0851 -0.4385 -0.2884
  932MPD2     H13636   0.341   1.111  11.615  0.3835  0.8765 -0.4300
  932MPD2    H113637   0.503   0.835  11.324 -0.2957  0.9724 -0.3249
  932MPD2    H213638   0.283   1.175  11.205 -0.9292  0.8183  0.6909
  932MPD2    H313639   0.407   0.962  11.157  0.1064 -0.7758 -0.1480
  932MPD2     N13640   0.443   0.855  11.587  0.2663 -0.6572 -0.2890
  932MPD2    H513641   0.485   0.768  11.557 -1.0328 -2.3676  2.7527
  932MPD2    N113642   0.228   1.263  11.458  0.5058  0.0778  0.1705
  932MPD2    H713643   0.240   1.295  11.553  1.7362  1.7350 -0.5473
  933MPD2     C13644   2.639   0.603   1.697 -0.0902 -0.0494  0.8323
  933MPD2    C113645   2.527   0.667   1.646  0.2090 -0.2381  0.8907
  933MPD2    C213646   2.468   0.762   1.725  0.4102 -0.8051  0.3442
  933MPD2    C313647   2.535   0.797   1.850  0.1345  0.0051 -0.4778
  933MPD2    C413648   2.641   0.725   1.896 -0.1150  0.1615 -0.3391
  933MPD2    C513649   2.692   0.622   1.820  0.3386  0.1581  0.8273
  933MPD2     H13650   2.381   0.823   1.703  1.6175  0.8354  0.0778
  933MPD2    H113651   2.705   0.746   1.981 -0.4329 -0.2270 -0.0024
  933MPD2    H213652   2.690   0.529   1.636  0.3819  1.0025 -0.0424
  933MPD2    H313653   2.781   0.566   1.849 -0.7162 -0.6054  2.5929
  933MPD2     N13654   2.483   0.910   1.914  0.3498  0.1308  0.1694
  933MPD2    H513655   2.412   0.963   1.866 -0.1392  0.4257  1.2179
  933MPD2    N113656   2.472   0.639   1.516  0.0897  1.0206 -0.0566
  933MPD2    H713657   2.527   0.571   1.465 -1.4061  0.8500 -1.4331
  934MPD2     C13658   1.569   3.218   2.217 -0.0730  0.1452  0.7985
  934MPD2    C113659   1.663   3.118   2.209  0.7504  0.3179 -0.6405
  934MPD2    C213660   1.658   3.031   2.096  0.0292  0.6583 -0.2529
  934MPD2    C313661   1.555   3.037   1.999 -0.8672 -0.0238 -0.3120
  934MPD2    C413662   1.460   3.128   2.021  0.4439 -0.2430 -0.0165
  934MPD2    C513663   1.471   3.221   2.124  0.1830  0.5793  0.3417
  934MPD2     H13664   1.738   2.959   2.086 -1.4984 -1.1482  0.5500
  934MPD2    H113665   1.377   3.148   1.954  2.8596  1.4969 -2.5011
  934MPD2    H213666   1.559   3.291   2.296  3.9735 -2.5232  3.8164
  934MPD2    H313667   1.390   3.290   2.142  0.6667  2.2527 -4.0349
  934MPD2     N13668   1.545   2.951   1.881 -0.1790  0.2631  0.1407
  934MPD2    H513669   1.457   2.941   1.831 -1.1353  2.5547  1.3508
  934MPD2    N113670   1.763   3.096   2.305 -0.0111  0.0773  0.2067
  934MPD2    H713671   1.828   3.018   2.297 -0.4726 -0.3039  0.1289
  935MPD2     C13672   2.201   2.290   1.493  0.5338 -0.5871  0.6185
  935MPD2    C113673   2.109   2.323   1.400  0.5657 -0.6740 -0.7872
  935MPD2    C213674   1.989   2.367   1.448  0.0410  0.4717  0.0965
  935MPD2    C313675   1.967   2.407   1.579 -0.1346  0.1886  0.5193
  935MPD2    C413676   2.064   2.378   1.674 -0.5448  0.3369 -0.6581
  935MPD2    C513677   2.173   2.306   1.630 -0.4977  0.6192 -0.3857
  935MPD2     H13678   1.911   2.393   1.378 -0.1460 -0.2077  0.0475
  935MPD2    H113679   2.050   2.407   1.777 -1.9854 -0.3679 -0.6638
  935MPD2    H213680   2.288   2.231   1.469  0.5085  0.5004 -2.0957
  935MPD2    H313681   2.238   2.270   1.708 -1.3246 -2.2028 -0.9874
  935MPD2     N13682   1.857   2.480   1.626 -0.0522 -0.4185  0.8206
  935MPD2    H513683   1.856   2.495   1.726  2.0242  0.8380  0.6607
  935MPD2    N113684   2.122   2.298   1.261  0.2539  0.1388 -0.4738
  935MPD2    H713685   2.045   2.332   1.205  0.8663 -1.0005 -1.9909
  936MPD2     C13686   1.150   0.085  12.339 -0.3785 -0.0091  0.2704
  936MPD2    C113687   1.185   4.694  12.401  0.1143 -0.9345  0.6049
  936MPD2    C213688   1.318   4.662  12.401 -0.7388 -0.2889 -0.5594
  936MPD2    C313689   1.423   0.023  12.354  0.2555  0.3758  0.2981
  936MPD2    C413690   1.384   0.147  12.306  0.0917  0.0643  0.5576
  936MPD2    C513691   1.249   0.177  12.293  0.8360 -1.4514 -0.0274
  936MPD2     H13692   1.347   4.571  12.452  2.9077  0.1470 -1.8083
  936MPD2    H113693   1.461   0.216  12.274 -1.8356  2.5002  1.1613
  936MPD2    H213694   1.048   0.119  12.326 -0.8070 -0.3289  2.9198
  936MPD2    H313695   1.233   0.275  12.251 -1.3434 -1.5840  0.4598
  936MPD2     N13696   1.560   4.716  12.369  0.6351 -0.1603  0.2462
  936MPD2    H513697   1.620   0.075  12.359 -1.4325  1.4491  0.8771
  936MPD2    N113698   1.091   4.611  12.465  0.4263  0.0636 -0.6274
  936MPD2    H713699   1.122   4.516  12.482  1.5285  0.4327 -0.5774
  937MPD2     C13700   3.381   1.474  11.223 -0.3907 -0.2628 -0.7053
  937MPD2    C113701   3.409   1.606  11.227  0.0826 -0.1987 -0.7975
  937MPD2    C213702   3.477   1.666  11.125  0.2609  0.3845 -0.4829
  937MPD2    C313703   3.501   1.600  11.011  0.9076  0.2484  1.1534
  937MPD2    C413704   3.476   1.468  10.996 -0.5843 -0.0098 -0.1784
  937MPD2    C513705   3.411   1.412  11.099  0.0421 -0.0325 -0.2091
  937MPD2     H13706   3.504   1.771  11.132  1.4959 -0.0378  1.1430
  937MPD2    H113707   3.492   1.409  10.906 -3.5914  0.5665 -1.1041
  937MPD2    H213708   3.355   1.414  11.309 -1.5032  1.7899  0.3903
  937MPD2    H313709   3.397   1.304  11.094  0.2424  0.0739 -3.2501
  937MPD2     N13710   3.572   1.675  10.921 -0.1900  0.4435  0.1838
  937MPD2    H513711   3.586   1.775  10.931 -1.1201  0.4744  1.2549
  937MPD2    N113712   3.414   1.674  11.352  0.4909 -1.0004 -0.4003
  937MPD2    H713713   3.464   1.762  11.349  0.7019 -1.0941  0.3829
  938MPD2     C13714   1.096   2.013   1.074  0.0702  0.2072 -0.2573
  938MPD2    C113715   1.053   2.139   1.116 -0.3103  0.2052  0.0522
  938MPD2    C213716   1.020   2.163   1.251  0.3785  0.0950 -0.5115
  938MPD2    C313717   1.047   2.064   1.346  0.2294 -0.3346 -0.0724
  938MPD2    C413718   1.116   1.950   1.298 -0.6746 -0.5075  0.3781
  938MPD2    C513719   1.131   1.916   1.166 -1.0377 -0.6541  0.0497
  938MPD2     H13720   0.988   2.263   1.276 -0.8813 -0.6119  0.7097
  938MPD2    H113721   1.174   1.888   1.364  0.9465  0.1895 -0.3944
  938MPD2    H213722   1.125   1.987   0.973  2.0158 -1.0355  0.6071
  938MPD2    H313723   1.190   1.833   1.128  0.6585  0.6159 -0.1207
  938MPD2     N13724   1.037   2.100   1.489 -0.3530 -0.0815 -0.1045
  938MPD2    H513725   1.080   2.030   1.549 -0.7338  0.9429  1.3560
  938MPD2    N113726   1.057   2.251   1.036  0.1037 -0.2469  0.2433
  938MPD2    H713727   1.000   2.328   1.070  1.2645  0.9073 -0.4656
  939MPD2     C13728   2.096   3.562   1.119 -0.4052 -0.4914  0.3886
  939MPD2    C113729   2.038   3.646   1.022 -0.5408 -0.1239  0.3678
  939MPD2    C213730   2.097   3.662   0.894  0.5577 -0.1660  0.1455
  939MPD2    C313731   2.213   3.589   0.869 -0.5444 -0.0787 -0.1231
  939MPD2    C413732   2.264   3.497   0.961 -0.2077  0.1507  0.1477
  939MPD2    C513733   2.203   3.485   1.084 -0.5489 -0.4925 -0.0886
  939MPD2     H13734   2.051   3.723   0.817  0.1191  0.3105  0.7802
  939MPD2    H113735   2.358   3.447   0.940 -1.4588 -2.3174  0.4598
  939MPD2    H213736   2.046   3.531   1.210 -1.1310 -0.1726  0.0970
  939MPD2    H313737   2.244   3.419   1.160 -1.9798 -1.9843 -0.5931
  939MPD2     N13738   2.268   3.618   0.740  0.2007  1.1248  0.1799
  939MPD2    H513739   2.209   3.682   0.687 -0.5803  0.9012  0.7736
  939MPD2    N113740   1.917   3.705   1.059 -0.5727 -0.1824  0.6900
  939MPD2    H713741   1.885   3.685   1.153 -1.8543  0.6713  0.4216
  940MPD2     C13742   1.907   4.273  12.981 -0.5471 -0.2862 -0.2331
  940MPD2    C113743   1.772   4.273  12.972  0.5451  0.7662  0.4863
  940MPD2    C213744   1.712   4.234  12.851 -0.3552 -0.0008  0.7668
  940MPD2    C313745   1.788   4.192  12.751  0.1003  0.0746 -0.1565
  940MPD2    C413746   1.925   4.173  12.768  0.2092 -0.2065 -0.2052
  940MPD2    C513747   1.984   4.229  12.878  0.1884 -0.7762  1.4949
  940MPD2     H13748   1.604   4.233  12.840 -0.2176 -1.7682 -0.4742
  940MPD2    H113749   1.984   4.142  12.682  0.1402  1.8740 -1.0284
  940MPD2    H213750   1.968   4.291  13.069 -1.4475  0.1560  0.3029
  940MPD2    H313751   2.091   4.231  12.895  0.3214 -0.4858  0.6333
  940MPD2     N13752   1.745   4.147  12.630 -0.2649 -0.9411  0.3839
  940MPD2    H513753   1.811   4.109  12.562 -1.6841 -0.7267 -1.1131
  940MPD2    N113754   1.699   4.309  13.090 -0.2848 -0.2013 -0.1654
  940MPD2    H713755   1.749   4.348  13.170 -1.2030 -0.0098  0.3150
  941MPD2     C13756   1.404   3.699   9.534 -0.6029  0.1405 -0.1736
  941MPD2    C113757   1.314   3.753   9.622 -0.0215  0.5261  0.8696
  941MPD2    C213758   1.190   3.702   9.628 -0.6372  0.4443 -0.8761
  941MPD2    C313759   1.141   3.596   9.541 -0.6144 -0.7467  0.7922
  941MPD2    C413760   1.229   3.551   9.442 -1.0126 -0.2713 -0.0220
  941MPD2    C513761   1.359   3.601   9.445 -0.1761  0.7120  0.0246
  941MPD2     H13762   1.121   3.749   9.698 -0.5649  0.9463 -1.1361
  941MPD2    H113763   1.195   3.482   9.366 -1.1189  0.5899 -0.7594
  941MPD2    H213764   1.507   3.733   9.534 -0.6925  0.4049  1.4681
  941MPD2    H313765   1.428   3.575   9.365  0.5339  1.9838  0.2194
  941MPD2     N13766   1.006   3.540   9.549  0.3128 -0.8015 -0.7262
  941MPD2    H513767   0.974   3.485   9.470 -0.0737 -2.4839  0.6094
  941MPD2    N113768   1.342   3.871   9.696  0.1779  0.2462 -0.8178
  941MPD2    H713769   1.277   3.917   9.760  1.0352 -0.6260  0.6855
  942MPD2     C13770   0.419   0.466   9.000 -0.0562  0.2528 -0.4578
  942MPD2    C113771   0.438   0.530   9.117 -0.1949 -0.0748 -0.6445
  942MPD2    C213772   0.567   0.560   9.153 -0.2405  0.3487  0.6313
  942MPD2    C313773   0.674   0.528   9.073 -0.8241 -0.5110  0.8487
  942MPD2    C413774   0.648   0.476   8.947 -0.7975  0.9672  0.0250
  942MPD2    C513775   0.521   0.443   8.915  0.4889  0.0512 -0.9089
  942MPD2     H13776   0.592   0.605   9.249  0.1881  0.4297  0.4787
  942MPD2    H113777   0.724   0.464   8.871 -0.7093 -0.8953  0.3997
  942MPD2    H213778   0.324   0.436   8.957  0.1909 -1.2411  0.0620
  942MPD2    H313779   0.496   0.401   8.818 -1.0722 -0.1629 -0.4149
  942MPD2     N13780   0.809   0.563   9.087  0.2447 -0.0328 -0.9277
  942MPD2    H513781   0.869   0.508   9.025  1.6953 -0.0568  0.5138
  942MPD2    N113782   0.334   0.536   9.214  0.3763 -0.7582  0.0462
  942MPD2    H713783   0.352   0.574   9.306  4.0291 -2.7673  0.1256
  943MPD2     C13784   3.553   4.174   9.504 -0.4000  0.6009 -0.0146
  943MPD2    C113785   3.565   4.110   9.621 -0.1701  0.0955  0.3652
  943MPD2    C213786   3.656   4.155   9.716  0.5138 -0.2848 -0.2583
  943MPD2    C313787   3.735   4.270   9.697 -0.3113  0.4398  0.1158
  943MPD2    C413788   3.716   4.332   9.575  0.6057 -1.6758 -0.0433
  943MPD2    C513789   3.625   4.286   9.485 -0.1312 -0.1024 -0.3178
  943MPD2     H13790   3.659   4.100   9.810  0.1195 -0.7757 -0.5350
  943MPD2    H113791   3.778   4.418   9.552 -0.3238  0.0190  3.7036
  943MPD2    H213792   3.481   4.138   9.431  0.6649 -1.0556 -0.2625
  943MPD2    H313793   3.606   4.343   9.395 -0.5978 -2.6639 -1.8243
  943MPD2     N13794   3.815   4.333   9.800 -0.2866 -0.3299 -0.6425
  943MPD2    H513795   3.886   4.395   9.763  0.9397 -1.1633  0.2961
  943MPD2    N113796   3.496   3.990   9.641  0.0228  1.0058 -0.2606
  943MPD2    H713797   3.424   3.971   9.571 -0.0610  1.2526 -0.2402
  944MPD2     C13798   3.578   2.832  10.963 -0.3073 -0.5124 -0.2311
  944MPD2    C113799   3.657   2.944  10.960  0.6322  0.9039 -0.9900
  944MPD2    C213800   3.643   3.034  11.070  0.3834  0.1756  0.4587
  944MPD2    C313801   3.552   3.009  11.172 -0.1414  0.2353  0.6268
  944MPD2    C413802   3.496   2.883  11.181  0.1363 -0.5304 -0.2661
  944MPD2    C513803   3.496   2.799  11.072 -0.4620 -0.0472 -0.3295
  944MPD2     H13804   3.689   3.132  11.060  0.6191  0.0927  0.7348
  944MPD2    H113805   3.446   2.850  11.271 -0.0273  0.4907  0.0179
  944MPD2    H213806   3.567   2.772  10.874  0.2619 -1.9350  0.6497
  944MPD2    H313807   3.452   2.700  11.075  1.1096 -0.7695 -1.1981
  944MPD2     N13808   3.540   3.107  11.278 -0.2171  0.2206 -0.2788
  944MPD2    H513809   3.603   3.187  11.279 -1.4136  1.1211  1.8177
  944MPD2    N113810   3.726   2.978  10.839  0.4768 -0.2977  0.6003
  944MPD2    H713811   3.725   2.905  10.769 -1.4894 -0.0182  0.3344
    1TCq1    O113812   1.604   3.263  14.156 -0.4371 -0.3385  0.4226
    1TCq1    C113813   1.660   3.294  14.275  0.5136 -0.5334  0.1582
    1TCq1    O213814   1.602   3.362  14.359  0.6519  0.3555  0.0698
    1TCq1    C213815   1.804   3.259  14.272  0.1814 -1.0582 -0.6634
    1TCq1    C313816   1.858   3.183  14.177 -0.0308 -0.1436  0.1946
    1TCq1    C413817   1.996   3.184  14.164  0.6132  0.3037 -0.2317
    1TCq1    C513818   2.068   3.262  14.247  0.0919  0.3518 -0.1605
    1TCq1    C613819   2.008   3.335  14.343 -0.4665  1.1148  0.5466
    1TCq1    C713820   1.868   3.333  14.362  0.2093 -0.4226  0.4049
    1TCq1    C813821   2.094   3.420  14.425  0.5667 -0.5575 -0.5957
    1TCq1    O413822   2.210   3.390  14.438 -0.1375  0.2627 -0.1442
    1TCq1    C913823   2.058   3.103  14.067 -0.0047 -0.6407  0.1171
    1TCq1    O513824   1.993   3.059  13.966 -0.1328  0.0217 -0.0028
    1TCq1    O613825   2.184   3.102  14.068  0.1871 -0.1661  0.1580
    1TCq1    H113826   1.658   3.215  14.090  2.2571 -0.9471  3.0525
    1TCq1    H213827   1.797   3.116  14.118 -0.3575 -0.2899  0.7009
    1TCq1    H313828   2.176   3.268  14.247  0.1920 -1.2507 -1.9165
    1TCq1    H413829   1.831   3.381  14.451  0.9579  1.9928 -0.5949
    2MPD2     C13830   2.186   3.886  14.592  0.3651  0.0268 -0.5442
    2MPD2    C113831   2.064   3.893  14.540  0.5204  0.5523  0.2169
    2MPD2    C213832   2.015   3.773  14.484 -0.7415 -0.1086 -0.5008
    2MPD2    C313833   2.092   3.654  14.494  0.6839 -0.2441 -0.3522
    2MPD2    C413834   2.213   3.652  14.561 -0.2162 -0.3658  0.1025
    2MPD2    C513835   2.252   3.770  14.610 -0.5427  0.2451 -0.0963
    2MPD2     H13836   1.915   3.774  14.441 -1.2059 -0.9206  0.5626
    2MPD2    H113837   2.269   3.561  14.579 -0.1153 -0.0347  1.4756
    2MPD2    H213838   2.232   3.975  14.633  0.8765 -0.2697 -0.4631
    2MPD2    H313839   2.343   3.769  14.669 -1.7679  0.7612  1.7988
    2MPD2     N13840   2.032   3.541  14.440 -0.3303  0.4370  0.3291
    2MPD2    H513841   1.936   3.553  14.409 -1.4802 -0.2081  3.6011
    2MPD2    N113842   2.009   4.019  14.510 -0.0412 -0.0768  0.6212
    2MPD2    H713843   2.060   4.097  14.552 -0.7390  1.6423 -1.7086
    3TMC2    C113844   1.890   4.180  14.387  0.1986  0.0518 -0.4181
    3TMC2    C213845   2.004   4.261  14.396  0.2920 -0.2908  0.1569
    3TMC2    C313846   1.997   4.389  14.350  0.0710 -0.7758 -1.0310
    3TMC2    C413847   1.769   4.236  14.354 -0.3432 -0.5952  0.0757
    3TMC2    C513848   1.767   4.371  14.320  0.2056 -0.4967  0.1095
    3TMC2    C613849   1.879   4.448  14.326  0.5940 -0.4847 -0.0784
    3TMC2     C13850   1.893   4.042  14.438  0.5210  0.3479  0.1061
    3TMC2     O13851   1.794   3.965  14.430  0.3552 -0.1043 -0.1476
    3TMC2     H13852   2.103   4.221  14.417  0.8085  0.7328 -0.3654
    3TMC2    H113853   1.691   4.161  14.351 -1.5384  0.6886 -0.9481
    3TMC2    H213854   1.888   4.555  14.313 -2.0586  0.0130  2.1127
    3TMC2    C713855   1.641   4.434  14.307 -0.3990  1.0205  0.0142
    3TMC2    C813856   2.109   4.477  14.355  0.6164  0.5426  1.2388
    3TMC2    O113857   1.544   4.369  14.350  1.1164 -0.6081 -0.0596
    3TMC2    O213858   2.088   4.591  14.393  0.2413 -0.3063 -0.3195
    3TMC2    O513859   2.225   4.415  14.367  0.4624 -0.8318  0.7666
    3TMC2    H513860   2.231   4.322  14.338 -1.0475 -1.1818  1.5696
    4MPD2     C13861   0.856   0.354  13.177 -0.3288  0.2342 -0.4235
    4MPD2    C113862   0.967   0.392  13.109  0.1858  1.3906  0.6991
    4MPD2    C213863   1.087   0.401  13.181 -0.6214 -0.1363 -0.1371
    4MPD2    C313864   1.091   0.368  13.316  0.0115 -0.3712  0.7819
    4MPD2    C413865   0.977   0.343  13.388 -0.0957  0.6043 -0.8427
    4MPD2    C513866   0.863   0.338  13.315  0.0464 -0.2999 -0.7171
    4MPD2     H13867   1.182   0.415  13.130 -0.6981  1.5375  0.1963
    4MPD2    H113868   0.979   0.333  13.496 -0.4465  1.2630 -0.7731
    4MPD2    H213869   0.765   0.328  13.124 -1.5140  0.8802  1.2723
    4MPD2    H313870   0.773   0.316  13.372  0.8309  0.3058  0.7518
    4MPD2     N13871   1.223   0.370  13.372 -0.0731 -0.3381 -0.6141
    4MPD2    H513872   1.309   0.373  13.317  0.5119 -0.1739  0.3036
    4MPD2    N113873   0.950   0.409  12.972 -0.3973  0.2010  0.0715
    4MPD2    H713874   0.858   0.415  12.929 -1.0136 -0.6978  1.2699
    5TCq2    C113875   1.261   0.345  13.510 -0.5478 -0.2212 -0.2373
    5TCq2    O213876   1.199   0.343  13.618 -0.1614 -0.1866  0.9080
    5TCq2    C213877   1.395   0.289  13.519 -0.1466 -0.1207 -1.0715
    5TCq2    C313878   1.452   0.235  13.405  0.0353  0.0443 -0.0747
    5TCq2    C413879   1.562   0.162  13.428 -0.0349  0.3783  0.0129
    5TCq2    C513880   1.619   0.135  13.552 -0.2678 -0.3633  0.0918
    5TCq2    C613881   1.546   0.172  13.663 -0.1610 -0.0533 -0.1648
    5TCq2    C713882   1.441   0.259  13.646 -0.1100 -0.2592  0.1796
    5TCq2    C813883   1.562   0.087  13.784  0.2500 -0.0734  0.0772
    5TCq2    O413884   1.659   0.014  13.789  0.5041  0.1128  0.3801
    5TCq2    C913885   1.632   0.122  13.306  0.6300 -0.9015 -0.3370
    5TCq2    O513886   1.697   0.014  13.325 -0.3550  0.2286  0.2841
    5TCq2    O613887   1.626   0.193  13.201  0.3745  0.3359 -0.8149
    5TCq2    H213888   1.411   0.234  13.305 -0.1742  1.5370 -0.0058
    5TCq2    H313889   1.716   0.087  13.565 -0.2586 -0.6719 -1.1191
    5TCq2    H413890   1.388   0.275  13.739  0.5815 -1.2619  0.7524
    6MPD1     C13891   4.476   1.601  13.236 -0.8897 -0.4637  0.9159
    6MPD1    C113892   4.594   1.596  13.308  0.6084 -0.4462 -0.0136
    6MPD1    C213893   4.711   1.543  13.242 -0.4689  0.4221 -0.2980
    6MPD1    C313894   4.703   1.482  13.119 -0.0653  0.4482 -0.2058
    6MPD1    C413895   4.575   1.476  13.058 -0.0806  0.2824  0.0531
    6MPD1    C513896   4.469   1.540  13.114 -0.1191  0.5451 -0.7100
    6MPD1     H13897   0.082   1.553  13.296 -0.5063 -0.1349 -0.1205
    6MPD1    H113898   4.559   1.428  12.962  0.6990 -1.1765  0.6518
    6MPD1    H213899   4.386   1.645  13.276  0.5782 -0.4661  4.2270
    6MPD1    H313900   4.371   1.542  13.069 -1.0492  1.1278  1.3641
    6MPD1     N13901   0.089   1.428  13.045 -0.7154  0.6398  0.3932
    6MPD1    H513902   0.067   1.392  12.953 -0.0052  0.0711  0.4505
    6MPD1    N113903   4.597   1.675  13.426  0.1796 -0.1108 -0.3907
    6MPD1    H613904   4.505   1.662  13.466  0.4450  1.5291  0.7502
    6MPD1    H713905   4.665   1.639  13.493 -0.6193  0.9713  0.9928
    7MPD2     C13906   0.259   0.798  12.644  0.8637 -0.2323 -0.3890
    7MPD2    C113907   0.367   0.817  12.730  0.3841 -0.7337  0.3650
    7MPD2    C213908   0.469   0.719  12.730  0.1674  0.0240 -0.2485
    7MPD2    C313909   0.475   0.625  12.629  0.8356  0.0056  0.2926
    7MPD2    C413910   0.367   0.611  12.549  0.3673  0.2839 -0.1890
    7MPD2    C513911   0.260   0.696  12.563  0.1565 -0.5990  0.4065
    7MPD2     H13912   0.547   0.728  12.805 -1.0418 -0.8291  1.1308
    7MPD2    H113913   0.356   0.535  12.473  0.2271 -0.4474  0.5585
    7MPD2    H213914   0.162   0.846  12.645  1.0139  0.0377  1.0087
    7MPD2    H313915   0.168   0.685  12.507 -0.4316  1.4259  0.9912
    7MPD2     N13916   0.591   0.542  12.602  0.1671  0.5214 -0.2550
    7MPD2    H513917   0.615   0.517  12.506 -2.4038 -2.1320 -0.2132
    7MPD2    N113918   0.365   0.922  12.831  0.1951  0.3542  0.2931
    7MPD2    H713919   0.450   0.921  12.886  2.3516 -0.5878 -3.0680
    8TMC3    C113920   0.820   0.495  12.644 -0.0129 -0.1011  0.3148
    8TMC3    C213921   0.903   0.426  12.730  0.1421  0.1204  0.6376
    8TMC3    C313922   1.023   0.466  12.761  0.3390  0.1324  0.3576
    8TMC3    C413923   0.876   0.612  12.595 -0.0912  0.8079  0.9617
    8TMC3    C513924   1.004   0.651  12.627  0.8116 -0.0688 -0.2229
    8TMC3    C613925   1.079   0.578  12.715 -0.2560 -0.0504 -0.1536
    8TMC3     C13926   0.689   0.510  12.691 -0.2427 -0.2734  0.1923
    8TMC3     O13927   0.681   0.513  12.812 -0.4413  0.3004 -0.0602
    8TMC3     H13928   0.868   0.329  12.765  2.4906 -1.1340 -0.5125
    8TMC3    H113929   0.816   0.682  12.539  1.3160 -0.9390 -2.7175
    8TMC3    H213930   1.180   0.611  12.737  0.3608 -1.9557 -0.1842
    8TMC3    C713931   1.012   0.790  12.608 -1.3922 -0.4854  0.0886
    8TMC3    C813932   1.063   0.442  12.893  0.2797 -0.8051 -0.1356
    8TMC3    O113933   1.042   0.829  12.496 -0.2359  0.7254  0.5372
    8TMC3    O213934   1.185   0.451  12.904 -0.3551 -0.0516 -0.1999
    9TMC3    C113935   0.305   1.338  13.023  0.5161 -0.2549 -0.4652
    9TMC3    C213936   0.439   1.363  13.028 -0.3142 -0.1227 -0.1329
    9TMC3    C313937   0.523   1.273  12.974 -0.3199 -0.4448 -0.0015
    9TMC3    C413938   0.251   1.220  12.976  0.1426  0.2688  0.3995
    9TMC3    C513939   0.340   1.133  12.916  0.5745 -0.3230  0.3075
    9TMC3    C613940   0.475   1.156  12.910 -0.5121  0.1449 -0.0139
    9TMC3     C13941   0.216   1.416  13.100 -0.7229  0.5285 -0.0541
    9TMC3     O13942   0.262   1.467  13.202 -0.0697 -0.3902 -0.5408
    9TMC3     H13943   0.477   1.453  13.075 -2.2691  0.6517  0.0093
    9TMC3    H113944   0.146   1.193  12.977  0.3894 -0.6715  0.6892
    9TMC3    H213945   0.536   1.091  12.848  0.0982  0.4715  0.2497
    9TMC3    C713946   0.288   1.035  12.830 -0.2921 -0.5526  0.8404
    9TMC3    C813947   0.660   1.302  12.960  0.5039 -0.3156 -0.4620
    9TMC3    O113948   0.175   1.052  12.783  0.1144  0.0427 -0.2832
    9TMC3    O213949   0.686   1.419  12.932 -0.1717  0.5676  0.7874
   10MPD2     C13950   0.995   1.083  12.650 -0.0243 -0.3150 -0.3620
   10MPD2    C113951   0.937   0.990  12.725  0.3906 -0.2528  0.4457
   10MPD2    C213952   0.858   1.032  12.830 -0.2587  0.8905 -0.7806
   10MPD2    C313953   0.831   1.166  12.853  0.0505 -0.5675  0.1771
   10MPD2    C413954   0.876   1.258  12.759  0.4174 -0.9473 -0.4301
   10MPD2    C513955   0.964   1.215  12.664  0.9231  0.2174  0.2361
   10MPD2     H13956   0.821   0.957  12.899  2.5618 -1.0619 -1.3660
   10MPD2    H113957   0.847   1.362  12.757  1.4927 -0.5890  2.2827
   10MPD2    H213958   1.072   1.048  12.583 -1.5104  0.0865 -2.2813
   10MPD2    H313959   1.014   1.287  12.600 -0.7465  1.9732  0.9107
   10MPD2     N13960   0.734   1.187  12.950 -0.2641  0.3170 -0.7005
   10MPD2    H513961   0.691   1.107  12.994  2.9303 -0.5029  0.9356
   10MPD2    N113962   0.961   0.857  12.716 -0.1416  0.2848 -0.0908
   10MPD2    H713963   0.923   0.792  12.784 -0.7830 -1.2169 -1.8841
   11MPD2     C13964   1.411   4.603  14.221 -0.0986  0.0852  0.4769
   11MPD2    C113965   1.536   4.603  14.159 -0.5743 -1.4025  0.3489
   11MPD2    C213966   1.553   4.677  14.041  0.5690  0.3643 -0.0591
   11MPD2    C313967   1.447   0.022  13.993  0.3080  0.2455  0.8571
   11MPD2    C413968   1.323   0.030  14.058  0.6389  0.1075  0.5463
   11MPD2    C513969   1.306   4.678  14.169 -0.1368  0.6323  0.3940
   11MPD2     H13970   1.650   4.669  13.994  0.6299 -1.1294  0.3299
   11MPD2    H113971   1.243   0.094  14.023  0.9331 -0.1417 -0.6147
   11MPD2    H213972   1.394   4.551  14.314 -1.0971 -1.1215 -0.3792
   11MPD2    H313973   1.208   4.679  14.215 -1.1848  1.0220 -1.8296
   11MPD2     N13974   1.461   0.104  13.875 -0.4355  0.1802  0.6436
   11MPD2    H513975   1.381   0.160  13.848 -1.6097 -0.9362  1.7824
   11MPD2    N113976   1.646   4.533  14.208 -0.7563  0.5902 -0.5740
   11MPD2    H713977   1.729   4.551  14.151 -1.8882  1.6822 -1.8711
    1MPD1     C13978   4.281   1.549  16.783 -0.5998 -0.0090 -0.1897
    1MPD1    C113979   4.311   1.451  16.693  0.6731  0.4427  0.6003
    1MPD1    C213980   4.431   1.376  16.712 -0.0108  0.2825 -0.0344
    1MPD1    C313981   4.514   1.411  16.819 -0.1144  0.2279 -0.6398
    1MPD1    C413982   4.481   1.518  16.901  0.6348 -0.5087 -0.1861
    1MPD1    C513983   4.365   1.579  16.886  0.5187 -0.4084  0.1131
    1MPD1     H13984   4.457   1.293  16.647 -1.6735  0.0799 -0.4484
    1MPD1    H113985   4.538   1.547  16.989 -0.6756  1.3938  0.0459
    1MPD1    H213986   4.185   1.599  16.787 -0.6790 -0.0945 -1.1927
    1MPD1    H313987   4.343   1.666  16.947  1.1255 -2.1630  2.8595
    1MPD1     N13988   4.637   1.353  16.854 -0.0230  0.0380 -0.4321
    1MPD1    H513989   4.666   1.370  16.949 -0.5794  1.0808 -0.4514
    1MPD1    N113990   4.208   1.413  16.604  0.6904  0.0799 -0.3422
    1MPD1    H613991   4.253   1.390  16.516  3.0325 -0.2296  0.9309
    1MPD1    H713992   4.142   1.487  16.582  1.6046  1.1703  0.6084
    2MPD1     C13993   0.493   1.439  17.602 -0.0112  0.1475 -0.0614
    2MPD1    C113994   0.567   1.343  17.541 -0.8134 -0.4546 -0.0064
    2MPD1    C213995   0.525   1.293  17.419  0.0497 -0.4595 -0.8610
    2MPD1    C313996   0.414   1.347  17.358  0.3165  0.2212  0.1470
    2MPD1    C413997   0.345   1.452  17.423  0.3101  0.3167 -0.1218
    2MPD1    C513998   0.386   1.492  17.546  0.4015 -0.0938 -0.2681
    2MPD1     H13999   0.571   1.210  17.366 -1.4975 -1.2309 -0.9731
    2MPD1    H114000   0.269   1.515  17.380  0.3066  0.5790  0.2692
    2MPD1    H214001   0.515   1.472   0.011 -0.3645 -1.5596  0.5824
    2MPD1    H314002   0.330   1.574  17.591 -1.5467 -1.2603 -0.5697
    2MPD1     N14003   0.381   1.286  17.232 -0.2706  0.1920  0.5528
    2MPD1    H514004   0.449   1.218  17.199  0.1205  0.2212  1.2885
    2MPD1    N114005   0.673   1.288  17.612 -0.4916  0.5595 -0.4530
    2MPD1    H614006   0.749   1.248  17.557  0.5011  1.7714  0.0342
    2MPD1    H714007   0.712   1.351  17.681 -1.1607  0.8417 -0.3383
    3TMC3    C114008   0.258   1.249  17.023  0.6316  0.0083  0.0118
    3TMC3    C214009   0.367   1.255  16.942 -0.0579  0.2343  0.2147
    3TMC3    C314010   0.350   1.245  16.806 -0.1167  0.4435  0.2855
    3TMC3    C414011   0.131   1.244  16.970  0.2508  0.0229 -0.3493
    3TMC3    C514012   0.115   1.244  16.834  0.2054  0.0012  0.8947
    3TMC3    C614013   0.227   1.228  16.752 -0.0110 -0.3727  0.4567
    3TMC3     C14014   0.262   1.309  17.159  0.5003 -0.3356  0.6051
    3TMC3     O14015   0.176   1.389  17.193  0.2143 -0.1738 -0.0530
    3TMC3     H14016   0.464   1.262  16.990 -1.0932 -0.7003  2.4351
    3TMC3    H114017   0.047   1.233  17.038 -1.1042 -1.5820 -2.2688
    3TMC3    H214018   0.209   1.237  16.646  1.8185 -0.1316  0.1657
    3TMC3    C714019   4.712   1.277  16.770  0.1119 -0.0353  0.1882
    3TMC3    C814020   0.457   1.227  16.717 -0.5831  0.0661  0.4086
    3TMC3    O114021   4.692   1.243  16.651  1.0577  1.0276  0.2448
    3TMC3    O214022   0.429   1.195  16.600  0.6535  0.3985 -0.2465
    4MPD1     C14023   0.959   1.248  16.605 -0.6470 -0.3945  0.5022
    4MPD1    C114024   0.934   1.322  16.718  0.5434  0.1232 -0.6202
    4MPD1    C214025   0.802   1.332  16.761  0.1763  0.3411  0.5167
    4MPD1    C314026   0.698   1.264  16.700  0.3637 -0.2840 -0.3527
    4MPD1    C414027   0.731   1.179  16.601 -0.2818 -0.9425  0.0692
    4MPD1    C514028   0.858   1.176  16.553  0.1139  0.1670 -0.0998
    4MPD1     H14029   0.776   1.404  16.837  3.0165  0.3096  1.5122
    4MPD1    H114030   0.660   1.109  16.558  1.0504 -0.7463 -2.3830
    4MPD1    H214031   1.056   1.241  16.556 -1.2117  1.5414 -0.9148
    4MPD1    H314032   0.881   1.111  16.470 -0.3679 -0.1295 -0.0035
    4MPD1     N14033   0.572   1.286  16.753  0.0365  0.2848 -0.2118
    4MPD1    H514034   0.571   1.346  16.835  1.5900 -0.0477  0.0369
    4MPD1    N114035   1.031   1.405  16.767 -0.1565 -0.0907  0.1597
    4MPD1    H614036   1.035   1.437  16.863  2.9269 -2.1001  0.7294
    4MPD1    H714037   1.126   1.374  16.744 -0.0911  0.8863 -0.8601
    1TCq1    O114038   0.618   1.506  11.081 -0.7489  0.0350 -0.3749
    1TCq1    C114039   0.642   1.533  10.948 -0.4519  0.2204 -0.3792
    1TCq1    O214040   0.571   1.586  10.859 -0.3562  1.0655 -0.3607
    1TCq1    C214041   0.779   1.491  10.923 -0.5871 -0.1967  0.2173
    1TCq1    C314042   0.833   1.378  10.975  0.1911  0.1861 -0.0585
    1TCq1    C414043   0.941   1.325  10.918  0.4463 -0.0437  0.3151
    1TCq1    C514044   1.028   1.397  10.843  0.7974 -0.2130  0.0785
    1TCq1    C614045   0.970   1.508  10.787  0.2227 -0.5658  0.2125
    1TCq1    C714046   0.844   1.541  10.813  0.0307  0.1528  0.0068
    1TCq1    C814047   1.052   1.586  10.693 -0.3437 -0.3220 -0.0182
    1TCq1    O414048   0.995   1.669  10.625 -0.7534 -0.4255  0.9033
    1TCq1    C914049   0.995   1.204  10.977 -0.9639  0.2429  0.0191
    1TCq1    O514050   1.102   1.159  10.923  0.4018 -0.0304 -0.5387
    1TCq1    O614051   0.929   1.159  11.077  0.0614 -0.4729  0.9145
    1TCq1    H114052   0.696   1.488  11.137 -0.2044 -0.9543 -1.4420
    1TCq1    H214053   0.778   1.319  11.048 -0.4770  0.9735  0.0741
    1TCq1    H314054   1.125   1.355  10.819  1.4736  0.7257  1.1253
    1TCq1    H414055   0.799   1.629  10.769  2.1094  2.7655  3.1107
    2MPD1     C14056   1.470   1.617  10.391 -0.7184 -0.3776 -0.3664
    2MPD1    C114057   1.494   1.523  10.489 -0.3385  0.0861  0.2114
    2MPD1    C214058   1.398   1.493  10.583 -0.0874  1.2513  0.6065
    2MPD1    C314059   1.278   1.566  10.580 -0.2119  0.3700 -0.7949
    2MPD1    C414060   1.256   1.653  10.476 -0.2814 -0.1623  0.6214
    2MPD1    C514061   1.350   1.675  10.386  0.7714 -0.8085 -0.0498
    2MPD1     H14062   1.407   1.409  10.651  0.0453  0.5771 -0.2421
    2MPD1    H114063   1.164   1.708  10.459  1.3968  1.8733 -1.8578
    2MPD1    H214064   1.532   1.637  10.305 -0.4170  0.9563  0.1653
    2MPD1    H314065   1.324   1.733  10.298 -1.6841 -0.3599  0.9548
    2MPD1     N14066   1.183   1.541  10.682 -0.6332  0.6488  0.2883
    2MPD1    H514067   1.211   1.476  10.755 -1.4769 -0.3540 -0.2684
    2MPD1    N114068   1.604   1.437  10.482  0.0077 -0.4981  0.7638
    2MPD1    H614069   1.627   1.405  10.576 -0.1345  1.3473  1.4177
    2MPD1    H714070   1.683   1.479  10.435 -0.9475  0.6676  0.1930
    1TCq1    O114071   2.884   3.229   2.352  0.3113  0.4400  0.3619
    1TCq1    C114072   2.961   3.276   2.255 -0.4767  0.2908  1.0238
    1TCq1    O214073   2.972   3.387   2.210  0.1535 -0.1538  0.3250
    1TCq1    C214074   3.055   3.164   2.231 -0.2282 -0.2663  0.0826
    1TCq1    C314075   3.110   3.080   2.325  0.7553 -0.4843  0.5170
    1TCq1    C414076   3.199   2.989   2.281 -0.3404  0.3717  0.3045
    1TCq1    C514077   3.267   3.006   2.159 -0.0556 -0.3537  0.0359
    1TCq1    C614078   3.222   3.108   2.076 -0.2275 -0.7158 -0.6455
    1TCq1    C714079   3.110   3.181   2.107  0.3735 -0.1197  0.4451
    1TCq1    C814080   3.297   3.125   1.952  0.3441  0.0310 -0.6420
    1TCq1    O414081   3.381   3.036   1.918 -0.3941  0.2059 -0.2815
    1TCq1    C914082   3.261   2.899   2.376 -0.4434  0.5041  0.6066
    1TCq1    O514083   3.215   2.891   2.491  0.0188 -0.2123  0.3601
    1TCq1    O614084   3.346   2.815   2.336  0.3306 -0.2140 -0.1263
    1TCq1    H114085   2.861   3.134   2.347  2.5787 -0.2152  2.4364
    1TCq1    H214086   3.077   3.070   2.427  1.1282 -0.3353  0.6525
    1TCq1    H314087   3.366   2.967   2.138  0.0740  0.5594 -1.1029
    1TCq1    H414088   3.063   3.242   2.032  0.8176  0.7715  0.8926
    2MPD1     C14089   3.482   3.405   1.566  0.1620  0.1474 -0.4757
    2MPD1    C114090   3.374   3.476   1.621 -0.2826 -0.0525 -0.3998
    2MPD1    C214091   3.314   3.421   1.729 -0.6086 -0.2034  0.1368
    2MPD1    C314092   3.347   3.292   1.779 -0.6424 -0.4044  0.3644
    2MPD1    C414093   3.449   3.226   1.718 -0.3778  0.4603 -0.5931
    2MPD1    C514094   3.519   3.280   1.613 -0.0773  0.0421 -0.4256
    2MPD1     H14095   3.235   3.478   1.776 -0.0997 -0.0860  0.8525
    2MPD1    H114096   3.502   3.138   1.750 -0.7598  0.7126  0.7329
    2MPD1    H214097   3.542   3.449   1.488  1.9565 -0.6978  0.4414
    2MPD1    H314098   3.593   3.219   1.563 -0.1892 -1.1474  0.8549
    2MPD1     N14099   3.289   3.250   1.898  0.0290 -0.3553  0.5322
    2MPD1    H514100   3.225   3.311   1.947  0.3677 -0.3543  0.9744
    2MPD1    N114101   3.331   3.600   1.574  0.4069 -0.1008 -0.4784
    2MPD1    H614102   3.232   3.620   1.590  1.3170  4.0372 -0.0606
    2MPD1    H714103   3.358   3.640   1.485  1.1057  1.6429  0.5239
    1MPD1     C14104   2.222   1.223  10.877 -0.2490  0.5860  0.0638
    1MPD1    C114105   2.141   1.334  10.854 -0.8805 -0.4797 -0.2033
    1MPD1    C214106   2.162   1.453  10.929  0.2599  0.4707 -0.1017
    1MPD1    C314107   2.269   1.455  11.017  0.2875  0.0248  0.0996
    1MPD1    C414108   2.358   1.347  11.023  0.5883 -0.5359  0.5647
    1MPD1    C514109   2.332   1.235  10.954  0.8892 -0.3363 -0.8863
    1MPD1     H14110   2.101   1.540  10.909  0.2596  0.3841 -0.4834
    1MPD1    H114111   2.428   1.345  11.106  0.3220  1.1885  0.8432
    1MPD1    H214112   2.189   1.126  10.842 -0.9752  1.1155 -0.7251
    1MPD1    H314113   2.385   1.143  10.974 -0.2609 -0.4296  1.6163
    1MPD1     N14114   2.273   1.571  11.100  0.1137  0.3692  0.0348
    1MPD1    H514115   2.200   1.642  11.095  0.4599  0.5892 -2.0100
    1MPD1    N114116   2.009   1.319  10.799 -0.2001 -0.3370  0.1737
    1MPD1    H614117   1.980   1.414  10.775 -0.4736 -0.1647  1.2114
    1MPD1    H714118   2.003   1.262  10.715  1.8700 -0.5574  0.1823
    2MPD1     C14119   1.648   1.798  11.250 -0.2416  0.5032  0.2831
    2MPD1    C114120   1.586   1.859  11.146  0.3542  0.1632  0.8536
    2MPD1    C214121   1.661   1.926  11.056  0.0746  0.2160 -0.4219
    2MPD1    C314122   1.796   1.933  11.077 -0.1917 -0.0825  0.4919
    2MPD1    C414123   1.853   1.889  11.193  0.4057  0.4631  0.1927
    2MPD1    C514124   1.779   1.813  11.283  0.4773 -0.0311  0.2101
    2MPD1     H14125   1.617   1.971  10.968 -1.2068 -0.7876 -0.3065
    2MPD1    H114126   1.959   1.898  11.215  0.2659  1.6058  0.3903
    2MPD1    H214127   1.590   1.750  11.328 -1.4513  0.9198 -0.3432
    2MPD1    H314128   1.816   1.772  11.376  1.1209  1.7357  0.7364
    2MPD1     N14129   1.888   1.986  10.989 -0.0926  0.0985  0.3308
    2MPD1    H514130   1.986   1.988  11.018  0.3288 -2.9760 -0.8792
    2MPD1    N114131   1.451   1.880  11.149 -0.3562 -0.3725  0.8744
    2MPD1    H614132   1.389   1.808  11.186 -1.7136  0.1648 -0.3421
    2MPD1    H714133   1.413   1.913  11.060 -1.7609 -1.4962  1.0644
    3MPD1     C14134   2.345   2.561  10.225 -0.1017 -0.5719 -0.1686
    3MPD1    C114135   2.441   2.488  10.286 -0.6962  0.5409 -0.0285
    3MPD1    C214136   2.399   2.379  10.367  0.5975  0.0167 -0.4224
    3MPD1    C314137   2.266   2.344  10.382 -0.5565 -0.4004  0.2334
    3MPD1    C414138   2.177   2.410  10.304 -0.2164 -0.1856 -0.0875
    3MPD1    C514139   2.210   2.523  10.229  0.2663  0.3912 -0.0540
    3MPD1     H14140   2.474   2.327  10.426  1.4269  4.0646  2.1118
    3MPD1    H114141   2.073   2.381  10.311 -0.0881 -0.5127  0.4184
    3MPD1    H214142   2.371   2.653  10.173 -0.0492  0.3392  1.4837
    3MPD1    H314143   2.137   2.585  10.179  0.4503  0.6518  0.0009
    3MPD1     N14144   2.232   2.240  10.472 -0.3649 -0.5211 -0.2105
    3MPD1    H514145   2.309   2.204  10.527  0.5553  0.2607 -0.9842
    3MPD1    N114146   2.575   2.531  10.292  0.3237 -0.0509 -0.1461
    3MPD1    H614147   2.632   2.447  10.297  2.0727  1.0699 -1.1254
    3MPD1    H714148   2.608   2.582  10.210  1.3206 -0.0566  0.2571
    4MPD2     C14149   2.307   2.256  10.972 -0.1041  0.0539  0.2679
    4MPD2    C114150   2.390   2.219  11.077  0.2331 -0.5464  0.0678
    4MPD2    C214151   2.507   2.287  11.084 -0.1845  0.1331  0.0123
    4MPD2    C314152   2.552   2.376  10.985 -0.4133 -0.1457 -0.2376
    4MPD2    C414153   2.463   2.409  10.885 -0.4912 -0.0515 -0.4244
    4MPD2    C514154   2.342   2.347  10.881 -0.3196  0.5187  0.1804
    4MPD2     H14155   2.571   2.272  11.170  0.8705 -1.8724 -1.1282
    4MPD2    H114156   2.491   2.489  10.817 -0.2347 -0.8318 -1.2283
    4MPD2    H214157   2.207   2.216  10.971 -0.2588  0.4596 -1.6796
    4MPD2    H314158   2.270   2.378  10.806  0.9170  0.5548 -0.9883
    4MPD2     N14159   2.677   2.444  10.984 -0.2895  0.1871 -0.1374
    4MPD2    H514160   2.701   2.495  10.900  1.1360  0.5812  0.5145
    4MPD2    N114161   2.357   2.128  11.177 -0.0532 -0.3408  0.2316
    4MPD2    H714162   2.436   2.113  11.240  0.2642 -1.7203 -0.4949
    5TMC3    C114163   2.261   1.940  11.275 -0.2031 -0.0139 -0.0140
    5TMC3    C214164   2.259   1.818  11.218  0.1197 -0.4946  0.2259
    5TMC3    C314165   2.344   1.720  11.265 -0.2777 -0.6767 -0.0316
    5TMC3    C414166   2.337   1.968  11.381  0.0229  0.6384 -0.1664
    5TMC3    C514167   2.433   1.873  11.423  0.2130  0.7010  0.4307
    5TMC3    C614168   2.430   1.746  11.366  0.5581 -0.2982 -0.4649
    5TMC3     C14169   2.243   2.046  11.183 -0.1922 -0.1644  0.4141
    5TMC3     O14170   2.141   2.044  11.115 -0.0886  0.4710  0.3025
    5TMC3     H14171   2.204   1.804  11.127  0.3826 -1.5285  0.2287
    5TMC3    H114172   2.337   2.066  11.429 -0.6733 -0.0512  1.2627
    5TMC3    H214173   2.508   1.673  11.384  2.0612  0.8163 -2.4291
    5TMC3    C714174   2.557   1.944  11.427 -0.4690 -0.1274  0.5146
    5TMC3    C814175   2.372   1.601  11.185  0.1843 -0.1428  0.0020
    5TMC3    O114176   2.546   2.046  11.363 -0.2839  0.3142  0.3532
    5TMC3    O214177   2.488   1.570  11.183  0.4884  0.0556  0.5662
    6TMC3    C114178   1.985   2.001  10.778 -0.2359  0.4047  0.1130
    6TMC3    C214179   1.991   2.097  10.682  0.6160  0.0570  0.1469
    6TMC3    C314180   2.110   2.101  10.612 -0.2060 -0.5230 -0.2644
    6TMC3    C414181   2.089   1.914  10.804 -0.5314  0.8703 -0.1669
    6TMC3    C514182   2.206   1.943  10.748 -0.0633 -0.0335 -0.6977
    6TMC3    C614183   2.221   2.027  10.642  0.1741 -0.2793 -0.4027
    6TMC3     C14184   1.864   1.999  10.858 -0.2983  0.2258 -0.2031
    6TMC3     O14185   1.766   2.047  10.801  0.4481  0.7092 -0.0973
    6TMC3     H14186   1.912   2.170  10.673 -0.7070 -1.2029  1.7141
    6TMC3    H114187   2.071   1.829  10.869  0.5973  0.2270 -0.7054
    6TMC3    H214188   2.315   2.032  10.587  1.2593 -1.6407  1.3521
    6TMC3    C714189   2.317   1.865  10.799 -0.5085 -0.0011 -0.2653
    6TMC3    C814190   2.110   2.194  10.499  0.9764 -0.6109 -0.2614
    6TMC3    O114191   2.284   1.757  10.848  0.1996  0.2727 -0.0265
    6TMC3    O214192   2.000   2.235  10.462 -0.4184 -0.3702  0.1479
    7MPD2     C14193   3.063   1.862  11.334  0.4864 -0.1654  0.3178
    7MPD2    C114194   2.993   1.972  11.328  0.6077 -0.0090 -0.5623
    7MPD2    C214195   2.857   1.974  11.363 -0.7131 -0.4141  0.5697
    7MPD2    C314196   2.792   1.869  11.422 -0.5145 -0.3605  0.1648
    7MPD2    C414197   2.871   1.757  11.447 -0.0700  0.1223 -0.0574
    7MPD2    C514198   2.999   1.753  11.395  0.5064  0.4692  0.6100
    7MPD2     H14199   2.800   2.064  11.344  0.7953  0.3629 -0.2345
    7MPD2    H114200   2.829   1.661  11.476  2.2155 -0.8521  0.0991
    7MPD2    H214201   3.163   1.848  11.294 -0.9624 -1.1350 -2.9269
    7MPD2    H314202   3.051   1.658  11.404  2.2388  1.3557 -0.1229
    7MPD2     N14203   2.658   1.860  11.454 -0.0226 -0.5689  0.0505
    7MPD2    H514204   2.640   1.777  11.509 -3.1879  0.2876  0.3237
    7MPD2    N114205   3.050   2.085  11.266 -0.0955 -0.3014 -0.0623
    7MPD2    H714206   3.114   2.057  11.193 -0.3670 -1.7862  0.2618
    8TMC3    C114207   3.042   2.302  11.167  0.5413  0.6310 -0.2001
    8TMC3    C214208   3.052   2.239  11.046 -0.3298  0.2799  0.3417
    8TMC3    C314209   2.984   2.278  10.930 -0.1276  0.4329 -0.1289
    8TMC3    C414210   2.969   2.418  11.173  0.3491 -0.5268  0.2764
    8TMC3    C514211   2.891   2.454  11.063  0.1998  0.4942 -0.8054
    8TMC3    C614212   2.912   2.391  10.939 -0.0785 -0.0886  0.1715
    8TMC3     C14213   3.000   2.209  11.270 -0.6367 -0.5427  0.7062
    8TMC3     O14214   2.932   2.251  11.358  0.2068  0.8642 -0.2655
    8TMC3     H14215   3.098   2.142  11.039 -1.2493 -0.2462  1.5852
    8TMC3    H114216   2.960   2.470  11.268 -2.6671 -0.3284 -0.1275
    8TMC3    H214217   2.877   2.441  10.849 -1.1073  0.7903  1.0660
    8TMC3    C714218   2.753   2.466  11.098 -0.9760  0.3230 -0.1254
    8TMC3    C814219   2.923   2.171  10.845 -0.1989 -0.4338  0.4252
    8TMC3    O114220   2.725   2.448  11.215  0.3398  0.3358  0.4529
    8TMC3    O214221   2.851   2.214  10.756 -0.1238  0.1259 -0.3996
    9MPD2     C14222   2.799   1.842  10.992  0.0068  0.5218 -0.0276
    9MPD2    C114223   2.791   1.969  10.921 -0.3508  0.7885  0.2241
    9MPD2    C214224   2.665   1.995  10.865 -0.6837  0.3412 -0.2336
    9MPD2    C314225   2.561   1.904  10.862  0.0407  0.1174 -0.1562
    9MPD2    C414226   2.571   1.785  10.924 -0.0595 -0.0252 -0.6388
    9MPD2    C514227   2.690   1.755  10.987  0.5086  0.0257  0.2464
    9MPD2     H14228   2.647   2.096  10.829 -0.2635 -0.2897 -2.1932
    9MPD2    H114229   2.503   1.701  10.915  0.2427 -0.0620 -2.6173
    9MPD2    H214230   2.885   1.821  11.054 -0.2570  0.4959  0.3254
    9MPD2    H314231   2.694   1.670  11.055  0.8500 -0.7907 -0.8087
    9MPD2     N14232   2.437   1.941  10.794 -1.2852 -0.6074 -0.1191
    9MPD2    H514233   2.442   2.035  10.755  0.0872  1.2754  4.6628
    9MPD2    N114234   2.905   2.058  10.920  0.2491 -0.2923 -0.2599
    9MPD2    H714235   2.981   2.037  10.983 -0.6405 -1.8738  0.2990
    1MPD1     C14236   2.229   0.722  16.182 -0.4205  0.0903  0.0300
    1MPD1    C114237   2.295   0.630  16.105 -0.3593  0.2929 -0.1824
    1MPD1    C214238   2.285   0.496  16.139  0.1673  0.7424 -0.1313
    1MPD1    C314239   2.223   0.456  16.258 -0.1689 -1.1559  0.0391
    1MPD1    C414240   2.162   0.550  16.336 -0.8445 -0.1357  0.5477
    1MPD1    C514241   2.153   0.683  16.289  0.7407 -0.0379  0.6499
    1MPD1     H14242   2.324   0.429  16.063 -2.2944  2.4225 -2.8598
    1MPD1    H114243   2.100   0.524  16.421  1.3565 -0.9441  1.9026
    1MPD1    H214244   2.227   0.826  16.152 -0.7057 -0.0717 -0.5095
    1MPD1    H314245   2.094   0.756  16.342 -1.5105 -1.7294  0.4409
    1MPD1     N14246   2.191   0.323  16.287  0.2497  0.2779 -0.1029
    1MPD1    H514247   2.113   0.311  16.350 -0.2202  0.5240 -0.6401
    1MPD1    N114248   2.351   0.663  15.976  0.3065 -0.3270  0.2082
    1MPD1    H614249   2.439   0.614  15.963  0.1215 -1.2815  2.5456
    1MPD1    H714250   2.383   0.759  15.964 -2.5037  0.9083  2.5443
    2MPD1     C14251   1.893   4.554  15.553 -0.6337  0.3125  0.5746
    2MPD1    C114252   1.905   4.686  15.600 -0.6710  0.6235 -0.5843
    2MPD1    C214253   1.926   4.700  15.733 -0.5300  0.2534 -0.1979
    2MPD1    C314254   1.962   4.601  15.824  0.2590 -0.1824  0.8459
    2MPD1    C414255   1.961   4.475  15.772  0.1104  0.1350 -0.3248
    2MPD1    C514256   1.924   4.446  15.637  0.1564  0.0017  0.7341
    2MPD1     H14257   1.920   0.082  15.759  0.8191 -0.0072  1.1225
    2MPD1    H114258   1.973   4.390  15.839 -0.9361 -0.5202 -0.9715
    2MPD1    H214259   1.846   4.524  15.460 -1.2306  1.8508  0.3653
    2MPD1    H314260   1.936   4.347  15.596  1.6240  0.7041 -0.5196
    2MPD1     N14261   1.997   4.643  15.956 -0.5059 -0.1813 -0.2047
    2MPD1    H514262   2.003   0.021  15.970 -0.1099  0.0425 -2.0378
    2MPD1    N114263   1.860   0.068  15.520  0.8169 -0.6776 -0.1016
    2MPD1    H614264   1.888   0.162  15.547  0.9007 -0.4299 -1.0610
    2MPD1    H714265   1.879   0.052  15.421 -2.0842 -1.5246 -0.5255
    3TCq2    C114266   2.003   4.556  16.060  1.1748 -0.1771  0.0200
    3TCq2    O214267   1.970   4.437  16.077 -0.4143 -0.0215 -0.3710
    3TCq2    C214268   2.071   4.623  16.174  0.1052  0.8642  0.3306
    3TCq2    C314269   2.026   4.589  16.295  0.7378 -0.3152  0.2046
    3TCq2    C414270   2.067   4.667  16.403 -0.5921 -0.2944  0.3761
    3TCq2    C514271   2.142   0.061  16.386 -0.2006  0.5768 -1.0191
    3TCq2    C614272   2.180   0.088  16.259 -0.1929 -0.4982 -0.5905
    3TCq2    C714273   2.149   0.012  16.153 -0.0625  0.2859 -0.4457
    3TCq2    C814274   2.252   0.210  16.229  0.1583  0.4570 -0.3262
    3TCq2    O414275   2.344   0.205  16.156  0.5739 -0.2074 -0.5813
    3TCq2    C914276   2.042   4.627  16.547  0.3067  0.1861 -0.0414
    3TCq2    O514277   2.071   4.713  16.636  0.1956  0.4549 -0.2551
    3TCq2    O614278   1.952   4.541  16.574  0.0975 -0.2646 -0.0406
    3TCq2    H214279   1.969   4.498  16.302  0.0488 -0.1543 -3.2336
    3TCq2    H314280   2.167   0.113  16.477 -1.4343  1.3863 -1.1406
    3TCq2    H414281   2.183   0.043  16.055 -1.6769 -0.0119 -1.0950
    1TCq1    O114282   4.196   3.602  12.586  0.0872 -0.0072 -0.0022
    1TCq1    C114283   4.330   3.590  12.564  0.4185  0.9905  0.8220
    1TCq1    O214284   4.389   3.497  12.512 -0.1047  0.4358 -0.2571
    1TCq1    C214285   4.400   3.711  12.622  0.3264  0.5829 -0.3283
    1TCq1    C314286   4.338   3.808  12.697 -0.9706  0.1110 -0.2744
    1TCq1    C414287   4.424   3.892  12.768 -0.0423  0.1594  0.1344
    1TCq1    C514288   4.563   3.870  12.769 -0.2176  0.8033  0.1344
    1TCq1    C614289   4.622   3.770  12.701  0.0706  0.4035 -0.1640
    1TCq1    C714290   4.538   3.705  12.616 -0.2143 -0.0815 -0.3259
    1TCq1    C814291   0.037   3.763  12.665 -0.4507 -0.6060 -0.9521
    1TCq1    O414292   0.072   3.708  12.564  0.6735 -0.4451 -0.1250
    1TCq1    C914293   4.371   4.011  12.836  0.9197  0.2515  0.1052
    1TCq1    O514294   4.251   4.036  12.810  0.2603 -0.3534 -0.1862
    1TCq1    O614295   4.455   4.080  12.900  0.3377 -0.7728  0.0649
    1TCq1    H114296   4.176   3.698  12.598 -1.3201 -0.1947 -0.8074
    1TCq1    H214297   4.234   3.829  12.679 -0.8353  0.7655 -0.2919
    1TCq1    H314298   4.619   3.951  12.816  2.7665 -0.3571 -1.4335
    1TCq1    H414299   4.580   3.620  12.563  2.7840  0.9477  0.4171
    2MPD2     C14300   0.318   3.846  12.611 -0.1357 -0.9032 -0.0525
    2MPD2    C114301   0.251   3.863  12.731  0.5467  0.6444 -0.3069
    2MPD2    C214302   0.320   3.914  12.843 -0.7604  0.0943  0.4392
    2MPD2    C314303   0.453   3.953  12.834 -0.4106 -0.8417 -0.4117
    2MPD2    C414304   0.520   3.932  12.713 -0.1081  0.6846  0.9386
    2MPD2    C514305   0.451   3.878  12.606 -0.1736 -0.7530  0.8769
    2MPD2     H14306   0.277   3.912  12.943  0.4145 -0.9337  0.9162
    2MPD2    H114307   0.626   3.951  12.703 -0.9238  3.8158 -1.6271
    2MPD2    H214308   0.257   3.806  12.531  0.3973 -0.8747 -0.4729
    2MPD2    H314309   0.513   3.854  12.520 -2.7432  1.8125 -1.6870
    2MPD2     N14310   0.510   4.005  12.951 -0.0148 -0.5664 -0.1478
    2MPD2    H514311   0.468   3.979  13.039  0.8156  2.0534  1.0317
    2MPD2    N114312   0.117   3.827  12.752 -0.4627  0.0945  0.2917
    2MPD2    H714313   0.068   3.846  12.840 -0.1212  0.5929  0.3732
    3TCq1    O114314   1.011   4.362  13.273 -0.3101  0.0359 -0.2049
    3TCq1    C114315   1.003   4.245  13.205 -0.1745  0.0484  0.5055
    3TCq1    O214316   1.086   4.192  13.129  0.0554 -0.4683 -0.4291
    3TCq1    C214317   0.865   4.209  13.196  0.3183 -0.2628  0.5459
    3TCq1    C314318   0.783   4.223  13.309  0.4092  0.2547 -0.2131
    3TCq1    C414319   0.649   4.192  13.297 -0.3614  0.1135 -0.1047
    3TCq1    C514320   0.598   4.136  13.182  0.0758 -0.0487  0.1543
    3TCq1    C614321   0.683   4.117  13.076 -0.1277 -0.0021  0.2764
    3TCq1    C714322   0.814   4.164  13.078 -0.1331  0.2973 -0.6316
    3TCq1    C814323   0.634   4.072  12.950 -0.1204  0.0106 -0.6655
    3TCq1    O414324   0.704   4.110  12.858  0.8533  0.2794  0.0992
    3TCq1    C914325   0.550   4.251  13.382 -0.2497  0.1007 -0.2169
    3TCq1    O514326   0.601   4.313  13.478  0.6256 -0.0003 -0.2252
    3TCq1    O614327   0.433   4.255  13.346 -0.3884 -0.2065  0.4098
    3TCq1    H114328   0.925   4.394  13.307 -1.4768 -3.3233  0.0166
    3TCq1    H214329   0.814   4.269  13.402  0.5041  0.0980 -0.1678
    3TCq1    H314330   0.492   4.117  13.168 -0.2083  0.8620  1.0445
    3TCq1    H414331   0.887   4.153  12.998  0.4355 -0.2581 -0.0356
    1MPD2     C14332   0.095   0.323  14.719 -0.1465 -0.6662 -0.7647
    1MPD2    C114333   4.721   0.302  14.816  0.1090 -0.3744  0.7685
    1MPD2    C214334   4.688   0.170  14.844  0.4907  1.2942 -0.1310
    1MPD2    C314335   0.023   0.068  14.783 -0.5118  0.4903  0.1834
    1MPD2    C414336   0.118   0.096  14.688  0.0560 -1.3472  0.1119
    1MPD2    C514337   0.156   0.224  14.657  0.0015 -0.1039 -1.0898
    1MPD2     H14338   4.609   0.154  14.918  0.9302  0.4741  0.1503
    1MPD2    H114339   0.161   0.010  14.637 -0.7185 -2.0264  0.5959
    1MPD2    H214340   0.141   0.414  14.681 -0.0432 -0.3253  0.1866
    1MPD2    H314341   0.230   0.247  14.581 -1.9431  2.8277 -2.1005
    1MPD2     N14342   4.719   4.656  14.821 -0.4696  1.1641  0.3724
    1MPD2    H514343   0.042   4.582  14.768 -3.7372 -0.2139 -0.5052
    1MPD2    N114344   4.653   0.411  14.874  0.2637  0.3205 -0.4058
    1MPD2    H714345   4.680   0.505  14.847 -0.9013  0.7276 -0.1239
    2TMC3    C114346   4.492   0.542  14.980 -0.5746 -0.5934 -1.0823
    2TMC3    C214347   4.399   0.535  15.076  0.1901 -0.0649 -0.0861
    2TMC3    C314348   4.269   0.576  15.042  0.2833 -1.1262  0.1371
    2TMC3    C414349   4.461   0.601  14.855 -0.1698 -0.3543 -0.4876
    2TMC3    C514350   4.338   0.659  14.836  0.5180  0.0939  0.4822
    2TMC3    C614351   4.242   0.645  14.925  0.1504  0.6429 -0.5500
    2TMC3     C14352   4.555   0.409  14.970  0.1873  1.2576  0.2540
    2TMC3     O14353   4.515   0.319  15.041  0.1452 -0.0708  0.1031
    2TMC3     H14354   4.411   0.492  15.175 -1.7468 -1.1600 -0.3288
    2TMC3    H114355   4.521   0.571  14.770 -0.8517 -3.1477  0.0158
    2TMC3    H214356   4.139   0.672  14.905  0.3612  0.8357 -1.3576
    2TMC3    C714357   4.336   0.786  14.769 -0.2167  0.2488 -0.4886
    2TMC3    C814358   4.170   0.472  15.060  0.6639  0.3631  0.4158
    2TMC3    O114359   4.229   0.841  14.741 -0.3591  0.2288  0.1270
    2TMC3    O214360   4.050   0.494  15.052 -0.4474 -0.3392 -0.3554
    3TCq1    O114361   0.610   1.382  14.362 -0.0652 -0.2755 -0.1490
    3TCq1    C114362   0.645   1.265  14.414 -0.2350  0.3967  0.0670
    3TCq1    O214363   0.762   1.241  14.434 -0.1184 -0.4923 -0.4107
    3TCq1    C214364   0.546   1.250  14.527  0.2447  0.4781  0.0150
    3TCq1    C314365   0.586   1.234  14.659  0.2777  0.1945  0.3096
    3TCq1    C414366   0.496   1.215  14.755 -0.7532 -0.1049 -0.5102
    3TCq1    C514367   0.364   1.193  14.724  1.2834 -0.3529 -0.3633
    3TCq1    C614368   0.325   1.205  14.591 -0.3769 -0.1823  0.5404
    3TCq1    C714369   0.413   1.236  14.493  0.3679 -0.2931  0.0425
    3TCq1    C814370   0.188   1.190  14.549 -0.6530  0.0081 -0.7155
    3TCq1    O414371   0.153   1.209  14.433  0.4184 -0.2533  0.5016
    3TCq1    C914372   0.549   1.198  14.894 -0.0522 -0.0164  0.1537
    3TCq1    O514373   0.674   1.198  14.907 -0.1232  0.5425  0.6762
    3TCq1    O614374   0.463   1.170  14.979 -0.2131  0.0629  0.4761
    3TCq1    H114375   0.520   1.420  14.370 -0.5435 -1.2942 -0.5881
    3TCq1    H214376   0.690   1.255  14.683  0.7894 -0.0833 -1.7113
    3TCq1    H314377   0.307   1.176  14.815  0.7033 -0.5364 -0.7687
    3TCq1    H414378   0.378   1.258  14.394 -0.4360  1.6921  0.7797
    4MPD2     C14379   4.617   1.166  14.554 -0.5613  0.4291 -0.7443
    4MPD2    C114380   4.701   1.081  14.625  0.1164 -0.1839 -0.0707
    4MPD2    C214381   4.645   0.982  14.703 -0.2415  0.0081 -0.6295
    4MPD2    C314382   4.508   0.960  14.707 -0.0640 -0.6822 -0.3387
    4MPD2    C414383   4.435   1.046  14.628  0.0766 -0.5559 -0.4148
    4MPD2    C514384   4.481   1.152  14.557 -0.2228  0.2696 -0.2881
    4MPD2     H14385   4.709   0.905  14.745 -0.3726 -0.8462 -2.0029
    4MPD2    H114386   4.328   1.036  14.612  0.2880 -2.1137 -0.8721
    4MPD2    H214387   4.652   1.249  14.493  2.1857 -0.3587 -0.2324
    4MPD2    H314388   4.409   1.215  14.506  0.4802  1.4356  0.1521
    4MPD2     N14389   4.461   0.844  14.773 -0.0797 -0.2926 -0.4087
    4MPD2    H514390   4.531   0.783  14.815 -0.1439 -0.8805 -1.1471
    4MPD2    N114391   0.121   1.097  14.631  0.5239 -0.4514 -0.2862
    4MPD2    H714392   0.170   1.056  14.709 -0.0078  0.0156  0.2993
    5TMC2    C114393   4.392   4.413  15.032  0.1565  0.0139  0.0683
    5TMC2    C214394   4.457   4.345  15.124 -0.2214 -0.1999  0.8779
    5TMC2    C314395   4.592   4.349  15.118 -0.4382  0.4403  0.0317
    5TMC2    C414396   4.448   4.467  14.918 -0.3700 -0.1784  0.3568
    5TMC2    C514397   4.579   4.479  14.911 -0.5030 -0.0539  0.1254
    5TMC2    C614398   4.650   4.415  15.010 -0.5317  0.0455 -0.3224
    5TMC2     C14399   4.263   4.475  15.071 -0.4743 -0.4195 -0.3679
    5TMC2     O14400   4.182   4.408  15.131 -0.2154 -0.5731  0.8429
    5TMC2     H14401   4.396   4.301  15.202  1.0032 -0.4570  1.6969
    5TMC2    H114402   4.391   4.521  14.844 -0.1792 -2.0208 -1.1302
    5TMC2    H214403   0.035   4.430  15.008 -0.4787 -0.3927 -0.6243
    5TMC2    C714404   4.609   4.617  14.902 -0.0114  0.3506  0.0691
    5TMC2    C814405   4.662   4.391  15.233 -0.1570  0.1303 -0.5396
    5TMC2    O114406   4.535   4.684  14.977 -0.1139  0.0746  0.8108
    5TMC2    O214407   0.000   4.498  15.236 -0.1713  0.3949  0.6509
    5TMC2    O514408   4.641   4.303  15.335 -0.2596  0.3711  0.1615
    5TMC2    H514409   4.587   4.224  15.312 -2.0501  0.5877  3.4872
    6MPD2     C14410   4.044   0.214  15.130  0.2756  0.1890 -0.5870
    6MPD2    C114411   4.168   0.227  15.075 -0.2554 -0.4213  0.1706
    6MPD2    C214412   4.244   0.119  15.048  0.1756 -0.2476  0.3799
    6MPD2    C314413   4.196   4.720  15.087 -0.6009  0.7908 -0.1753
    6MPD2    C414414   4.073   4.701  15.147  0.0310  0.4237 -0.5107
    6MPD2    C514415   3.991   0.094  15.161  0.1482  0.5067 -0.0786
    6MPD2     H14416   4.344   0.130  15.009 -0.6219  0.0387 -1.5750
    6MPD2    H114417   4.031   4.604  15.171 -2.6619  1.3859 -1.3930
    6MPD2    H214418   4.002   0.303  15.175 -0.1806  0.0665 -0.7675
    6MPD2    H314419   3.900   0.086  15.218  0.0636  0.4822 -0.2186
    6MPD2     N14420   4.284   4.613  15.061 -0.5813  0.7501 -0.0174
    6MPD2    H514421   4.367   4.637  15.007 -1.8086  0.1362 -2.1705
    6MPD2    N114422   4.233   0.353  15.067  0.1306  0.5447 -0.5466
    6MPD2    H714423   4.331   0.354  15.040 -0.7162  0.4937 -3.6109
  945NH3     N114424   0.131   1.137   1.798 -0.2354  0.3097  0.2682
  945NH3     H214425   0.063   1.065   1.777  1.0293 -0.1035 -2.5741
  945NH3     H314426   0.125   1.201   1.719 -0.3587 -0.8764 -0.7001
  945NH3     H414427   0.219   1.093   1.772 -1.1509 -0.2341 -1.9166
  946SOD     NA14428   0.518   4.393  13.661 -0.3108  0.3740 -0.0692
  947SOD     NA14429   4.297   1.750   9.141 -0.1552  0.5330 -0.5168
  948SOD     NA14430   2.166   2.994   1.210  0.6486 -0.3914  0.4042
  949SOD     NA14431   0.983   2.790  12.069  0.0541 -0.1665 -0.3969
  950SOD     NA14432   0.580   3.891  11.496 -0.2199 -0.5548  0.3489
  951SOD     NA14433   4.076   0.968   3.323  0.1730  0.0675 -0.6154
  952SOD     NA14434   3.475   3.410  10.852 -0.0378 -0.6294  0.0627
  953SOD     NA14435   2.418   1.790   4.877 -0.2618 -0.4548 -0.2950
  954SOD     NA14436   1.375   0.099  11.805  0.3014 -0.0078  0.1589
  955SOD     NA14437   1.070   0.297  11.756  0.6954 -0.5742 -0.0218
  956SOD     NA14438   3.293   2.653   1.694 -0.0929 -0.4033  0.3775
  957SOD     NA14439   4.362   4.022  10.916 -0.2083 -0.4419  0.3302
  958SOD     NA14440   0.643   4.424  11.165 -0.6586 -0.3382  0.2129
  959SOD     NA14441   2.105   2.769  15.200  0.0133 -0.4547  0.3171
  960SOD     NA14442   2.883   0.363  12.769 -0.3048 -0.1307  0.1445
  961SOD     NA14443   2.172   2.209   0.289 -0.6891  0.2341  0.2996
  962SOD     NA14444   0.034   4.564   9.471 -0.1061 -0.1305  0.2746
  963SOD     NA14445   1.456   3.356   1.103  0.4448  0.0749 -0.2171
  964SOD     NA14446   0.720   0.779   9.466  0.0974 -0.2785 -0.3126
  965SOD     NA14447   0.087   3.810   5.346  0.1785  0.2160  0.2162
  966SOD     NA14448   3.445   2.292  14.805  0.0335  0.7787 -0.3329
  967SOD     NA14449   3.549   1.231   2.004  0.1748  0.0454 -0.3159
  968SOD     NA14450   1.989   4.589  16.794  0.1776 -0.3453  0.3368
  969SOD     NA14451   4.571   1.952   2.117 -0.4419 -0.3832  0.2183
  970SOD     NA14452   4.558   2.278   9.665 -0.7075 -0.0503  0.2928
  971SOD     NA14453   0.511   1.303   9.482  0.5218 -0.2906 -0.0331
  972SOD     NA14454   2.258   2.471  12.831  0.5510 -0.0006 -0.0378
  973SOD     NA14455   4.324   3.304   3.120 -0.2668  0.1424  0.2111
  974SOD     NA14456   4.345   2.900  12.832 -0.0087  0.0235 -0.4112
  975SOD     NA14457   0.441   4.290  11.634  0.2103  0.1769 -0.4911
  976SOD     NA14458   1.864   3.221  12.523  0.1335  0.0865  0.3448
  977SOD     NA14459   1.032   2.211   4.073 -0.1152  0.1417  0.1625
  978SOD     NA14460   1.197   2.837  17.101  0.3312 -0.1340 -0.0410
  979SOD     NA14461   1.917   3.001  13.539  0.0716  0.1646  0.2415
  980SOD     NA14462   0.824   1.036  14.922  0.1115 -0.1648  0.2515
  981SOD     NA14463   0.553   2.853   3.338 -0.1826  0.2707  0.0804
  982SOD     NA14464   0.295   4.257   1.669  0.2739 -0.4769 -0.0104
  983SOD     NA14465   2.144   4.589  14.933  0.0550 -0.5532  0.1724
  984SOD     NA14466   1.161   4.199  10.282  0.1125  0.4929  0.3906
  985SOD     NA14467   0.790   0.200  12.434 -0.5448 -0.1947 -0.1360
  986SOD     NA14468   3.255   3.645   5.928  0.6210 -0.3126 -0.0160
  987SOD     NA14469   2.802   1.336  16.718  0.1527  0.5033 -0.4268
  988SOD     NA14470   2.633   2.391   0.622  0.2796 -0.1991  0.1407
  989SOD     NA14471   4.587   4.280   9.954 -0.4076  0.4806  0.6886
  990SOD     NA14472   1.308   4.570  11.937  0.1285  0.2096  0.0910
  991SOD     NA14473   1.684   1.806  14.253  0.1279  0.0865 -0.0056
  992SOD     NA14474   4.695   4.671  15.354 -0.3996  0.3955 -0.1464
  993SOD     NA14475   2.417   2.171   2.586 -0.3559  0.2465  0.2420
  994SOD     NA14476   2.187   2.728  10.839  0.3880 -0.0971 -0.0723
  995SOD     NA14477   1.099   3.712  14.451 -0.1188 -0.2498  0.4003
  996SOD     NA14478   1.563   2.321  16.601 -0.5091 -0.0180  0.0127
  997SOD     NA14479   1.632   3.134  17.410 -0.0443 -0.4845  0.2647
  998SOD     NA14480   2.094   4.096   0.263  0.0483  0.1881  0.0541
  999SOD     NA14481   2.291   3.877  10.605  0.2239 -0.5631 -0.1387
 1000SOD     NA14482   3.646   2.954   9.861 -0.1309  0.1761 -0.2959
 1001SOD     NA14483   2.718   3.853   9.450  0.5308  0.3592 -0.5282
 1002SOD     NA14484   2.891   2.382  11.561 -0.0767 -0.3518 -0.6562
 1003SOD     NA14485   0.263   2.564  11.035 -0.0011  0.2968 -0.4139
 1004SOD     NA14486   4.325   0.315  10.820  0.2155  0.0080 -0.4774
 1005SOD     NA14487   3.903   3.453  15.289 -0.4652  0.2664 -0.0752
 1006SOD     NA14488   0.264   1.838   1.668  0.0240  0.2838  0.1249
 1007SOD     NA14489   2.191   0.401  16.811 -0.1611 -0.7286 -0.2074
 1008SOD     NA14490   2.404   0.900  13.751 -0.0430 -0.0281 -0.2542
 1009SOD     NA14491   1.378   3.844  14.485  0.6012 -0.2794 -0.0323
 1010SOD     NA14492   0.382   1.299  16.395  0.4208 -0.0349  0.1640
 1011SOD     NA14493   0.210   4.040  11.468 -0.0958  0.3290  0.0649
 1012SOL     OW14494   4.043   3.149  14.415  0.3826  0.5276  0.6742
 1012SOL    HW114495   4.001   3.195  14.342  0.5205 -1.3756 -0.6051
 1012SOL    HW214496   4.036   3.213  14.486 -0.1584  2.0787 -0.7458
 1013SOL     OW14497   4.236   1.118  16.206  0.4103 -0.0968  0.3798
 1013SOL    HW114498   4.266   1.196  16.160 -1.4039 -0.0283 -0.6653
 1013SOL    HW214499   4.199   1.066  16.135  0.3566  0.1983  0.1934
 1014SOL     OW14500   3.584   3.799  10.081  0.1476  0.8340  0.1743
 1014SOL    HW114501   3.565   3.889  10.053 -2.0510  1.1329  2.5883
 1014SOL    HW214502   3.654   3.824  10.142  0.8685 -0.5937 -0.0833
 1015SOL     OW14503   4.000   0.544  11.049  0.1048 -0.3465 -0.1379
 1015SOL    HW114504   4.072   0.604  11.028  1.6646 -1.6202  1.5338
 1015SOL    HW214505   3.957   0.570  11.131 -0.4097 -0.0355 -0.5047
 1016SOL     OW14506   2.764   3.583   6.887 -0.1061  0.1193  0.2754
 1016SOL    HW114507   2.854   3.579   6.857  0.9353  1.8736  3.1381
 1016SOL    HW214508   2.785   3.641   6.960 -0.6320 -0.1776  0.6725
 1017SOL     OW14509   0.638   4.640   7.601 -0.1074 -0.1965  0.0920
 1017SOL    HW114510   0.634   4.682   7.515  1.9869  0.0238  0.0869
 1017SOL    HW214511   0.656   4.712   7.662  2.2617 -1.7879  1.2364
 1018SOL     OW14512   3.342   3.115   9.311 -0.1454  0.0792  0.3632
 1018SOL    HW114513   3.406   3.046   9.324  0.2527 -0.0737 -2.5260
 1018SOL    HW214514   3.389   3.189   9.272  0.1584 -0.8671 -1.0719
 1019SOL     OW14515   2.385   1.183   0.633  0.1020 -0.9192 -0.9891
 1019SOL    HW114516   2.437   1.104   0.644 -1.3128 -1.7358 -0.1307
 1019SOL    HW214517   2.366   1.193   0.726  2.1094 -0.2383 -0.6383
 1020SOL     OW14518   0.774   3.863   5.744  0.4995 -0.1699 -0.1202
 1020SOL    HW114519   0.792   3.872   5.650  3.5057  0.9709  0.6030
 1020SOL    HW214520   0.819   3.941   5.775 -0.4616  1.2245 -2.1869
 1021SOL     OW14521   0.070   2.644   6.307 -0.1164  0.0306 -0.1561
 1021SOL    HW114522   0.150   2.696   6.298  0.3970 -0.4646  1.5660
 1021SOL    HW214523   0.072   2.648   6.402  0.9169  2.0031 -0.2540
 1022SOL     OW14524   1.392   2.532   8.308  0.2193 -0.0673 -0.5353
 1022SOL    HW114525   1.366   2.472   8.378 -1.3198 -0.1361 -1.1619
 1022SOL    HW214526   1.430   2.602   8.361 -0.6439 -1.5446  2.0504
 1023SOL     OW14527   2.855   2.912  13.433 -0.6929  0.0247  0.1445
 1023SOL    HW114528   2.890   2.837  13.481 -0.6936  0.7918  1.3613
 1023SOL    HW214529   2.821   2.961  13.508 -0.9015  1.8386 -1.1433
 1024SOL     OW14530   0.990   1.377   2.351  0.6143  0.5539  0.4594
 1024SOL    HW114531   1.044   1.336   2.419 -1.0275 -0.9325  0.8865
 1024SOL    HW214532   1.044   1.445   2.312 -1.4026  1.0243 -1.5388
 1025SOL     OW14533   0.874   1.103   6.936  0.1423 -0.0065 -0.4150
 1025SOL    HW114534   0.812   1.136   6.871  0.3214 -0.7930 -0.9731
 1025SOL    HW214535   0.885   1.012   6.911  2.7525  0.0636  0.5323
 1026SOL     OW14536   1.165   0.239   5.295  0.5017 -0.3558 -0.0338
 1026SOL    HW114537   1.111   0.304   5.249 -3.0317 -1.9826  1.8004
 1026SOL    HW214538   1.109   0.199   5.362  1.2858 -0.1209  0.7526
 1027SOL     OW14539   1.963   1.167   7.909 -0.0762  0.5617 -0.4100
 1027SOL    HW114540   1.898   1.112   7.865 -1.4523  2.5070 -0.7823
 1027SOL    HW214541   1.910   1.246   7.919  0.5348  1.1525 -1.8782
 1028SOL     OW14542   2.894   3.174   4.670  0.3506  1.1228 -0.9679
 1028SOL    HW114543   2.980   3.208   4.694  1.4544 -0.9239 -2.0227
 1028SOL    HW214544   2.909   3.080   4.674 -1.5392  0.8082 -1.0192
 1029SOL     OW14545   3.338   1.620   3.115 -0.1369 -0.5800 -0.2271
 1029SOL    HW114546   3.265   1.608   3.054  0.0180 -1.8481 -0.1590
 1029SOL    HW214547   3.387   1.540   3.093 -0.2378 -0.9753  1.0282
 1030SOL     OW14548   3.833   4.057  12.019  0.1723  0.3637  0.1379
 1030SOL    HW114549   3.841   4.151  12.002  2.1573 -0.1481 -1.6082
 1030SOL    HW214550   3.870   4.027  11.936  0.4206 -0.8682  0.6997
 1031SOL     OW14551   0.484   2.377   0.655 -0.7424 -0.2080 -0.7656
 1031SOL    HW114552   0.487   2.445   0.588 -0.5781  1.3398  0.8093
 1031SOL    HW214553   0.535   2.423   0.722  0.5682 -0.5774 -1.5169
 1032SOL     OW14554   3.404   0.419   1.921 -0.2858 -0.2738  0.5442
 1032SOL    HW114555   3.392   0.369   1.840 -0.0022  1.7958 -0.7856
 1032SOL    HW214556   3.395   0.512   1.900 -1.6702 -0.5291  0.0237
 1033SOL     OW14557   0.425   0.040   0.712 -0.4986 -0.1058  0.1833
 1033SOL    HW114558   0.479   4.692   0.677 -0.5578  0.6006 -1.3285
 1033SOL    HW214559   0.461   0.078   0.792 -1.5586  0.2231  0.5020
 1034SOL     OW14560   0.058   3.634  17.276 -0.3518  0.5287  0.1241
 1034SOL    HW114561   0.140   3.682  17.289 -0.1696 -0.1127  1.4332
 1034SOL    HW214562   0.002   3.682  17.336  1.1101  2.6349 -0.2067
 1035SOL     OW14563   3.273   4.686   8.798  0.1554  0.1247  0.4767
 1035SOL    HW114564   3.293   0.047   8.839 -1.6668  0.8534 -0.1166
 1035SOL    HW214565   3.182   4.662   8.815  0.0455 -0.0546 -0.3417
 1036SOL     OW14566   3.690   4.670   2.761 -0.3555  0.8383 -0.5468
 1036SOL    HW114567   3.626   4.601   2.744  0.6402 -0.6643  1.6941
 1036SOL    HW214568   3.710   4.642   2.851  1.5371 -0.2807 -1.3258
 1037SOL     OW14569   0.385   2.877  13.523 -0.0960  0.3301  0.0525
 1037SOL    HW114570   0.309   2.823  13.505  1.7005 -2.6826  1.4109
 1037SOL    HW214571   0.425   2.855  13.439  0.3594 -0.4877  0.4846
 1038SOL     OW14572   2.591   3.599   4.303  0.6940  0.0100  0.2756
 1038SOL    HW114573   2.664   3.578   4.361  1.0377  2.3398  0.7024
 1038SOL    HW214574   2.524   3.623   4.367  0.7402  3.3492 -0.8948
 1039SOL     OW14575   0.528   1.157   1.773 -0.0072 -0.7992 -0.0342
 1039SOL    HW114576   0.475   1.104   1.713 -0.9889 -0.5609  0.6306
 1039SOL    HW214577   0.586   1.085   1.800 -1.9825 -2.1632  0.6041
 1040SOL     OW14578   0.092   4.054   2.143  0.0109  0.4989 -0.1500
 1040SOL    HW114579   0.086   3.970   2.188 -0.0327  0.7542  0.3199
 1040SOL    HW214580   0.186   4.073   2.148  0.0586  0.2499 -0.0963
 1041SOL     OW14581   3.569   4.224   6.092 -0.1703  0.0191  0.3807
 1041SOL    HW114582   3.517   4.303   6.105  0.0361  0.5760 -2.2538
 1041SOL    HW214583   3.658   4.256   6.084  0.3963 -1.5337  0.4820
 1042SOL     OW14584   0.458   1.974   6.070 -0.3448 -0.4882  0.6896
 1042SOL    HW114585   0.440   1.894   6.020 -2.1642 -0.5587  1.4682
 1042SOL    HW214586   0.392   2.036   6.039  0.7236  1.7004  2.8358
 1043SOL     OW14587   0.744   1.098   8.508 -0.2382  0.1057 -0.2124
 1043SOL    HW114588   0.835   1.122   8.529 -0.5768  0.9222  0.3125
 1043SOL    HW214589   0.706   1.169   8.458  2.1199  0.7310 -1.1031
 1044SOL     OW14590   2.209   4.288   3.719 -0.0912 -0.2152 -0.1617
 1044SOL    HW114591   2.201   4.226   3.647  1.3468  0.0117 -0.5053
 1044SOL    HW214592   2.195   4.375   3.682  1.6480  0.5101  0.8877
 1045SOL     OW14593   1.202   3.455   3.715 -0.0620  0.2625  0.0169
 1045SOL    HW114594   1.121   3.442   3.765  0.3897  0.7294  0.8518
 1045SOL    HW214595   1.173   3.537   3.673 -0.4091 -0.3595 -0.9773
 1046SOL     OW14596   3.162   0.129   3.831  0.8129  0.4798  0.4907
 1046SOL    HW114597   3.211   0.204   3.797 -0.1488  0.7043 -0.4043
 1046SOL    HW214598   3.214   0.057   3.796 -0.1397  0.2127 -0.3785
 1047SOL     OW14599   0.606   1.007   6.541  0.4791  0.1821 -0.9225
 1047SOL    HW114600   0.517   0.994   6.575  0.6012 -0.3366 -0.8070
 1047SOL    HW214601   0.650   0.932   6.581 -1.2857 -0.4101 -0.0798
 1048SOL     OW14602   2.587   2.187  12.633  0.2058  0.0885  0.0141
 1048SOL    HW114603   2.662   2.195  12.575 -1.7318  1.6242 -2.2908
 1048SOL    HW214604   2.607   2.240  12.710  1.2645  0.1015 -0.2811
 1049SOL     OW14605   2.400   1.248  13.430  0.1990  0.1328 -0.0523
 1049SOL    HW114606   2.315   1.232  13.389  0.4497 -1.4393  0.0665
 1049SOL    HW214607   2.376   1.329  13.474 -2.2039 -0.1846 -0.7900
 1050SOL     OW14608   2.897   0.559   2.382  0.0617  0.1024 -0.2486
 1050SOL    HW114609   2.937   0.638   2.417  3.0932 -1.5270 -0.0417
 1050SOL    HW214610   2.801   0.565   2.391  0.2428  1.7795  0.4991
 1051SOL     OW14611   4.637   1.302   8.909  0.1242  0.4250 -0.2497
 1051SOL    HW114612   4.624   1.356   8.987  2.6091 -1.0517  1.1638
 1051SOL    HW214613   4.675   1.368   8.852 -1.5031  0.9796 -0.7098
 1052SOL     OW14614   4.493   3.707   1.066  0.9159 -0.8314  0.5954
 1052SOL    HW114615   4.426   3.725   1.133 -0.6323 -0.1482 -1.1168
 1052SOL    HW214616   4.503   3.790   1.019 -1.8250 -0.4987  0.5663
 1053SOL     OW14617   1.940   3.979   8.186 -0.3950  0.2542 -0.1982
 1053SOL    HW114618   1.901   4.053   8.232 -0.4465 -0.0031  0.1697
 1053SOL    HW214619   1.862   3.924   8.182 -0.5435  0.2489  2.4583
 1054SOL     OW14620   2.466   0.407   6.525 -0.5055 -0.1298 -0.0966
 1054SOL    HW114621   2.506   0.342   6.583 -2.7324 -1.1475  0.3040
 1054SOL    HW214622   2.430   0.459   6.597 -1.1955  1.4343 -1.5742
 1055SOL     OW14623   2.418   3.064  15.133 -0.2324 -0.0275  0.2240
 1055SOL    HW114624   2.487   3.073  15.199  0.8048 -0.7638 -0.7581
 1055SOL    HW214625   2.463   3.097  15.055 -0.8694  1.3313  0.4452
 1056SOL     OW14626   0.823   2.993  13.867  0.1616 -0.0054  0.1636
 1056SOL    HW114627   0.823   3.080  13.907 -0.5302  0.3066 -0.5112
 1056SOL    HW214628   0.897   2.943  13.900 -1.2660 -1.9680  0.3680
 1057SOL     OW14629   3.856   0.523  14.185  0.2507  0.1535  0.2972
 1057SOL    HW114630   3.803   0.597  14.215  3.5807  2.1367  1.2697
 1057SOL    HW214631   3.784   0.460  14.188  0.8682 -0.5428  0.5086
 1058SOL     OW14632   1.500   4.196   0.451 -0.3623  0.5529  0.1440
 1058SOL    HW114633   1.571   4.137   0.424 -1.5605 -0.5493 -0.6071
 1058SOL    HW214634   1.420   4.144   0.448 -0.3825  0.6628 -1.1631
 1059SOL     OW14635   2.499   3.432  15.912  0.1149  0.1915 -0.0519
 1059SOL    HW114636   2.515   3.351  15.962  0.3794  0.1947 -0.1298
 1059SOL    HW214637   2.435   3.395  15.851 -0.3345  1.8512 -0.5924
 1060SOL     OW14638   0.328   3.281   6.796 -0.4137  0.1100 -0.8749
 1060SOL    HW114639   0.342   3.248   6.707 -0.0256  0.3055 -0.8839
 1060SOL    HW214640   0.337   3.376   6.783  0.6224 -0.0835 -1.5396
 1061SOL     OW14641   1.271   0.345  16.690  0.6170  0.0117 -0.0221
 1061SOL    HW114642   1.353   0.337  16.738 -0.8573  2.6462  2.9438
 1061SOL    HW214643   1.302   0.402  16.619  2.7407 -0.6415  0.4033
 1062SOL     OW14644   2.705   4.419   4.545 -0.3407 -0.7011  0.5967
 1062SOL    HW114645   2.691   4.325   4.536  1.1271 -0.9574  0.9226
 1062SOL    HW214646   2.799   4.409   4.560  0.0989  3.7013  0.9804
 1063SOL     OW14647   3.376   1.701   6.968  0.0661  0.6909  0.3830
 1063SOL    HW114648   3.442   1.760   6.930 -0.0518  0.0440 -0.8491
 1063SOL    HW214649   3.434   1.631   6.998 -0.8370 -0.5935 -0.8423
 1064SOL     OW14650   1.931   4.455  14.645  0.7166  0.0949 -0.1883
 1064SOL    HW114651   2.001   4.401  14.682 -1.2577 -1.0194  1.9539
 1064SOL    HW214652   1.953   4.539  14.687  2.1887  0.0795 -0.9305
 1065SOL     OW14653   2.773   3.908   8.087 -0.6150  0.0764 -0.3240
 1065SOL    HW114654   2.708   3.943   8.148  1.9914  1.4429  1.6581
 1065SOL    HW214655   2.854   3.929   8.133 -1.4303  0.1525  1.0791
 1066SOL     OW14656   1.635   0.183   0.740 -0.2490  0.0170  0.3904
 1066SOL    HW114657   1.725   0.160   0.717 -0.1564  1.9634 -1.2734
 1066SOL    HW214658   1.597   0.171   0.653 -0.3084  1.3124  0.2373
 1067SOL     OW14659   4.506   2.413  10.777 -0.8107 -0.0840 -0.3711
 1067SOL    HW114660   4.532   2.504  10.787 -0.7695 -0.1167 -0.1919
 1067SOL    HW214661   4.566   2.364  10.833  2.0571 -1.9564 -5.0400
 1068SOL     OW14662   1.105   3.766   1.090  0.1774 -0.0332 -0.3559
 1068SOL    HW114663   1.181   3.715   1.117 -0.5610 -0.0706  1.6901
 1068SOL    HW214664   1.056   3.777   1.172  1.3630 -1.8297  0.5930
 1069SOL     OW14665   2.739   2.587  17.520 -0.2053  1.0622  0.4173
 1069SOL    HW114666   2.786   2.651  17.466  0.3699 -0.9894 -1.5133
 1069SOL    HW214667   2.795   2.512  17.499 -0.4354  1.3073 -1.0642
 1070SOL     OW14668   3.160   3.201   6.623  0.1838  0.1342 -0.1919
 1070SOL    HW114669   3.229   3.200   6.690  0.9587  0.8577 -0.9774
 1070SOL    HW214670   3.156   3.107   6.605  2.1259  0.4745 -2.3835
 1071SOL     OW14671   1.278   1.839   2.273  0.1227 -0.2458 -0.0394
 1071SOL    HW114672   1.273   1.896   2.350  1.1173 -1.7665  1.1672
 1071SOL    HW214673   1.244   1.904   2.212  0.5126  0.9991  1.0834
 1072SOL     OW14674   2.372   0.223  12.134  0.0596  0.0668  0.0023
 1072SOL    HW114675   2.397   0.278  12.060 -2.0160 -0.0973 -0.8237
 1072SOL    HW214676   2.339   0.139  12.103 -1.6606  0.5342  0.5766
 1073SOL     OW14677   0.466   3.473   1.040 -0.1001 -0.3504 -0.4162
 1073SOL    HW114678   0.448   3.567   1.040  1.4648 -0.0408 -0.3627
 1073SOL    HW214679   0.425   3.453   1.125 -0.5823  1.7767 -0.1571
 1074SOL     OW14680   1.994   1.579  15.890  0.3355  0.7118  0.0732
 1074SOL    HW114681   1.971   1.542  15.975  0.0847  2.0781  0.6013
 1074SOL    HW214682   1.924   1.552  15.831  1.3333 -2.8305  0.4946
 1075SOL     OW14683   0.257   0.848   7.806  0.1002 -0.5845 -0.3398
 1075SOL    HW114684   0.279   0.938   7.783  2.0497 -1.2618 -1.0881
 1075SOL    HW214685   0.321   0.791   7.764  2.5947  1.4836  0.6664
 1076SOL     OW14686   2.758   0.103   8.669  0.0574  0.1655 -0.2950
 1076SOL    HW114687   2.668   0.071   8.676  0.6327 -1.4686 -0.4365
 1076SOL    HW214688   2.806   0.044   8.610  2.6314  0.1228  1.8545
 1077SOL     OW14689   0.654   1.382   7.063 -0.5007 -0.2038 -0.0137
 1077SOL    HW114690   0.606   1.322   7.120 -1.5774  0.2041 -0.4861
 1077SOL    HW214691   0.699   1.330   6.997  1.5295  1.1594  0.2991
 1078SOL     OW14692   2.766   2.609   1.376  0.1433  0.3053  0.7792
 1078SOL    HW114693   2.797   2.591   1.287  1.3889  1.8881  0.8879
 1078SOL    HW214694   2.810   2.691   1.398  0.1065  0.6835 -0.5516
 1079SOL     OW14695   2.221   3.187   3.725 -0.3550  0.6925 -0.4247
 1079SOL    HW114696   2.265   3.177   3.641  0.3571 -2.5926  0.3314
 1079SOL    HW214697   2.130   3.159   3.713 -0.5787  1.2654 -0.0599
 1080SOL     OW14698   1.653   0.487  11.800  0.0473 -0.1982  0.2409
 1080SOL    HW114699   1.569   0.500  11.756 -1.5231 -2.3960  2.5780
 1080SOL    HW214700   1.678   0.404  11.759  1.0599 -0.7884  2.0260
 1081SOL     OW14701   1.644   3.702  15.195 -0.4913  0.1146  0.5924
 1081SOL    HW114702   1.593   3.694  15.114 -2.7445  1.2402  1.8889
 1081SOL    HW214703   1.725   3.747  15.172 -0.5131 -0.7978 -1.2423
 1082SOL     OW14704   4.667   4.072   9.844 -0.0577 -1.0133 -0.0008
 1082SOL    HW114705   4.675   3.981   9.872 -2.6950 -0.5073  2.4480
 1082SOL    HW214706   4.664   4.063   9.749 -0.3909  0.5558 -0.1397
 1083SOL     OW14707   2.604   2.271   2.676  0.9336 -0.1320  0.8714
 1083SOL    HW114708   2.659   2.270   2.755  1.1632  0.4370  0.7179
 1083SOL    HW214709   2.652   2.207   2.624  3.0957  0.7346  1.8040
 1084SOL     OW14710   3.515   3.610  11.903 -0.4140  0.3087 -0.4546
 1084SOL    HW114711   3.606   3.580  11.908 -0.4044  0.2629 -0.8833
 1084SOL    HW214712   3.528   3.694  11.859  1.8001  1.3106  2.1127
 1085SOL     OW14713   1.677   0.966   7.021 -0.0427 -0.2864  0.4913
 1085SOL    HW114714   1.746   0.997   7.080  0.1850  1.2526 -0.5745
 1085SOL    HW214715   1.609   1.033   7.029  1.5771  1.4990 -0.5033
 1086SOL     OW14716   0.534   2.426   3.916 -0.4975 -0.2921  0.6880
 1086SOL    HW114717   0.453   2.471   3.892 -0.6665 -1.4375 -0.9358
 1086SOL    HW214718   0.592   2.502   3.926 -2.9327  1.5949  0.5679
 1087SOL     OW14719   4.074   2.406   2.653 -0.1479 -0.4958  0.5973
 1087SOL    HW114720   4.128   2.458   2.593  0.3777 -0.9116  0.7070
 1087SOL    HW214721   4.033   2.335   2.602 -0.4153  0.7418 -0.9218
 1088SOL     OW14722   2.194   0.828   8.891 -0.1613 -0.2092  0.5860
 1088SOL    HW114723   2.151   0.895   8.945  0.7520  1.0486 -0.2358
 1088SOL    HW214724   2.237   0.777   8.960  2.4244  0.1681 -0.7431
 1089SOL     OW14725   0.795   1.131   7.477 -0.6807 -0.2541 -0.7874
 1089SOL    HW114726   0.743   1.126   7.397  0.2630 -1.3330 -1.3352
 1089SOL    HW214727   0.773   1.221   7.505 -2.5288 -1.1196  0.5567
 1090SOL     OW14728   2.521   0.544   5.820 -0.0878 -0.0714 -0.6171
 1090SOL    HW114729   2.558   0.465   5.859  1.0882  0.8986  0.2474
 1090SOL    HW214730   2.598   0.562   5.767  1.0615 -0.2935  0.9786
 1091SOL     OW14731   2.253   1.710   5.050  0.2139 -0.1284 -0.1787
 1091SOL    HW114732   2.201   1.745   5.123  2.3137  0.9116  0.8171
 1091SOL    HW214733   2.303   1.651   5.107 -0.5065  0.8240  1.4444
 1092SOL     OW14734   1.245   1.934   8.523  0.1223  0.1646  0.2519
 1092SOL    HW114735   1.257   1.845   8.492 -1.6784  0.2311 -0.5779
 1092SOL    HW214736   1.191   1.973   8.454 -2.6001  0.0522  2.3246
 1093SOL     OW14737   4.444   3.347   8.580 -1.0653 -0.3398  0.2458
 1093SOL    HW114738   4.372   3.290   8.555  0.6183 -1.7421 -1.4252
 1093SOL    HW214739   4.456   3.402   8.502  0.7972 -0.8259  0.1826
 1094SOL     OW14740   4.629   1.797  12.848 -0.1837  0.0117  0.2214
 1094SOL    HW114741   4.712   1.757  12.821  0.6412  2.2034 -0.4661
 1094SOL    HW214742   4.656   1.827  12.934 -2.4794 -2.5160  1.8348
 1095SOL     OW14743   0.812   0.734  15.428 -0.1816 -0.0638 -0.1080
 1095SOL    HW114744   0.791   0.660  15.372  0.7465  0.3705 -1.0455
 1095SOL    HW214745   0.760   0.710  15.504  0.3749  2.7018  1.1705
 1096SOL     OW14746   3.685   1.956   1.820 -0.6006 -0.1299  0.0124
 1096SOL    HW114747   3.702   1.911   1.903 -1.7849  2.7690  1.8233
 1096SOL    HW214748   3.747   1.912   1.763 -0.9761  0.7617 -1.0868
 1097SOL     OW14749   2.699   3.590   6.358 -0.2736  0.5204 -0.3054
 1097SOL    HW114750   2.792   3.567   6.355 -0.2663  0.1014  2.7983
 1097SOL    HW214751   2.705   3.648   6.433  0.9814  2.3614 -1.8479
 1098SOL     OW14752   3.386   2.121   7.787  0.1496  0.0720 -0.3413
 1098SOL    HW114753   3.393   2.202   7.838  1.5092  0.4278 -1.0621
 1098SOL    HW214754   3.465   2.107   7.734  1.3987  0.6744  1.3564
 1099SOL     OW14755   1.285   1.082   4.846 -0.0958 -0.8453  0.1660
 1099SOL    HW114756   1.319   1.153   4.791 -1.1430 -2.1971 -2.2603
 1099SOL    HW214757   1.345   1.078   4.920  0.1925  0.5797  0.0164
 1100SOL     OW14758   3.606   3.679   3.096 -0.2892  0.3082 -0.1757
 1100SOL    HW114759   3.583   3.766   3.063 -0.5153 -0.6844 -2.6325
 1100SOL    HW214760   3.684   3.702   3.147 -0.1098  3.6407 -1.9166
 1101SOL     OW14761   2.650   1.029   0.832  0.2149 -0.2872  0.3080
 1101SOL    HW114762   2.618   0.940   0.845  0.1229 -0.6215 -2.1006
 1101SOL    HW214763   2.697   1.022   0.749 -0.5492 -1.4198 -0.0296
 1102SOL     OW14764   3.206   4.633   3.152  0.1792  0.1128 -0.1303
 1102SOL    HW114765   3.183   4.721   3.181 -0.8499 -0.1976 -0.0145
 1102SOL    HW214766   3.200   4.588   3.236  1.1616  1.0876  0.4678
 1103SOL     OW14767   2.616   1.318  12.514 -0.0231  0.6214  0.0301
 1103SOL    HW114768   2.536   1.268  12.499  1.3596 -0.6831 -2.7945
 1103SOL    HW214769   2.633   1.307  12.608  0.0579 -0.6744 -0.1407
 1104SOL     OW14770   2.469   2.449  17.620  0.3635  0.1698 -0.1990
 1104SOL    HW114771   2.423   2.448  17.536 -0.2828  1.0784  0.1470
 1104SOL    HW214772   2.551   2.475  17.580  2.7593 -3.3764  2.3289
 1105SOL     OW14773   1.805   1.977   6.231 -0.8411 -0.3686 -0.6634
 1105SOL    HW114774   1.826   1.892   6.271  1.5362  0.2845 -0.4830
 1105SOL    HW214775   1.875   1.982   6.165 -1.0120  2.0759 -0.6626
 1106SOL     OW14776   2.069   0.462   9.240  0.3677  0.0185  0.1480
 1106SOL    HW114777   2.063   0.410   9.320 -1.1428 -0.3019 -0.1693
 1106SOL    HW214778   1.973   0.464   9.236  0.2352 -2.6174  1.9366
 1107SOL     OW14779   3.792   4.153   7.715  0.1118 -0.4295  0.2892
 1107SOL    HW114780   3.697   4.150   7.701 -0.3306 -1.0262  3.3060
 1107SOL    HW214781   3.795   4.180   7.807 -2.7467 -0.8661  0.5306
 1108SOL     OW14782   1.971   3.310   7.198 -0.7432 -0.2899 -0.4392
 1108SOL    HW114783   1.959   3.269   7.112  0.5808  0.9593 -1.2203
 1108SOL    HW214784   2.027   3.241   7.234 -1.1400 -0.7698 -0.7316
 1109SOL     OW14785   0.696   0.878   3.343 -0.1472 -0.1000  0.1092
 1109SOL    HW114786   0.685   0.884   3.248  1.9022  0.9765 -0.0521
 1109SOL    HW214787   0.783   0.906   3.371 -0.2226 -0.1467  0.3898
 1110SOL     OW14788   3.688   1.350   9.021 -0.1063 -0.0634 -0.1518
 1110SOL    HW114789   3.653   1.428   8.977  0.3497  0.4058  0.3174
 1110SOL    HW214790   3.778   1.380   9.037  0.3871 -1.1315 -0.9187
 1111SOL     OW14791   1.644   0.495   2.381 -0.2815  0.4278 -0.3723
 1111SOL    HW114792   1.653   0.591   2.378 -2.1472  0.6530  0.8990
 1111SOL    HW214793   1.675   0.464   2.296  0.7073  0.1697  0.0804
 1112SOL     OW14794   2.923   2.253   1.561  0.2441 -0.1193  0.1712
 1112SOL    HW114795   3.000   2.229   1.613 -0.1507  0.2416  0.9309
 1112SOL    HW214796   2.962   2.295   1.485  0.2680  0.3690  0.4529
 1113SOL     OW14797   4.475   0.712   3.597  0.1354  0.2813 -0.1185
 1113SOL    HW114798   4.495   0.766   3.521 -0.4345  0.4543 -0.1499
 1113SOL    HW214799   4.430   0.640   3.551 -0.3273  0.1321  0.5649
 1114SOL     OW14800   3.841   2.972   3.645 -0.4590 -0.2729 -0.4308
 1114SOL    HW114801   3.780   2.921   3.698 -1.1034 -0.1970 -1.1004
 1114SOL    HW214802   3.778   2.993   3.575 -1.1045  0.7595  0.4603
 1115SOL     OW14803   2.301   1.427   8.464  0.5681  0.0462  0.1576
 1115SOL    HW114804   2.207   1.437   8.483  1.0601  0.0452  2.5451
 1115SOL    HW214805   2.311   1.332   8.472 -2.4812 -0.3416 -0.4859
 1116SOL     OW14806   4.348   4.254   9.009  0.6273  0.4972  0.0855
 1116SOL    HW114807   4.329   4.162   8.992 -1.6973  0.8502  0.7832
 1116SOL    HW214808   4.264   4.292   8.984  0.0977 -1.2252 -0.7641
 1117SOL     OW14809   2.298   3.738  17.029 -0.7504  0.4558 -0.0982
 1117SOL    HW114810   2.374   3.796  17.028 -0.2858 -0.1359  0.7356
 1117SOL    HW214811   2.305   3.704  16.940  1.0428 -2.9968  1.3426
 1118SOL     OW14812   1.882   0.411   7.342 -0.2117 -0.3982 -0.3401
 1118SOL    HW114813   1.938   0.461   7.284  0.1121  1.0620  1.2192
 1118SOL    HW214814   1.844   0.485   7.391  0.1850 -0.2902 -0.1962
 1119SOL     OW14815   3.210   0.714   6.491  0.3513 -1.2816 -0.2398
 1119SOL    HW114816   3.120   0.698   6.464  1.0001 -2.2432 -1.8713
 1119SOL    HW214817   3.213   0.665   6.574  1.3454 -0.2285  0.3464
 1120SOL     OW14818   0.254   2.473   2.558 -0.3189 -0.2641  0.0015
 1120SOL    HW114819   0.304   2.553   2.538 -2.3076  0.0603 -3.7081
 1120SOL    HW214820   0.264   2.468   2.653 -1.8034 -1.5735  0.0770
 1121SOL     OW14821   3.855   2.046  11.202  0.0459  0.0606 -0.3405
 1121SOL    HW114822   3.926   1.984  11.221  0.2899  0.5553  0.3873
 1121SOL    HW214823   3.868   2.047  11.107 -0.1671 -0.5031 -0.3710
 1122SOL     OW14824   0.671   0.404  12.366  0.3014  0.5736  0.5351
 1122SOL    HW114825   0.600   0.384  12.306  0.5853 -1.2466  0.8070
 1122SOL    HW214826   0.732   0.451  12.309 -0.0112  0.4361  0.0936
 1123SOL     OW14827   1.083   1.618  16.174 -0.8689  0.2401 -0.0605
 1123SOL    HW114828   1.156   1.662  16.130  1.8512 -2.6588  1.4955
 1123SOL    HW214829   1.021   1.609  16.102 -0.5883 -0.6978 -0.1928
 1124SOL     OW14830   1.201   4.201   5.994  0.4433 -0.1625  0.5631
 1124SOL    HW114831   1.258   4.233   6.063 -0.4625 -0.0981  1.2858
 1124SOL    HW214832   1.246   4.234   5.916 -0.5191 -1.5905 -0.6041
 1125SOL     OW14833   0.628   2.171   8.807  0.4263 -0.4700  0.6218
 1125SOL    HW114834   0.678   2.219   8.742  0.7842  1.0510  2.0201
 1125SOL    HW214835   0.627   2.085   8.764 -1.8438  0.3159 -0.8865
 1126SOL     OW14836   4.277   4.134   6.267 -0.1787 -0.7139  0.1231
 1126SOL    HW114837   4.349   4.085   6.226 -2.1241 -1.6656 -2.2076
 1126SOL    HW214838   4.310   4.223   6.256 -1.1278 -0.3185  0.5330
 1127SOL     OW14839   0.314   1.547   6.158  0.3206  0.5652 -0.7334
 1127SOL    HW114840   0.231   1.513   6.127  0.6330  0.8629 -1.9058
 1127SOL    HW214841   0.299   1.553   6.252 -0.8828  0.5650 -0.9215
 1128SOL     OW14842   4.273   3.348   5.910  0.5470 -0.0102  0.4062
 1128SOL    HW114843   4.190   3.314   5.945  0.4887 -1.3603 -1.0524
 1128SOL    HW214844   4.276   3.425   5.968 -3.4181  0.0515  0.5426
 1129SOL     OW14845   2.964   2.085   7.804 -0.4993  0.2932 -0.4161
 1129SOL    HW114846   2.925   2.172   7.807 -0.4855  0.2794  0.3141
 1129SOL    HW214847   2.889   2.027   7.790  0.7365 -1.1103 -1.1305
 1130SOL     OW14848   2.879   1.326   8.269 -0.5802 -0.0650 -0.0623
 1130SOL    HW114849   2.810   1.273   8.308  1.9793 -2.8097  0.6410
 1130SOL    HW214850   2.829   1.384   8.210 -2.4961 -0.8609  0.7919
 1131SOL     OW14851   4.706   2.518   8.430 -0.3319 -0.0907  0.1323
 1131SOL    HW114852   0.033   2.464   8.493 -0.5193 -0.9660 -0.4658
 1131SOL    HW214853   4.614   2.503   8.448 -0.4315  2.5825  1.7727
 1132SOL     OW14854   2.242   1.585   0.395 -0.8093  0.0671 -0.2967
 1132SOL    HW114855   2.239   1.489   0.394 -0.7144  0.0635 -0.0345
 1132SOL    HW214856   2.301   1.601   0.468 -0.1226  0.3443 -0.9102
 1133SOL     OW14857   4.074   3.796   8.177  0.2075 -0.0670 -0.0858
 1133SOL    HW114858   4.025   3.869   8.138 -1.0446 -0.5566  0.5538
 1133SOL    HW214859   4.045   3.802   8.268 -1.2195 -2.3824 -0.4006
 1134SOL     OW14860   4.491   1.067   5.842  0.1103  0.6734 -1.0996
 1134SOL    HW114861   4.433   0.997   5.873  0.0749  1.2479  0.1356
 1134SOL    HW214862   4.460   1.075   5.752  3.9343  2.5485 -2.2389
 1135SOL     OW14863   0.925   3.146  17.617 -0.0821 -0.4744 -0.0579
 1135SOL    HW114864   0.857   3.091  17.577 -1.1925  0.9677 -0.1448
 1135SOL    HW214865   0.976   3.092  17.677  2.9249  0.6473 -1.6106
 1136SOL     OW14866   1.757   0.974  14.415  0.6318 -0.0334  0.6149
 1136SOL    HW114867   1.823   1.029  14.372 -0.4219 -0.1544 -1.1337
 1136SOL    HW214868   1.710   0.948  14.337  1.8519 -3.5472  1.0565
 1137SOL     OW14869   0.151   4.299   3.035  0.1104 -0.4566 -0.8985
 1137SOL    HW114870   0.152   4.341   2.949  0.9225  1.2343 -0.0627
 1137SOL    HW214871   0.060   4.271   3.042  0.3651 -0.5041  2.0199
 1138SOL     OW14872   1.078   2.625  17.447  0.0564  0.3622 -0.4879
 1138SOL    HW114873   1.045   2.692  17.506 -0.1454  0.3204 -0.5535
 1138SOL    HW214874   1.004   2.592  17.396  0.4798 -0.1811 -0.7551
 1139SOL     OW14875   3.144   0.664   3.937  0.4631 -0.3154  0.3851
 1139SOL    HW114876   3.136   0.758   3.948 -0.6570 -0.3224 -0.4248
 1139SOL    HW214877   3.193   0.674   3.856 -0.2334  1.1437  0.1455
 1140SOL     OW14878   3.232   1.315  10.661 -0.4821 -0.0668 -0.4716
 1140SOL    HW114879   3.257   1.405  10.685  3.3559 -1.6014  1.2740
 1140SOL    HW214880   3.203   1.273  10.742  0.9555 -1.2539 -0.5654
 1141SOL     OW14881   4.269   2.803  15.961  0.7534  0.4934 -0.9824
 1141SOL    HW114882   4.256   2.734  16.026 -0.1025  0.1941 -1.4632
 1141SOL    HW214883   4.359   2.782  15.938  0.6788 -0.2523 -0.6147
 1142SOL     OW14884   2.919   2.895   6.816  0.3256  0.0222  0.4649
 1142SOL    HW114885   2.856   2.965   6.799 -0.1662 -1.2013 -2.6526
 1142SOL    HW214886   2.871   2.825   6.860 -1.0186 -0.1132 -1.2287
 1143SOL     OW14887   1.207   1.633  14.378 -0.5946 -0.3136  0.5078
 1143SOL    HW114888   1.241   1.659  14.292 -1.2080 -0.1225  0.3281
 1143SOL    HW214889   1.135   1.580  14.344  0.8457 -1.7799 -0.2490
 1144SOL     OW14890   4.527   0.676   4.140  0.5143  0.3114  0.6199
 1144SOL    HW114891   4.495   0.664   4.051  0.4976  2.0632  0.3829
 1144SOL    HW214892   4.479   0.617   4.198 -1.3252  0.8234 -0.3745
 1145SOL     OW14893   1.396   4.082  11.344  0.4013  0.0118 -0.2881
 1145SOL    HW114894   1.445   4.004  11.316  0.2203  0.4843 -1.8850
 1145SOL    HW214895   1.447   4.084  11.425 -0.0073 -1.0836  0.0041
 1146SOL     OW14896   1.042   2.739   8.343 -0.2546 -0.0010 -0.0564
 1146SOL    HW114897   1.048   2.778   8.256 -0.5585 -1.9772 -0.9610
 1146SOL    HW214898   0.957   2.776   8.368  0.4985  0.6790  1.5049
 1147SOL     OW14899   0.479   4.261   5.502 -0.7452  0.1484 -0.4822
 1147SOL    HW114900   0.562   4.300   5.473 -0.4283  1.3179  2.0350
 1147SOL    HW214901   0.437   4.336   5.543  1.2328  0.2012  1.4829
 1148SOL     OW14902   4.370   1.099   3.051  0.2981 -0.0948 -0.1084
 1148SOL    HW114903   4.392   1.183   3.091 -1.5487 -0.4415  1.6342
 1148SOL    HW214904   4.275   1.107   3.048  0.2601 -0.5591 -0.1175
 1149SOL     OW14905   0.451   3.118   8.617  0.3306  0.4651 -0.4787
 1149SOL    HW114906   0.513   3.126   8.544 -0.2609  1.7027 -0.8460
 1149SOL    HW214907   0.384   3.181   8.590 -0.4908  0.5559  1.7538
 1150SOL     OW14908   2.269   1.155  16.894  0.5590  0.3460  0.4249
 1150SOL    HW114909   2.292   1.197  16.812  1.6756  0.9092  1.0248
 1150SOL    HW214910   2.180   1.133  16.865  0.3861  0.8141  0.6088
 1151SOL     OW14911   3.468   1.745   5.071  0.0061  0.1541  0.5030
 1151SOL    HW114912   3.543   1.804   5.076  1.0495 -0.9955 -1.8567
 1151SOL    HW214913   3.509   1.659   5.076  1.7198  1.0537  1.9268
 1152SOL     OW14914   1.002   1.674   8.495 -0.4515 -0.1022  0.6998
 1152SOL    HW114915   1.054   1.715   8.425  2.1204 -1.8839  1.5630
 1152SOL    HW214916   0.923   1.728   8.498 -0.8898 -0.8623  2.3348
 1153SOL     OW14917   2.558   2.376   9.712  0.0727 -0.0782  0.0604
 1153SOL    HW114918   2.653   2.382   9.721 -0.1460  1.4314  1.2688
 1153SOL    HW214919   2.534   2.438   9.781 -0.3755  1.6447 -1.6531
 1154SOL     OW14920   3.400   3.857   8.546 -0.1222 -0.3356 -0.5397
 1154SOL    HW114921   3.362   3.902   8.621  3.0270  0.7407  0.4258
 1154SOL    HW214922   3.328   3.795   8.533  0.2715 -0.5207 -1.9008
 1155SOL     OW14923   0.301   1.382   9.080  0.9059 -0.0639  0.6142
 1155SOL    HW114924   0.230   1.324   9.106  0.9177 -0.6536 -0.6813
 1155SOL    HW214925   0.257   1.450   9.028  1.1658 -0.1539  0.2723
 1156SOL     OW14926   3.871   3.954   5.892  0.1309 -0.5976 -0.2293
 1156SOL    HW114927   3.918   3.989   5.816 -0.5459 -0.0535 -0.3938
 1156SOL    HW214928   3.896   4.020   5.957 -0.2642 -0.2481 -0.4406
 1157SOL     OW14929   0.739   0.431   1.527 -0.3074  0.2707  0.1113
 1157SOL    HW114930   0.666   0.460   1.472  0.4495  0.7688 -0.6412
 1157SOL    HW214931   0.738   0.336   1.528  0.1917  0.2688  0.4900
 1158SOL     OW14932   3.147   1.885   5.651  0.0578 -0.3937 -1.0559
 1158SOL    HW114933   3.109   1.869   5.565  0.9294  2.5856 -2.0205
 1158SOL    HW214934   3.238   1.903   5.628 -0.5154  3.2412 -0.5235
 1159SOL     OW14935   1.423   4.542  17.031  0.1627  0.1663 -0.0243
 1159SOL    HW114936   1.360   4.532  17.102  2.4106  0.5765  1.9990
 1159SOL    HW214937   1.396   4.622  16.986 -1.0030 -1.0475 -1.5348
 1160SOL     OW14938   0.379   1.696   9.468  0.5763 -0.6282 -0.2074
 1160SOL    HW114939   0.413   1.779   9.500 -1.8671  0.4043 -0.2365
 1160SOL    HW214940   0.297   1.701   9.518  1.0346 -2.1488  0.7068
 1161SOL     OW14941   3.421   1.776  16.747  0.2182  0.2618 -0.1566
 1161SOL    HW114942   3.517   1.773  16.745  0.2306 -0.1873  0.6812
 1161SOL    HW214943   3.412   1.817  16.834 -2.0999 -1.3765  0.3943
 1162SOL     OW14944   2.814   2.706   6.960 -0.0597 -0.7083  0.0401
 1162SOL    HW114945   2.886   2.663   7.008 -0.0239  1.5362  1.9965
 1162SOL    HW214946   2.736   2.662   6.995 -0.2442  1.5170  2.4188
 1163SOL     OW14947   0.680   0.463   4.565  0.4337 -0.4972 -0.0778
 1163SOL    HW114948   0.767   0.448   4.601 -0.5602 -2.5487  1.4294
 1163SOL    HW214949   0.624   0.386   4.573 -0.6466  0.4058  1.0353
 1164SOL     OW14950   2.974   2.557   5.837 -0.0200 -0.0303 -0.2708
 1164SOL    HW114951   3.060   2.597   5.851 -0.5093  1.5210 -1.6863
 1164SOL    HW214952   2.968   2.554   5.741 -2.4922  0.5711 -0.1502
 1165SOL     OW14953   3.905   0.205   2.109 -0.0578 -0.1973 -0.1588
 1165SOL    HW114954   3.839   0.138   2.095  0.0170 -0.0431 -1.2271
 1165SOL    HW214955   3.851   0.284   2.120  1.1128  0.4325  1.0745
 1166SOL     OW14956   3.638   3.546   6.091  0.0650  0.2728 -0.1779
 1166SOL    HW114957   3.719   3.541   6.141  0.6028 -1.7338 -1.2593
 1166SOL    HW214958   3.642   3.631   6.047 -1.1984  0.0752 -0.6638
 1167SOL     OW14959   3.738   3.644  10.788  0.4822 -0.0725  0.6060
 1167SOL    HW114960   3.702   3.622  10.874 -2.7902 -0.1325 -0.7993
 1167SOL    HW214961   3.787   3.565  10.767 -0.7048 -0.9290  1.0638
 1168SOL     OW14962   2.963   4.657   6.435 -0.5219  0.3167  0.4038
 1168SOL    HW114963   2.892   4.595   6.418 -0.0509  0.4109 -1.9302
 1168SOL    HW214964   2.957   4.703   6.351  2.3140  1.2548  0.7362
 1169SOL     OW14965   2.353   1.239   4.188  0.4652 -0.2302 -0.6867
 1169SOL    HW114966   2.346   1.249   4.283  2.5276 -0.1293 -0.5553
 1169SOL    HW214967   2.284   1.178   4.163 -1.3767  2.0470 -1.2477
 1170SOL     OW14968   0.674   4.016   6.986  0.2610  0.1214  0.0807
 1170SOL    HW114969   0.701   4.091   7.040  0.8634 -0.4662  0.5944
 1170SOL    HW214970   0.590   4.041   6.949  1.0525  0.1373 -1.7029
 1171SOL     OW14971   0.547   4.080   8.496 -0.3913  0.5906 -0.2120
 1171SOL    HW114972   0.635   4.118   8.499  1.1364 -2.8374 -0.8852
 1171SOL    HW214973   0.541   4.031   8.578  0.2738  0.7703 -0.0561
 1172SOL     OW14974   2.605   0.736   7.978 -0.6345  0.1898 -0.2093
 1172SOL    HW114975   2.535   0.800   7.965  0.9271  1.9716  0.1160
 1172SOL    HW214976   2.554   0.656   7.968 -0.4940 -0.2257  2.2361
 1173SOL     OW14977   2.841   3.844   2.469 -0.2907  0.3563 -0.0380
 1173SOL    HW114978   2.855   3.763   2.419 -1.5809 -0.3939  0.8208
 1173SOL    HW214979   2.900   3.820   2.540 -0.0975  0.4448 -0.1678
 1174SOL     OW14980   0.701   2.887   8.537  0.0625 -0.4253  0.2804
 1174SOL    HW114981   0.619   2.860   8.579  1.5585 -2.0254  2.1825
 1174SOL    HW214982   0.764   2.890   8.609  0.9083 -1.4243 -0.4207
 1175SOL     OW14983   0.375   1.097   1.262 -0.5119 -0.1966 -0.2543
 1175SOL    HW114984   0.333   1.178   1.232 -1.0106  0.1933  1.4844
 1175SOL    HW214985   0.458   1.112   1.217 -0.9847  1.2533 -0.6538
 1176SOL     OW14986   1.552   0.277  11.981 -0.1401  0.4291 -0.3869
 1176SOL    HW114987   1.616   0.213  11.949 -1.2578 -1.7176  1.6769
 1176SOL    HW214988   1.588   0.295  12.068  1.4155 -2.1552 -0.5059
 1177SOL     OW14989   3.548   0.371   4.678  0.2492 -0.5087  0.4037
 1177SOL    HW114990   3.593   0.419   4.609  1.6018 -2.3167  0.0239
 1177SOL    HW214991   3.464   0.416   4.667  0.3134 -0.8137 -1.2830
 1178SOL     OW14992   2.618   2.358  16.096  0.2005  0.1068 -0.3347
 1178SOL    HW114993   2.640   2.411  16.173 -0.2057  0.8816 -0.7501
 1178SOL    HW214994   2.666   2.276  16.108  0.8243  0.4535 -0.4645
 1179SOL     OW14995   1.118   0.180   3.830  0.0489  0.1735  0.1153
 1179SOL    HW114996   1.176   0.143   3.897 -0.9751 -0.4489  0.6578
 1179SOL    HW214997   1.165   0.253   3.790 -4.3508  1.4609 -2.5803
 1180SOL     OW14998   3.512   4.532   7.200 -0.4126 -0.0640 -0.5511
 1180SOL    HW114999   3.606   4.545   7.188 -0.0857 -2.2160 -0.4283
 1180SOL    HW215000   3.473   4.612   7.167 -0.0777 -0.0032 -0.8015
 1181SOL     OW15001   3.234   2.212   2.807  0.1407  0.3455 -0.4168
 1181SOL    HW115002   3.165   2.266   2.844  0.1630  0.4364 -0.5095
 1181SOL    HW215003   3.306   2.271   2.831 -0.6886  0.1843  2.5203
 1182SOL     OW15004   4.313   1.664  15.684  0.1828  0.4101  0.2836
 1182SOL    HW115005   4.315   1.757  15.706  0.3441  1.1983 -3.0023
 1182SOL    HW215006   4.305   1.620  15.769  0.7753 -0.8618 -0.3271
 1183SOL     OW15007   3.793   2.184   7.324  0.0525 -0.1401  0.2788
 1183SOL    HW115008   3.866   2.137   7.283 -1.2299 -0.8041 -1.2717
 1183SOL    HW215009   3.816   2.198   7.416 -2.3372 -3.3657  1.3220
 1184SOL     OW15010   0.612   1.115   1.107 -0.6486  0.1244 -0.4114
 1184SOL    HW115011   0.638   1.106   1.016  2.5187 -1.6260  0.6448
 1184SOL    HW215012   0.606   1.210   1.109 -0.2266  0.1551 -0.5864
 1185SOL     OW15013   1.836   1.626   6.697  0.3792 -0.5383 -0.1363
 1185SOL    HW115014   1.788   1.591   6.773  1.2215 -1.1746  0.1012
 1185SOL    HW215015   1.858   1.710   6.736 -1.4161 -1.0263  1.9840
 1186SOL     OW15016   3.946   1.348   9.108  0.1867  0.3564  0.3437
 1186SOL    HW115017   3.955   1.291   9.185 -0.2877  0.8877  0.7930
 1186SOL    HW215018   3.968   1.294   9.032  0.8876  0.7178  0.2944
 1187SOL     OW15019   0.446   4.345   9.291  0.2323  0.4535 -0.1969
 1187SOL    HW115020   0.432   4.259   9.332 -2.1099  1.0287  0.1673
 1187SOL    HW215021   0.500   4.320   9.216  0.8757 -0.0506  0.4266
 1188SOL     OW15022   2.453   0.381   3.758  0.0354 -0.2746  0.1891
 1188SOL    HW115023   2.504   0.441   3.704 -2.0826  0.1869 -1.2981
 1188SOL    HW215024   2.377   0.425   3.796 -0.0613 -1.1298  1.0182
 1189SOL     OW15025   3.103   1.587   5.771  0.2497  0.1707  0.6099
 1189SOL    HW115026   3.182   1.595   5.825 -0.1963  0.0221  1.2829
 1189SOL    HW215027   3.135   1.635   5.695 -1.5465 -1.4047 -1.1495
 1190SOL     OW15028   0.163   2.187   4.890 -0.0501  0.6753  0.1531
 1190SOL    HW115029   0.118   2.122   4.943 -0.2066  1.0133  0.4340
 1190SOL    HW215030   0.169   2.156   4.799 -0.6558  0.1802  0.2877
 1191SOL     OW15031   4.181   4.436  17.658  0.5889 -0.3248  0.5178
 1191SOL    HW115032   4.207   4.440   0.058  0.2427  0.0801  0.6004
 1191SOL    HW215033   4.264   4.404  17.624  0.4199  0.4196 -0.6156
 1192SOL     OW15034   4.327   3.075   8.420 -0.0922  0.2443  0.5461
 1192SOL    HW115035   4.232   3.084   8.412 -0.0918  1.5701  2.1273
 1192SOL    HW215036   4.341   2.981   8.406 -0.8704  0.3313 -0.8387
 1193SOL     OW15037   3.132   1.831  17.072 -0.0884 -0.1083  0.4918
 1193SOL    HW115038   3.225   1.811  17.071  0.3101  1.8397  0.1107
 1193SOL    HW215039   3.107   1.847  16.981 -0.6648  0.5874  0.7734
 1194SOL     OW15040   1.746   1.537   5.053 -0.6569  0.9493 -0.1868
 1194SOL    HW115041   1.804   1.557   5.126  0.6504  0.1206 -1.0003
 1194SOL    HW215042   1.794   1.572   4.978 -2.5948  0.0390 -1.8542
 1195SOL     OW15043   4.474   0.455   8.654 -0.3209 -0.1328 -0.1635
 1195SOL    HW115044   4.412   0.524   8.675  0.1692  0.2229  0.1282
 1195SOL    HW215045   4.556   0.489   8.691 -1.0095  0.8792  0.4060
 1196SOL     OW15046   1.022   1.705   4.132 -0.1808  0.3738  0.3826
 1196SOL    HW115047   0.995   1.737   4.046  0.7898 -1.5003 -0.6175
 1196SOL    HW215048   1.067   1.784   4.163  1.8752 -0.9505  0.7890
 1197SOL     OW15049   1.867   4.206  17.536  0.6713  0.8092  0.9745
 1197SOL    HW115050   1.934   4.267  17.505  1.3871  0.0610  1.0436
 1197SOL    HW215051   1.880   4.124  17.488 -1.7798  1.3632 -0.6522
 1198SOL     OW15052   2.025   0.081   1.664 -0.4543 -0.2993 -0.3028
 1198SOL    HW115053   2.069   0.054   1.583 -1.4702 -1.5204 -0.4390
 1198SOL    HW215054   1.937   0.079   1.625 -1.3034 -1.7067  1.7399
 1199SOL     OW15055   1.366   3.833   3.007  0.1526 -0.4446  0.2229
 1199SOL    HW115056   1.452   3.858   2.972  0.5391 -1.3067  0.5476
 1199SOL    HW215057   1.364   3.738   3.011 -0.8187 -0.4868 -1.5690
 1200SOL     OW15058   2.855   0.843   2.957  0.4762  0.3550  0.0568
 1200SOL    HW115059   2.771   0.855   3.000 -0.6034  0.0214 -1.9691
 1200SOL    HW215060   2.867   0.748   2.948  0.2678  0.3940 -0.6338
 1201SOL     OW15061   3.981   3.383  10.962  0.4157  0.3274  0.5484
 1201SOL    HW115062   3.974   3.341  11.048 -0.7823  0.3128  0.4528
 1201SOL    HW215063   3.952   3.313  10.905 -1.6783  1.7819 -0.1907
 1202SOL     OW15064   0.535   1.691   3.068 -0.1263 -0.0363 -0.6266
 1202SOL    HW115065   0.531   1.636   3.146  1.1027 -0.7087 -1.0427
 1202SOL    HW215066   0.625   1.687   3.036 -0.2196  1.2410 -1.0374
 1203SOL     OW15067   2.627   1.373  11.675 -0.6185 -0.4969 -0.3625
 1203SOL    HW115068   2.722   1.367  11.686 -0.8846  0.4886  2.3462
 1203SOL    HW215069   2.612   1.462  11.642 -0.2898 -0.7077 -1.0789
 1204SOL     OW15070   3.762   2.132   6.250  0.3486  0.1779 -0.1145
 1204SOL    HW115071   3.772   2.224   6.273 -1.6685  0.7631 -1.5187
 1204SOL    HW215072   3.667   2.125   6.260  0.3470 -0.6500 -0.7067
 1205SOL     OW15073   0.889   3.569  14.385  0.2967  0.0957  0.2555
 1205SOL    HW115074   0.950   3.513  14.433  0.9828 -0.5307 -1.3425
 1205SOL    HW215075   0.837   3.609  14.455  0.7990  2.0485 -0.4685
 1206SOL     OW15076   1.592   1.966   9.149  0.8479  0.5228  0.3536
 1206SOL    HW115077   1.611   2.013   9.230  1.8833  1.4023 -0.3920
 1206SOL    HW215078   1.681   1.945   9.120 -0.2202  0.9967 -3.3239
 1207SOL     OW15079   3.370   4.305   3.569  0.1997  0.7118 -0.1454
 1207SOL    HW115080   3.306   4.234   3.580  0.8043  0.3893  1.2362
 1207SOL    HW215081   3.354   4.303   3.474  0.1040 -1.4413 -0.0852
 1208SOL     OW15082   1.849   1.308  12.099 -0.0133  0.6162 -0.1291
 1208SOL    HW115083   1.881   1.397  12.115  0.7455  0.7735 -2.4555
 1208SOL    HW215084   1.755   1.316  12.115  0.0149  1.2748 -0.2602
 1209SOL     OW15085   4.654   2.632   3.405 -0.4758 -0.1181 -0.2356
 1209SOL    HW115086   4.611   2.684   3.472 -2.4814 -2.5538  0.3679
 1209SOL    HW215087   4.630   2.542   3.426 -0.6084 -0.0838 -0.2429
 1210SOL     OW15088   4.170   3.656   6.330 -0.4862  0.3440  0.0636
 1210SOL    HW115089   4.123   3.633   6.410  0.4455 -0.0999  0.4890
 1210SOL    HW215090   4.157   3.750   6.320  1.7392  0.4889 -1.5212
 1211SOL     OW15091   2.487   0.121   4.705  0.1246  0.3724  0.2593
 1211SOL    HW115092   2.473   0.056   4.636 -2.3772  0.8085  0.3270
 1211SOL    HW215093   2.552   0.083   4.764 -0.8541  1.9937  2.4065
 1212SOL     OW15094   2.095   4.596   9.726  0.2304  0.0711 -0.4159
 1212SOL    HW115095   2.048   4.519   9.695  0.1696  1.3988 -3.6799
 1212SOL    HW215096   2.022   4.636   9.772  1.1650 -0.4868  1.5373
 1213SOL     OW15097   3.016   1.325   8.878  0.2266  0.4799 -0.7313
 1213SOL    HW115098   2.941   1.328   8.938  1.6662  2.1711  0.9699
 1213SOL    HW215099   2.982   1.377   8.805  1.8461  2.0380 -0.3734
 1214SOL     OW15100   3.212   1.657  16.630  0.3630 -0.8887  0.3239
 1214SOL    HW115101   3.240   1.634  16.542  0.6466  1.8958 -0.3109
 1214SOL    HW215102   3.287   1.692  16.678 -0.4771 -0.4403  1.3310
 1215SOL     OW15103   2.043   3.023   3.373 -0.4208 -0.1751 -0.2903
 1215SOL    HW115104   2.009   3.105   3.337  0.8208  0.7606  0.6881
 1215SOL    HW215105   2.133   3.014   3.341 -0.8936 -2.3458 -1.0727
 1216SOL     OW15106   0.689   2.235   6.299 -0.0235 -0.2841  0.3790
 1216SOL    HW115107   0.671   2.314   6.350 -1.5287 -0.0534 -0.4838
 1216SOL    HW215108   0.700   2.278   6.214 -0.6655 -0.2409  0.3174
 1217SOL     OW15109   0.476   3.864   5.995 -0.6870  0.1783 -0.2160
 1217SOL    HW115110   0.402   3.924   6.006 -0.1740  0.7649 -0.0072
 1217SOL    HW215111   0.508   3.883   5.907  0.7787 -0.4715  0.1869
 1218SOL     OW15112   2.912   1.619   8.181 -0.0081  0.8448  0.0529
 1218SOL    HW115113   2.932   1.702   8.226  0.0178  1.1322 -0.4920
 1218SOL    HW215114   2.822   1.599   8.205 -0.6182  0.6976 -2.3687
 1219SOL     OW15115   4.480   1.414  12.290  0.1917  0.1465  0.1247
 1219SOL    HW115116   4.548   1.481  12.294  0.9746 -0.5744 -0.9750
 1219SOL    HW215117   4.400   1.451  12.326  0.8988  0.1124  1.7156
 1220SOL     OW15118   3.349   0.766   5.515  0.2860  0.5515  0.0395
 1220SOL    HW115119   3.316   0.816   5.441  0.8447 -0.7265 -1.0822
 1220SOL    HW215120   3.443   0.755   5.496  0.2585  0.6957 -0.1773
 1221SOL     OW15121   1.874   2.125   2.904  0.1135  0.2856 -0.2578
 1221SOL    HW115122   1.963   2.090   2.906 -0.6190 -1.5780 -0.4447
 1221SOL    HW215123   1.881   2.182   2.827  1.9121 -1.0258 -1.0799
 1222SOL     OW15124   3.176   3.446   4.210  0.2918  0.2174  0.0757
 1222SOL    HW115125   3.107   3.381   4.220 -0.2298  0.6638 -0.6210
 1222SOL    HW215126   3.154   3.498   4.132 -0.0580 -1.1982 -0.7534
 1223SOL     OW15127   3.592   4.516  11.393  0.3392  0.5824 -0.1494
 1223SOL    HW115128   3.628   4.524  11.305  3.5500 -3.4251  0.8324
 1223SOL    HW215129   3.507   4.554  11.372 -0.0948  0.4171  1.2522
 1224SOL     OW15130   3.505   0.933   7.938 -0.1963  0.1418 -0.3654
 1224SOL    HW115131   3.424   0.978   7.913 -0.1313 -0.9043 -2.4775
 1224SOL    HW215132   3.491   0.856   7.883 -0.0190  2.8746 -4.2215
 1225SOL     OW15133   3.739   3.792   1.211  0.1395 -0.3814 -0.4975
 1225SOL    HW115134   3.693   3.797   1.294 -2.4533  4.4676 -2.2034
 1225SOL    HW215135   3.764   3.882   1.187  0.0860  0.1932  1.5897
 1226SOL     OW15136   0.402   0.805  13.794 -0.3663  0.0733  0.2709
 1226SOL    HW115137   0.338   0.775  13.729  0.3136  0.3462 -0.5303
 1226SOL    HW215138   0.460   0.731  13.780 -0.7542 -0.0414 -0.7648
 1227SOL     OW15139   3.482   1.178   9.059 -0.2088 -0.1222 -0.3547
 1227SOL    HW115140   3.525   1.149   9.140  1.7137 -0.3003 -1.4547
 1227SOL    HW215141   3.560   1.213   9.017  0.5208  1.5142  2.3235
 1228SOL     OW15142   2.949   2.411   8.254 -0.2228  0.2178  0.0512
 1228SOL    HW115143   2.970   2.397   8.162  1.5043 -1.5632  0.7249
 1228SOL    HW215144   3.036   2.444   8.277 -0.0643 -0.2539  0.1173
 1229SOL     OW15145   3.976   4.248  11.426 -0.1331  1.0164  0.0320
 1229SOL    HW115146   4.023   4.329  11.447 -0.1756  1.0308  0.0695
 1229SOL    HW215147   3.946   4.266  11.337  0.8594 -0.2437 -0.5734
 1230SOL     OW15148   2.978   4.566   5.039  0.4085 -0.3628  0.0091
 1230SOL    HW115149   3.067   4.533   5.025  0.2159 -0.7217 -0.3707
 1230SOL    HW215150   2.922   4.490   5.026 -1.8547  0.9010  2.3938
 1231SOL     OW15151   1.029   4.185  11.023 -0.5197  0.0199 -0.1466
 1231SOL    HW115152   1.125   4.178  11.021 -0.4656  0.0657  2.2819
 1231SOL    HW215153   1.027   4.269  10.977  0.9154 -0.1109 -0.4523
 1232SOL     OW15154   1.071   3.926   1.579  0.8128 -0.0529  0.4420
 1232SOL    HW115155   1.127   3.867   1.629  1.3021  1.1659  1.3356
 1232SOL    HW215156   1.111   4.012   1.588  0.9724  0.1415 -2.3221
 1233SOL     OW15157   2.765   0.361   3.305 -0.0957 -0.0492 -0.3927
 1233SOL    HW115158   2.807   0.328   3.225 -0.8572 -1.6525 -0.1234
 1233SOL    HW215159   2.847   0.387   3.348 -0.8690 -0.6227  1.4157
 1234SOL     OW15160   1.752   0.797   6.801  0.0077 -0.3623  0.2006
 1234SOL    HW115161   1.703   0.864   6.848 -1.2993 -2.3360  1.6446
 1234SOL    HW215162   1.727   0.723   6.856 -2.5636  1.1112  1.0157
 1235SOL     OW15163   1.947   0.881   8.327  0.1216 -0.1335 -0.3750
 1235SOL    HW115164   1.980   0.967   8.351 -0.6792 -0.1942  0.9606
 1235SOL    HW215165   1.883   0.897   8.257  1.1414  0.2868 -1.2067
 1236SOL     OW15166   0.482   1.569   2.114  0.4453  0.8365 -0.0482
 1236SOL    HW115167   0.419   1.530   2.173  1.3240 -1.2992 -0.5352
 1236SOL    HW215168   0.444   1.567   2.026  2.1092  0.9503 -0.7799
 1237SOL     OW15169   1.276   3.651  14.689  0.3389  0.0635 -0.7218
 1237SOL    HW115170   1.310   3.562  14.681  2.8216  0.9769 -0.4218
 1237SOL    HW215171   1.213   3.633  14.759  0.8715  0.2955 -0.1742
 1238SOL     OW15172   0.746   2.035   2.387 -0.1740 -0.3937 -0.6722
 1238SOL    HW115173   0.716   2.063   2.473 -0.7919  1.1127 -1.3803
 1238SOL    HW215174   0.780   1.947   2.403 -0.2369 -0.2876  0.0335
 1239SOL     OW15175   2.799   2.369  13.280  0.2371  0.4140 -0.1318
 1239SOL    HW115176   2.822   2.325  13.198  2.3182 -2.2017  1.8442
 1239SOL    HW215177   2.710   2.334  13.285  0.0197  0.6941 -1.8007
 1240SOL     OW15178   2.330   3.420   5.313  0.2814 -0.5736  0.2741
 1240SOL    HW115179   2.348   3.511   5.290 -0.1380 -0.5527  0.0282
 1240SOL    HW215180   2.412   3.377   5.335  1.3476  0.2318 -2.1931
 1241SOL     OW15181   0.801   0.974   2.674 -0.0038  0.3553 -0.0882
 1241SOL    HW115182   0.788   0.916   2.600 -0.5123  0.4128 -0.0397
 1241SOL    HW215183   0.867   0.922   2.720 -0.7617 -2.6547 -2.4487
 1242SOL     OW15184   2.631   3.787  10.447 -0.1212 -0.5756  0.4410
 1242SOL    HW115185   2.581   3.780  10.528 -0.3334 -0.6815  0.3012
 1242SOL    HW215186   2.575   3.739  10.386  1.5981 -0.4944 -1.2345
 1243SOL     OW15187   3.797   3.782   7.464  0.4345  0.0464  0.4293
 1243SOL    HW115188   3.769   3.857   7.412 -1.7097  0.2880  1.9161
 1243SOL    HW215189   3.723   3.778   7.524  0.7155  1.3272  0.8669
 1244SOL     OW15190   2.152   0.952   7.371  0.2760  0.2149  0.2678
 1244SOL    HW115191   2.185   1.030   7.414  3.4502  0.0271 -1.8488
 1244SOL    HW215192   2.082   0.924   7.430  1.6278 -1.7961  0.9499
 1245SOL     OW15193   4.486   3.705  16.399 -0.3465 -0.1001  0.1161
 1245SOL    HW115194   4.447   3.667  16.478 -2.9365  1.1188 -0.5547
 1245SOL    HW215195   4.460   3.642  16.332 -2.3186 -2.0535  2.6819
 1246SOL     OW15196   2.123   1.937   6.657 -0.3608  0.0506  0.5797
 1246SOL    HW115197   2.174   1.862   6.690 -1.3809 -0.6004  0.6815
 1246SOL    HW215198   2.142   2.004   6.722  1.9480 -0.2235  0.1972
 1247SOL     OW15199   0.651   1.205  12.115  0.4473 -0.4961 -0.1565
 1247SOL    HW115200   0.656   1.112  12.137 -2.1357 -0.8785 -1.1921
 1247SOL    HW215201   0.720   1.241  12.170  0.0973 -1.4243  0.8983
 1248SOL     OW15202   0.376   2.231   2.912  0.3887 -0.1822 -0.1195
 1248SOL    HW115203   0.340   2.241   3.000  1.3274  0.7639  0.1736
 1248SOL    HW215204   0.388   2.321   2.882  1.2191  0.9910  3.7336
 1249SOL     OW15205   3.851   0.713   0.474 -0.0290 -0.1083  0.5581
 1249SOL    HW115206   3.895   0.645   0.424  0.2468  0.1493  0.4453
 1249SOL    HW215207   3.769   0.666   0.486 -1.4180  2.1127 -0.2774
 1250SOL     OW15208   4.571   1.515   1.674 -0.2258  0.7065 -0.0113
 1250SOL    HW115209   4.590   1.422   1.683 -1.1790  0.4685 -0.4757
 1250SOL    HW215210   4.581   1.532   1.580 -0.1738 -2.8480 -0.6356
 1251SOL     OW15211   2.076   1.044  14.597  0.3584 -0.0060  0.2693
 1251SOL    HW115212   2.014   0.983  14.558 -0.2593  0.4052  0.6068
 1251SOL    HW215213   2.158   1.016  14.558  0.1201 -0.9835  0.4638
 1252SOL     OW15214   0.179   3.732   7.102  0.5085 -0.3011  0.0482
 1252SOL    HW115215   0.268   3.697   7.105  0.8682  0.6620  0.5732
 1252SOL    HW215216   0.121   3.658   7.119 -1.0020  0.6569 -1.0009
 1253SOL     OW15217   3.810   4.535   1.750 -0.2433  0.5972  0.7458
 1253SOL    HW115218   3.754   4.524   1.673 -0.0966 -0.5076  0.7871
 1253SOL    HW215219   3.756   4.497   1.819 -3.5686  0.0512 -2.1778
 1254SOL     OW15220   2.925   4.504   0.891  0.3866 -0.0071 -0.0782
 1254SOL    HW115221   2.974   4.430   0.855  0.3017  0.3954 -1.0218
 1254SOL    HW215222   2.888   4.481   0.976 -0.3624 -0.3808 -0.5124
 1255SOL     OW15223   4.349   1.942   2.691 -0.0309 -0.7510 -0.4657
 1255SOL    HW115224   4.291   1.952   2.616 -2.2699 -0.5744  1.2947
 1255SOL    HW215225   4.312   2.011   2.746 -0.9171 -2.2649  0.8159
 1256SOL     OW15226   1.406   0.637   4.123  1.0771  0.8380  0.3094
 1256SOL    HW115227   1.495   0.665   4.101  1.1861  0.0158 -0.2738
 1256SOL    HW215228   1.359   0.664   4.044 -0.7058  0.6067  1.2962
 1257SOL     OW15229   2.602   1.959   0.322 -0.0299  0.4555  0.0795
 1257SOL    HW115230   2.522   1.910   0.341  0.5016 -0.3337  0.2759
 1257SOL    HW215231   2.560   2.044   0.309  0.6101  0.9346  1.2085
 1258SOL     OW15232   1.354   0.808   6.843  0.3436 -0.1607 -0.0475
 1258SOL    HW115233   1.400   0.753   6.906  0.5403 -1.9762 -1.7895
 1258SOL    HW215234   1.266   0.797   6.878  0.2585  1.3267  0.2237
 1259SOL     OW15235   4.717   1.949   4.819  0.1057  0.0000 -0.4542
 1259SOL    HW115236   4.639   1.996   4.789  0.9093  2.4708  1.3709
 1259SOL    HW215237   4.704   1.961   4.913 -1.0401  1.2573 -0.7730
 1260SOL     OW15238   3.328   0.569   8.574 -0.4690  0.4149 -0.0387
 1260SOL    HW115239   3.344   0.476   8.588 -0.2443  0.0440 -2.8004
 1260SOL    HW215240   3.418   0.594   8.552  0.8020 -3.9351  0.3497
 1261SOL     OW15241   1.913   3.120  13.276  0.0992  0.3634  0.6161
 1261SOL    HW115242   1.987   3.155  13.325  0.3885  1.0262 -0.2938
 1261SOL    HW215243   1.959   3.103  13.193  1.4377  1.4644  1.1403
 1262SOL     OW15244   3.766   1.385   7.489  0.5665 -0.1605  0.6063
 1262SOL    HW115245   3.817   1.309   7.461 -1.5968 -1.2057 -0.4482
 1262SOL    HW215246   3.674   1.373   7.466  0.0500  1.5814  1.7124
 1263SOL     OW15247   1.963   4.465   1.054 -0.2597  0.1449  0.0790
 1263SOL    HW115248   1.953   4.560   1.052  4.0252  0.5487 -1.9987
 1263SOL    HW215249   1.939   4.433   0.967 -2.1753 -2.7601  1.6742
 1264SOL     OW15250   0.286   1.139   6.329  0.1637 -0.0178 -0.1047
 1264SOL    HW115251   0.337   1.211   6.365  0.1926 -0.2574  0.3431
 1264SOL    HW215252   0.307   1.070   6.392  2.5004  0.9629  0.1912
 1265SOL     OW15253   1.191   0.422   8.596 -0.1964  0.0239  0.0788
 1265SOL    HW115254   1.279   0.459   8.602 -1.0654  1.9996  0.8526
 1265SOL    HW215255   1.171   0.401   8.688  0.1027 -1.2059 -0.1407
 1266SOL     OW15256   0.943   1.933  17.208 -0.0579  0.1246 -0.4498
 1266SOL    HW115257   0.996   1.862  17.243 -0.9567 -0.1029  0.4508
 1266SOL    HW215258   0.993   2.007  17.243  1.2790 -2.1519  2.4628
 1267SOL     OW15259   2.180   2.590   6.998 -0.0968 -0.4073  0.1660
 1267SOL    HW115260   2.170   2.496   6.984 -2.3015 -0.1472 -0.0210
 1267SOL    HW215261   2.088   2.615   7.005 -0.2507 -0.4448 -1.7538
 1268SOL     OW15262   4.519   4.002   2.766  0.1833  0.0918  0.0805
 1268SOL    HW115263   4.478   3.924   2.728 -0.0757 -0.0274  0.5997
 1268SOL    HW215264   4.612   3.984   2.751  0.0269 -1.7979  1.3665
 1269SOL     OW15265   0.928   3.263   6.159  0.0087  0.3089  0.4410
 1269SOL    HW115266   0.942   3.199   6.089 -2.1690 -1.4648  1.6233
 1269SOL    HW215267   1.015   3.302   6.172  0.6408 -0.3165 -1.8133
 1270SOL     OW15268   1.307   0.311  11.893 -0.0951 -0.6580  0.5096
 1270SOL    HW115269   1.272   0.383  11.945  0.2266 -0.2863  0.2127
 1270SOL    HW215270   1.399   0.321  11.917  0.1685 -0.7237 -0.4364
 1271SOL     OW15271   1.103   3.691   1.696  0.4933  0.0946  0.5660
 1271SOL    HW115272   1.041   3.663   1.764 -1.5349  2.7597 -0.1629
 1271SOL    HW215273   1.044   3.688   1.621  0.9069  4.4751  0.0392
 1272SOL     OW15274   0.212   1.605   6.425  0.0921  0.4521  0.0400
 1272SOL    HW115275   0.164   1.657   6.361  1.8424 -0.6108 -2.1074
 1272SOL    HW215276   0.169   1.619   6.510  0.1246 -1.5053  0.3693
 1273SOL     OW15277   3.844   4.436   8.367  0.2174 -0.1736 -0.1461
 1273SOL    HW115278   3.873   4.523   8.396  0.0371 -0.2365  0.2274
 1273SOL    HW215279   3.827   4.400   8.454  1.3859  0.4828  0.3457
 1274SOL     OW15280   3.867   4.332   0.721  0.3082 -0.3893  0.1067
 1274SOL    HW115281   3.883   4.291   0.636 -0.4053 -1.0937  0.3156
 1274SOL    HW215282   3.851   4.423   0.695 -3.5682 -0.9045  0.6713
 1275SOL     OW15283   3.117   1.835   7.461 -0.1547 -0.2404  0.3168
 1275SOL    HW115284   3.026   1.848   7.434  0.2211  1.3184 -0.2521
 1275SOL    HW215285   3.141   1.914   7.510  0.1621  1.1744 -2.0894
 1276SOL     OW15286   0.423   4.069   6.925  0.1092  0.4074 -0.4638
 1276SOL    HW115287   0.389   3.980   6.924 -0.4800  0.6193  1.7367
 1276SOL    HW215288   0.368   4.115   6.862  0.5894 -0.0484 -1.2251
 1277SOL     OW15289   1.861   4.578   3.835  0.1027  0.4564 -0.2068
 1277SOL    HW115290   1.899   4.595   3.749  1.5384 -2.1386 -0.0891
 1277SOL    HW215291   1.839   4.669   3.855  0.9673  0.6656 -0.2066
 1278SOL     OW15292   2.695   0.163   1.580 -0.0333  0.4214  0.0219
 1278SOL    HW115293   2.751   0.131   1.509  0.7207 -0.1368  0.8597
 1278SOL    HW215294   2.613   0.166   1.531 -0.4755 -1.6212  0.6399
 1279SOL     OW15295   1.956   1.745   7.484 -0.3597 -0.8086 -0.1007
 1279SOL    HW115296   1.981   1.784   7.568  0.7634 -0.9131 -0.3860
 1279SOL    HW215297   1.908   1.816   7.441 -1.2691 -1.3045  0.0880
 1280SOL     OW15298   2.198   1.518   9.386 -0.1446  0.0401 -0.3228
 1280SOL    HW115299   2.224   1.573   9.312 -0.6882 -0.0457 -0.5838
 1280SOL    HW215300   2.103   1.530   9.392  0.0785  1.0912  0.9876
 1281SOL     OW15301   0.734   4.272   1.842  0.5915  0.2480  0.6327
 1281SOL    HW115302   0.777   4.356   1.824  0.1795  0.3500  0.1348
 1281SOL    HW215303   0.807   4.218   1.810  0.0373 -1.8301  2.8433
 1282SOL     OW15304   3.457   4.391   2.212 -0.2254 -0.9569 -0.0905
 1282SOL    HW115305   3.386   4.343   2.169  0.4706 -1.2356 -0.9052
 1282SOL    HW215306   3.463   4.470   2.158  2.0470  0.3515  2.1004
 1283SOL     OW15307   1.517   4.548   5.167 -0.5807 -0.2514 -0.2511
 1283SOL    HW115308   1.440   4.592   5.204 -0.9847  1.9976 -3.7742
 1283SOL    HW215309   1.475   4.491   5.102  0.5956 -1.7040  0.2691
 1284SOL     OW15310   4.223   2.064   2.369  0.3212 -0.2593 -0.0156
 1284SOL    HW115311   4.140   2.035   2.332  0.0379  1.5630 -0.8205
 1284SOL    HW215312   4.238   2.134   2.306 -3.9252  1.7727  1.2312
 1285SOL     OW15313   3.005   3.905   7.815  0.3935 -0.0957 -0.1190
 1285SOL    HW115314   3.100   3.910   7.803  0.3449 -0.3123 -0.5947
 1285SOL    HW215315   3.003   3.832   7.877  0.1320  0.0742  0.0717
 1286SOL     OW15316   1.867   3.333   1.411 -0.0172 -0.0437 -0.1458
 1286SOL    HW115317   1.880   3.421   1.375 -2.6358  0.2666 -0.3317
 1286SOL    HW215318   1.886   3.281   1.333  0.1462 -0.7943  0.3954
 1287SOL     OW15319   0.679   2.783  12.836 -0.6327  0.1600 -0.3785
 1287SOL    HW115320   0.744   2.826  12.780 -0.5297  0.1515 -0.2624
 1287SOL    HW215321   0.645   2.713  12.780  1.4407 -0.8165 -0.4001
 1288SOL     OW15322   4.372   2.313   7.958  0.3730  0.2467 -0.0089
 1288SOL    HW115323   4.459   2.330   7.922 -0.1305  1.4897 -0.6364
 1288SOL    HW215324   4.394   2.250   8.028 -0.7739  0.4731  0.5614
 1289SOL     OW15325   4.104   0.625   6.560  0.3199  0.3440 -0.1198
 1289SOL    HW115326   4.193   0.644   6.532  1.7206  2.1740  5.5226
 1289SOL    HW215327   4.059   0.708   6.544 -1.2657 -0.6038 -0.6326
 1290SOL     OW15328   0.437   0.165   5.805  0.0638 -1.0011 -0.3502
 1290SOL    HW115329   0.422   0.158   5.711  0.3605  3.2552 -0.7047
 1290SOL    HW215330   0.411   0.253   5.832 -1.0216 -1.1909 -0.7654
 1291SOL     OW15331   1.247   4.027   5.529 -0.3875  0.3664  0.1420
 1291SOL    HW115332   1.273   3.973   5.454 -1.4387 -1.5555  1.1636
 1291SOL    HW215333   1.274   4.106   5.482  2.1481  0.4707  1.7557
 1292SOL     OW15334   0.319   1.857  13.995  0.1013 -0.5035  0.0037
 1292SOL    HW115335   0.226   1.880  13.993 -0.1332 -1.3043  1.7098
 1292SOL    HW215336   0.370   1.937  13.985  0.1647 -0.7819 -1.9336
 1293SOL     OW15337   2.964   1.408   1.770 -0.3481 -0.6543 -0.7180
 1293SOL    HW115338   2.918   1.339   1.722 -0.5633 -0.4233 -0.8440
 1293SOL    HW215339   2.943   1.486   1.719  1.6644 -0.3116 -1.0218
 1294SOL     OW15340   0.921   2.059   4.960  0.4285 -0.9463 -0.8572
 1294SOL    HW115341   1.011   2.092   4.951  0.6228 -0.6728  1.9895
 1294SOL    HW215342   0.919   1.970   4.926 -3.6031 -0.6381 -1.3622
 1295SOL     OW15343   0.734   1.467   3.188  0.6422  0.8881  0.2757
 1295SOL    HW115344   0.690   1.493   3.269  0.6304 -0.2383  0.6252
 1295SOL    HW215345   0.666   1.414   3.148  0.9249 -0.0897  1.1062
 1296SOL     OW15346   1.015   3.670   2.991 -0.0434 -0.1701  0.6728
 1296SOL    HW115347   0.988   3.632   3.075 -3.8742 -1.3185 -1.1266
 1296SOL    HW215348   1.106   3.638   2.989 -0.1895 -0.4347 -1.3973
 1297SOL     OW15349   0.735   1.707   8.038 -0.7734 -0.3346 -0.0437
 1297SOL    HW115350   0.789   1.631   8.016 -0.3676  0.1880 -0.8673
 1297SOL    HW215351   0.695   1.693   8.123  0.8341  1.2059  0.9651
 1298SOL     OW15352   3.871   0.848  15.848 -0.1219 -0.4400 -0.0148
 1298SOL    HW115353   3.867   0.867  15.754  1.4422  1.0744  0.2254
 1298SOL    HW215354   3.810   0.909  15.890 -0.7172 -0.3680 -0.9860
 1299SOL     OW15355   3.238   2.785   8.121 -0.0755 -0.1968 -0.1113
 1299SOL    HW115356   3.153   2.796   8.079 -0.3338  1.1137  0.7289
 1299SOL    HW215357   3.296   2.793   8.045 -0.4674  2.8653 -0.0932
 1300SOL     OW15358   1.494   1.476   0.183  0.1063 -0.1690  0.0235
 1300SOL    HW115359   1.429   1.525   0.235 -0.9087 -2.1637  0.6594
 1300SOL    HW215360   1.454   1.389   0.171  1.7485 -0.8303 -0.5601
 1301SOL     OW15361   0.327   0.840  14.056 -0.1740  0.2062  0.2597
 1301SOL    HW115362   0.297   0.752  14.077 -1.0244  0.3645 -0.2757
 1301SOL    HW215363   0.350   0.836  13.963 -0.1211  2.5419  0.1687
 1302SOL     OW15364   2.060   3.582   6.668  0.1651  0.0681  0.2538
 1302SOL    HW115365   2.023   3.602   6.754 -2.2527  1.1749 -1.0402
 1302SOL    HW215366   2.141   3.543   6.701 -0.7598 -0.5460  1.7428
 1303SOL     OW15367   1.115   2.933   8.177  0.7925  0.0104 -0.3482
 1303SOL    HW115368   1.156   2.992   8.240  0.5710  1.0138 -1.1339
 1303SOL    HW215369   1.184   2.867   8.169  1.0351  0.1569  0.5057
 1304SOL     OW15370   3.309   1.201   1.594 -0.1247 -0.0067 -0.3136
 1304SOL    HW115371   3.291   1.268   1.528 -3.8704 -1.3518 -0.6760
 1304SOL    HW215372   3.298   1.117   1.549  1.7588  1.4226 -3.4061
 1305SOL     OW15373   1.615   4.230   6.972  0.1088  0.7455  0.1436
 1305SOL    HW115374   1.586   4.308   6.925 -2.8606  0.1573  1.0409
 1305SOL    HW215375   1.537   4.175   6.980 -1.2789  2.9138  1.4303
 1306SOL     OW15376   0.878   0.806  15.014  0.7034  0.1914 -0.0103
 1306SOL    HW115377   0.797   0.765  15.043  0.9418  0.2093  0.6933
 1306SOL    HW215378   0.933   0.800  15.093  2.0893 -0.4275 -1.0181
 1307SOL     OW15379   2.362   1.233   0.918 -0.0791  0.4068 -0.0632
 1307SOL    HW115380   2.287   1.292   0.926 -0.1867  0.2173  0.3695
 1307SOL    HW215381   2.355   1.192   1.005 -0.5480 -0.5646 -0.5540
 1308SOL     OW15382   1.470   3.239  17.292 -0.1174 -0.7153 -0.4986
 1308SOL    HW115383   1.446   3.234  17.199  0.5417  0.9861 -0.7788
 1308SOL    HW215384   1.395   3.288  17.325  0.6846 -0.0344  0.3295
 1309SOL     OW15385   1.366   3.105  12.333 -0.1306 -0.3402 -0.1670
 1309SOL    HW115386   1.337   3.195  12.325  1.4704  0.2434  0.6696
 1309SOL    HW215387   1.356   3.086  12.239 -3.0113  0.4670 -0.0303
 1310SOL     OW15388   4.472   0.678  13.995 -0.1739  0.0786 -0.2444
 1310SOL    HW115389   4.474   0.713  14.084  0.7595  1.0733 -0.6462
 1310SOL    HW215390   4.556   0.633  13.988  0.0750  0.7844 -1.8455
 1311SOL     OW15391   0.950   3.929  10.907 -0.0426  0.7106  0.1735
 1311SOL    HW115392   0.978   4.010  10.949 -1.1992  0.0874  2.1486
 1311SOL    HW215393   0.975   3.944  10.816 -0.0633  0.4164  0.1184
 1312SOL     OW15394   2.781   2.003   8.995 -0.6603  0.3921  0.3491
 1312SOL    HW115395   2.852   1.940   8.987 -0.1670  0.9879  0.0532
 1312SOL    HW215396   2.752   2.014   8.905 -1.1100 -0.4440  0.3981
 1313SOL     OW15397   0.881   1.587  12.317  0.1470  0.0359  0.1859
 1313SOL    HW115398   0.830   1.665  12.341  0.4244  0.2211  0.1645
 1313SOL    HW215399   0.948   1.593  12.385 -0.6390 -1.3418  1.0787
 1314SOL     OW15400   2.252   2.585  10.654  1.0559  0.5729 -0.1586
 1314SOL    HW115401   2.236   2.539  10.572 -1.3599  2.8824 -0.9750
 1314SOL    HW215402   2.347   2.595  10.649  1.0703  0.6714  0.2506
 1315SOL     OW15403   1.588   1.142   6.569  0.1188 -0.3816  0.4250
 1315SOL    HW115404   1.624   1.188   6.645  0.8710 -2.1353  1.1391
 1315SOL    HW215405   1.501   1.115   6.598 -0.1480 -0.7805 -0.7308
 1316SOL     OW15406   0.428   2.723   2.492  0.2733  0.4715  0.3088
 1316SOL    HW115407   0.470   2.797   2.536 -1.9160  0.3353  2.5955
 1316SOL    HW215408   0.396   2.770   2.415  1.8649  1.8964  0.5206
 1317SOL     OW15409   4.138   4.666   3.457 -0.1133 -0.5584  0.5683
 1317SOL    HW115410   4.155   4.612   3.534 -1.1194  0.8299  1.7643
 1317SOL    HW215411   4.227   4.653   3.425 -0.1999  0.8398 -0.2283
 1318SOL     OW15412   2.705   3.301   5.251 -0.3785  1.4012  0.0961
 1318SOL    HW115413   2.783   3.282   5.303 -1.0071  0.2703  0.6353
 1318SOL    HW215414   2.652   3.344   5.318 -1.3426 -0.9855  0.8781
 1319SOL     OW15415   4.496   2.691   6.955  0.0064 -0.2916  0.2668
 1319SOL    HW115416   4.584   2.726   6.939  0.0180 -0.6534 -0.4236
 1319SOL    HW215417   4.464   2.717   6.869  1.7603 -0.4675 -0.4445
 1320SOL     OW15418   4.283   3.410   6.377 -0.1517 -0.4422 -1.5070
 1320SOL    HW115419   4.266   3.503   6.359  2.0941  0.2408 -0.2053
 1320SOL    HW215420   4.199   3.376   6.406  1.1142 -1.5648  0.8195
 1321SOL     OW15421   3.394   2.581   5.532  0.5496  0.2014  0.5647
 1321SOL    HW115422   3.465   2.600   5.470  0.4089 -1.1281  0.0128
 1321SOL    HW215423   3.396   2.666   5.577  0.9436  0.7421 -0.4622
 1322SOL     OW15424   3.473   0.365  17.545 -0.4788  0.5013 -0.4376
 1322SOL    HW115425   3.398   0.393  17.598 -0.9736 -0.0271 -0.8462
 1322SOL    HW215426   3.541   0.378  17.611 -0.9059 -4.5435  1.0176
 1323SOL     OW15427   1.229   1.349   3.705  0.1445  0.2786  0.0132
 1323SOL    HW115428   1.155   1.395   3.664 -0.4125 -0.3753  0.2873
 1323SOL    HW215429   1.197   1.265   3.738  1.2164 -0.2399 -0.2796
 1324SOL     OW15430   0.393   2.147  16.275  0.0827  0.0546 -0.1427
 1324SOL    HW115431   0.426   2.065  16.311 -1.5646 -1.3014 -1.6997
 1324SOL    HW215432   0.317   2.161  16.332  0.1506 -0.4172  0.0569
 1325SOL     OW15433   3.882   2.003   4.703  0.3336 -0.2012  0.0271
 1325SOL    HW115434   3.850   1.936   4.643  1.9261  0.1843 -1.2902
 1325SOL    HW215435   3.967   2.023   4.662  0.1488 -0.7487 -0.6272
 1326SOL     OW15436   4.653   1.212   5.214  0.0558 -0.1482  0.3171
 1326SOL    HW115437   4.698   1.230   5.296 -1.2261  1.4534  0.6563
 1326SOL    HW215438   4.721   1.153   5.180  1.1028  0.9581  0.4805
 1327SOL     OW15439   1.875   1.082   6.556 -0.1205 -0.3942 -0.5413
 1327SOL    HW115440   1.891   1.096   6.462 -1.3175 -2.8462 -1.1236
 1327SOL    HW215441   1.779   1.086   6.562  0.1519  2.1564  1.6645
 1328SOL     OW15442   1.157   2.615   3.324 -0.4865 -0.0329 -0.0265
 1328SOL    HW115443   1.109   2.568   3.256 -3.0552  2.2478  0.1986
 1328SOL    HW215444   1.208   2.546   3.367 -0.7471 -0.0627  0.2326
 1329SOL     OW15445   2.538   4.082   1.758  0.0819  0.3787 -0.4220
 1329SOL    HW115446   2.597   4.090   1.834 -2.7843 -1.0604  1.9603
 1329SOL    HW215447   2.476   4.016   1.789  0.2148  0.1024 -0.7457
 1330SOL     OW15448   3.941   2.399  13.784 -0.1796 -0.4244 -0.3669
 1330SOL    HW115449   3.953   2.376  13.692 -0.7015 -0.6144 -0.3888
 1330SOL    HW215450   3.848   2.382  13.800 -0.3349  1.4192  0.6001
 1331SOL     OW15451   1.068   1.853   5.476  0.2880  0.5631  0.1391
 1331SOL    HW115452   0.982   1.872   5.438  0.1426 -1.8348 -0.7665
 1331SOL    HW215453   1.037   1.821   5.560  0.4569  2.1137  0.7814
 1332SOL     OW15454   1.162   0.502  17.464  0.3509 -0.2138 -0.5859
 1332SOL    HW115455   1.218   0.572  17.431  1.0049  1.4501  3.9891
 1332SOL    HW215456   1.148   0.538  17.552  0.6916 -1.1213 -0.1664
 1333SOL     OW15457   1.295   1.635   0.299  0.5033 -0.2488  0.4997
 1333SOL    HW115458   1.212   1.634   0.250 -0.0119 -0.6909  1.3858
 1333SOL    HW215459   1.282   1.715   0.349 -1.3002 -0.5567  0.5261
 1334SOL     OW15460   2.349   3.389   1.880 -0.6324 -0.2704 -0.7412
 1334SOL    HW115461   2.401   3.328   1.933 -1.0359  0.4529  0.4550
 1334SOL    HW215462   2.398   3.381   1.797 -0.7321  1.3596 -0.9589
 1335SOL     OW15463   2.789   2.835   8.106  0.2283  0.0458  0.0810
 1335SOL    HW115464   2.708   2.851   8.058  1.0170 -0.4348 -1.4107
 1335SOL    HW215465   2.763   2.755   8.151 -1.5772  1.1275  1.0035
 1336SOL     OW15466   1.737   2.417   8.293 -0.1202  0.0809 -0.5847
 1336SOL    HW115467   1.665   2.361   8.323  1.8979 -1.1564  1.9440
 1336SOL    HW215468   1.736   2.402   8.198 -0.3228  1.1955 -0.7544
 1337SOL     OW15469   0.559   3.360   0.161 -0.4090 -0.2861  0.0045
 1337SOL    HW115470   0.472   3.372   0.200 -0.2337 -2.4602  1.0000
 1337SOL    HW215471   0.569   3.447   0.121 -0.6564 -1.0541 -1.7543
 1338SOL     OW15472   1.104   0.347   7.361 -0.4614  0.5279 -0.2140
 1338SOL    HW115473   1.112   0.260   7.322 -1.4757 -0.3297  1.4767
 1338SOL    HW215474   1.146   0.339   7.447 -1.9233 -0.3842  0.4068
 1339SOL     OW15475   4.115   4.378   8.025 -0.5220  0.3855 -0.2981
 1339SOL    HW115476   4.132   4.403   8.116  0.2267 -0.9316 -0.0669
 1339SOL    HW215477   4.023   4.355   8.028 -0.3998  0.0488  1.3600
 1340SOL     OW15478   1.280   4.093  11.769  0.1943 -0.4107  0.2823
 1340SOL    HW115479   1.290   4.010  11.814 -1.9519 -0.8588 -0.0681
 1340SOL    HW215480   1.234   4.068  11.689  0.4014 -0.0083  0.0339
 1341SOL     OW15481   0.529   1.503   2.783 -0.2884 -0.0058  0.1157
 1341SOL    HW115482   0.569   1.589   2.796  0.3360 -0.3512  0.4526
 1341SOL    HW215483   0.438   1.524   2.761 -0.7298 -0.4075  1.6048
 1342SOL     OW15484   2.605   0.181   7.256  0.1561 -0.4821 -0.1825
 1342SOL    HW115485   2.697   0.172   7.282  0.3395  2.1473  0.1108
 1342SOL    HW215486   2.568   0.118   7.318  0.6575  0.4759  1.0892
 1343SOL     OW15487   1.357   2.418   4.565 -0.2506 -0.0387  0.0487
 1343SOL    HW115488   1.323   2.351   4.505 -0.8083 -0.3044  0.6556
 1343SOL    HW215489   1.385   2.362   4.638 -5.0813  0.0497  1.9525
 1344SOL     OW15490   2.572   4.050   9.746 -0.3838 -0.3660  0.2134
 1344SOL    HW115491   2.561   4.027   9.654 -0.5754  1.9752 -0.3541
 1344SOL    HW215492   2.521   3.988   9.798 -2.8269  1.0860 -0.4552
 1345SOL     OW15493   3.550   1.981  17.293 -0.1076  0.8255 -0.1303
 1345SOL    HW115494   3.496   1.967  17.370  1.7378 -1.9768  0.6389
 1345SOL    HW215495   3.630   1.929  17.305 -0.3598  0.5174  0.2184
 1346SOL     OW15496   4.092   3.861   7.493  0.0430 -0.1229 -0.6448
 1346SOL    HW115497   4.059   3.797   7.557 -0.7621  1.2816  0.3627
 1346SOL    HW215498   4.013   3.914   7.479 -0.4005 -0.4513  0.5434
 1347SOL     OW15499   2.228   1.422  14.053  0.2467  0.4576 -0.4545
 1347SOL    HW115500   2.243   1.340  14.101  1.6065  0.6818 -0.4841
 1347SOL    HW215501   2.309   1.474  14.048  0.5293 -0.0508 -1.2383
 1348SOL     OW15502   3.679   0.691  14.286  0.1124 -0.3225 -0.8225
 1348SOL    HW115503   3.716   0.703  14.373  0.6276  1.5928 -1.3054
 1348SOL    HW215504   3.683   0.780  14.250  0.0408 -0.5630 -1.4290
 1349SOL     OW15505   1.016   1.747   5.737  0.4118  0.0210  0.4686
 1349SOL    HW115506   1.070   1.774   5.811  0.3112  0.3057  0.4379
 1349SOL    HW215507   0.938   1.714   5.781 -1.1886  1.6315 -1.1338
 1350SOL     OW15508   3.395   1.389   4.125 -0.1038  0.6613  0.0720
 1350SOL    HW115509   3.354   1.343   4.197 -1.2435 -0.0434 -1.0181
 1350SOL    HW215510   3.323   1.450   4.110  0.7061  0.8069 -3.3976
 1351SOL     OW15511   0.312   1.917  15.444  0.0341 -0.2259 -0.2661
 1351SOL    HW115512   0.382   1.980  15.429 -1.7439  1.8531  0.1601
 1351SOL    HW215513   0.329   1.899  15.536  2.0523 -0.6938 -0.7359
 1352SOL     OW15514   2.720   2.539   8.552  0.1519  0.2797 -0.1405
 1352SOL    HW115515   2.693   2.610   8.610 -0.9961  0.5429 -0.9806
 1352SOL    HW215516   2.645   2.483   8.573  1.1480 -0.6693  0.9093
 1353SOL     OW15517   3.104   0.107   4.101 -0.2846 -0.1214  0.7606
 1353SOL    HW115518   3.192   0.128   4.133  0.5717 -1.5734 -0.6589
 1353SOL    HW215519   3.107   0.142   4.012 -0.9628 -0.1234  0.7369
 1354SOL     OW15520   2.478   0.434   3.033 -0.1802  0.1921 -0.3520
 1354SOL    HW115521   2.514   0.347   3.019 -2.2680 -0.4781 -1.5436
 1354SOL    HW215522   2.393   0.409   3.069  0.9060  1.2244  2.8808
 1355SOL     OW15523   4.158   0.658   2.119  0.2433  0.1046  0.5749
 1355SOL    HW115524   4.179   0.703   2.037 -0.9350 -1.5265 -0.6196
 1355SOL    HW215525   4.084   0.611   2.081  0.1539 -0.0373  0.9270
 1356SOL     OW15526   4.613   0.249   6.191  0.0071  0.3657  0.2700
 1356SOL    HW115527   4.587   0.171   6.142  1.0678 -2.0539  3.5899
 1356SOL    HW215528   4.676   0.288   6.130 -1.9144  1.1931 -1.2004
 1357SOL     OW15529   1.455   3.145  15.287  0.2499 -0.4836 -0.1797
 1357SOL    HW115530   1.407   3.227  15.285 -0.0820 -0.6531  0.9743
 1357SOL    HW215531   1.476   3.121  15.196 -1.8341 -1.2410 -0.4588
 1358SOL     OW15532   3.247   1.039   8.307  0.7962 -0.0704  0.4933
 1358SOL    HW115533   3.246   1.111   8.245  0.6457 -0.8286 -0.3776
 1358SOL    HW215534   3.332   1.042   8.352  0.4150  0.2567  1.2030
 1359SOL     OW15535   0.040   1.198   5.701 -0.3469 -0.2501  0.1880
 1359SOL    HW115536   0.096   1.128   5.736 -0.3015 -1.3200 -2.0626
 1359SOL    HW215537   0.002   1.224   5.785 -0.9498 -0.4925 -0.0054
 1360SOL     OW15538   2.911   1.703   8.914 -0.3592 -0.3267  0.2968
 1360SOL    HW115539   2.993   1.671   8.878 -0.0897  1.3540 -0.5995
 1360SOL    HW215540   2.916   1.658   8.999  1.1569  0.3515  0.5601
 1361SOL     OW15541   0.627   2.807   4.144  0.1539  0.1075 -0.2007
 1361SOL    HW115542   0.652   2.740   4.081 -1.4698 -0.6623 -0.0411
 1361SOL    HW215543   0.676   2.774   4.219 -0.4479  2.2502  1.1363
 1362SOL     OW15544   1.316   1.354  16.668 -0.0530  0.6760  0.1067
 1362SOL    HW115545   1.383   1.406  16.622 -0.9283  0.8730 -0.9559
 1362SOL    HW215546   1.299   1.295  16.594 -2.4367 -0.8799  1.9051
 1363SOL     OW15547   3.695   2.064   4.183 -0.1675 -0.2754  0.2570
 1363SOL    HW115548   3.669   2.084   4.273 -2.9686  0.8874 -0.8184
 1363SOL    HW215549   3.614   2.092   4.140  0.3639 -0.3841 -0.7921
 1364SOL     OW15550   3.120   2.063   6.327 -0.2559  0.0206 -0.1882
 1364SOL    HW115551   3.191   2.021   6.376 -1.2999  0.3028  1.5637
 1364SOL    HW215552   3.160   2.149   6.314 -3.8646  1.7140  0.0146
 1365SOL     OW15553   1.625   0.218   4.111 -1.0275  0.2262 -0.5269
 1365SOL    HW115554   1.690   0.285   4.131  0.8381 -1.8684  0.4621
 1365SOL    HW215555   1.541   0.264   4.107 -1.1471 -0.0292 -0.9567
 1366SOL     OW15556   4.563   2.452  15.448 -0.1340 -0.0396  1.1117
 1366SOL    HW115557   4.479   2.482  15.482 -0.2030 -0.2252  1.1069
 1366SOL    HW215558   4.595   2.526  15.396  2.8543 -3.6458 -2.2084
 1367SOL     OW15559   4.668   1.444   9.156  0.3449  0.0731 -0.0380
 1367SOL    HW115560   4.665   1.359   9.200  1.1342 -0.9044 -1.8738
 1367SOL    HW215561   4.714   1.498   9.220 -0.7022 -1.0720  1.6505
 1368SOL     OW15562   4.317   3.498   3.966 -0.6451 -0.1537 -0.2753
 1368SOL    HW115563   4.232   3.472   3.931 -1.1176  0.8313  0.1290
 1368SOL    HW215564   4.356   3.417   4.000  0.4049 -0.3358 -1.8851
 1369SOL     OW15565   1.384   2.027   9.380  0.0099  0.7301 -0.3563
 1369SOL    HW115566   1.478   2.046   9.379  0.4546 -1.4115  1.3116
 1369SOL    HW215567   1.333   2.086   9.324 -1.2770 -1.0240 -1.0271
 1370SOL     OW15568   3.756   1.410   3.286 -0.6075 -0.0480 -0.8610
 1370SOL    HW115569   3.698   1.366   3.347  0.3866  0.3387  0.3640
 1370SOL    HW215570   3.701   1.468   3.233 -2.1251  0.6691  1.5225
 1371SOL     OW15571   0.703   3.562   3.962 -0.3208  0.1341  0.2904
 1371SOL    HW115572   0.614   3.572   3.927  0.5514  1.0868 -1.6559
 1371SOL    HW215573   0.688   3.571   4.056  1.6632  0.3124  0.5867
 1372SOL     OW15574   1.592   1.684  11.937 -0.1215  0.2279  0.0551
 1372SOL    HW115575   1.547   1.685  12.021  0.6988 -1.5628  0.5213
 1372SOL    HW215576   1.634   1.598  11.947  0.3937  0.3229 -1.2187
 1373SOL     OW15577   2.313   2.741   7.937  0.0051  0.0654 -0.3100
 1373SOL    HW115578   2.273   2.671   7.988 -0.4546  1.4096  1.1877
 1373SOL    HW215579   2.241   2.780   7.888  0.1434  0.4998 -0.1649
 1374SOL     OW15580   2.494   3.557   6.855  0.2032 -0.1554  0.1871
 1374SOL    HW115581   2.589   3.566   6.851  0.0955  1.1466  0.3256
 1374SOL    HW215582   2.470   3.593   6.941 -0.3429 -1.6273  0.6416
 1375SOL     OW15583   0.182   2.107   0.495 -0.0462 -0.1961  0.0567
 1375SOL    HW115584   0.114   2.095   0.429 -2.6608 -1.5267  2.9776
 1375SOL    HW215585   0.256   2.144   0.447  1.3112 -0.7501  1.7064
 1376SOL     OW15586   0.191   2.193   9.647  0.4626  0.1151 -0.1056
 1376SOL    HW115587   0.126   2.254   9.683 -0.4390 -1.1338  0.3998
 1376SOL    HW215588   0.178   2.194   9.552  0.0574 -3.7636 -0.0761
 1377SOL     OW15589   4.366   0.385   2.458  0.0062 -0.1241  0.2687
 1377SOL    HW115590   4.319   0.322   2.513 -0.5270  0.5089  0.5223
 1377SOL    HW215591   4.334   0.364   2.370  0.3730 -0.8349  0.3040
 1378SOL     OW15592   4.638   3.221   2.704 -0.2483  0.1619 -0.3813
 1378SOL    HW115593   4.549   3.248   2.728  0.1672  1.1398  0.0699
 1378SOL    HW215594   4.626   3.182   2.618 -1.9970 -0.6938  0.2521
 1379SOL     OW15595   4.439   0.168  14.493 -0.1316 -0.0244  0.3876
 1379SOL    HW115596   4.477   0.083  14.474  0.0654  0.1925 -0.1692
 1379SOL    HW215597   4.515   0.223  14.507 -0.5043  0.1896  1.5904
 1380SOL     OW15598   4.475   3.827   5.029  0.3334  0.1475 -0.0616
 1380SOL    HW115599   4.484   3.886   4.954  0.5090 -0.6762 -0.6889
 1380SOL    HW215600   4.466   3.745   4.980  1.3027  1.1845 -1.9609
 1381SOL     OW15601   0.319   4.118   9.882 -0.0378 -0.3059 -0.4689
 1381SOL    HW115602   0.403   4.139   9.924 -0.5771 -1.3404  1.1240
 1381SOL    HW215603   0.318   4.183   9.812  1.9958 -0.4881 -0.6802
 1382SOL     OW15604   1.321   3.632   7.613 -0.3156 -0.2138 -0.2800
 1382SOL    HW115605   1.374   3.557   7.586 -1.6792 -0.8828 -1.0994
 1382SOL    HW215606   1.328   3.699   7.544  1.1724  0.6912  0.7502
 1383SOL     OW15607   3.413   1.042   2.887 -0.3665  0.3710  0.6900
 1383SOL    HW115608   3.389   0.999   2.968 -0.2011  2.0471  1.6240
 1383SOL    HW215609   3.492   1.089   2.914  0.2979 -0.5633  0.3675
 1384SOL     OW15610   2.324   2.401  13.385 -0.2937 -0.4042 -0.7233
 1384SOL    HW115611   2.260   2.382  13.454 -0.0400  0.1624 -0.3268
 1384SOL    HW215612   2.385   2.458  13.431  0.9716 -1.7251 -0.7733
 1385SOL     OW15613   3.379   0.972   8.871 -0.6044  0.7615 -0.5599
 1385SOL    HW115614   3.400   1.011   8.955 -1.2914  0.5020 -0.2645
 1385SOL    HW215615   3.433   1.028   8.816  1.5144 -1.3849 -0.6685
 1386SOL     OW15616   3.990   1.367   1.224  0.0280 -0.3436 -0.4894
 1386SOL    HW115617   3.996   1.323   1.309 -1.1816 -1.8414 -1.1926
 1386SOL    HW215618   4.069   1.325   1.190 -0.2366 -0.7518 -0.6011
 1387SOL     OW15619   0.459   4.060  12.293 -0.3751  0.1706 -0.0469
 1387SOL    HW115620   0.449   4.140  12.344 -1.3935 -0.2406  0.3828
 1387SOL    HW215621   0.390   4.068  12.227  0.6808 -1.7768 -1.3981
 1388SOL     OW15622   3.713   1.567  12.254 -0.2940  0.2300 -0.4964
 1388SOL    HW115623   3.693   1.533  12.341  1.4476  0.7761  0.1261
 1388SOL    HW215624   3.804   1.541  12.241 -0.9273 -1.5825 -1.2339
 1389SOL     OW15625   4.079   2.443  14.395 -0.2288 -0.0541 -0.1049
 1389SOL    HW115626   4.049   2.372  14.339  1.3724  1.3548 -2.7543
 1389SOL    HW215627   4.118   2.400  14.471 -0.1323 -0.0201 -0.1349
 1390SOL     OW15628   0.209   2.570   8.260  0.1318  0.6134 -0.2891
 1390SOL    HW115629   0.143   2.577   8.329  0.8832  0.2389  0.4749
 1390SOL    HW215630   0.192   2.650   8.211  1.6789  3.2477  3.4307
 1391SOL     OW15631   1.540   3.462   5.741  0.3327  0.1318 -0.0629
 1391SOL    HW115632   1.503   3.457   5.829  0.7157  0.2469  0.1043
 1391SOL    HW215633   1.486   3.538   5.720 -0.0558  0.2642  1.4665
 1392SOL     OW15634   1.750   0.921   6.001 -0.6079 -0.0370  0.0629
 1392SOL    HW115635   1.806   0.910   6.078 -1.2495  0.7539  0.6402
 1392SOL    HW215636   1.673   0.955   6.048  0.7073  2.1640  0.6132
 1393SOL     OW15637   1.663   3.895   2.266  0.1290  0.5746 -0.1303
 1393SOL    HW115638   1.655   3.964   2.200  0.3406  0.7113 -0.0152
 1393SOL    HW215639   1.609   3.930   2.336 -0.7884 -2.5020  0.6821
 1394SOL     OW15640   1.842   2.935   1.559 -0.0772 -0.0647 -0.0134
 1394SOL    HW115641   1.767   2.993   1.545  0.3426  0.2631 -0.9170
 1394SOL    HW215642   1.904   3.000   1.593 -0.0542 -0.3358  0.4657
 1395SOL     OW15643   3.755   0.092  14.290  0.4699 -0.2247 -0.0914
 1395SOL    HW115644   3.757   0.089  14.195 -1.5303  0.2503 -0.1407
 1395SOL    HW215645   3.770   0.002  14.321 -0.9038 -0.3321  0.2603
 1396SOL     OW15646   3.572   1.638  17.001  0.0804 -0.0795  0.0177
 1396SOL    HW115647   3.650   1.632  16.945  0.0351  2.1165 -0.2911
 1396SOL    HW215648   3.570   1.549  17.034  0.2713 -0.7202 -1.6870
 1397SOL     OW15649   0.792   4.245   9.364 -0.7703  0.2676  0.1586
 1397SOL    HW115650   0.765   4.158   9.394 -2.4646  0.5158 -0.6555
 1397SOL    HW215651   0.743   4.263   9.284 -1.4585 -1.7287  0.1270
 1398SOL     OW15652   1.790   0.967   7.698  0.1645  0.4478  0.8046
 1398SOL    HW115653   1.769   0.894   7.639 -0.5397 -1.0495  2.9163
 1398SOL    HW215654   1.703   1.007   7.698 -0.4845 -0.9355 -2.0015
 1399SOL     OW15655   2.694   3.302   0.149  0.3611 -0.2743  0.9542
 1399SOL    HW115656   2.640   3.379   0.132 -1.3131 -2.1584 -2.2293
 1399SOL    HW215657   2.782   3.334   0.128 -0.9952  0.8659 -2.9855
 1400SOL     OW15658   3.749   2.913   9.632 -0.0623 -0.4465  0.3010
 1400SOL    HW115659   3.829   2.860   9.631  1.1559  1.4085 -0.1144
 1400SOL    HW215660   3.705   2.857   9.568 -1.8974 -0.1076  1.2754
 1401SOL     OW15661   3.689   1.572   5.275  0.8028  0.3897 -0.3636
 1401SOL    HW115662   3.766   1.585   5.220  0.4911  0.0446 -0.8759
 1401SOL    HW215663   3.684   1.476   5.270 -0.3206  0.3615  1.1258
 1402SOL     OW15664   0.268   2.429  16.980  0.1059  0.6535  0.3992
 1402SOL    HW115665   0.250   2.517  17.014  0.8431  0.5724  0.9905
 1402SOL    HW215666   0.207   2.422  16.906 -0.3897 -1.2437  0.9810
 1403SOL     OW15667   3.786   1.793   4.526 -0.3131  0.3807 -0.1783
 1403SOL    HW115668   3.787   1.876   4.479 -0.4462  0.7841  0.5271
 1403SOL    HW215669   3.776   1.726   4.458  1.9712 -1.1870  1.0413
 1404SOL     OW15670   1.507   0.727   0.463 -0.3150 -0.1888 -0.3377
 1404SOL    HW115671   1.530   0.818   0.443  1.8792 -0.4122  1.1407
 1404SOL    HW215672   1.442   0.717   0.394 -2.6305 -1.6538  2.0544
 1405SOL     OW15673   2.673   2.149   8.482  0.0954 -0.0168  0.1042
 1405SOL    HW115674   2.607   2.081   8.469  0.2293 -0.2043  0.4039
 1405SOL    HW215675   2.724   2.152   8.401  0.5735  1.6898  0.4584
 1406SOL     OW15676   0.549   2.106  17.102  0.1687 -0.1735  0.6235
 1406SOL    HW115677   0.466   2.154  17.111  0.3141 -0.2397  2.3799
 1406SOL    HW215678   0.521   2.041  17.038  1.0477  0.3997 -0.3429
 1407SOL     OW15679   2.379   0.106   3.741  0.0999 -0.1815  0.4203
 1407SOL    HW115680   2.414   0.194   3.753  0.8601  0.0629 -3.7082
 1407SOL    HW215681   2.460   0.074   3.703  0.7313  1.2169  0.6097
 1408SOL     OW15682   0.546   1.628  10.152  0.0002 -0.5464  0.1690
 1408SOL    HW115683   0.626   1.613  10.103  1.1259 -0.3079  1.9521
 1408SOL    HW215684   0.549   1.542  10.194  1.1703 -0.4149  0.3334
 1409SOL     OW15685   1.380   0.471  12.745  0.6181 -0.4859 -0.4465
 1409SOL    HW115686   1.314   0.489  12.812  1.3516  1.9113 -0.3735
 1409SOL    HW215687   1.334   0.402  12.699  0.3066 -0.1090 -0.6986
 1410SOL     OW15688   4.718   3.834   8.300  0.3154 -0.5619  0.6940
 1410SOL    HW115689   0.081   3.794   8.286  1.3608  1.8238  0.1772
 1410SOL    HW215690   0.003   3.901   8.232 -1.0477 -1.4390 -0.3231
 1411SOL     OW15691   0.377   0.839   1.407 -0.1013  0.0707  0.0321
 1411SOL    HW115692   0.338   0.772   1.464 -0.8781  1.3149  0.9570
 1411SOL    HW215693   0.299   0.859   1.356  0.4660 -1.6985 -1.5411
 1412SOL     OW15694   0.552   1.252   6.423  0.4797  0.3942  0.1296
 1412SOL    HW115695   0.552   1.193   6.498 -0.7980 -0.2617 -0.3801
 1412SOL    HW215696   0.597   1.332   6.449  3.0099 -0.8709 -0.3495
 1413SOL     OW15697   3.645   0.534   0.553 -0.4317  0.0254 -0.0762
 1413SOL    HW115698   3.682   0.447   0.571  2.5371  1.3343  0.0995
 1413SOL    HW215699   3.553   0.523   0.577 -0.5036  0.6023 -0.0939
 1414SOL     OW15700   4.420   1.063  10.714  0.4460 -0.5069 -0.1951
 1414SOL    HW115701   4.467   1.144  10.733 -1.4773  0.5782 -0.0160
 1414SOL    HW215702   4.491   1.008  10.681  0.4920  0.8337 -2.4212
 1415SOL     OW15703   0.784   0.382   7.080 -0.1763 -0.5347  0.7144
 1415SOL    HW115704   0.691   0.364   7.093 -1.1727  3.0795 -1.3143
 1415SOL    HW215705   0.807   0.293   7.052 -0.4400 -0.6348  0.8207
 1416SOL     OW15706   3.020   3.504   6.818 -0.5651 -0.4480  0.1998
 1416SOL    HW115707   2.995   3.412   6.819  0.4665 -0.6762  2.9234
 1416SOL    HW215708   3.088   3.513   6.885 -1.7569 -1.9514  1.5928
 1417SOL     OW15709   4.238   4.350   7.792  0.2423 -0.1955  0.5417
 1417SOL    HW115710   4.194   4.368   7.875  0.2520  0.7515  0.3385
 1417SOL    HW215711   4.203   4.264   7.769 -0.9799  0.4319  0.0765
 1418SOL     OW15712   1.644   1.358   9.715  0.0398 -0.3227 -0.2502
 1418SOL    HW115713   1.680   1.409   9.642  1.5158 -1.2761 -0.1827
 1418SOL    HW215714   1.562   1.322   9.682  0.2328  1.6567 -2.8414
 1419SOL     OW15715   3.862   1.203   4.111 -0.0297 -0.7227  0.7444
 1419SOL    HW115716   3.905   1.274   4.063 -0.7951  0.3866  1.7172
 1419SOL    HW215717   3.776   1.202   4.070  1.8511 -1.8165 -3.2174
 1420SOL     OW15718   1.024   1.140  10.440 -0.0130 -0.1179  0.1932
 1420SOL    HW115719   0.995   1.073  10.502 -0.9807 -0.3592 -0.5135
 1420SOL    HW215720   0.985   1.217  10.481 -1.0366 -1.9670  2.6454
 1421SOL     OW15721   1.363   0.728   0.241  0.1117 -0.2345 -0.2144
 1421SOL    HW115722   1.283   0.778   0.227  0.0017 -0.9245 -2.0588
 1421SOL    HW215723   1.354   0.646   0.192  2.1564  0.1208 -1.2008
 1422SOL     OW15724   0.973   0.063  15.148 -0.1081 -0.4294 -0.0152
 1422SOL    HW115725   0.988   4.702  15.103 -0.1136 -1.5295  2.0303
 1422SOL    HW215726   0.904   0.113  15.104 -0.8241 -0.5108  1.0061
 1423SOL     OW15727   0.406   1.450   0.557  0.1041  0.2536  0.5147
 1423SOL    HW115728   0.365   1.482   0.637 -3.3183  1.3548 -1.6832
 1423SOL    HW215729   0.358   1.367   0.556  1.1501 -0.3511  0.3894
 1424SOL     OW15730   0.052   1.072   4.797 -0.1971 -0.2370  0.0851
 1424SOL    HW115731   0.081   0.980   4.793  3.6420  0.9546  0.0064
 1424SOL    HW215732   0.075   1.089   4.888 -2.6044  0.1045  0.6289
 1425SOL     OW15733   4.037   2.559  12.191  0.2220 -0.6020  0.2692
 1425SOL    HW115734   3.976   2.613  12.140 -0.1318  0.8650  2.2844
 1425SOL    HW215735   4.106   2.548  12.125 -0.1773 -2.9320  0.2077
 1426SOL     OW15736   1.359   0.320   2.263 -0.1950 -0.0411 -0.2070
 1426SOL    HW115737   1.291   0.387   2.276 -0.4754 -0.3748  0.0362
 1426SOL    HW215738   1.388   0.309   2.354 -0.6344  0.7032  0.0235
 1427SOL     OW15739   3.925   0.979   6.824 -0.2131  0.1335 -0.2668
 1427SOL    HW115740   3.900   1.063   6.862  0.7403  0.1325  0.3611
 1427SOL    HW215741   3.848   0.929   6.850  0.2385 -1.2269 -1.5535
 1428SOL     OW15742   4.286   0.519   7.927 -0.5215 -0.7437  0.0755
 1428SOL    HW115743   4.342   0.502   8.003  0.9721  1.2885 -0.5634
 1428SOL    HW215744   4.222   0.584   7.954 -1.0237 -1.5068  0.6919
 1429SOL     OW15745   0.811   3.790   7.020  0.3360  0.2055 -0.0910
 1429SOL    HW115746   0.752   3.855   6.982  0.6262  0.3226 -0.3364
 1429SOL    HW215747   0.891   3.842   7.025  0.6950 -0.1716 -2.0903
 1430SOL     OW15748   4.344   2.436   6.455 -0.1118 -0.1208  0.1742
 1430SOL    HW115749   4.318   2.457   6.545  1.3669 -1.4231  0.9068
 1430SOL    HW215750   4.438   2.453   6.454 -0.1579  0.2604  1.5425
 1431SOL     OW15751   1.460   1.743   7.877  0.6499 -0.5557  0.0976
 1431SOL    HW115752   1.527   1.800   7.915 -0.2484 -1.2419  2.6601
 1431SOL    HW215753   1.432   1.800   7.805  2.3504 -0.2948 -0.3627
 1432SOL     OW15754   0.816   1.966   9.986  0.1090  0.2944  0.4763
 1432SOL    HW115755   0.875   2.041   9.995  0.6239 -0.0860  0.3126
 1432SOL    HW215756   0.789   1.955  10.076 -0.2040  0.4368  0.3976
 1433SOL     OW15757   2.864   4.375   2.410  0.3153  0.2409  0.1338
 1433SOL    HW115758   2.810   4.343   2.482 -1.9571 -0.1784 -1.7855
 1433SOL    HW215759   2.828   4.464   2.408  1.1919  0.6019  0.0844
 1434SOL     OW15760   4.111   3.623  10.925  0.3471  0.2736  0.1147
 1434SOL    HW115761   4.104   3.613  10.830  0.7842  0.1967  0.0931
 1434SOL    HW215762   4.059   3.547  10.952  1.3702  0.0532  1.4651
 1435SOL     OW15763   0.552   3.418   4.962 -0.3927  0.0705  0.0413
 1435SOL    HW115764   0.462   3.438   4.987 -0.2837  3.3633 -2.1619
 1435SOL    HW215765   0.586   3.383   5.044  0.9061  2.6973  0.6262
 1436SOL     OW15766   2.687   2.489   1.020 -0.3912  0.1554  0.0370
 1436SOL    HW115767   2.608   2.515   1.068  0.3239  2.4647 -0.0244
 1436SOL    HW215768   2.662   2.427   0.952  1.0628  0.9051 -1.1764
 1437SOL     OW15769   1.320   3.258   7.034  0.3183 -0.0798  0.2507
 1437SOL    HW115770   1.406   3.265   7.074  0.7246  0.7226 -0.7451
 1437SOL    HW215771   1.329   3.171   6.994  0.1586  0.0635 -0.1053
 1438SOL     OW15772   2.131   1.493   4.237  0.3922  0.4593 -0.1260
 1438SOL    HW115773   2.104   1.433   4.307  3.6108 -1.2250 -0.3208
 1438SOL    HW215774   2.199   1.538   4.286  1.1735 -0.0018 -0.7920
 1439SOL     OW15775   1.010   4.557   7.673 -0.3346 -0.0578 -0.1616
 1439SOL    HW115776   0.917   4.549   7.649 -0.1163 -0.4971 -0.8553
 1439SOL    HW215777   1.051   4.520   7.595 -1.1679  1.4366 -1.3101
 1440SOL     OW15778   0.421   2.408   1.577 -0.0581 -0.3020  0.1626
 1440SOL    HW115779   0.359   2.452   1.635 -1.6359 -2.5879  0.1929
 1440SOL    HW215780   0.358   2.367   1.519  1.0385 -0.0652 -1.2142
 1441SOL     OW15781   2.976   0.478   3.817  0.0401 -0.1875  0.1850
 1441SOL    HW115782   3.056   0.453   3.863 -0.4672 -1.3073  0.4912
 1441SOL    HW215783   2.984   0.572   3.828  0.0499 -0.1422 -0.2309
 1442SOL     OW15784   1.390   1.813   1.474  0.4679 -0.8430  0.3625
 1442SOL    HW115785   1.380   1.737   1.417  3.3665  0.5572 -2.0155
 1442SOL    HW215786   1.435   1.779   1.552  0.4538 -2.4945 -0.3641
 1443SOL     OW15787   4.351   3.753  10.134 -0.3319  0.4781 -0.6600
 1443SOL    HW115788   4.324   3.664  10.158 -0.8916  0.5741 -0.9296
 1443SOL    HW215789   4.287   3.768  10.064  0.2236 -0.0852 -1.2840
 1444SOL     OW15790   3.078   1.636   4.696  0.4741  0.0665 -0.3014
 1444SOL    HW115791   3.146   1.668   4.637  1.2520  0.2975  0.7117
 1444SOL    HW215792   3.109   1.675   4.778 -0.7283  0.0433  0.1627
 1445SOL     OW15793   3.822   0.536  11.304  0.3447 -0.3399 -0.4367
 1445SOL    HW115794   3.728   0.544  11.289 -0.0203 -1.8824  1.0926
 1445SOL    HW215795   3.837   0.443  11.287  3.2006  0.0465 -0.0648
 1446SOL     OW15796   0.807   2.125   2.860  0.1345  0.2043 -0.4384
 1446SOL    HW115797   0.722   2.087   2.836  0.2610 -0.9912  0.9940
 1446SOL    HW215798   0.787   2.218   2.857  1.5625  0.5193 -0.3844
 1447SOL     OW15799   2.232   0.561   7.413  0.0003 -0.7434  0.0916
 1447SOL    HW115800   2.230   0.466   7.424  0.6985 -0.8492 -0.6474
 1447SOL    HW215801   2.212   0.590   7.502 -2.1614  1.5413 -1.1208
 1448SOL     OW15802   1.045   0.620  13.887  0.0961 -0.3849 -0.1313
 1448SOL    HW115803   1.062   0.612  13.793 -1.4068 -0.2783 -0.4156
 1448SOL    HW215804   1.121   0.673  13.910 -0.6030 -0.3040  2.0250
 1449SOL     OW15805   4.288   1.553   6.196  0.1573 -0.0356 -0.4986
 1449SOL    HW115806   4.287   1.495   6.272 -1.1438  0.4900 -0.1067
 1449SOL    HW215807   4.375   1.592   6.193  0.9458 -1.7629 -0.2787
 1450SOL     OW15808   4.670   2.435   5.323 -0.1466 -0.3813  0.6566
 1450SOL    HW115809   4.669   2.527   5.294 -0.1781 -0.2500  1.0816
 1450SOL    HW215810   4.687   2.448   5.416 -0.7248 -0.4610  0.7699
 1451SOL     OW15811   0.653   3.717   9.129  0.8551  0.1438  0.6269
 1451SOL    HW115812   0.706   3.637   9.121  0.4685  0.1398 -2.0087
 1451SOL    HW215813   0.571   3.681   9.096  1.5409  0.8853 -1.8660
 1452SOL     OW15814   4.123   1.004   0.934  0.7482  0.4725 -0.4086
 1452SOL    HW115815   4.161   1.079   0.888 -0.4836  1.3189 -0.0071
 1452SOL    HW215816   4.193   0.938   0.933 -0.3086 -0.6512 -1.6403
 1453SOL     OW15817   0.627   1.103   9.914 -0.2778 -0.2883 -0.4519
 1453SOL    HW115818   0.721   1.112   9.901 -0.3994  0.3342 -0.9114
 1453SOL    HW215819   0.627   1.117  10.009 -2.2298  0.6467 -0.5683
 1454SOL     OW15820   2.794   3.542  16.436 -0.0954 -0.2410  0.3965
 1454SOL    HW115821   2.833   3.557  16.523 -0.3896 -1.1585  0.6846
 1454SOL    HW215822   2.846   3.597  16.378 -1.0137  0.2040 -0.0075
 1455SOL     OW15823   0.396   4.296   7.872 -0.2322  0.1832  0.3465
 1455SOL    HW115824   0.354   4.340   7.946  1.5096  0.3370  1.2465
 1455SOL    HW215825   0.315   4.272   7.828  1.2384 -1.5795 -1.4568
 1456SOL     OW15826   2.184   4.257  17.645  0.4642 -0.0672 -0.1757
 1456SOL    HW115827   2.116   4.196  17.674 -1.4928  3.7094  3.2191
 1456SOL    HW215828   2.235   4.194  17.594 -0.1826  1.0030 -2.1507
 1457SOL     OW15829   3.303   1.452   2.642  0.0001  0.0895 -0.1764
 1457SOL    HW115830   3.215   1.444   2.679 -0.1588 -0.4525 -0.6709
 1457SOL    HW215831   3.335   1.362   2.655  1.6773  0.2869 -2.9375
 1458SOL     OW15832   4.101   3.062   3.610  0.3302  0.8018  0.0859
 1458SOL    HW115833   4.020   3.012   3.604 -0.3402  1.8357  0.5953
 1458SOL    HW215834   4.124   3.050   3.702 -0.2088  1.9831  0.3746
 1459SOL     OW15835   4.342   3.511  10.554  0.1393 -0.5269 -0.3049
 1459SOL    HW115836   4.392   3.431  10.538  0.0616 -0.6282 -0.0398
 1459SOL    HW215837   4.261   3.466  10.579 -1.8618  1.7033 -2.7739
 1460SOL     OW15838   1.990   3.708   7.372 -0.4218 -0.5599 -0.6463
 1460SOL    HW115839   1.897   3.713   7.393 -0.8074  0.1924 -2.5262
 1460SOL    HW215840   2.017   3.666   7.454 -0.5666  1.9332  0.6823
 1461SOL     OW15841   1.934   2.354  17.522 -0.6309  0.5503 -1.0120
 1461SOL    HW115842   1.958   2.426  17.580 -1.9540 -1.0979  1.5810
 1461SOL    HW215843   1.875   2.309  17.583 -0.4977  2.7129  0.7022
 1462SOL     OW15844   0.139   1.301   6.618  0.2127  0.0903  0.3136
 1462SOL    HW115845   0.188   1.379   6.641  1.1609  0.5064 -3.0696
 1462SOL    HW215846   0.202   1.230   6.634  0.1378 -0.2107 -0.6885
 1463SOL     OW15847   1.175   3.279   6.707 -0.1826  0.2292 -0.4805
 1463SOL    HW115848   1.082   3.299   6.693 -0.7032 -1.4206  0.6055
 1463SOL    HW215849   1.157   3.186   6.721  1.3737  0.0311  0.2597
 1464SOL     OW15850   3.101   1.423   2.107  0.1490 -0.2163  0.1609
 1464SOL    HW115851   3.117   1.386   2.193 -1.6229  1.1522  1.0677
 1464SOL    HW215852   3.177   1.482   2.101  0.9711 -1.6501 -3.9514
 1465SOL     OW15853   1.510   2.775  17.509 -0.1145 -0.4493 -0.5486
 1465SOL    HW115854   1.582   2.809  17.456  0.6618  0.8685  1.3505
 1465SOL    HW215855   1.523   2.680  17.509  0.8203 -0.3250 -2.7856
 1466SOL     OW15856   4.052   2.203   5.698 -0.0182 -0.6532 -0.1096
 1466SOL    HW115857   4.115   2.238   5.635 -1.5860 -2.5076 -2.7160
 1466SOL    HW215858   4.100   2.138   5.751 -0.8613 -2.6499 -1.7712
 1467SOL     OW15859   3.498   2.766   9.107 -0.0566 -0.2430 -0.3256
 1467SOL    HW115860   3.436   2.694   9.092  2.4048 -2.3725 -0.1901
 1467SOL    HW215861   3.499   2.803   9.018 -0.0953 -0.1867 -0.3026
 1468SOL     OW15862   0.167   0.229   3.978  0.3435  0.8815  0.2371
 1468SOL    HW115863   0.096   0.265   3.925 -0.7823 -1.5507  0.0987
 1468SOL    HW215864   0.142   0.138   3.993  1.2113  0.4007 -1.2504
 1469SOL     OW15865   0.438   0.521   9.651  0.8696  0.9954  0.4119
 1469SOL    HW115866   0.369   0.455   9.657 -0.3182  2.2700  0.6518
 1469SOL    HW215867   0.393   0.604   9.658 -0.2029  0.0994  4.1130
 1470SOL     OW15868   3.687   4.190   4.290  0.5597  0.2341 -0.2772
 1470SOL    HW115869   3.776   4.194   4.324  1.0392  1.2206 -1.6554
 1470SOL    HW215870   3.675   4.282   4.268 -0.6636  0.1236 -0.0534
 1471SOL     OW15871   4.579   3.282   6.471  0.1830  0.2251  0.4101
 1471SOL    HW115872   4.544   3.201   6.436  0.3768  0.3645 -0.0980
 1471SOL    HW215873   4.512   3.346   6.449 -1.5279 -1.0735  1.8148
 1472SOL     OW15874   3.018   1.784   3.351 -0.6104  0.2326  0.0085
 1472SOL    HW115875   2.925   1.804   3.349 -1.0443 -1.4826  2.3157
 1472SOL    HW215876   3.063   1.854   3.304  1.5098 -1.2770 -0.2229
 1473SOL     OW15877   0.248   2.203   5.242  0.4315 -0.2276  0.2901
 1473SOL    HW115878   0.245   2.208   5.338  1.0041 -1.2356  0.3533
 1473SOL    HW215879   0.276   2.112   5.236 -0.9960 -0.7413  1.1672
 1474SOL     OW15880   1.149   4.279   6.407  0.2909 -0.0871  0.1861
 1474SOL    HW115881   1.172   4.265   6.499  0.5336  1.3160  0.3508
 1474SOL    HW215882   1.098   4.199   6.396 -0.6430  0.5376 -0.0177
 1475SOL     OW15883   0.870   2.963   5.736  0.2038  0.1301  0.5296
 1475SOL    HW115884   0.789   2.947   5.687  0.7485 -1.2940  0.1135
 1475SOL    HW215885   0.944   2.945   5.679  1.0373  2.8907  0.7520
 1476SOL     OW15886   0.172   3.113   7.839 -0.4825 -0.0146 -0.8123
 1476SOL    HW115887   0.196   3.146   7.925  1.8621 -0.3864 -1.3368
 1476SOL    HW215888   0.259   3.083   7.813 -0.1954  1.0508 -1.0477
 1477SOL     OW15889   2.830   0.725   4.395  0.0310  0.1053  0.0148
 1477SOL    HW115890   2.745   0.761   4.420 -1.3713 -1.1477 -3.0205
 1477SOL    HW215891   2.807   0.679   4.314 -0.7499 -0.9442  0.8290
 1478SOL     OW15892   3.897   1.807   5.916  0.5372 -0.1518 -0.0402
 1478SOL    HW115893   3.896   1.901   5.901  0.8347 -0.3340 -1.1764
 1478SOL    HW215894   3.961   1.806   5.988 -1.9625  0.8126  2.1867
 1479SOL     OW15895   2.793   0.452   7.297  0.5012 -0.3817  0.0006
 1479SOL    HW115896   2.843   0.403   7.232  1.1669  0.7663 -0.3508
 1479SOL    HW215897   2.759   0.385   7.357 -0.2028  0.7642  0.8911
 1480SOL     OW15898   0.810   3.757   1.079 -0.0873 -0.2105 -0.9978
 1480SOL    HW115899   0.891   3.707   1.086 -0.1950 -0.2966 -0.3903
 1480SOL    HW215900   0.834   3.819   1.010 -0.5458 -0.6179 -1.5256
 1481SOL     OW15901   2.914   2.295   5.351  0.4940 -0.1218  0.1057
 1481SOL    HW115902   2.904   2.200   5.344 -2.3868  0.0659  1.5631
 1481SOL    HW215903   3.009   2.302   5.362  0.5968  0.3959 -1.1608
 1482SOL     OW15904   3.199   2.534   3.639  0.7490 -0.0509  0.4750
 1482SOL    HW115905   3.109   2.548   3.610  1.3653  1.9248 -0.5525
 1482SOL    HW215906   3.192   2.466   3.705  1.5281 -0.0784  0.5304
 1483SOL     OW15907   1.901   3.140   5.727 -0.2757 -0.6902  0.0742
 1483SOL    HW115908   1.980   3.171   5.772  0.0417 -2.6382  0.8636
 1483SOL    HW215909   1.859   3.223   5.707  0.7846 -0.3937 -0.9107
 1484SOL     OW15910   2.219   4.108  16.814  0.1078  0.7183 -0.3193
 1484SOL    HW115911   2.277   4.032  16.814 -1.6881 -0.6284 -2.5253
 1484SOL    HW215912   2.239   4.140  16.726 -2.4913  0.1735 -1.1107
 1485SOL     OW15913   0.844   1.283   5.060 -0.3806  0.5522  0.4164
 1485SOL    HW115914   0.852   1.187   5.065 -0.7816  0.4180 -1.4083
 1485SOL    HW215915   0.935   1.314   5.060  0.2670 -1.3502 -0.5790
 1486SOL     OW15916   4.643   3.776   5.487 -0.0337 -0.1792 -0.3976
 1486SOL    HW115917   4.581   3.802   5.555 -1.5478 -0.2535 -1.7392
 1486SOL    HW215918   4.613   3.685   5.479 -0.1871 -0.1710  0.0981
 1487SOL     OW15919   1.423   0.036  14.635  0.0215  0.0231 -0.5687
 1487SOL    HW115920   1.412   0.015  14.727  0.3454  0.1637 -0.4975
 1487SOL    HW215921   1.435   4.672  14.596 -0.9884  0.1044 -1.0498
 1488SOL     OW15922   1.786   3.903  11.614  1.0053 -0.5415 -0.1470
 1488SOL    HW115923   1.767   3.870  11.702  0.6607  2.3187  0.8513
 1488SOL    HW215924   1.863   3.959  11.629  0.5714  0.4327 -1.5448
 1489SOL     OW15925   3.201   2.087   7.625  0.4907  1.0720  0.5593
 1489SOL    HW115926   3.275   2.102   7.683  0.9856  1.0996 -0.0834
 1489SOL    HW215927   3.127   2.082   7.686  0.2788  0.7731  0.2799
 1490SOL     OW15928   1.033   1.857   1.683 -0.2191 -0.2062  0.0683
 1490SOL    HW115929   1.091   1.787   1.713  3.3872  3.3938  1.5220
 1490SOL    HW215930   0.976   1.872   1.759  0.9726  2.5720  0.4019
 1491SOL     OW15931   2.401   3.460   8.613  0.0444  0.3608 -0.2000
 1491SOL    HW115932   2.401   3.365   8.601  0.5694 -0.0411  2.8488
 1491SOL    HW215933   2.310   3.486   8.621  1.3064  4.4076  1.1155
 1492SOL     OW15934   4.396   4.308  17.522  0.4729 -0.0799  0.2259
 1492SOL    HW115935   4.471   4.276  17.472  0.1273  1.4850 -1.2962
 1492SOL    HW215936   4.380   4.385  17.467  1.2990 -0.6054 -0.7457
 1493SOL     OW15937   3.934   2.471   5.488  0.6880 -0.7193  0.6136
 1493SOL    HW115938   3.972   2.453   5.402  1.3016  2.3525  0.2371
 1493SOL    HW215939   3.978   2.550   5.521 -1.6178  1.8081 -2.3778
 1494SOL     OW15940   2.053   1.891   4.123 -0.3815  0.1891 -0.3718
 1494SOL    HW115941   2.123   1.828   4.139 -1.0022 -0.1949  0.8126
 1494SOL    HW215942   2.103   1.973   4.128 -0.1592 -0.0346  1.0378
 1495SOL     OW15943   1.803   0.328   2.524  0.4737  0.8781 -0.5235
 1495SOL    HW115944   1.828   0.402   2.579  2.1963 -1.5912  2.0116
 1495SOL    HW215945   1.744   0.375   2.464  0.1792  0.1291 -0.8316
 1496SOL     OW15946   2.675   3.614   3.632 -0.7938  0.9668  0.4121
 1496SOL    HW115947   2.616   3.543   3.657 -0.4614  0.5890  0.1225
 1496SOL    HW215948   2.617   3.680   3.593 -0.7043  1.3332  0.9073
 1497SOL     OW15949   3.998   1.698  14.729 -0.2970 -0.2952 -0.4258
 1497SOL    HW115950   4.043   1.778  14.700 -0.3909  0.2193  0.8638
 1497SOL    HW215951   4.059   1.638  14.771 -1.0580  1.2741  2.9032
 1498SOL     OW15952   1.858   3.738   9.038 -0.6603 -0.0075  0.2668
 1498SOL    HW115953   1.892   3.779   9.117  0.1074  1.9360 -1.0905
 1498SOL    HW215954   1.792   3.804   9.016  0.8034  1.6265  0.8468
 1499SOL     OW15955   1.987   4.515   7.100  0.4468 -0.4335  0.4642
 1499SOL    HW115956   1.969   4.469   7.018  0.4509  0.6684 -0.1556
 1499SOL    HW215957   2.081   4.501   7.103  0.9022  1.9372 -1.9627
 1500SOL     OW15958   2.312   4.655   2.281 -0.1848 -0.1373 -0.0598
 1500SOL    HW115959   2.238   4.630   2.225 -0.3330  1.2551 -0.4953
 1500SOL    HW215960   2.325   4.586   2.346 -0.2135 -1.8882 -1.9152
 1501SOL     OW15961   3.192   3.649   0.899 -0.1941 -0.0339 -0.0260
 1501SOL    HW115962   3.160   3.602   0.976  1.3607  0.6329  1.0419
 1501SOL    HW215963   3.116   3.642   0.841  2.1895  0.3443 -3.2313
 1502SOL     OW15964   0.324   0.212  15.452  0.2666  0.2550 -0.1825
 1502SOL    HW115965   0.313   0.231  15.545 -0.3012 -3.1619  0.4237
 1502SOL    HW215966   0.418   0.217  15.435  0.7372  0.3086  2.4738
 1503SOL     OW15967   1.507   0.158  11.637 -0.3368 -0.4157 -0.5082
 1503SOL    HW115968   1.596   0.194  11.641 -0.2405 -0.7013 -0.1337
 1503SOL    HW215969   1.491   0.165  11.542 -0.9158 -0.1835 -0.3917
 1504SOL     OW15970   3.925   2.659   7.342  0.0888  0.1142  0.5549
 1504SOL    HW115971   3.926   2.747   7.306 -1.1993 -0.3896 -0.7401
 1504SOL    HW215972   3.848   2.618   7.302  0.2688 -1.7451  2.0779
 1505SOL     OW15973   4.680   0.344   1.692 -0.0196  0.1584 -0.1509
 1505SOL    HW115974   4.647   0.366   1.605 -1.0505  2.7530  0.8978
 1505SOL    HW215975   4.596   0.326   1.736 -0.1411  1.7261  0.2590
 1506SOL     OW15976   3.126   0.524  12.496 -0.1005 -0.3725  0.1076
 1506SOL    HW115977   3.209   0.544  12.452  0.2062 -1.8726  0.0054
 1506SOL    HW215978   3.093   0.447  12.449  0.0180 -1.2705  1.4933
 1507SOL     OW15979   3.050   1.940  17.355 -0.0538  0.0879  0.4526
 1507SOL    HW115980   3.064   1.906  17.267 -1.3821  0.7775 -0.0250
 1507SOL    HW215981   3.126   1.901  17.399  1.4315  1.2528 -1.0983
 1508SOL     OW15982   4.116   4.392  14.557 -0.7231  0.5364  0.1670
 1508SOL    HW115983   4.118   4.335  14.480  0.3744  3.6937 -2.1060
 1508SOL    HW215984   4.097   4.480  14.527  0.3022  0.4369 -0.7336
 1509SOL     OW15985   0.007   0.622   6.466  0.0773 -0.1961  0.8358
 1509SOL    HW115986   4.721   0.527   6.457 -0.9801 -0.3047  2.9680
 1509SOL    HW215987   4.667   0.640   6.536 -2.3313  1.8777 -1.8155
 1510SOL     OW15988   2.263   0.982   3.382 -0.0556 -0.4608  0.1364
 1510SOL    HW115989   2.321   0.986   3.306  0.1504 -0.2178  0.3057
 1510SOL    HW215990   2.324   0.983   3.455 -0.1748 -1.5503  0.2417
 1511SOL     OW15991   1.011   2.970  11.921 -0.0878 -0.3369  0.1369
 1511SOL    HW115992   1.031   2.974  11.827  0.6141  0.3287  0.3106
 1511SOL    HW215993   1.009   3.063  11.942 -2.9737 -0.3462 -0.1059
 1512SOL     OW15994   2.566   1.421   5.733 -0.2154 -0.0262 -0.7238
 1512SOL    HW115995   2.595   1.369   5.658 -1.1063  1.4849 -2.1266
 1512SOL    HW215996   2.553   1.348   5.794 -3.0192  0.5503 -0.6282
 1513SOL     OW15997   3.516   4.172   7.050  0.0332  0.4826 -0.3935
 1513SOL    HW115998   3.597   4.208   7.014  1.7353 -0.2919  2.6679
 1513SOL    HW215999   3.467   4.150   6.971 -1.5560 -3.4484  1.6975
 1514SOL     OW16000   0.100   1.893   8.021 -0.2048  0.2731  0.1950
 1514SOL    HW116001   0.096   1.972   7.967 -0.0683  0.8166  0.9797
 1514SOL    HW216002   0.178   1.920   8.069  0.9857 -2.1073 -0.4184
 1515SOL     OW16003   3.684   4.329   5.770  0.4596  0.5595  0.5491
 1515SOL    HW116004   3.704   4.410   5.724  1.2048 -1.2114 -2.3128
 1515SOL    HW216005   3.748   4.343   5.839 -0.7338  1.6206  1.4400
 1516SOL     OW16006   3.373   3.106   4.217 -0.1516  0.1432 -0.4114
 1516SOL    HW116007   3.341   3.182   4.266  2.2764  0.5467  0.5580
 1516SOL    HW216008   3.344   3.129   4.128  0.0158  0.6915 -0.3250
 1517SOL     OW16009   0.959   0.575   7.895 -0.1281 -0.2343 -0.2123
 1517SOL    HW116010   0.901   0.652   7.897 -0.3596 -0.4100 -0.2167
 1517SOL    HW216011   1.018   0.594   7.822  1.0977 -1.5206  0.4455
 1518SOL     OW16012   4.594   2.926  15.358 -0.3301 -0.3998 -0.3835
 1518SOL    HW116013   4.578   2.931  15.264 -1.7440 -0.3985 -0.1408
 1518SOL    HW216014   4.585   3.017  15.386  2.3135  0.2670 -1.6411
 1519SOL     OW16015   0.491   4.049   8.785  0.0132  0.5057 -0.1980
 1519SOL    HW116016   0.469   4.009   8.869 -0.1833  2.3462  0.6202
 1519SOL    HW216017   0.409   4.096   8.768  0.3806  2.0216  2.2067
 1520SOL     OW16018   0.988   2.246  14.174 -0.2444  0.4180  0.3410
 1520SOL    HW116019   0.896   2.263  14.152  0.0495  1.1056 -0.3753
 1520SOL    HW216020   1.010   2.324  14.226  1.9428 -0.3703  0.5813
 1521SOL     OW16021   4.655   1.665   8.843  0.2135 -0.3763 -0.2950
 1521SOL    HW116022   4.722   1.603   8.813  1.6281  0.8586  0.3268
 1521SOL    HW216023   4.687   1.729   8.780 -0.6309 -0.7501 -1.1076
 1522SOL     OW16024   1.967   2.538  10.541 -0.3368 -0.8659  0.6913
 1522SOL    HW116025   1.981   2.500  10.628 -0.1513  0.0627  1.0670
 1522SOL    HW216026   1.940   2.463  10.488  0.8176  0.5641 -1.9216
 1523SOL     OW16027   4.247   3.670  17.178 -0.8381  0.3417  0.0388
 1523SOL    HW116028   4.251   3.646  17.270  0.7647 -3.6001 -1.0787
 1523SOL    HW216029   4.189   3.602  17.144  0.8666  0.1683 -2.6153
 1524SOL     OW16030   1.149   1.530  16.423  0.0299  0.3306 -0.5706
 1524SOL    HW116031   1.196   1.447  16.419 -0.6731 -0.1189  0.3731
 1524SOL    HW216032   1.129   1.543  16.330  1.2707 -0.0424 -0.8847
 1525SOL     OW16033   3.183   4.670   9.213  0.4420 -0.2962  0.3506
 1525SOL    HW116034   3.095   4.648   9.182  2.1244 -0.9179 -3.9032
 1525SOL    HW216035   3.206   0.019   9.154  1.0400  0.1744  1.1670
 1526SOL     OW16036   3.085   0.242   3.480  0.3137  0.6570 -0.3401
 1526SOL    HW116037   3.118   0.260   3.568 -2.0802  1.5286  0.3843
 1526SOL    HW216038   3.001   0.286   3.490 -0.5965 -1.4583  1.1785
 1527SOL     OW16039   1.325   0.350  10.251 -0.1029 -0.0676 -0.1700
 1527SOL    HW116040   1.347   0.267  10.209 -1.9870 -0.4721 -0.3589
 1527SOL    HW216041   1.405   0.385  10.289  1.1473 -5.7023  2.3014
 1528SOL     OW16042   3.390   3.863  11.846  0.3870  0.2303 -0.2697
 1528SOL    HW116043   3.362   3.847  11.756 -1.1130 -3.0616  0.7990
 1528SOL    HW216044   3.345   3.788  11.886 -0.3128  0.8374  0.0952
 1529SOL     OW16045   0.610   3.010   5.674  0.1072  0.6743  0.5054
 1529SOL    HW116046   0.516   3.007   5.657  0.1354 -0.9201  0.5510
 1529SOL    HW216047   0.619   3.103   5.654  2.4925  0.2065 -0.6398
 1530SOL     OW16048   1.793   0.067   7.483 -0.3669 -0.3251 -0.5146
 1530SOL    HW116049   1.880   0.108   7.477  0.0433 -1.1918 -0.4057
 1530SOL    HW216050   1.745   0.114   7.414  1.2332  2.2753  0.1530
 1531SOL     OW16051   0.886   2.453   4.910  0.3901  0.3320 -0.3954
 1531SOL    HW116052   0.909   2.497   4.828  3.1326  0.4851  0.4419
 1531SOL    HW216053   0.807   2.494   4.944 -0.4861 -1.0350 -0.8092
 1532SOL     OW16054   2.245   2.846  15.669 -0.1002  0.4250 -0.6374
 1532SOL    HW116055   2.256   2.801  15.753 -1.8496  2.1321  0.4921
 1532SOL    HW216056   2.337   2.871  15.660  0.0096 -0.3447 -1.6205
 1533SOL     OW16057   4.456   0.168   3.952  0.1398 -0.0685 -0.5221
 1533SOL    HW116058   4.521   0.122   3.898 -0.3697 -0.6898 -0.6127
 1533SOL    HW216059   4.460   0.252   3.906  2.1511  0.0971 -0.0362
 1534SOL     OW16060   0.413   0.089   3.474 -0.3047  0.0085 -0.2950
 1534SOL    HW116061   0.394   0.032   3.548 -0.9916 -1.2520 -1.4339
 1534SOL    HW216062   0.509   0.083   3.470 -0.2508 -0.1291  1.1226
 1535SOL     OW16063   4.134   1.794   6.362 -0.0362 -0.2093 -1.2936
 1535SOL    HW116064   4.086   1.874   6.387 -0.7168 -1.2171  0.6519
 1535SOL    HW216065   4.084   1.729   6.411 -0.3767  0.1669 -1.1438
 1536SOL     OW16066   1.602   3.028   6.725  0.2742  0.1148  0.2192
 1536SOL    HW116067   1.542   2.999   6.656 -0.1256  0.5957  0.3698
 1536SOL    HW216068   1.563   3.112   6.748 -0.9177 -0.5695  0.6599
 1537SOL     OW16069   1.890   3.159   7.534 -0.1264  0.4467 -0.3531
 1537SOL    HW116070   1.960   3.224   7.527 -0.4631  0.8265 -0.1916
 1537SOL    HW216071   1.832   3.199   7.469  0.3903 -0.9452 -1.6513
 1538SOL     OW16072   1.629   1.378   7.623  0.2364 -0.2365 -0.0859
 1538SOL    HW116073   1.639   1.472   7.612 -1.5019 -0.0435  0.0118
 1538SOL    HW216074   1.603   1.365   7.715 -0.2244  0.9968 -0.0453
 1539SOL     OW16075   2.835   4.164   9.733  0.2440 -0.1616  0.1702
 1539SOL    HW116076   2.810   4.255   9.747 -3.1983 -0.7723 -2.1260
 1539SOL    HW216077   2.749   4.126   9.750  0.3307 -0.4834 -0.1324
 1540SOL     OW16078   0.527   3.728  11.353 -0.7077 -0.2608 -0.1378
 1540SOL    HW116079   0.464   3.657  11.359  1.1940 -1.8408  1.6658
 1540SOL    HW216080   0.581   3.694  11.282 -1.3432 -2.5367  0.4416
 1541SOL     OW16081   1.437   0.236   5.573 -0.5399  0.7235  0.3165
 1541SOL    HW116082   1.504   0.301   5.551  0.2682  0.5806  2.3557
 1541SOL    HW216083   1.359   0.289   5.587 -0.7514  0.4026  0.3457
 1542SOL     OW16084   2.515   2.154  10.595 -0.7141  0.2688  0.1084
 1542SOL    HW116085   2.585   2.218  10.582 -0.9766  0.6298  0.4914
 1542SOL    HW216086   2.539   2.087  10.530 -0.9849  1.0040 -0.7514
 1543SOL     OW16087   1.780   4.125   1.261 -0.0917  0.4428 -0.3483
 1543SOL    HW116088   1.723   4.143   1.336  0.0692 -0.2781 -0.0547
 1543SOL    HW216089   1.839   4.198   1.282 -1.4695  0.6176  2.9719
 1544SOL     OW16090   1.282   0.099   4.047  0.6011 -0.1693 -0.2248
 1544SOL    HW116091   1.320   0.159   4.111  0.1499 -2.1329  1.9146
 1544SOL    HW216092   1.321   0.012   4.060  4.2213  1.7855  1.9969
 1545SOL     OW16093   3.940   1.533   5.893  0.3109 -0.2545  0.0485
 1545SOL    HW116094   4.005   1.528   5.823 -2.0600  0.8747 -2.2833
 1545SOL    HW216095   3.927   1.627   5.905 -1.6383 -0.3253 -1.3444
 1546SOL     OW16096   0.526   1.893   9.098  0.0578 -0.0206  0.0346
 1546SOL    HW116097   0.535   1.929   9.187  3.0679 -0.3179 -0.1572
 1546SOL    HW216098   0.556   1.804   9.116  1.6496  0.1990 -1.5914
 1547SOL     OW16099   1.782   3.093  15.961  0.3430  0.0748  0.4192
 1547SOL    HW116100   1.738   3.148  15.896 -0.9648 -0.3754  0.9303
 1547SOL    HW216101   1.727   3.108  16.038 -1.6539 -1.7256 -0.6753
 1548SOL     OW16102   0.975   3.865   1.944  0.0640  0.3252  0.2379
 1548SOL    HW116103   1.069   3.849   1.933 -0.4728 -1.4016 -1.7354
 1548SOL    HW216104   0.942   3.776   1.949  0.3281  0.1073 -1.7785
 1549SOL     OW16105   3.757   2.904   9.230 -0.0100  0.1074  0.5387
 1549SOL    HW116106   3.713   2.859   9.302  0.4073  1.3175  1.5462
 1549SOL    HW216107   3.704   2.877   9.155 -0.6861 -1.6632  1.6651
 1550SOL     OW16108   4.451   2.066   8.143 -1.1508  0.3913  0.4339
 1550SOL    HW116109   4.521   2.011   8.178  0.5240  0.0789 -3.3635
 1550SOL    HW216110   4.404   2.096   8.220  0.3174 -1.0192  1.8724
 1551SOL     OW16111   2.002   3.145   0.010 -0.0859 -0.0604 -0.5812
 1551SOL    HW116112   2.020   3.187  17.618  1.7426 -0.5648 -0.4508
 1551SOL    HW216113   1.968   3.217   0.062  0.2021 -0.8275  0.6789
 1552SOL     OW16114   4.704   0.242  16.132  0.5973 -0.1064 -0.2769
 1552SOL    HW116115   0.045   0.311  16.113 -1.7668  1.8739 -0.9253
 1552SOL    HW216116   4.622   0.275  16.096  0.5342  0.8037  0.7181
 1553SOL     OW16117   3.408   2.388  11.708 -0.1162 -0.1037  0.1531
 1553SOL    HW116118   3.499   2.410  11.685 -1.3403  2.9120 -1.8889
 1553SOL    HW216119   3.379   2.363  11.620 -0.1956  1.7290 -0.3519
 1554SOL     OW16120   2.820   2.047   5.166  0.1163 -0.1221 -0.3290
 1554SOL    HW116121   2.903   2.013   5.132 -0.7549  0.0979 -2.6533
 1554SOL    HW216122   2.769   2.069   5.088  0.7174 -1.2655 -1.0310
 1555SOL     OW16123   3.000   4.409  10.936  0.0763  0.0676  0.0032
 1555SOL    HW116124   2.997   4.409  10.840 -1.6220  0.3502  0.0640
 1555SOL    HW216125   2.955   4.491  10.954  0.4316  0.4640 -0.9317
 1556SOL     OW16126   3.138   1.250   6.781 -0.4092 -0.5408 -0.5507
 1556SOL    HW116127   3.227   1.229   6.807 -0.5313  2.3155  2.1295
 1556SOL    HW216128   3.117   1.172   6.730  0.3549 -1.1162  0.0256
 1557SOL     OW16129   2.806   3.223   3.594  0.0963  1.0928 -0.6117
 1557SOL    HW116130   2.845   3.193   3.676  2.4593  1.5064 -1.5708
 1557SOL    HW216131   2.836   3.314   3.591  0.0515  1.1539  0.8125
 1558SOL     OW16132   3.025   2.578  12.935  0.2033 -0.2232  0.1211
 1558SOL    HW116133   2.980   2.595  12.852  0.3138 -1.7553 -0.2515
 1558SOL    HW216134   3.117   2.568  12.909  0.6549 -0.4276  1.8251
 1559SOL     OW16135   0.307   3.449   5.074 -0.3112  0.0503  0.0091
 1559SOL    HW116136   0.240   3.492   5.021 -1.0239  0.0284  0.8986
 1559SOL    HW216137   0.302   3.501   5.153  0.3641 -2.0358  1.4340
 1560SOL     OW16138   3.276   2.058   9.598  0.0469  0.7312  0.4526
 1560SOL    HW116139   3.372   2.061   9.600  0.1729 -2.4175 -0.1172
 1560SOL    HW216140   3.255   2.102   9.680 -3.1963  1.2982 -0.6801
 1561SOL     OW16141   1.274   1.445   4.190  0.2088  0.0371 -0.0007
 1561SOL    HW116142   1.183   1.416   4.187  0.6244 -1.1029 -1.5634
 1561SOL    HW216143   1.276   1.510   4.119 -0.5896  2.9342  2.6460
 1562SOL     OW16144   3.093   4.439   5.513  0.1641 -0.0445  0.0490
 1562SOL    HW116145   3.183   4.470   5.504 -0.5987  2.8704  2.3846
 1562SOL    HW216146   3.060   4.503   5.576 -0.5172 -0.0804 -0.2707
 1563SOL     OW16147   2.956   3.937   6.294 -0.1159  0.2785  0.3746
 1563SOL    HW116148   3.046   3.904   6.295  0.0340  0.6764 -0.5134
 1563SOL    HW216149   2.916   3.861   6.253 -1.3857 -0.2209  2.5015
 1564SOL     OW16150   1.768   1.535  14.611 -0.0021 -0.1099  0.1640
 1564SOL    HW116151   1.702   1.531  14.541  0.9339 -0.5715 -0.6918
 1564SOL    HW216152   1.798   1.445  14.608 -0.4471 -0.2441 -0.2967
 1565SOL     OW16153   3.852   1.805   7.158  0.0444 -0.0112 -0.3957
 1565SOL    HW116154   3.889   1.889   7.182 -1.7113  0.5098  0.4944
 1565SOL    HW216155   3.761   1.818   7.129  0.0210  0.1055 -0.2631
 1566SOL     OW16156   2.187   2.383   5.106 -0.3728 -0.2359  0.2358
 1566SOL    HW116157   2.175   2.348   5.018 -1.9229  1.1229 -0.1031
 1566SOL    HW216158   2.096   2.368   5.131 -0.3086  0.2036  0.7354
 1567SOL     OW16159   3.885   0.265  12.897 -0.1431 -0.7790 -0.1669
 1567SOL    HW116160   3.789   0.269  12.894  0.1005  4.2376 -0.5940
 1567SOL    HW216161   3.907   0.210  12.821  0.8390 -0.9886  0.2752
 1568SOL     OW16162   1.875   3.869   1.367  0.1519  0.4658 -0.4190
 1568SOL    HW116163   1.838   3.947   1.325  1.2397  0.3842 -1.5180
 1568SOL    HW216164   1.795   3.836   1.408  0.5972 -1.2522 -0.9149
 1569SOL     OW16165   0.322   2.552   6.955  0.3132 -0.3436 -0.1422
 1569SOL    HW116166   0.344   2.526   7.045 -1.0315  1.6444  0.7455
 1569SOL    HW216167   0.287   2.471   6.917 -0.5044  0.3709 -0.9150
 1570SOL     OW16168   1.805   1.734   4.851  0.2905  0.4471 -0.3611
 1570SOL    HW116169   1.744   1.743   4.778  0.2311  1.9994 -0.1353
 1570SOL    HW216170   1.842   1.823   4.858  0.3797  0.3454  0.4665
 1571SOL     OW16171   2.126   4.243   4.866 -0.3026 -0.2455 -0.0541
 1571SOL    HW116172   2.069   4.320   4.869 -1.9993 -1.4803 -0.5379
 1571SOL    HW216173   2.158   4.248   4.956 -0.6061  0.4185  0.0191
 1572SOL     OW16174   3.869   1.101   9.718 -0.2367  0.1218 -0.8081
 1572SOL    HW116175   3.858   1.193   9.693 -0.9231  0.9417  2.5151
 1572SOL    HW216176   3.881   1.096   9.813 -0.8239  2.2173 -0.6134
 1573SOL     OW16177   2.691   3.525   5.903  0.0885  0.5102  0.2310
 1573SOL    HW116178   2.777   3.543   5.866  0.0446 -0.8654 -0.5066
 1573SOL    HW216179   2.707   3.451   5.962 -1.1020  0.0375 -0.0518
 1574SOL     OW16180   2.054   4.034   5.936 -0.2212  0.1221 -0.5333
 1574SOL    HW116181   2.030   3.974   6.007 -1.7259  1.6791  0.2824
 1574SOL    HW216182   2.136   4.070   5.969  1.2454 -2.2222 -1.6275
 1575SOL     OW16183   4.331   2.841  13.633  0.1744 -0.2508  0.7328
 1575SOL    HW116184   4.341   2.935  13.617  1.1841 -0.8417 -2.0434
 1575SOL    HW216185   4.404   2.798  13.589 -0.8824 -0.4540 -0.7841
 1576SOL     OW16186   4.551   3.521   3.714 -0.1058  0.5586 -0.2924
 1576SOL    HW116187   4.521   3.601   3.756  0.0427  1.5016 -1.9668
 1576SOL    HW216188   4.502   3.525   3.631  0.2057  0.4279 -0.4837
 1577SOL     OW16189   3.630   3.823   8.879 -0.0495 -0.5826  0.8512
 1577SOL    HW116190   3.666   3.820   8.967 -2.4653  0.7129  1.8917
 1577SOL    HW216191   3.545   3.785   8.899  0.2795 -2.2469 -0.9032
 1578SOL     OW16192   3.891   0.073   5.683  0.1581  0.8993  0.0289
 1578SOL    HW116193   3.935   0.004   5.732  2.1170  0.1347 -2.8251
 1578SOL    HW216194   3.849   0.129   5.749 -0.5363 -2.8516  2.7547
 1579SOL     OW16195   3.414   4.377   5.806  0.4378  0.1086 -0.2528
 1579SOL    HW116196   3.509   4.363   5.811  0.5917  1.3611  0.2929
 1579SOL    HW216197   3.408   4.383   5.711 -1.5408  1.0807 -0.0722
 1580SOL     OW16198   1.867   3.915   5.397  0.1892  0.1449 -0.1393
 1580SOL    HW116199   1.956   3.907   5.431  0.7520  0.9464 -1.4359
 1580SOL    HW216200   1.872   4.005   5.365  0.3972 -0.1746 -1.0014
 1581SOL     OW16201   3.270   0.375   9.752  0.5107  0.1308 -0.6979
 1581SOL    HW116202   3.268   0.284   9.781 -1.5501 -0.4558 -2.6934
 1581SOL    HW216203   3.347   0.406   9.800  0.7378  1.3143 -1.8208
 1582SOL     OW16204   4.250   1.974   4.871  0.0342 -0.2168  0.3103
 1582SOL    HW116205   4.183   1.936   4.814  0.4857  1.9967 -1.6613
 1582SOL    HW216206   4.253   1.925   4.953 -0.4754 -0.3620  0.2419
 1583SOL     OW16207   1.479   2.699   3.624 -0.5859 -0.1393  0.2876
 1583SOL    HW116208   1.483   2.621   3.569 -0.2700  0.2668 -0.2657
 1583SOL    HW216209   1.480   2.775   3.566 -1.8363 -0.8669 -0.6802
 1584SOL     OW16210   3.034   1.081   7.232 -0.1466 -0.3005 -0.0488
 1584SOL    HW116211   3.028   1.161   7.179  0.2820 -1.4889 -1.8889
 1584SOL    HW216212   3.054   1.122   7.316 -0.6249 -3.2933  1.5207
 1585SOL     OW16213   1.427   1.084   1.273 -0.1942  0.0346 -0.4574
 1585SOL    HW116214   1.427   1.041   1.187 -3.0359 -2.9694  1.0745
 1585SOL    HW216215   1.482   1.159   1.249 -1.3702  0.3630 -2.1357
 1586SOL     OW16216   1.866   2.215   8.453 -0.0367  0.1499 -0.5481
 1586SOL    HW116217   1.777   2.189   8.430 -0.9061  1.1106  1.7803
 1586SOL    HW216218   1.853   2.284   8.518 -0.6216  0.1687 -0.6904
 1587SOL     OW16219   3.842   4.092   6.778  1.1542 -0.3468 -0.0010
 1587SOL    HW116220   3.872   4.097   6.687  1.0658  0.0445 -0.0073
 1587SOL    HW216221   3.764   4.037   6.767 -1.0433  2.8260 -0.1984
 1588SOL     OW16222   0.915   3.998   0.427 -0.0402  0.2177  0.0056
 1588SOL    HW116223   0.984   3.933   0.447 -0.3316  0.0746  0.5598
 1588SOL    HW216224   0.846   3.944   0.390  0.0232  0.0876  0.0737
 1589SOL     OW16225   0.703   1.699   2.003  0.2176  0.4563 -0.3725
 1589SOL    HW116226   0.761   1.641   2.050  0.2615 -0.7523 -1.9235
 1589SOL    HW216227   0.632   1.681   2.064  0.8123 -0.8059 -0.0712
 1590SOL     OW16228   0.428   1.170   2.112 -0.1621 -0.5827 -0.8546
 1590SOL    HW116229   0.388   1.195   2.029  0.7114  3.5239 -0.0824
 1590SOL    HW216230   0.392   1.085   2.136  1.5527 -0.9336  0.5589
 1591SOL     OW16231   2.481   1.190   5.861 -0.1137  0.3255  0.1123
 1591SOL    HW116232   2.442   1.102   5.853 -0.0093  0.0821  2.2795
 1591SOL    HW216233   2.566   1.173   5.901 -1.2003 -2.1950  1.3569
 1592SOL     OW16234   3.463   0.056   7.122 -0.0441  0.4165  0.3858
 1592SOL    HW116235   3.436   0.139   7.160 -0.5527 -0.0246  0.9763
 1592SOL    HW216236   3.405   0.050   7.046  1.5125  0.6143 -0.8476
 1593SOL     OW16237   0.989   4.409   9.583  0.1450  0.3551  0.3299
 1593SOL    HW116238   0.909   4.358   9.597  1.6479 -2.1880 -0.1667
 1593SOL    HW216239   0.943   4.469   9.524  1.2809 -0.2770 -1.1943
 1594SOL     OW16240   3.663   0.147   8.845 -0.2434 -0.2126 -0.2784
 1594SOL    HW116241   3.583   0.200   8.839 -0.3530 -0.2148  1.2876
 1594SOL    HW216242   3.718   0.218   8.811  0.0969 -0.5453 -0.4251
 1595SOL     OW16243   2.331   0.452   0.493 -0.4965 -0.0292  0.0908
 1595SOL    HW116244   2.245   0.493   0.489 -1.6014 -2.0002  3.7552
 1595SOL    HW216245   2.346   0.450   0.588 -3.5872 -2.6710  0.5235
 1596SOL     OW16246   4.283   2.139   8.337  0.2598  0.3462  0.1607
 1596SOL    HW116247   4.337   2.154   8.414  0.4895  2.4748 -0.4290
 1596SOL    HW216248   4.249   2.228   8.331  0.9139  0.5333 -0.7822
 1597SOL     OW16249   0.188   0.772   0.967  0.4134 -0.4151 -0.6930
 1597SOL    HW116250   0.174   0.763   1.062 -2.2662 -0.5855 -1.0966
 1597SOL    HW216251   0.098   0.798   0.947  0.4455 -0.7915 -1.3321
 1598SOL     OW16252   2.784   0.408   4.478 -0.0672  0.6444 -0.1381
 1598SOL    HW116253   2.879   0.405   4.488 -0.2280  1.2976  1.7165
 1598SOL    HW216254   2.752   0.396   4.567  2.3644 -1.3296  0.4784
 1599SOL     OW16255   1.867   2.948  10.445  0.0491  0.3104 -0.4453
 1599SOL    HW116256   1.864   3.021  10.382  3.0921 -0.1309 -1.1184
 1599SOL    HW216257   1.814   2.972  10.521  0.6485 -0.8601  0.3418
 1600SOL     OW16258   0.379   3.852   3.845 -0.1937 -0.7371  0.1668
 1600SOL    HW116259   0.321   3.777   3.830  2.2207 -2.3471 -1.0911
 1600SOL    HW216260   0.431   3.846   3.765 -2.8884 -0.5586 -1.5916
 1601SOL     OW16261   3.434   0.808   4.642 -0.3211 -0.1469 -0.1757
 1601SOL    HW116262   3.398   0.729   4.603 -0.5641  0.4633 -1.1867
 1601SOL    HW216263   3.478   0.776   4.720 -0.0610  0.6400  0.0085
 1602SOL     OW16264   0.204   0.868   6.410 -0.2944 -0.8287  0.4600
 1602SOL    HW116265   0.235   0.819   6.487  0.2848  1.7436  1.8667
 1602SOL    HW216266   0.117   0.900   6.437 -1.8663 -1.4060 -3.9961
 1603SOL     OW16267   0.132   3.054  16.197  0.2238 -0.2799  0.1368
 1603SOL    HW116268   0.199   3.062  16.264  0.5328  0.0098 -0.2066
 1603SOL    HW216269   0.166   3.109  16.126  2.8613 -0.1949  1.4871
 1604SOL     OW16270   2.581   2.793   8.388  0.0634  0.6301  0.1428
 1604SOL    HW116271   2.527   2.714   8.390 -1.6202  1.7562 -0.9949
 1604SOL    HW216272   2.657   2.756   8.342 -0.6317 -0.2223 -0.3105
 1605SOL     OW16273   0.810   2.154   3.152 -0.5539  0.2298  0.0078
 1605SOL    HW116274   0.727   2.113   3.175  0.2531 -1.6595 -0.4021
 1605SOL    HW216275   0.827   2.106   3.071  0.4355 -0.9738  0.9110
 1606SOL     OW16276   2.145   0.180   4.774 -0.2608  0.0634  0.2043
 1606SOL    HW116277   2.056   0.173   4.742 -0.5062  0.7664  0.7278
 1606SOL    HW216278   2.150   0.109   4.839  0.3066  0.1142  0.2183
 1607SOL     OW16279   4.327   4.314  10.594 -0.0058 -0.0723  0.1671
 1607SOL    HW116280   4.250   4.335  10.541 -1.4510 -1.9085  1.5306
 1607SOL    HW216281   4.380   4.393  10.591  0.9060 -0.6405  1.2960
 1608SOL     OW16282   3.982   1.658   9.713  0.1682 -0.1607  0.6201
 1608SOL    HW116283   3.903   1.687   9.758 -0.1955 -0.9105  0.4652
 1608SOL    HW216284   3.998   1.740   9.667  1.9345 -0.1329  1.2749
 1609SOL     OW16285   3.408   0.266   7.978  0.0392  0.4455  0.2656
 1609SOL    HW116286   3.319   0.293   8.001 -1.0068 -0.7186 -2.3598
 1609SOL    HW216287   3.396   0.173   7.995  0.5714  0.4436  0.6264
 1610SOL     OW16288   3.506   1.457   1.998  0.5745 -0.7434 -0.0569
 1610SOL    HW116289   3.456   1.469   1.917  1.0417 -1.4534 -0.4434
 1610SOL    HW216290   3.455   1.520   2.049  2.2892 -0.1904  0.9722
 1611SOL     OW16291   1.872   4.676   6.781 -0.6808  0.1757  0.3474
 1611SOL    HW116292   1.931   4.622   6.729 -0.7214  0.1801  0.2972
 1611SOL    HW216293   1.898   0.041   6.752  3.7474 -0.9451  0.8676
 1612SOL     OW16294   1.791   2.682   7.965  0.0429 -0.2184 -0.0362
 1612SOL    HW116295   1.703   2.651   7.948 -0.0908 -0.3288  0.8344
 1612SOL    HW216296   1.793   2.677   8.061 -0.2263  0.3209 -0.0035
 1613SOL     OW16297   1.875   3.720   0.072 -0.4169  0.4000 -0.2472
 1613SOL    HW116298   1.851   3.775  17.690  1.2800  0.1354 -0.9863
 1613SOL    HW216299   1.811   3.648   0.072 -0.1076  0.1225 -1.4659
 1614SOL     OW16300   3.140   0.840   8.826 -0.2658 -0.1977 -0.2416
 1614SOL    HW116301   3.136   0.769   8.762  1.0771  0.8585 -1.5082
 1614SOL    HW216302   3.231   0.868   8.821 -0.8855  1.7870 -0.5524
 1615SOL     OW16303   4.460   0.892   6.999  0.1047  0.0600 -0.3666
 1615SOL    HW116304   4.455   0.806   7.039 -0.3968 -0.7536 -2.1559
 1615SOL    HW216305   4.368   0.918   6.990  0.2823  0.0959 -2.2361
 1616SOL     OW16306   1.610   4.687  10.051  0.0270 -0.6678  0.2474
 1616SOL    HW116307   1.632   4.637   9.972  1.6946 -3.0933  2.2076
 1616SOL    HW216308   1.692   4.710  10.095 -0.8848  1.9040  0.5981
 1617SOL     OW16309   1.914   2.035   3.183  0.5058 -0.0877 -0.1189
 1617SOL    HW116310   1.990   2.092   3.192 -0.3167  0.5441  2.8173
 1617SOL    HW216311   1.894   2.055   3.091 -1.8420 -2.3711 -0.1204
 1618SOL     OW16312   1.589   0.757   5.015 -0.2669  0.2905  0.2404
 1618SOL    HW116313   1.528   0.747   4.942  1.7855 -0.6861 -1.3498
 1618SOL    HW216314   1.532   0.729   5.086 -2.1110 -1.3810 -1.8827
 1619SOL     OW16315   2.911   2.597   1.116 -0.4599 -0.0748  0.6600
 1619SOL    HW116316   2.828   2.573   1.073  0.1754 -1.8095  0.3983
 1619SOL    HW216317   2.962   2.518   1.098 -0.9839 -0.1361 -0.6020
 1620SOL     OW16318   1.358   0.905  15.207 -0.2177  0.3676  0.3543
 1620SOL    HW116319   1.359   0.817  15.171 -1.4681  0.9342 -1.0990
 1620SOL    HW216320   1.369   0.896  15.302  0.7492 -0.3232  0.1703
 1621SOL     OW16321   1.842   3.332  11.277  0.3905 -0.6580  0.5309
 1621SOL    HW116322   1.796   3.384  11.343 -0.8645 -0.8973 -0.1563
 1621SOL    HW216323   1.859   3.254  11.330 -0.0523 -1.4895 -0.5705
 1622SOL     OW16324   0.083   1.955  16.060 -0.2092 -0.1785 -0.3323
 1622SOL    HW116325   0.100   1.961  15.966 -0.2019 -2.8910 -0.4972
 1622SOL    HW216326   4.712   1.974  16.061  0.1635  1.7708 -2.1998
 1623SOL     OW16327   1.077   2.196   7.651  0.1617 -0.2196  0.1603
 1623SOL    HW116328   1.068   2.249   7.730 -1.6956 -0.3264  0.0293
 1623SOL    HW216329   1.034   2.264   7.599 -2.0956  0.9849  3.5782
 1624SOL     OW16330   3.118   3.711   5.204 -0.1678  0.1521 -0.1171
 1624SOL    HW116331   3.147   3.680   5.119  0.0581 -0.5360  0.2035
 1624SOL    HW216332   3.064   3.641   5.242  0.7278 -0.0479  0.8140
 1625SOL     OW16333   1.276   0.223   7.554 -0.0545 -0.5414  0.7431
 1625SOL    HW116334   1.346   0.270   7.600 -0.4697  1.0008 -0.2292
 1625SOL    HW216335   1.330   0.161   7.505 -2.4452 -0.9691 -1.3522
 1626SOL     OW16336   3.792   4.296   3.056 -0.1594  0.8195 -0.0407
 1626SOL    HW116337   3.765   4.225   3.114  0.8640  0.4915  0.0217
 1626SOL    HW216338   3.863   4.259   3.004  0.1193  0.3632  0.6665
 1627SOL     OW16339   0.058   0.433  12.501  0.5963 -0.0114  0.2125
 1627SOL    HW116340   0.028   0.504  12.444  1.2135  1.7838  2.1261
 1627SOL    HW216341   4.710   0.427  12.565 -0.0735 -1.4989 -0.6562
 1628SOL     OW16342   3.229   0.057   7.625 -0.0131 -0.3826  0.9994
 1628SOL    HW116343   3.263   0.014   7.703 -1.4421  0.5109  2.0999
 1628SOL    HW216344   3.303   0.113   7.600 -1.1158  1.0232  0.8837
 1629SOL     OW16345   1.741   3.666   7.475  0.5617 -0.1895  0.3716
 1629SOL    HW116346   1.657   3.691   7.435  0.6675  2.6903  1.9443
 1629SOL    HW216347   1.744   3.728   7.548 -1.2041  0.6796 -0.2886
 1630SOL     OW16348   4.358   0.121   4.904 -0.3626 -0.1153  0.0688
 1630SOL    HW116349   4.390   0.211   4.909 -0.6692  0.0273 -0.5952
 1630SOL    HW216350   4.346   0.105   4.998  0.0134 -3.0800 -0.3905
 1631SOL     OW16351   2.254   1.041  13.638  0.0588 -0.2592  0.2360
 1631SOL    HW116352   2.256   1.118  13.695 -0.3532 -0.6911  0.8330
 1631SOL    HW216353   2.210   1.076  13.561  0.5354  2.1315  1.0707
 1632SOL     OW16354   1.258   3.444   1.022  0.5440 -0.0002 -0.1387
 1632SOL    HW116355   1.258   3.531   1.064  1.6494  0.0494 -0.2475
 1632SOL    HW216356   1.163   3.436   1.034  0.0005  2.9025 -2.4510
 1633SOL     OW16357   3.807   0.639   0.066  0.1136 -0.0556 -0.5426
 1633SOL    HW116358   3.806   0.698   0.141 -1.8570 -0.2754 -0.3854
 1633SOL    HW216359   3.822   0.553   0.106 -0.4659  0.4368  0.7593
 1634SOL     OW16360   4.442   2.831   5.185 -0.3819 -0.4783 -0.5010
 1634SOL    HW116361   4.520   2.811   5.236 -0.4105  0.6650  0.0044
 1634SOL    HW216362   4.375   2.781   5.232 -0.9166  0.8090  0.1082
 1635SOL     OW16363   4.607   2.677   9.444  0.4601  0.3621  0.6190
 1635SOL    HW116364   4.571   2.759   9.411  0.1879  0.0272  0.0890
 1635SOL    HW216365   4.699   2.696   9.422 -0.1002  0.0880 -1.8867
 1636SOL     OW16366   0.655   0.914   1.437 -0.0298  0.4951  0.4367
 1636SOL    HW116367   0.698   0.922   1.352 -0.6337 -0.4143  0.0511
 1636SOL    HW216368   0.563   0.893   1.424  0.3386 -1.3920  0.8352
 1637SOL     OW16369   1.770   2.655   7.688 -0.5007  0.5303  0.2174
 1637SOL    HW116370   1.712   2.730   7.675 -0.3934  0.4954 -0.4595
 1637SOL    HW216371   1.785   2.668   7.782  0.3739  2.1530 -0.1563
 1638SOL     OW16372   3.591   4.679   3.218  0.3646  0.2747  0.3217
 1638SOL    HW116373   3.542   4.599   3.200 -0.9228  1.0009  0.5705
 1638SOL    HW216374   3.658   4.664   3.152 -0.1263  1.6601 -0.4971
 1639SOL     OW16375   4.410   0.071   3.609 -0.2418 -0.5047 -0.1582
 1639SOL    HW116376   4.450   0.015   3.542 -0.6689  1.4606 -2.0760
 1639SOL    HW216377   4.448   0.039   3.691 -2.3344 -3.1729 -0.1958
 1640SOL     OW16378   1.963   2.683   6.675 -0.2381 -0.0659  0.2854
 1640SOL    HW116379   1.892   2.643   6.625  1.0493 -0.7645 -0.9725
 1640SOL    HW216380   1.994   2.757   6.623 -2.3546  0.3372 -0.3966
 1641SOL     OW16381   4.460   4.376   3.562  0.4082  0.1335  0.0679
 1641SOL    HW116382   4.454   4.445   3.496  0.8157 -0.0476 -0.1533
 1641SOL    HW216383   4.549   4.351   3.540  1.1480  1.1804  1.9123
 1642SOL     OW16384   1.616   2.040   8.048  0.4029 -0.2956  0.2313
 1642SOL    HW116385   1.547   2.047   7.982 -0.4635  0.7052  1.2456
 1642SOL    HW216386   1.550   2.038   8.117  0.1185  0.4389 -0.0251
 1643SOL     OW16387   1.258   2.599   7.538 -0.0958 -0.4324 -0.0111
 1643SOL    HW116388   1.321   2.530   7.520  0.9192 -0.4413  3.5806
 1643SOL    HW216389   1.297   2.647   7.612  0.8305 -1.4705  0.1670
 1644SOL     OW16390   1.997   1.587   9.651  0.0226  0.0666  0.7706
 1644SOL    HW116391   2.040   1.643   9.586 -1.2291  0.4506  0.2786
 1644SOL    HW216392   2.068   1.561   9.710 -1.4518 -0.2828  2.3854
 1645SOL     OW16393   4.720   0.354   6.411  0.0218  0.3040  0.4508
 1645SOL    HW116394   4.674   0.314   6.337  0.3561  1.6027 -0.4608
 1645SOL    HW216395   0.084   0.316   6.396  0.6919  1.5592  1.1140
 1646SOL     OW16396   2.560   3.211   2.012  0.0783 -0.4528 -0.9050
 1646SOL    HW116397   2.588   3.186   2.100 -1.8011  1.1344  0.1553
 1646SOL    HW216398   2.647   3.191   1.978  0.5019  0.5313 -0.3933
 1647SOL     OW16399   3.197   1.376   6.435  0.4777 -0.0237  0.1237
 1647SOL    HW116400   3.130   1.380   6.503 -0.2014 -0.2012 -0.5361
 1647SOL    HW216401   3.269   1.413   6.486 -1.7317  0.7930  2.6228
 1648SOL     OW16402   2.959   3.327  17.133  0.2370  0.6812  0.4157
 1648SOL    HW116403   2.997   3.318  17.046  3.4016  1.5729  1.6922
 1648SOL    HW216404   2.995   3.259  17.191  0.1889  0.3058  0.0019
 1649SOL     OW16405   2.240   0.787   7.173  0.4580 -0.0318 -0.4555
 1649SOL    HW116406   2.268   0.710   7.221 -0.5040 -0.9784 -1.4207
 1649SOL    HW216407   2.197   0.829   7.247 -1.0320 -2.5686  0.1166
 1650SOL     OW16408   0.444   3.905   5.502  0.2980 -0.0943  0.2106
 1650SOL    HW116409   0.515   3.942   5.449 -0.3659  0.5529 -0.2104
 1650SOL    HW216410   0.484   3.904   5.589  0.4882  1.8943  0.1358
 1651SOL     OW16411   1.812   3.171   0.484 -1.1051 -0.5271 -0.4628
 1651SOL    HW116412   1.724   3.161   0.522 -0.6201  0.0916  0.8077
 1651SOL    HW216413   1.871   3.107   0.524 -0.6589  0.2199  0.0582
 1652SOL     OW16414   1.546   1.300   2.897 -0.3145 -0.2323 -0.0710
 1652SOL    HW116415   1.614   1.302   2.965  0.7613  0.4538 -1.1789
 1652SOL    HW216416   1.564   1.234   2.831 -1.0698  0.6560 -1.1640
 1653SOL     OW16417   0.944   0.226  15.348 -0.4850  0.2437  0.3599
 1653SOL    HW116418   0.978   0.177  15.273  1.5428 -0.2058  1.5751
 1653SOL    HW216419   1.024   0.228  15.400  0.6724  1.0009 -1.4295
 1654SOL     OW16420   3.854   4.434   4.627  0.1810  0.2446  0.2743
 1654SOL    HW116421   3.831   4.450   4.719  1.1589 -1.8444  0.8957
 1654SOL    HW216422   3.919   4.502   4.611  0.4135  0.7565  3.3131
 1655SOL     OW16423   1.965   2.484   1.097 -0.2671 -0.1479 -0.3895
 1655SOL    HW116424   1.968   2.559   1.039 -0.6533 -1.1909 -1.7624
 1655SOL    HW216425   1.974   2.530   1.180  0.3737  0.6408 -0.8884
 1656SOL     OW16426   0.167   4.134   3.851 -0.0998 -0.2610 -0.3510
 1656SOL    HW116427   0.144   4.224   3.830  1.3159 -0.0337 -0.9123
 1656SOL    HW216428   0.243   4.114   3.797  0.9523 -1.4493  1.5609
 1657SOL     OW16429   3.431   2.647  13.237  1.4882 -0.4701 -0.0122
 1657SOL    HW116430   3.503   2.591  13.266  0.5931 -2.0027 -0.6904
 1657SOL    HW216431   3.467   2.734  13.248 -0.7306  0.5487 -0.7542
 1658SOL     OW16432   0.777   2.987  10.397  0.0563 -0.4356  0.0137
 1658SOL    HW116433   0.725   3.021  10.470 -1.4411 -0.4125 -1.0790
 1658SOL    HW216434   0.713   3.016  10.333 -0.6408  0.7099  1.2239
 1659SOL     OW16435   2.664   0.147   4.378 -0.1973 -0.3304 -0.2057
 1659SOL    HW116436   2.702   0.231   4.405 -2.1029  0.3583  0.3327
 1659SOL    HW216437   2.682   0.093   4.455 -3.2377 -1.3914 -0.2493
 1660SOL     OW16438   3.483   4.250  16.929  0.1373  0.4292  0.3026
 1660SOL    HW116439   3.517   4.197  17.002 -0.6750  1.4732  1.4355
 1660SOL    HW216440   3.535   4.217  16.856 -0.8713 -0.3075 -0.0817
 1661SOL     OW16441   1.740   2.865   9.625  0.0524 -0.0549 -0.0464
 1661SOL    HW116442   1.790   2.929   9.677  0.8006 -0.5356 -0.1748
 1661SOL    HW216443   1.812   2.819   9.581  0.2064  0.3891 -0.2548
 1662SOL     OW16444   1.437   0.787  15.833  1.0883 -0.4906  0.4145
 1662SOL    HW116445   1.464   0.839  15.757  1.2843 -2.0017 -0.5537
 1662SOL    HW216446   1.498   0.713  15.828  0.1016 -1.3159  0.6759
 1663SOL     OW16447   3.871   0.746   9.444  0.0335  0.3233 -0.1961
 1663SOL    HW116448   3.916   0.750   9.528  0.8003 -0.2853 -0.5674
 1663SOL    HW216449   3.905   0.830   9.413 -0.1728  0.1415 -0.9305
 1664SOL     OW16450   2.904   3.135   3.829  0.5113 -0.0641 -0.0968
 1664SOL    HW116451   2.860   3.088   3.900  2.5128 -0.0311  1.1749
 1664SOL    HW216452   2.990   3.094   3.828  0.6688  0.2420  0.7341
 1665SOL     OW16453   0.850   4.276   2.131 -0.0452 -0.2824  0.0411
 1665SOL    HW116454   0.944   4.286   2.121 -0.1882  0.0333 -0.9438
 1665SOL    HW216455   0.844   4.185   2.159 -1.5068  0.2831  1.6263
 1666SOL     OW16456   3.855   3.495   5.068 -0.1172  0.4486  0.6067
 1666SOL    HW116457   3.889   3.578   5.035  1.0466 -0.5177 -0.6310
 1666SOL    HW216458   3.928   3.434   5.053 -0.3036  0.4120 -0.1249
 1667SOL     OW16459   1.432   1.893   8.943  0.2001  0.0813 -0.1013
 1667SOL    HW116460   1.453   1.938   9.025 -0.7070  0.5287 -0.1182
 1667SOL    HW216461   1.476   1.810   8.959  0.6507  0.3998  0.3257
 1668SOL     OW16462   0.040   4.580   4.816 -0.3384 -0.1722  0.4685
 1668SOL    HW116463   0.064   4.636   4.889 -0.0639 -1.2772  1.2320
 1668SOL    HW216464   4.684   4.617   4.774  0.7772  0.8542 -0.6974
 1669SOL     OW16465   1.432   1.641   5.579 -0.4510 -0.1162 -0.3626
 1669SOL    HW116466   1.441   1.569   5.516 -0.6688  0.6426 -1.2563
 1669SOL    HW216467   1.484   1.708   5.535 -0.7370 -2.2072 -3.8938
 1670SOL     OW16468   1.459   0.534  11.606  0.5054 -0.3129 -0.8541
 1670SOL    HW116469   1.408   0.584  11.541 -2.1859 -0.3987  1.1820
 1670SOL    HW216470   1.529   0.496  11.553 -0.1774 -1.2229 -1.1014
 1671SOL     OW16471   4.672   4.187   0.271 -0.2821  0.6555 -0.0745
 1671SOL    HW116472   0.040   4.187   0.240 -0.1221  0.8071  0.3970
 1671SOL    HW216473   4.622   4.190   0.190  1.3872 -0.5913 -1.1561
 1672SOL     OW16474   2.607   1.180   8.073  0.6754 -0.3381 -0.0476
 1672SOL    HW116475   2.679   1.239   8.051  1.6894 -1.8336 -0.6876
 1672SOL    HW216476   2.649   1.095   8.065 -1.9551 -1.6553  0.1702
 1673SOL     OW16477   2.568   2.343   4.337  0.7610  0.1519 -0.7753
 1673SOL    HW116478   2.520   2.308   4.412  1.8360  1.7685  0.6781
 1673SOL    HW216479   2.517   2.420   4.314  0.4097  0.0091 -0.4733
 1674SOL     OW16480   4.178   4.355   9.405  0.4905  0.1092  0.3642
 1674SOL    HW116481   4.219   4.440   9.390  0.4005 -0.0932 -0.9679
 1674SOL    HW216482   4.205   4.335   9.495 -1.3831  0.0497  0.9158
 1675SOL     OW16483   0.161   4.540  13.816 -0.1825  0.1206  0.1282
 1675SOL    HW116484   0.164   4.633  13.796 -1.3189  0.7407  2.8150
 1675SOL    HW216485   0.255   4.522  13.816  0.1311  1.7708 -0.1175
 1676SOL     OW16486   0.360   3.430   8.228 -0.0463  0.3508  0.4977
 1676SOL    HW116487   0.358   3.461   8.318  0.6726  1.7167  0.0329
 1676SOL    HW216488   0.407   3.500   8.184  2.9232 -1.7868  0.3238
 1677SOL     OW16489   0.000   0.858   5.809 -0.2190 -0.1352 -0.0068
 1677SOL    HW116490   4.665   0.929   5.836 -0.3396 -0.4906  0.6556
 1677SOL    HW216491   4.686   0.835   5.724  2.1681 -2.9089 -0.2713
 1678SOL     OW16492   2.711   3.080   2.601 -0.5824 -0.1112  0.2213
 1678SOL    HW116493   2.802   3.108   2.602 -0.2630 -1.1666  0.0036
 1678SOL    HW216494   2.706   3.035   2.517  0.3257  0.8106 -0.3215
 1679SOL     OW16495   0.317   3.526  16.262 -0.1858 -0.4923 -0.0136
 1679SOL    HW116496   0.232   3.504  16.300 -0.7242 -0.2408 -1.0727
 1679SOL    HW216497   0.282   3.510  16.174  3.1732 -2.1021 -1.0556
 1680SOL     OW16498   2.498   1.273   6.254 -0.3950 -0.0248 -0.1161
 1680SOL    HW116499   2.573   1.258   6.196  1.0341 -0.2057  1.7790
 1680SOL    HW216500   2.443   1.309   6.185  0.4875  0.4093 -0.6000
 1681SOL     OW16501   2.071   2.178   7.439 -0.2023 -0.3242 -0.0169
 1681SOL    HW116502   2.095   2.124   7.515 -0.0357 -0.1686  0.0422
 1681SOL    HW216503   1.996   2.222   7.481  0.8873  2.8208 -1.3729
 1682SOL     OW16504   1.122   0.745   4.909 -0.0483  0.0352  0.3480
 1682SOL    HW116505   1.054   0.777   4.849  0.2332  0.0335  0.0291
 1682SOL    HW216506   1.113   0.799   4.987  0.7870  0.1447  0.3635
 1683SOL     OW16507   1.418   0.787   8.097  0.0300 -0.3150  0.2545
 1683SOL    HW116508   1.491   0.799   8.036 -0.1513  1.8847  0.4582
 1683SOL    HW216509   1.420   0.867   8.150  1.0433 -1.3787  1.8352
 1684SOL     OW16510   0.628   3.369   6.716 -0.0183  0.1355 -0.2524
 1684SOL    HW116511   0.572   3.364   6.638 -0.1443  1.2160 -0.2205
 1684SOL    HW216512   0.626   3.286   6.764 -1.8441 -0.1479 -0.8271
 1685SOL     OW16513   2.252   0.729   6.741 -0.2255 -0.4034 -0.2609
 1685SOL    HW116514   2.185   0.798   6.742  1.0339  0.8154 -1.1093
 1685SOL    HW216515   2.307   0.745   6.665 -0.8989 -2.1685 -1.1015
 1686SOL     OW16516   4.193   2.844   9.744 -0.5550 -0.0454  0.3625
 1686SOL    HW116517   4.217   2.758   9.778 -1.5549  0.0670  1.3360
 1686SOL    HW216518   4.104   2.819   9.720 -1.2126  1.2475  1.4424
 1687SOL     OW16519   4.339   1.826   3.061 -0.3180  1.0276 -0.3773
 1687SOL    HW116520   4.427   1.804   3.091 -0.1405 -0.6771 -2.1909
 1687SOL    HW216521   4.338   1.922   3.058 -0.4329  0.9827 -1.4869
 1688SOL     OW16522   0.549   3.866   8.163 -0.7616 -0.0455 -0.1496
 1688SOL    HW116523   0.523   3.874   8.255 -0.7147 -0.0845 -0.1333
 1688SOL    HW216524   0.585   3.778   8.167  3.3346  1.7390  1.5671
 1689SOL     OW16525   2.396   2.394   5.424  0.6294 -0.0913  0.2858
 1689SOL    HW116526   2.478   2.353   5.451  0.6985  0.7160  1.3232
 1689SOL    HW216527   2.371   2.436   5.507  2.5550 -0.0069  0.8117
 1690SOL     OW16528   1.832   3.590   1.346 -0.5961 -0.0889 -0.3130
 1690SOL    HW116529   1.859   3.598   1.437 -0.9976 -0.6570 -0.1448
 1690SOL    HW216530   1.749   3.638   1.353  0.7125  2.2629 -0.9966
 1691SOL     OW16531   3.466   1.507   7.477  0.1268 -0.3095 -0.1057
 1691SOL    HW116532   3.427   1.479   7.560 -1.8497  0.5734 -0.7394
 1691SOL    HW216533   3.494   1.598   7.493  1.6111 -0.8637  0.4879
 1692SOL     OW16534   4.050   3.450  16.155 -0.1284 -0.2898 -0.6327
 1692SOL    HW116535   3.978   3.436  16.093 -1.1224 -1.0771  0.7036
 1692SOL    HW216536   4.120   3.499  16.112 -1.2303  0.7272 -1.2696
 1693SOL     OW16537   1.240   1.511  12.280 -0.4371  0.2298 -0.2903
 1693SOL    HW116538   1.221   1.426  12.242 -0.1882  0.4302 -0.8634
 1693SOL    HW216539   1.163   1.537  12.331 -0.3536  0.4407 -0.2702
 1694SOL     OW16540   4.510   4.371   1.756  0.1815  0.0242 -0.8030
 1694SOL    HW116541   4.524   4.457   1.796 -0.2363 -0.3503  0.1552
 1694SOL    HW216542   4.576   4.331   1.813 -0.5251  0.5761  0.4073
 1695SOL     OW16543   1.494   3.891   6.272 -0.4205 -0.1947  0.1114
 1695SOL    HW116544   1.426   3.825   6.258 -0.3973 -0.4952  1.4409
 1695SOL    HW216545   1.448   3.949   6.333 -1.1716 -1.2542  0.5534
 1696SOL     OW16546   4.082   0.303   6.581  0.0064  0.5802  0.0017
 1696SOL    HW116547   4.075   0.219   6.535  0.4356  0.1083  0.7980
 1696SOL    HW216548   4.031   0.285   6.660 -0.0773  2.6582  0.4308
 1697SOL     OW16549   3.947   4.652   4.996 -0.7224  0.2136 -0.0478
 1697SOL    HW116550   4.034   4.620   5.021 -0.5814  0.0926 -0.6886
 1697SOL    HW216551   3.889   4.576   4.989 -1.3251  0.5882  0.8822
 1698SOL     OW16552   3.903   1.453   8.817  0.1358 -0.4992 -0.3744
 1698SOL    HW116553   3.807   1.455   8.815  0.1178  1.4390  1.6197
 1698SOL    HW216554   3.922   1.529   8.762  0.0804  0.1424  0.4820
 1699SOL     OW16555   1.416   0.150   6.677 -0.8301  0.0984 -0.1049
 1699SOL    HW116556   1.441   0.241   6.688  0.4466  0.0260 -2.6616
 1699SOL    HW216557   1.441   0.130   6.587 -1.9345 -1.6242 -0.0421
 1700SOL     OW16558   2.309   1.850   3.844  0.0526  0.5575  0.3015
 1700SOL    HW116559   2.245   1.822   3.910  1.3560  1.3642  1.8931
 1700SOL    HW216560   2.389   1.833   3.894  1.1518 -1.3710 -2.1103
 1701SOL     OW16561   4.546   0.187   4.230 -0.1667 -0.7718  0.1085
 1701SOL    HW116562   4.559   0.186   4.135 -1.3657  0.2546 -0.0690
 1701SOL    HW216563   4.476   0.124   4.244 -1.0282  0.2996  0.6043
 1702SOL     OW16564   4.633   0.108  15.193 -0.6701 -0.2467 -0.6955
 1702SOL    HW116565   4.570   0.059  15.139 -1.8362  1.9651 -1.3255
 1702SOL    HW216566   4.618   0.197  15.161 -1.3968 -0.5690 -1.2615
 1703SOL     OW16567   4.417   0.520   2.731  0.0452 -0.0024  0.2263
 1703SOL    HW116568   4.368   0.473   2.799  0.5418 -1.7733 -0.6187
 1703SOL    HW216569   4.428   0.446   2.671  0.2142  0.0186  0.2319
 1704SOL     OW16570   0.014   0.920   8.049  0.5679 -0.1591 -0.3804
 1704SOL    HW116571   4.707   1.004   8.083  2.1500  0.4796 -0.5885
 1704SOL    HW216572   0.101   0.936   8.012 -0.4085  1.4553 -1.9858
 1705SOL     OW16573   0.141   3.991   7.615  0.4740  0.1192  0.4497
 1705SOL    HW116574   0.165   3.934   7.688 -3.2689 -1.2750  0.6032
 1705SOL    HW216575   0.048   3.971   7.604  0.9451 -1.9115  0.1533
 1706SOL     OW16576   1.013   3.305  12.313 -0.1626 -0.0785 -0.3204
 1706SOL    HW116577   1.034   3.272  12.401  1.2792  4.9430  1.2113
 1706SOL    HW216578   0.917   3.307  12.319 -0.2732 -1.6359 -1.7589
 1707SOL     OW16579   0.725   1.872  17.062  0.4258 -0.4810 -0.4651
 1707SOL    HW116580   0.807   1.894  17.105 -0.1810 -1.7595  1.3072
 1707SOL    HW216581   0.678   1.956  17.066 -0.0725 -0.6803 -2.2082
 1708SOL     OW16582   3.884   0.256   9.983 -0.6600 -0.3620 -0.1444
 1708SOL    HW116583   3.915   0.314   9.914  0.3082 -0.5378  0.1414
 1708SOL    HW216584   3.904   0.303  10.064 -0.4922  1.7105 -1.4139
 1709SOL     OW16585   1.522   0.293   3.536 -0.1282 -0.2317 -0.2743
 1709SOL    HW116586   1.577   0.215   3.545 -0.5691 -0.7333 -1.9371
 1709SOL    HW216587   1.529   0.297   3.440 -1.9801 -0.9063 -0.4277
 1710SOL     OW16588   1.244   0.980   0.432 -0.1042  0.0933  0.4749
 1710SOL    HW116589   1.223   0.924   0.358 -2.5351  1.5023  0.1086
 1710SOL    HW216590   1.335   0.999   0.410 -0.9546  2.3175 -1.1124
 1711SOL     OW16591   0.946   2.111  10.210  0.0599 -0.6809 -0.8927
 1711SOL    HW116592   0.921   2.164  10.286  1.0258 -1.6643  0.0956
 1711SOL    HW216593   0.908   2.027  10.235 -1.7501  0.0074 -1.2954
 1712SOL     OW16594   3.171   4.501  17.596 -0.0232 -0.8630  0.0343
 1712SOL    HW116595   3.236   4.544  17.541  0.8658 -3.3327 -0.8340
 1712SOL    HW216596   3.154   4.563  17.667  0.8405  4.2758 -4.1900
 1713SOL     OW16597   1.019   4.208  16.847 -0.2572  0.2160 -0.0279
 1713SOL    HW116598   1.012   4.231  16.754 -0.0311  1.3111  0.2230
 1713SOL    HW216599   1.013   4.112  16.848  2.3174  0.0628  0.9532
 1714SOL     OW16600   2.243   0.070  14.972  0.0789 -0.5892 -0.0600
 1714SOL    HW116601   2.279   0.139  14.916 -1.1623  1.1723  1.3160
 1714SOL    HW216602   2.158   0.110  14.989  1.1614  1.9016 -0.4905
 1715SOL     OW16603   1.665   0.417   8.193  0.5296  0.1671  0.3130
 1715SOL    HW116604   1.597   0.397   8.257  1.6768  0.1531  1.5227
 1715SOL    HW216605   1.744   0.404   8.246  0.0660 -1.2523  0.6502
 1716SOL     OW16606   2.216   1.231  11.698  0.1383 -0.0235 -0.2989
 1716SOL    HW116607   2.129   1.268  11.687  0.3605  1.0671  1.7265
 1716SOL    HW216608   2.219   1.180  11.616  1.9274 -1.8349  0.8854
 1717SOL     OW16609   3.131   4.511   6.196  0.4436  0.4770 -0.3174
 1717SOL    HW116610   3.073   4.453   6.246 -0.5606  1.3237 -0.5186
 1717SOL    HW216611   3.066   4.575   6.169 -1.9510 -1.4037  0.9486
 1718SOL     OW16612   2.275   2.263  13.153 -0.9456  0.1353 -0.1554
 1718SOL    HW116613   2.275   2.312  13.235  0.1739 -1.6084  0.8481
 1718SOL    HW216614   2.274   2.338  13.092  0.5219 -0.1854 -0.5668
 1719SOL     OW16615   2.749   4.675   4.569  0.0193  0.1719 -0.5123
 1719SOL    HW116616   2.734   4.583   4.549 -1.5496  0.0297  1.2680
 1719SOL    HW216617   2.721   4.667   4.660 -0.8107  2.8140 -0.5347
 1720SOL     OW16618   3.711   2.482   8.220  0.4341  0.0346  0.4993
 1720SOL    HW116619   3.649   2.490   8.147  1.1234  0.0522 -0.0746
 1720SOL    HW216620   3.780   2.422   8.193 -0.8199 -0.4136 -1.6957
 1721SOL     OW16621   4.377   2.444   6.127 -0.0339 -0.3799 -0.3027
 1721SOL    HW116622   4.309   2.473   6.066  0.5187  1.5689  0.0015
 1721SOL    HW216623   4.432   2.522   6.137 -2.3904  1.2674 -0.0813
 1722SOL     OW16624   1.831   3.391  12.691 -0.0019  0.4052  0.3506
 1722SOL    HW116625   1.879   3.364  12.769 -2.0051  3.5894  2.6418
 1722SOL    HW216626   1.827   3.486  12.701 -0.6122  0.0686  3.0607
 1723SOL     OW16627   3.076   2.099   8.069 -0.0414 -0.1396  0.3421
 1723SOL    HW116628   3.053   2.191   8.053  1.2986  0.0435 -0.4670
 1723SOL    HW216629   3.079   2.071   7.978 -2.7143  0.1585  0.1406
 1724SOL     OW16630   4.176   3.203   1.990 -0.1403 -0.5817  0.5063
 1724SOL    HW116631   4.152   3.295   1.996  2.7475  0.1736  0.5541
 1724SOL    HW216632   4.257   3.208   1.939  0.5915  1.4022  1.8583
 1725SOL     OW16633   4.534   0.731   1.463  0.3073  0.5993  0.5903
 1725SOL    HW116634   4.555   0.665   1.397  1.0023  1.4675 -0.0543
 1725SOL    HW216635   4.495   0.677   1.533  0.2094  1.1324  0.9409
 1726SOL     OW16636   3.247   4.146   3.825 -0.2159 -0.5830  0.4260
 1726SOL    HW116637   3.212   4.110   3.907 -1.8573 -0.5042 -0.2314
 1726SOL    HW216638   3.241   4.239   3.846 -1.5853 -0.8662  1.3045
 1727SOL     OW16639   1.766   2.481   2.327  0.7463 -0.3010  0.0101
 1727SOL    HW116640   1.728   2.534   2.257  2.5808  1.2725  0.1800
 1727SOL    HW216641   1.696   2.417   2.333  0.3139 -0.0161 -2.0052
 1728SOL     OW16642   1.343   1.749   7.283 -0.1748  0.4679  0.2817
 1728SOL    HW116643   1.430   1.722   7.254 -0.0797  1.4479 -0.3473
 1728SOL    HW216644   1.295   1.682   7.236 -0.6800  0.3770  0.9201
 1729SOL     OW16645   1.652   0.120   7.930 -0.3827  0.2919 -0.1867
 1729SOL    HW116646   1.646   0.215   7.918 -0.9973  0.0695 -1.5543
 1729SOL    HW216647   1.611   0.083   7.853  1.1195 -2.9477  0.5531
 1730SOL     OW16648   3.512   3.977   6.129  0.2999  0.1159  0.2356
 1730SOL    HW116649   3.517   4.072   6.117 -0.4200  0.1056 -0.1795
 1730SOL    HW216650   3.525   3.968   6.223  2.1983  2.6671  0.1986
 1731SOL     OW16651   0.216   2.487   0.470 -0.0551  0.2127 -0.3543
 1731SOL    HW116652   0.155   2.553   0.503  0.7295  0.9817 -0.4219
 1731SOL    HW216653   0.301   2.509   0.510 -0.1074  0.4720 -0.3870
 1732SOL     OW16654   1.247   2.584  15.336  0.9548  0.3227 -0.0279
 1732SOL    HW116655   1.297   2.568  15.256  1.2195 -0.8127  0.3569
 1732SOL    HW216656   1.165   2.589  15.286  0.7043 -1.7038  0.1589
 1733SOL     OW16657   4.415   3.369  13.436  0.1188 -0.3985 -0.0760
 1733SOL    HW116658   4.499   3.414  13.436 -1.2052  2.0448 -0.2502
 1733SOL    HW216659   4.356   3.444  13.443  2.7823  1.8526 -1.9569
 1734SOL     OW16660   0.590   0.988   0.250 -0.1129 -0.2160  0.1907
 1734SOL    HW116661   0.580   0.970   0.157  0.6510  0.0085  0.0684
 1734SOL    HW216662   0.675   0.945   0.261 -0.0331 -0.2454 -0.5882
 1735SOL     OW16663   3.455   0.705  12.012 -0.3395  0.0243  0.2692
 1735SOL    HW116664   3.496   0.622  12.034  0.9880  0.8154  0.7312
 1735SOL    HW216665   3.488   0.758  12.084 -0.6037  0.7642 -0.1590
 1736SOL     OW16666   4.438   3.627   3.506 -0.0208 -0.2094  0.3960
 1736SOL    HW116667   4.357   3.616   3.458  1.2770 -1.3360 -1.5211
 1736SOL    HW216668   4.471   3.713   3.480 -1.3547 -0.2908 -1.5371
 1737SOL     OW16669   2.265   1.860   9.345 -0.0028  0.7125  0.2905
 1737SOL    HW116670   2.314   1.794   9.395 -0.0775  0.3882 -0.0690
 1737SOL    HW216671   2.294   1.840   9.256 -0.6791 -1.9488  0.6813
 1738SOL     OW16672   4.474   2.629   2.104 -0.0822 -0.3006  0.0641
 1738SOL    HW116673   4.385   2.635   2.137  0.6895 -1.8091  2.4816
 1738SOL    HW216674   4.461   2.671   2.020 -2.0203 -0.2881  0.3785
 1739SOL     OW16675   0.407   3.504   5.737  0.3056 -0.1494 -0.2245
 1739SOL    HW116676   0.495   3.535   5.756 -0.6843  2.0025  0.8034
 1739SOL    HW216677   0.430   3.469   5.651 -1.7586  0.0702 -0.8521
 1740SOL     OW16678   0.371   0.125   7.311  0.6067  0.2594 -0.2157
 1740SOL    HW116679   0.322   0.061   7.259 -0.7867  1.3473 -0.2501
 1740SOL    HW216680   0.303   0.184   7.343 -0.2317 -0.0964 -1.3313
 1741SOL     OW16681   0.287   4.358   4.310  0.0325  0.4987 -0.9447
 1741SOL    HW116682   0.348   4.306   4.361  0.4444  1.7038 -0.2101
 1741SOL    HW216683   0.337   4.382   4.233  0.8288 -0.8437 -0.8433
 1742SOL     OW16684   2.528   1.986  13.216  0.2550  0.1070 -0.5002
 1742SOL    HW116685   2.613   1.943  13.218  0.4127  0.4343 -0.1668
 1742SOL    HW216686   2.568   2.070  13.239 -0.3375  0.2676 -0.0418
 1743SOL     OW16687   3.418   2.690  13.801  0.2630 -0.3972  0.2824
 1743SOL    HW116688   3.322   2.697  13.796  0.1231  0.1757  4.0689
 1743SOL    HW216689   3.424   2.596  13.782  3.0330 -0.2062  0.2780
 1744SOL     OW16690   0.603   4.260   3.165  0.2524 -0.2682  0.0547
 1744SOL    HW116691   0.607   4.253   3.070 -0.7137 -0.7622  0.0450
 1744SOL    HW216692   0.682   4.221   3.203  0.8283  1.1706  0.3210
 1745SOL     OW16693   1.846   0.069  12.127 -0.3302 -0.4650 -0.4331
 1745SOL    HW116694   1.773   0.084  12.067 -1.0013 -0.4714  0.3809
 1745SOL    HW216695   1.926   0.064  12.075 -1.4146 -0.7622 -2.0963
 1746SOL     OW16696   2.038   2.956  13.731  0.1244 -0.0471 -0.7333
 1746SOL    HW116697   2.008   3.001  13.810  2.1083 -0.3756  0.1985
 1746SOL    HW216698   2.097   2.893  13.773 -0.0415 -0.6636 -1.4261
 1747SOL     OW16699   1.610   1.233   3.819 -0.1258 -0.2875  0.5991
 1747SOL    HW116700   1.618   1.302   3.885  1.7055  1.5884 -1.5804
 1747SOL    HW216701   1.552   1.173   3.866 -3.0159  1.8327 -0.2450
 1748SOL     OW16702   4.683   2.165   2.989 -0.0348  0.7365 -0.2335
 1748SOL    HW116703   4.693   2.163   2.894 -0.0701  1.3856 -0.2503
 1748SOL    HW216704   4.659   2.257   3.004  1.1124  1.2760 -1.6856
 1749SOL     OW16705   4.616   1.042   6.160 -0.4131  0.8814 -0.2319
 1749SOL    HW116706   4.666   1.051   6.241  1.7204  1.1771 -1.5717
 1749SOL    HW216707   4.569   0.962   6.181 -2.4032  1.9372 -0.7052
 1750SOL     OW16708   1.919   4.534   2.685  0.0095 -0.0163 -0.2655
 1750SOL    HW116709   1.923   4.587   2.606 -0.6829 -0.8977 -0.8863
 1750SOL    HW216710   1.913   4.604   2.751  2.3413  0.7048 -0.8274
 1751SOL     OW16711   0.548   2.220   4.969  0.4776  0.9519  0.0811
 1751SOL    HW116712   0.528   2.284   4.900 -0.0538  1.0195  0.2938
 1751SOL    HW216713   0.503   2.145   4.931 -2.1076  2.3140  0.4645
 1752SOL     OW16714   1.933   4.335   0.812  0.1594 -0.4985 -0.1043
 1752SOL    HW116715   1.932   4.242   0.836  0.5317 -0.0708  1.5461
 1752SOL    HW216716   1.918   4.323   0.718 -0.1466 -1.7606  0.0997
 1753SOL     OW16717   4.140   0.925   4.725 -0.1841  0.2600  0.3540
 1753SOL    HW116718   4.223   0.877   4.726 -0.2375  0.1587 -0.2019
 1753SOL    HW216719   4.109   0.914   4.635  0.0397 -1.7880  0.5391
 1754SOL     OW16720   3.969   0.901   7.674  0.0166 -0.2931  0.0224
 1754SOL    HW116721   3.910   0.828   7.656 -1.1108  0.6315 -0.0220
 1754SOL    HW216722   3.995   0.877   7.763  0.0766 -1.9761 -0.4610
 1755SOL     OW16723   4.492   0.064   0.411  0.9621 -0.3183  0.0506
 1755SOL    HW116724   4.572   0.116   0.417  1.9158 -2.3346  4.7492
 1755SOL    HW216725   4.520   4.710   0.462  0.1010  0.5826  1.8384
 1756SOL     OW16726   1.290   4.171  15.767  0.5164  0.1505  0.3133
 1756SOL    HW116727   1.345   4.187  15.690 -2.1825 -3.0844 -2.2688
 1756SOL    HW216728   1.202   4.198  15.742  0.1252 -1.6661 -0.2841
 1757SOL     OW16729   2.464   0.631   6.236 -0.0901  0.3763 -0.5718
 1757SOL    HW116730   2.421   0.688   6.299 -1.4563 -0.8277 -0.4091
 1757SOL    HW216731   2.441   0.542   6.264  0.7772  0.3982  0.2048
 1758SOL     OW16732   4.578   1.013   7.254 -0.3244  0.0073  0.2973
 1758SOL    HW116733   4.592   0.936   7.199 -0.6924  0.8040 -0.9148
 1758SOL    HW216734   4.626   1.070   7.194 -1.0584  0.3727  0.0561
 1759SOL     OW16735   1.253   3.413   4.037  0.1940 -0.2145  0.0488
 1759SOL    HW116736   1.270   3.335   3.985  0.3282  0.6852 -1.2622
 1759SOL    HW216737   1.313   3.409   4.112  0.6018  0.0866 -0.2571
 1760SOL     OW16738   1.855   2.241   4.657  0.0517  0.4581  0.3085
 1760SOL    HW116739   1.897   2.263   4.574 -0.3848 -0.2691 -0.1005
 1760SOL    HW216740   1.816   2.327   4.675  0.6462  0.9793 -0.9091
 1761SOL     OW16741   1.499   4.626   2.827  0.0585 -0.0179 -0.4929
 1761SOL    HW116742   1.458   4.652   2.745  1.9506 -0.5387 -1.6017
 1761SOL    HW216743   1.556   4.702   2.835 -1.2826  1.0228 -0.7339
 1762SOL     OW16744   0.871   0.810   6.410  0.0392 -0.1593 -0.0443
 1762SOL    HW116745   0.834   0.792   6.497  0.7658  0.8261  0.4679
 1762SOL    HW216746   0.960   0.838   6.434  0.5755 -1.7273 -0.1551
 1763SOL     OW16747   4.206   2.621  14.999  0.9675 -0.3137  0.2599
 1763SOL    HW116748   4.141   2.687  15.021 -0.9549 -1.1493 -2.9602
 1763SOL    HW216749   4.250   2.644  15.081  3.2616 -3.3026 -0.1354
 1764SOL     OW16750   4.409   3.038   9.803  0.3674 -0.4598  0.5330
 1764SOL    HW116751   4.435   3.019   9.893 -0.4750 -0.9513  0.6679
 1764SOL    HW216752   4.339   2.974   9.791 -0.3074  0.4293 -0.2534
 1765SOL     OW16753   1.715   4.497   6.550 -0.0795 -0.7063 -0.1212
 1765SOL    HW116754   1.710   4.547   6.632  0.7463  1.0938 -1.1600
 1765SOL    HW216755   1.738   4.409   6.581  1.3226 -0.0532  0.7091
 1766SOL     OW16756   1.619   2.324  12.295  0.0151 -0.4232 -0.8335
 1766SOL    HW116757   1.588   2.237  12.318  0.2034 -0.2088  0.2218
 1766SOL    HW216758   1.698   2.343  12.345 -1.1224  1.4164  0.2538
 1767SOL     OW16759   3.764   2.966   3.978  0.7155  0.7862  0.1918
 1767SOL    HW116760   3.775   3.048   4.026  0.7035  1.6130 -1.2232
 1767SOL    HW216761   3.849   2.925   3.993  0.8382  0.8869 -0.2182
 1768SOL     OW16762   4.649   3.922   5.209 -0.1080  0.0793 -0.0057
 1768SOL    HW116763   4.628   4.015   5.198 -0.3449  0.0786  0.4407
 1768SOL    HW216764   4.601   3.884   5.136  1.9572 -2.1299 -0.1919
 1769SOL     OW16765   1.136   2.640   3.956 -0.3136 -0.0280 -0.2802
 1769SOL    HW116766   1.188   2.716   3.931  0.6061  0.9869  4.6284
 1769SOL    HW216767   1.210   2.587   3.987 -0.8440 -1.4631 -1.5009
 1770SOL     OW16768   2.282   1.065   5.558  0.5778 -0.1482  0.4167
 1770SOL    HW116769   2.266   1.081   5.651  0.6872 -1.9038  0.7461
 1770SOL    HW216770   2.205   1.108   5.522  1.7229  0.5360 -1.1930
 1771SOL     OW16771   4.547   2.231   4.712  0.2750 -0.2596 -0.2312
 1771SOL    HW116772   4.516   2.143   4.694 -0.4490  0.1094 -0.7664
 1771SOL    HW216773   4.479   2.269   4.768  2.2290  1.5549  0.9393
 1772SOL     OW16774   2.114   2.991  15.143 -0.2411  0.1016 -0.2034
 1772SOL    HW116775   2.064   3.043  15.080  1.9150  0.5821 -1.5053
 1772SOL    HW216776   2.192   3.044  15.158  1.5048 -2.4153 -0.3600
 1773SOL     OW16777   2.356   0.652   9.036  0.5647 -0.4603 -0.5172
 1773SOL    HW116778   2.416   0.634   8.964  0.9980 -0.5766 -0.1267
 1773SOL    HW216779   2.296   0.578   9.026  0.4435 -0.3398 -0.6860
 1774SOL     OW16780   1.554   0.690   2.054 -0.1168  0.4004  0.2499
 1774SOL    HW116781   1.535   0.783   2.066 -1.0376  0.0208  1.6446
 1774SOL    HW216782   1.466   0.668   2.022 -0.8662  1.9540  1.2618
 1775SOL     OW16783   2.176   3.358  13.551  0.0168 -0.1072  0.0932
 1775SOL    HW116784   2.181   3.305  13.630 -2.2763  0.7035  0.7741
 1775SOL    HW216785   2.228   3.434  13.578 -1.7460  1.3855 -0.7134
 1776SOL     OW16786   3.212   3.912   9.385 -0.2087  0.8489 -0.3858
 1776SOL    HW116787   3.145   3.979   9.374 -0.4603  0.6922  0.2057
 1776SOL    HW216788   3.168   3.851   9.443  2.6497 -0.0159  0.8876
 1777SOL     OW16789   2.283   4.530   2.650 -0.0725  0.2975  0.0658
 1777SOL    HW116790   2.255   4.501   2.564 -0.4074 -0.8582  0.5723
 1777SOL    HW216791   2.204   4.518   2.703  0.2168 -0.0818  0.4052
 1778SOL     OW16792   2.075   2.930   6.844 -0.4532 -0.5225  0.1215
 1778SOL    HW116793   2.144   2.899   6.786 -1.4310  0.6207 -1.6405
 1778SOL    HW216794   2.052   2.850   6.891 -0.0552  0.6838  2.3605
 1779SOL     OW16795   2.301   0.151  10.796 -1.0435 -0.0764 -0.1913
 1779SOL    HW116796   2.372   0.204  10.832 -0.4174 -0.7299 -0.4752
 1779SOL    HW216797   2.336   0.103  10.721 -0.6426  0.0972 -0.1121
 1780SOL     OW16798   4.540   0.532   3.147 -0.3021  0.1658 -0.2699
 1780SOL    HW116799   4.591   0.466   3.194 -1.0423  0.5346  1.0507
 1780SOL    HW216800   4.454   0.489   3.149  0.9961 -2.2894  1.9313
 1781SOL     OW16801   1.172   3.095   1.203  0.5980 -0.1436  0.2066
 1781SOL    HW116802   1.246   3.152   1.181 -0.5441  1.1617 -0.2725
 1781SOL    HW216803   1.129   3.100   1.118  0.3161 -1.7594  0.2638
 1782SOL     OW16804   3.790   2.040   9.910  0.3526 -0.3510  0.1908
 1782SOL    HW116805   3.855   1.999   9.968  1.2660 -0.5382 -0.9677
 1782SOL    HW216806   3.755   2.102   9.975 -0.6914 -2.8496  2.0199
 1783SOL     OW16807   3.391   1.060   5.663  0.1087  0.0168 -0.7698
 1783SOL    HW116808   3.319   1.098   5.612 -0.6195 -1.9833 -1.2270
 1783SOL    HW216809   3.416   1.140   5.710  1.7119 -1.4878  0.9465
 1784SOL     OW16810   4.637   1.427   2.756 -0.1760  0.1207  0.4885
 1784SOL    HW116811   4.650   1.332   2.760  1.3641  0.3325  0.3714
 1784SOL    HW216812   4.612   1.438   2.664  0.3894  0.3242  0.3591
 1785SOL     OW16813   2.746   0.612   5.645 -0.3770  0.0498  0.0404
 1785SOL    HW116814   2.743   0.531   5.594  0.2643  0.4709 -0.6726
 1785SOL    HW216815   2.808   0.658   5.589 -0.6856 -0.3758 -0.6491
 1786SOL     OW16816   2.508   4.353   5.962  0.2786 -0.1482 -0.4163
 1786SOL    HW116817   2.549   4.268   5.945  0.8714  0.4479 -1.9263
 1786SOL    HW216818   2.478   4.357   6.053  0.3789 -1.1287 -0.3366
 1787SOL     OW16819   1.927   2.556  13.120  0.2646  0.3539  0.2019
 1787SOL    HW116820   2.010   2.544  13.073 -0.2158 -2.7730  0.1624
 1787SOL    HW216821   1.869   2.555  13.044  1.3318  0.6666 -0.6079
 1788SOL     OW16822   0.995   1.430   6.728 -0.7282  0.2087 -0.7557
 1788SOL    HW116823   0.911   1.384   6.732  0.1601 -1.2042  1.2853
 1788SOL    HW216824   0.970   1.516   6.693  2.8990  0.9352 -1.5644
 1789SOL     OW16825   2.659   0.209   6.953 -0.0570 -0.1214  0.6452
 1789SOL    HW116826   2.742   0.253   6.934 -1.1706  2.0986  0.9420
 1789SOL    HW216827   2.667   0.193   7.047 -0.5196 -1.0671  0.5288
 1790SOL     OW16828   0.648   1.898  16.301  0.1730  0.2065 -0.4911
 1790SOL    HW116829   0.733   1.893  16.258  0.9804 -0.4565  1.1766
 1790SOL    HW216830   0.612   1.980  16.267  0.6592  0.4488 -0.4305
 1791SOL     OW16831   2.337   3.240   3.472  0.5118  0.1683 -0.2907
 1791SOL    HW116832   2.260   3.281   3.431  0.8767 -1.9440 -3.1146
 1791SOL    HW216833   2.356   3.169   3.411 -0.6415  0.9210 -1.5430
 1792SOL     OW16834   3.836   1.004  13.239  0.1364  0.1230  0.2255
 1792SOL    HW116835   3.820   1.086  13.192 -1.0403 -1.4375 -2.1197
 1792SOL    HW216836   3.749   0.982  13.271 -0.6533  2.3797 -0.3622
 1793SOL     OW16837   0.376   4.627  10.222 -0.3470 -0.2613  0.0262
 1793SOL    HW116838   0.287   4.614  10.188  0.0644  1.7963 -1.8356
 1793SOL    HW216839   0.363   4.660  10.311  1.1796 -1.9691  0.8709
 1794SOL     OW16840   1.451   4.699   0.222 -0.1466  0.1826  0.3414
 1794SOL    HW116841   1.448   4.606   0.243 -1.0617 -1.0141 -5.1062
 1794SOL    HW216842   1.368   4.704   0.175  0.2129  2.0742 -0.0661
 1795SOL     OW16843   3.609   3.067   6.959 -0.5382  1.1659  0.2117
 1795SOL    HW116844   3.658   3.104   7.032 -2.1137  2.4909  0.6035
 1795SOL    HW216845   3.674   3.005   6.925 -1.2608  0.4127  0.2204
 1796SOL     OW16846   3.242   3.178  15.210  0.2601  0.1843 -0.8264
 1796SOL    HW116847   3.159   3.197  15.165  0.9776  0.2416 -2.1196
 1796SOL    HW216848   3.233   3.083  15.214 -0.9251  0.4076  1.5375
 1797SOL     OW16849   1.140   4.398   3.652  0.7183 -0.5408 -0.5068
 1797SOL    HW116850   1.068   4.343   3.682  1.1531 -1.2955 -0.8484
 1797SOL    HW216851   1.173   4.342   3.582  1.1970 -0.6072 -0.2319
 1798SOL     OW16852   1.329   0.664  11.389  0.5369 -0.6618  0.0972
 1798SOL    HW116853   1.326   0.704  11.302 -2.1590  1.6227  1.2440
 1798SOL    HW216854   1.258   0.600  11.381 -0.6104  1.0163 -3.2473
 1799SOL     OW16855   0.763   0.744   5.008 -0.7299  0.5441  0.3398
 1799SOL    HW116856   0.779   0.655   4.976  0.2525 -0.5247  3.8333
 1799SOL    HW216857   0.678   0.769   4.972 -1.1149  2.4071  2.5521
 1800SOL     OW16858   2.253   2.533   2.788  0.0240 -0.2482 -0.3630
 1800SOL    HW116859   2.199   2.610   2.805  0.2371 -0.4634  1.2388
 1800SOL    HW216860   2.325   2.570   2.736 -0.3341  0.0513 -0.6464
 1801SOL     OW16861   1.453   2.855   8.364 -0.6497  0.3961 -0.1672
 1801SOL    HW116862   1.502   2.924   8.409  2.1701 -0.4691 -1.9002
 1801SOL    HW216863   1.375   2.910   8.352 -0.3261  0.6918 -0.9149
 1802SOL     OW16864   3.650   0.333   8.464 -0.4557 -0.4310 -0.2831
 1802SOL    HW116865   3.616   0.417   8.494 -0.4741 -0.8510  0.8757
 1802SOL    HW216866   3.742   0.349   8.445 -0.1109 -1.7553  0.2646
 1803SOL     OW16867   0.104   3.231   2.302  0.3207  0.3374  0.1683
 1803SOL    HW116868   0.019   3.236   2.347 -0.3359 -0.5385 -0.9837
 1803SOL    HW216869   0.090   3.145   2.263 -1.3360 -0.4640  2.5070
 1804SOL     OW16870   3.862   2.453   1.707  0.0594  0.4243 -0.1050
 1804SOL    HW116871   3.839   2.406   1.787 -0.5775  1.3957  0.2802
 1804SOL    HW216872   3.871   2.545   1.733 -1.6367  0.8496 -1.0059
 1805SOL     OW16873   3.373   0.600   9.612 -0.5976 -0.3035  0.4213
 1805SOL    HW116874   3.465   0.608   9.636 -0.7461  0.7866  0.6171
 1805SOL    HW216875   3.339   0.538   9.677 -0.0645 -3.1308 -2.0289
 1806SOL     OW16876   2.928   1.663   7.908  0.1056 -0.3092 -0.7220
 1806SOL    HW116877   2.884   1.746   7.889  0.1482 -0.4657 -1.5228
 1806SOL    HW216878   2.947   1.665   8.001 -1.6464 -2.2178 -0.3206
 1807SOL     OW16879   1.197   1.138  15.923  0.3969  0.3170 -0.1639
 1807SOL    HW116880   1.141   1.183  15.986  0.9954 -2.1778  2.1880
 1807SOL    HW216881   1.241   1.080  15.986 -0.0666  0.1863  0.0423
 1808SOL     OW16882   4.109   0.239   1.698 -0.0117 -0.0001  0.2401
 1808SOL    HW116883   4.015   0.221   1.698  0.0472 -0.3097  0.3246
 1808SOL    HW216884   4.118   0.274   1.609 -2.4345  0.7275  0.2972
 1809SOL     OW16885   1.460   0.147  11.363 -0.2344 -0.0712  0.3408
 1809SOL    HW116886   1.480   0.167  11.271  1.4645  0.8690  0.9083
 1809SOL    HW216887   1.496   0.059  11.373 -1.0121 -0.3907  0.3512
 1810SOL     OW16888   0.406   2.408   2.203 -0.0685 -0.0737 -0.3598
 1810SOL    HW116889   0.466   2.339   2.175 -0.6095 -0.4778 -0.5198
 1810SOL    HW216890   0.352   2.418   2.125 -0.0699  0.1860 -0.3276
 1811SOL     OW16891   1.385   1.170   6.881  0.1685  0.6612 -0.4718
 1811SOL    HW116892   1.313   1.212   6.833  0.5545 -0.1270 -1.7649
 1811SOL    HW216893   1.407   1.238   6.945  0.8491  0.7420 -0.7914
 1812SOL     OW16894   3.645   4.693   4.133  0.0887  0.0222 -0.1753
 1812SOL    HW116895   3.568   4.708   4.187  0.5749 -0.4217  0.6351
 1812SOL    HW216896   3.679   4.610   4.166 -4.3017 -1.6783  0.1714
 1813SOL     OW16897   4.698   2.244   4.439  0.2501  0.1178 -0.0856
 1813SOL    HW116898   4.622   2.188   4.453 -0.8065  1.5825 -0.0193
 1813SOL    HW216899   0.047   2.219   4.499  0.0851  0.8597  0.4175
 1814SOL     OW16900   3.404   1.256  13.688 -0.2489 -0.3423  0.0026
 1814SOL    HW116901   3.439   1.174  13.652 -0.1167 -0.7433  1.0602
 1814SOL    HW216902   3.401   1.305  13.606 -1.3653 -3.7190 -1.9948
 1815SOL     OW16903   2.622   1.468  16.317 -0.7170 -0.0421 -0.0537
 1815SOL    HW116904   2.562   1.532  16.280 -0.8028 -0.2760 -0.3116
 1815SOL    HW216905   2.700   1.479  16.262 -1.9233  2.5811 -1.2512
 1816SOL     OW16906   0.543   3.746   8.840 -0.2565  0.1258  0.4668
 1816SOL    HW116907   0.616   3.703   8.795  0.2285  1.4771 -0.0048
 1816SOL    HW216908   0.568   3.838   8.842 -0.1744  0.1066  0.2808
 1817SOL     OW16909   2.191   2.976   0.794 -0.2375 -0.5259  0.2940
 1817SOL    HW116910   2.140   2.975   0.875  1.8974  1.5782  1.6609
 1817SOL    HW216911   2.258   3.042   0.813  0.1730 -0.8645  0.0024
 1818SOL     OW16912   1.955   3.164   1.615 -0.6386  0.1064  0.1021
 1818SOL    HW116913   1.902   3.234   1.576  2.2941  2.5030  0.4100
 1818SOL    HW216914   2.046   3.189   1.598  0.0939 -1.5979  1.5974
 1819SOL     OW16915   3.155   4.192   4.279  0.3655  0.0712  0.3415
 1819SOL    HW116916   3.063   4.178   4.300 -0.4226  1.6519 -2.0970
 1819SOL    HW216917   3.154   4.266   4.218  1.0252  0.3484  0.6599
 1820SOL     OW16918   3.402   2.755   2.607  0.5600  0.4828 -0.2614
 1820SOL    HW116919   3.330   2.801   2.564  0.4521 -0.1142 -0.7172
 1820SOL    HW216920   3.458   2.715   2.541 -0.6517  0.3836 -1.2317
 1821SOL     OW16921   2.228   0.661   2.512 -0.4518  0.3001 -0.2306
 1821SOL    HW116922   2.284   0.660   2.435 -1.8832  1.7521 -1.2917
 1821SOL    HW216923   2.144   0.639   2.471 -0.6690 -2.2935  1.5921
 1822SOL     OW16924   3.690   1.003  10.210 -0.2706  0.1999  0.8831
 1822SOL    HW116925   3.724   1.009  10.300 -0.2872  0.6619  0.8579
 1822SOL    HW216926   3.612   0.949  10.226 -1.9990  2.4645  0.0352
 1823SOL     OW16927   0.958   0.375  12.393 -0.3025  0.5641  0.0256
 1823SOL    HW116928   1.047   0.404  12.416 -0.3009  0.0778  0.6219
 1823SOL    HW216929   0.942   0.435  12.321  1.3454  1.0579  0.0565
 1824SOL     OW16930   3.250   0.945   5.318  0.2279 -0.4916  0.0676
 1824SOL    HW116931   3.308   0.969   5.246 -0.2484 -0.4167 -0.2900
 1824SOL    HW216932   3.190   0.890   5.267  1.5701 -0.5235 -1.4853
 1825SOL     OW16933   0.406   4.524   9.876 -0.7032  0.4460 -0.2205
 1825SOL    HW116934   0.406   4.435   9.840 -1.6794  1.3440 -2.4862
 1825SOL    HW216935   0.480   4.515   9.936 -0.9526 -0.6916 -0.0676
 1826SOL     OW16936   2.823   3.025   4.395  0.1712  0.1686  0.0991
 1826SOL    HW116937   2.819   2.940   4.439 -0.1362  0.0918 -0.0798
 1826SOL    HW216938   2.766   3.081   4.447  0.9351  1.3809 -0.3853
 1827SOL     OW16939   2.039   0.129   6.086 -0.3882 -0.0004  0.2773
 1827SOL    HW116940   2.048   0.219   6.054  0.9701  0.1052  0.9380
 1827SOL    HW216941   1.957   0.100   6.046  0.1207 -1.1473  0.0487
 1828SOL     OW16942   1.671   2.985   6.298  0.2763  0.0701 -0.0479
 1828SOL    HW116943   1.646   3.073   6.271 -2.3744 -0.5549  0.3875
 1828SOL    HW216944   1.665   2.926   6.223 -0.0191 -0.1145  0.1260
 1829SOL     OW16945   3.884   0.397  16.577  0.0491  0.2206  0.5356
 1829SOL    HW116946   3.947   0.469  16.573 -0.6990  0.8111 -0.4994
 1829SOL    HW216947   3.798   0.434  16.559 -0.3640 -0.1749  1.6848
 1830SOL     OW16948   1.562   0.852   8.376 -0.0584 -0.1451 -0.1170
 1830SOL    HW116949   1.641   0.813   8.415  0.9630  1.6646 -0.3773
 1830SOL    HW216950   1.593   0.859   8.285  1.2376  0.0342  0.3326
 1831SOL     OW16951   1.052   3.625   7.423 -0.6588 -0.0297 -0.8810
 1831SOL    HW116952   1.101   3.706   7.432 -0.0615 -0.5808  0.8331
 1831SOL    HW216953   1.114   3.565   7.382 -0.7164 -0.9289  0.3475
 1832SOL     OW16954   4.355   2.698  15.227  0.4659  0.1717 -0.2360
 1832SOL    HW116955   4.296   2.770  15.250 -0.0277  0.2586 -1.7680
 1832SOL    HW216956   4.433   2.744  15.258  1.7788 -1.4891 -1.0635
 1833SOL     OW16957   3.941   0.509   1.973 -0.2689  0.1693 -0.5909
 1833SOL    HW116958   3.906   0.494   1.886  2.4237  0.4458 -1.7036
 1833SOL    HW216959   3.866   0.505   2.033  1.1064  0.3227  1.1485
 1834SOL     OW16960   3.006   2.056   8.468  0.0150 -0.2825 -0.1712
 1834SOL    HW116961   3.060   2.068   8.546 -1.5541 -0.1409  0.8945
 1834SOL    HW216962   2.946   2.127   8.489 -0.7288 -1.7333  2.5599
 1835SOL     OW16963   0.695   1.817   4.491  0.1427 -0.2615  0.1015
 1835SOL    HW116964   0.619   1.808   4.548 -0.3779 -0.7069 -0.6564
 1835SOL    HW216965   0.736   1.895   4.530  0.9688 -0.7700  0.2587
 1836SOL     OW16966   4.099   1.669   4.384  0.6607  0.2525 -0.5279
 1836SOL    HW116967   4.031   1.611   4.418  0.5734  0.4392 -0.3791
 1836SOL    HW216968   4.169   1.663   4.449 -1.4388 -2.9701  1.4049
 1837SOL     OW16969   1.267   2.196   4.406  0.4579 -0.6644 -0.4633
 1837SOL    HW116970   1.281   2.102   4.414  0.9297 -0.6330 -0.9059
 1837SOL    HW216971   1.201   2.199   4.337 -0.3445  1.7949  0.3889
 1838SOL     OW16972   4.052   0.136   9.057 -0.0523 -0.0231  0.0632
 1838SOL    HW116973   4.006   0.063   9.015  2.0925 -0.8687 -0.8144
 1838SOL    HW216974   4.030   0.211   9.003 -2.1594 -0.5186  0.2050
 1839SOL     OW16975   3.614   2.091   5.044 -0.4065  0.3078  0.6520
 1839SOL    HW116976   3.682   2.024   5.043 -1.0838 -0.3889  0.4550
 1839SOL    HW216977   3.662   2.172   5.027  1.0101 -0.3117  1.7520
 1840SOL     OW16978   4.343   0.063   7.284  0.0778 -0.2680 -0.2567
 1840SOL    HW116979   4.270   0.032   7.338 -1.2904  0.0122 -1.9342
 1840SOL    HW216980   4.308   0.086   7.198 -1.0273 -1.4165 -0.1155
 1841SOL     OW16981   4.331   3.954   7.747  0.2555 -0.1200 -0.4166
 1841SOL    HW116982   4.281   4.031   7.720 -0.6393 -0.6154 -0.1919
 1841SOL    HW216983   4.279   3.925   7.822  2.0219 -0.6100  0.6242
 1842SOL     OW16984   1.030   3.664   8.984 -0.3728 -0.1009  0.3007
 1842SOL    HW116985   1.119   3.692   8.960 -0.8212  1.6401  0.6691
 1842SOL    HW216986   0.985   3.745   9.007 -1.1560 -0.4315 -0.0619
 1843SOL     OW16987   4.183   1.181   5.863  0.5348 -0.3584  0.3209
 1843SOL    HW116988   4.252   1.236   5.900  1.0585 -0.9968  0.3186
 1843SOL    HW216989   4.111   1.191   5.924 -0.7636  1.5259 -1.5343
 1844SOL     OW16990   3.534   3.682   7.514  0.8218 -0.1001  0.3347
 1844SOL    HW116991   3.451   3.728   7.528 -0.0917 -1.5411 -0.2495
 1844SOL    HW216992   3.523   3.631   7.433  2.2682  1.0086 -0.5577
 1845SOL     OW16993   4.069   3.989  11.454 -0.1655 -0.2857 -0.1595
 1845SOL    HW116994   4.041   4.077  11.429  0.7213  0.0915  0.1978
 1845SOL    HW216995   4.125   3.959  11.383  1.0994 -3.3379  2.1204
 1846SOL     OW16996   1.158   1.741  13.565  0.2074  0.2427  0.1914
 1846SOL    HW116997   1.192   1.694  13.641  2.8989  1.7845 -0.0787
 1846SOL    HW216998   1.066   1.715  13.577  0.2634  0.4234  1.0447
 1847SOL     OW16999   4.657   4.500   9.976 -0.1489  0.5760 -0.3091
 1847SOL    HW117000   4.585   4.525  10.035 -0.8826 -2.3103  0.0149
 1847SOL    HW217001   4.678   4.584   9.935  0.5991  1.8123  2.6044
 1848SOL     OW17002   1.623   1.792   3.113  0.5850  0.3105  0.3569
 1848SOL    HW117003   1.642   1.880   3.146  2.1529 -0.0045  0.3106
 1848SOL    HW217004   1.692   1.737   3.151  1.8906  2.4124  1.0366
 1849SOL     OW17005   4.055   3.984   4.012 -0.7706  0.1405 -0.2559
 1849SOL    HW117006   4.007   3.927   3.952  0.4310  1.1296 -2.1537
 1849SOL    HW217007   4.103   4.030   3.943  0.3692  0.6038  0.8348
 1850SOL     OW17008   2.826   1.475   4.942 -0.2277  0.2455  0.1894
 1850SOL    HW117009   2.800   1.529   4.867 -0.4282  0.2247  0.2428
 1850SOL    HW217010   2.839   1.395   4.893  1.1707  0.6321 -0.0815
 1851SOL     OW17011   3.972   0.027   1.168  0.2972 -0.4747  0.6899
 1851SOL    HW117012   3.946   0.119   1.160 -2.1727 -1.3066 -0.8886
 1851SOL    HW217013   4.030   0.029   1.244  1.4709 -0.1987 -0.2073
 1852SOL     OW17014   0.129   1.662   1.593 -0.1779  0.1559 -0.2167
 1852SOL    HW117015   0.047   1.693   1.554 -0.2571 -0.8625 -0.8638
 1852SOL    HW217016   0.135   1.572   1.560  0.9040  0.1542 -0.0272
 1853SOL     OW17017   3.048   0.321  12.919 -0.2682 -0.2427  0.1625
 1853SOL    HW117018   3.085   0.234  12.901  0.5646  0.2307 -0.4778
 1853SOL    HW217019   3.080   0.335  13.008  0.2759 -1.8736  0.2240
 1854SOL     OW17020   3.205   0.238  12.062 -0.1070  0.3665 -0.1416
 1854SOL    HW117021   3.181   0.217  11.972  0.7578  1.2492 -0.5862
 1854SOL    HW217022   3.256   0.162  12.092 -0.0663  0.5873  0.3466
 1855SOL     OW17023   3.230   1.952   2.876  1.1166  0.2784  0.2495
 1855SOL    HW117024   3.306   1.899   2.853 -0.7474 -1.4330 -1.9551
 1855SOL    HW217025   3.255   2.042   2.853  0.5058  0.4154  0.1436
 1856SOL     OW17026   3.774   3.434  11.639 -0.0269  0.1927  0.0782
 1856SOL    HW117027   3.742   3.410  11.726  0.5760 -1.3984 -0.1506
 1856SOL    HW217028   3.730   3.519  11.647 -0.7783 -0.1208 -0.7448
 1857SOL     OW17029   2.674   0.260   6.141 -0.0214 -0.2815 -0.7346
 1857SOL    HW117030   2.585   0.265   6.177  0.4524 -0.7331  0.5057
 1857SOL    HW217031   2.710   0.241   6.228 -1.1282  0.6028 -0.0692
 1858SOL     OW17032   1.005   0.677   0.737 -0.1154  0.8349 -0.0964
 1858SOL    HW117033   0.944   0.605   0.756  0.5586  0.0280 -0.9260
 1858SOL    HW217034   1.065   0.625   0.683 -0.7031  0.2150 -0.1521
 1859SOL     OW17035   0.327   1.092   4.143 -0.1966 -0.0588  0.1521
 1859SOL    HW117036   0.381   1.171   4.153 -0.1933 -0.0566  0.1182
 1859SOL    HW217037   0.371   1.024   4.193 -1.4480  0.1661  1.5898
 1860SOL     OW17038   0.623   3.742   6.302 -0.5649  0.3578  0.4010
 1860SOL    HW117039   0.633   3.837   6.300 -1.8252  0.5195  1.5270
 1860SOL    HW217040   0.658   3.726   6.215  5.2026  2.9603  2.2240
 1861SOL     OW17041   0.888   3.095   3.182 -0.0467  0.1576  0.2291
 1861SOL    HW117042   0.953   3.035   3.146  0.5245 -0.0080  1.5328
 1861SOL    HW217043   0.920   3.105   3.272  0.4018 -2.4399  0.3482
 1862SOL     OW17044   2.651   1.310   3.106 -0.0277  0.3364 -0.6112
 1862SOL    HW117045   2.578   1.372   3.106 -0.2925  0.0404 -2.3451
 1862SOL    HW217046   2.696   1.341   3.185 -1.4003 -0.2034  0.3835
 1863SOL     OW17047   2.361   1.989   8.124  0.7570 -1.1723  0.0925
 1863SOL    HW117048   2.297   1.920   8.106 -2.1001  0.9247  2.1213
 1863SOL    HW217049   2.445   1.944   8.124  0.9212 -0.8643 -0.2938
 1864SOL     OW17050   1.848   2.247   3.677 -0.4015 -0.4250  0.0728
 1864SOL    HW117051   1.897   2.173   3.643  0.2223  0.6326 -1.3189
 1864SOL    HW217052   1.891   2.312   3.622  1.3552  0.1595  2.1122
 1865SOL     OW17053   1.026   3.573  14.037 -0.0157  0.5278  0.9546
 1865SOL    HW117054   0.942   3.599  14.075  0.3088  1.1324  1.2605
 1865SOL    HW217055   1.076   3.633  14.093 -0.6191  1.3654  0.5897
 1866SOL     OW17056   1.006   2.477   3.133  0.6267 -0.3056 -0.4154
 1866SOL    HW117057   1.061   2.399   3.132  1.5821  0.3628 -0.1046
 1866SOL    HW217058   1.000   2.514   3.045 -0.9920  2.0351  0.6713
 1867SOL     OW17059   2.515   3.794   2.762 -0.0522  0.2029  0.5275
 1867SOL    HW117060   2.489   3.705   2.741  0.5002  0.0464  0.5179
 1867SOL    HW217061   2.433   3.828   2.799  1.0941  0.7448  2.5898
 1868SOL     OW17062   0.811   2.518   7.352  0.5724  0.5080  0.2230
 1868SOL    HW117063   0.791   2.571   7.275 -2.5567 -0.9092  0.0962
 1868SOL    HW217064   0.724   2.479   7.358  0.5036  0.7289  0.6268
 1869SOL     OW17065   1.153   0.000  17.308  0.1078  0.3151  0.1217
 1869SOL    HW117066   1.168   0.048  17.226 -2.2980  0.6668 -0.1040
 1869SOL    HW217067   1.174   4.633  17.282 -2.3666 -0.4643  0.8768
 1870SOL     OW17068   1.163   4.441   5.854  0.6265  0.1221 -0.8012
 1870SOL    HW117069   1.175   4.366   5.796  0.4881 -0.1801 -0.4384
 1870SOL    HW217070   1.169   4.516   5.794  1.2072 -0.4925 -1.5013
 1871SOL     OW17071   2.871   1.856   7.170  0.2868 -0.0480  0.4169
 1871SOL    HW117072   2.948   1.816   7.130 -0.3537 -1.1012  0.2475
 1871SOL    HW217073   2.807   1.835   7.102  1.5333 -0.9901 -0.4474
 1872SOL     OW17074   0.493   3.790   7.660 -0.1583  0.3860 -0.4401
 1872SOL    HW117075   0.547   3.716   7.689  0.2931  1.0162  0.3057
 1872SOL    HW217076   0.561   3.855   7.645 -0.1727 -0.1193 -2.6883
 1873SOL     OW17077   1.561   3.628  10.938 -0.2977  0.2357  0.0187
 1873SOL    HW117078   1.473   3.648  10.970  0.2891 -1.5236  2.7723
 1873SOL    HW217079   1.614   3.685  10.995  0.5227  1.2785 -1.7984
 1874SOL     OW17080   0.244   4.485   7.322  0.2461  0.5102 -0.1983
 1874SOL    HW117081   0.152   4.475   7.345 -0.0543 -0.7706 -2.0130
 1874SOL    HW217082   0.242   4.563   7.267 -0.3784 -1.4982 -2.9788
 1875SOL     OW17083   2.065   0.307   8.614  0.0481  0.2386 -0.1063
 1875SOL    HW117084   2.068   0.391   8.661  1.1924  1.6323 -2.6612
 1875SOL    HW217085   2.126   0.337   8.546 -0.3819  1.1391 -0.0930
 1876SOL     OW17086   3.000   0.654   6.249  0.6639 -1.0740 -0.6079
 1876SOL    HW117087   3.066   0.585   6.250  0.4776 -1.2261  1.4249
 1876SOL    HW217088   3.029   0.715   6.182  0.9326 -1.6769 -1.0422
 1877SOL     OW17089   0.116   2.905   5.643 -0.3029 -0.2358  0.5359
 1877SOL    HW117090   0.038   2.956   5.623 -0.2778 -0.3821  0.0653
 1877SOL    HW217091   0.080   2.856   5.717 -1.9173 -1.3283 -0.9681
 1878SOL     OW17092   1.705   3.724   0.404  0.0770  0.1022 -0.1272
 1878SOL    HW117093   1.660   3.715   0.320  0.3472  0.5749 -0.3257
 1878SOL    HW217094   1.705   3.633   0.431  1.0232  0.0675 -0.2778
 1879SOL     OW17095   4.716   1.680  15.884 -0.0954  0.8511  0.6365
 1879SOL    HW117096   4.622   1.688  15.870 -0.1016  0.0986  0.2587
 1879SOL    HW217097   0.026   1.766  15.857  1.1130 -0.0435 -0.7542
 1880SOL     OW17098   2.436   2.549   1.235 -0.4409 -0.0563 -0.0012
 1880SOL    HW117099   2.414   2.586   1.321  0.6427 -0.1258  0.3107
 1880SOL    HW217100   2.395   2.463   1.248 -2.9779  0.9889 -1.1743
 1881SOL     OW17101   1.117   2.537   5.463 -1.0616  0.2540  0.1817
 1881SOL    HW117102   1.109   2.516   5.370 -0.6519 -1.7788  0.6058
 1881SOL    HW217103   1.026   2.527   5.490 -0.6475 -0.0837  1.4842
 1882SOL     OW17104   2.142   1.259   4.725 -0.6704 -0.0588 -0.1770
 1882SOL    HW117105   2.072   1.243   4.789  0.3799  1.4630  1.3640
 1882SOL    HW217106   2.177   1.170   4.724 -2.5813 -0.7939 -1.6384
 1883SOL     OW17107   3.215   3.482   2.911  0.8708  0.0567 -0.1395
 1883SOL    HW117108   3.248   3.401   2.872  2.9290  1.8759 -2.1090
 1883SOL    HW217109   3.253   3.556   2.865 -0.6107  1.2965  0.6205
 1884SOL     OW17110   1.190   1.251   6.437  0.3595  0.5242 -0.4093
 1884SOL    HW117111   1.137   1.286   6.365  0.8450  1.6237 -0.2406
 1884SOL    HW217112   1.257   1.320   6.440  0.9906 -0.2196  2.3176
 1885SOL     OW17113   0.858   1.191   0.287 -0.3334 -0.0734  0.1536
 1885SOL    HW117114   0.813   1.260   0.238 -0.6724 -0.4864 -0.1138
 1885SOL    HW217115   0.893   1.139   0.215  1.5006 -0.4479  1.3305
 1886SOL     OW17116   4.184   0.831  10.082  0.2124 -0.1106  0.1612
 1886SOL    HW117117   4.272   0.850  10.050  0.7226  1.0613  2.2353
 1886SOL    HW217118   4.177   0.738  10.102  1.8222 -1.2164 -4.4079
 1887SOL     OW17119   4.033   3.460  17.111 -0.3353  0.1520 -0.2405
 1887SOL    HW117120   3.944   3.431  17.090 -0.1655 -0.5859  0.0426
 1887SOL    HW217121   4.083   3.381  17.131  0.3828  0.1185 -2.1227
 1888SOL     OW17122   0.359   1.253   7.038  0.2244 -0.6011  0.4301
 1888SOL    HW117123   0.341   1.161   7.052 -1.2609 -0.1317  1.5742
 1888SOL    HW217124   0.358   1.289   7.127 -0.1711  1.5615 -0.4470
 1889SOL     OW17125   2.091   3.288  15.423  0.2473 -0.0797  0.7029
 1889SOL    HW117126   2.159   3.220  15.423 -0.6555 -0.9942 -0.6561
 1889SOL    HW217127   2.098   3.315  15.331  1.9907 -0.2350  0.7826
 1890SOL     OW17128   1.663   4.600   5.703  0.0997  0.1920 -0.2331
 1890SOL    HW117129   1.639   4.595   5.795  1.4556 -0.4412  0.0706
 1890SOL    HW217130   1.620   4.679   5.668  0.8458  0.7780  0.1613
 1891SOL     OW17131   2.411   2.596  14.893 -0.1900 -0.0251  0.2779
 1891SOL    HW117132   2.420   2.607  14.988 -0.4129  1.4623  0.1243
 1891SOL    HW217133   2.431   2.503  14.878 -0.5981  0.1735 -1.4989
 1892SOL     OW17134   1.156   2.245   3.085 -0.0746  0.4316 -0.0099
 1892SOL    HW117135   1.113   2.166   3.052  0.2042 -0.5553  1.9879
 1892SOL    HW217136   1.238   2.224   3.040 -0.9846 -0.4008 -1.2757
 1893SOL     OW17137   2.432   2.038   5.906  0.3397  0.0833  0.2542
 1893SOL    HW117138   2.433   1.987   5.987 -1.2444  0.3568  0.4300
 1893SOL    HW217139   2.366   1.993   5.854  0.5114  1.1813 -0.9015
 1894SOL     OW17140   2.135   1.090   5.796 -0.2733 -0.5268 -0.3449
 1894SOL    HW117141   2.045   1.104   5.768 -0.4361 -1.8794 -0.5045
 1894SOL    HW217142   2.143   1.149   5.871 -0.4185  0.0026 -0.7476
 1895SOL     OW17143   1.442   0.458  12.321  0.2355 -0.1953  0.0049
 1895SOL    HW117144   1.449   0.485  12.230 -0.1335 -1.9938 -0.5603
 1895SOL    HW217145   1.515   0.396  12.322  1.4595  1.2078 -1.4318
 1896SOL     OW17146   4.020   0.046   3.240 -0.1068  0.3415 -0.1436
 1896SOL    HW117147   4.013   4.677   3.209  0.0684  1.1676 -2.6610
 1896SOL    HW217148   4.059   0.033   3.326  1.2910 -0.8886 -0.9701
 1897SOL     OW17149   1.306   1.688   4.393  0.1330  0.5645  0.1460
 1897SOL    HW117150   1.328   1.597   4.372 -2.5125  0.2018 -1.0527
 1897SOL    HW217151   1.269   1.672   4.480 -0.5705  2.0130  0.0940
 1898SOL     OW17152   4.259   1.772   8.922  1.0914 -0.1964 -0.7012
 1898SOL    HW117153   4.258   1.867   8.907 -2.8392 -0.0494  0.3545
 1898SOL    HW217154   4.198   1.746   8.853  0.3060  0.1756 -0.1531
 1899SOL     OW17155   4.541   2.391   7.236 -0.1641 -0.0514 -0.7371
 1899SOL    HW117156   4.550   2.406   7.142 -0.8199 -0.5848 -0.8863
 1899SOL    HW217157   4.519   2.298   7.247  1.4834 -0.2222  0.9919
 1900SOL     OW17158   2.265   0.986   2.639  0.2939 -0.3181  0.0098
 1900SOL    HW117159   2.179   0.984   2.681  0.0391  1.4816 -0.4354
 1900SOL    HW217160   2.303   0.908   2.679 -1.5173 -1.2850 -0.1655
 1901SOL     OW17161   3.057   0.319   7.408 -0.0382  0.6542  0.1443
 1901SOL    HW117162   3.107   0.399   7.390 -0.4795  0.3086 -2.6997
 1901SOL    HW217163   2.998   0.343   7.479  1.8886  0.6561  1.7322
 1902SOL     OW17164   0.206   1.842   9.074 -0.5017 -0.2333 -0.2455
 1902SOL    HW117165   0.173   1.755   9.100 -0.3760 -0.1837  0.0654
 1902SOL    HW217166   0.299   1.834   9.096 -0.3150  0.8393 -0.6820
 1903SOL     OW17167   1.271   2.646   2.958  0.0942  0.1227  0.6301
 1903SOL    HW117168   1.331   2.576   2.933 -1.7354 -1.3585  0.3310
 1903SOL    HW217169   1.200   2.605   2.907 -1.1386 -0.1696  2.5770
 1904SOL     OW17170   4.478   3.721  15.216  0.1455  0.2412 -0.0669
 1904SOL    HW117171   4.539   3.782  15.176 -0.9025 -0.3513 -2.5587
 1904SOL    HW217172   4.393   3.765  15.225  0.5968  1.0414  0.2797
 1905SOL     OW17173   2.293   0.544   2.761  0.1062  0.1092 -0.0904
 1905SOL    HW117174   2.326   0.458   2.736  0.5672  0.3162 -0.2041
 1905SOL    HW217175   2.311   0.603   2.687 -0.9904 -1.6905 -1.8016
 1906SOL     OW17176   0.142   3.584   8.616  1.0775  0.0847 -0.6802
 1906SOL    HW117177   0.193   3.607   8.693 -2.0123 -2.4705  2.1049
 1906SOL    HW217178   0.068   3.549   8.666  0.7069 -0.2155 -1.4347
 1907SOL     OW17179   0.950   3.354   2.180 -0.0298 -1.0185 -0.0148
 1907SOL    HW117180   1.026   3.380   2.127  1.1048 -1.3969  1.4141
 1907SOL    HW217181   0.933   3.429   2.238  0.1758 -0.9381 -0.0586
 1908SOL     OW17182   3.009   0.388  12.229  0.2072  0.5194 -0.2489
 1908SOL    HW117183   2.997   0.299  12.261 -0.0259  0.4710 -0.4726
 1908SOL    HW217184   3.073   0.378  12.158 -0.9693 -2.6304 -0.8655
 1909SOL     OW17185   1.058   1.497  12.507  0.4929 -0.3233 -0.6197
 1909SOL    HW117186   1.085   1.546  12.584  0.6043 -1.5736  0.1258
 1909SOL    HW217187   1.121   1.425  12.509 -0.5061 -1.1858 -0.3395
 1910SOL     OW17188   3.623   4.038   9.227 -0.0071 -0.1495 -0.0474
 1910SOL    HW117189   3.664   4.122   9.248 -0.5889 -0.4103  2.1879
 1910SOL    HW217190   3.554   4.062   9.166 -0.6226  0.5165  0.9103
 1911SOL     OW17191   3.295   4.440   8.692  0.7736  0.3552 -0.4074
 1911SOL    HW117192   3.233   4.391   8.746 -0.0043 -1.0783 -2.6087
 1911SOL    HW217193   3.311   4.517   8.748  2.3960 -1.3673  1.5098
 1912SOL     OW17194   0.781   4.150   8.225  0.0445 -0.6847  0.4492
 1912SOL    HW117195   0.800   4.109   8.141  0.8565  0.7872 -0.0853
 1912SOL    HW217196   0.748   4.233   8.190 -0.2049 -1.1019 -0.3071
 1913SOL     OW17197   0.008   3.545   6.881 -0.3400  0.1100  0.3347
 1913SOL    HW117198   4.650   3.532   6.832 -0.4169 -0.9363  0.7327
 1913SOL    HW217199   0.032   3.454   6.899  1.5307  0.0070 -2.7187
 1914SOL     OW17200   0.258   2.035   8.691  0.9374  0.2916 -0.3730
 1914SOL    HW117201   0.317   1.961   8.707  2.1009  1.0375 -1.1610
 1914SOL    HW217202   0.282   2.092   8.764 -1.7086  0.3312  0.4399
 1915SOL     OW17203   4.428   2.519  16.423  0.2449  0.3282  0.0151
 1915SOL    HW117204   4.475   2.442  16.455 -0.6906 -0.7219 -1.1569
 1915SOL    HW217205   4.499   2.542  16.364 -1.0751  0.5683 -1.4903
 1916SOL     OW17206   2.248   1.634   9.142 -0.2574  0.2422 -0.6382
 1916SOL    HW117207   2.310   1.698   9.107  0.8040 -1.2544 -1.5060
 1916SOL    HW217208   2.190   1.617   9.068 -1.0460 -0.9919  0.2651
 1917SOL     OW17209   3.390   3.427   3.933  0.1398  0.3560  0.5300
 1917SOL    HW117210   3.378   3.332   3.924 -0.1414  0.1132  3.3675
 1917SOL    HW217211   3.303   3.468   3.929  0.3576  0.5646 -2.0370
 1918SOL     OW17212   2.043   1.610  17.664  0.3539 -0.1965  0.1618
 1918SOL    HW117213   2.082   1.685  17.619  1.7105 -1.8324 -1.3838
 1918SOL    HW217214   2.039   1.650   0.059  0.2840 -1.8626  0.9268
 1919SOL     OW17215   3.110   4.668   6.693  0.0493 -0.5216 -0.2212
 1919SOL    HW117216   3.058   4.698   6.618  0.5873  2.4213  0.6242
 1919SOL    HW217217   3.173   4.604   6.658  0.1659  0.1222 -1.1808
 1920SOL     OW17218   2.536   4.410  14.536  0.0172 -0.3166 -0.3681
 1920SOL    HW117219   2.618   4.362  14.547 -0.4514 -0.5118  2.2084
 1920SOL    HW217220   2.464   4.349  14.518 -0.3051 -0.2400  0.6440
 1921SOL     OW17221   0.267   1.348   1.538 -0.2458  0.3007  0.2728
 1921SOL    HW117222   0.329   1.407   1.496 -0.8317  1.3255  0.8410
 1921SOL    HW217223   0.196   1.340   1.475 -1.4904 -0.1201  1.7107
 1922SOL     OW17224   1.171   1.545   5.596 -0.2244 -0.7134 -0.2356
 1922SOL    HW117225   1.262   1.576   5.603 -0.1021 -1.4114  1.4410
 1922SOL    HW217226   1.127   1.613   5.647  1.9820  0.7819 -0.2935
 1923SOL     OW17227   4.047   2.103   1.711 -0.1430  0.0653  0.1233
 1923SOL    HW117228   4.134   2.070   1.688  1.1456  1.5834  2.7831
 1923SOL    HW217229   3.989   2.028   1.700  0.8279 -0.9868  2.2110
 1924SOL     OW17230   4.701   0.080  12.889 -0.8390  0.2959 -0.1226
 1924SOL    HW117231   0.038   0.024  12.840  0.6662  0.5002  1.4527
 1924SOL    HW217232   4.652   0.010  12.933  0.6329  0.5846  2.0223
 1925SOL     OW17233   0.007   0.790   2.524  0.4228 -0.0515  0.0908
 1925SOL    HW117234   4.704   0.711   2.477  2.3798 -0.1689 -0.7666
 1925SOL    HW217235   0.080   0.818   2.469  1.8359  0.2625  2.1058
 1926SOL     OW17236   0.922   3.562  12.459  0.3626  0.5828  0.1558
 1926SOL    HW117237   0.887   3.486  12.505  0.6546  0.4115  0.0967
 1926SOL    HW217238   0.937   3.616  12.536  1.0775  0.0352  0.4039
 1927SOL     OW17239   1.898   4.344   6.901  0.1427  0.5855 -0.2455
 1927SOL    HW117240   1.914   4.252   6.921 -0.1375  1.0789  2.1632
 1927SOL    HW217241   1.838   4.346   6.826 -1.1504  1.4724  0.8271
 1928SOL     OW17242   3.332   2.394  14.599  0.1275  0.4100 -0.3759
 1928SOL    HW117243   3.411   2.428  14.557 -0.7026  0.5782 -1.8087
 1928SOL    HW217244   3.298   2.338  14.530 -2.0068  0.3812  0.6928
 1929SOL     OW17245   2.299   3.815   9.014 -0.0953  0.2725  0.0243
 1929SOL    HW117246   2.257   3.795   9.097 -1.6363  1.0399 -0.5829
 1929SOL    HW217247   2.233   3.793   8.949 -0.0700  0.2309  0.0126
 1930SOL     OW17248   0.256   3.481  16.004 -0.2861  0.2110  0.1723
 1930SOL    HW117249   0.278   3.388  16.011 -3.8804 -0.6134  0.1506
 1930SOL    HW217250   0.206   3.472  15.924  0.5895  0.8608 -0.4466
 1931SOL     OW17251   2.455   4.518  10.227  0.7043  0.3392 -0.4909
 1931SOL    HW117252   2.520   4.581  10.196  0.2933  1.2250  0.4516
 1931SOL    HW217253   2.385   4.582  10.233  0.9045  0.3586  1.4717
 1932SOL     OW17254   1.040   1.034   5.591  0.1285 -0.0698 -1.1071
 1932SOL    HW117255   1.097   0.978   5.644 -1.4512 -2.8388 -2.3246
 1932SOL    HW217256   0.992   1.086   5.655  0.6654  0.2060 -0.9298
 1933SOL     OW17257   2.889   3.720   9.353 -0.3199  0.2237  0.8479
 1933SOL    HW117258   2.970   3.743   9.400  0.0373 -1.2062  0.9381
 1933SOL    HW217259   2.886   3.626   9.371  1.1419  0.1813  0.9175
 1934SOL     OW17260   4.411   0.661   7.140 -0.1550 -0.3691  0.2624
 1934SOL    HW117261   4.383   0.664   7.232 -0.9052  1.9630 -0.0470
 1934SOL    HW217262   4.355   0.586   7.119 -0.9657  0.1157  0.6781
 1935SOL     OW17263   4.572   2.607  10.995 -0.0076  0.9440 -0.2206
 1935SOL    HW117264   4.568   2.637  11.086  2.5169  0.4755  0.0483
 1935SOL    HW217265   4.488   2.562  11.003  0.0984  0.7625 -0.1352
 1936SOL     OW17266   0.984   3.202  12.553  0.9530 -0.0325 -0.3006
 1936SOL    HW117267   1.003   3.216  12.646  1.1728  0.3994 -0.4116
 1936SOL    HW217268   0.921   3.274  12.545  2.2513  0.8181 -2.7081
 1937SOL     OW17269   1.980   0.188   4.048  0.7656 -0.2687  0.4583
 1937SOL    HW117270   2.030   0.160   4.124  0.9126  0.9832  0.8215
 1937SOL    HW217271   2.040   0.234   3.989  0.3087  0.6692  0.7276
 1938SOL     OW17272   1.923   1.936  15.171  0.1843 -0.5040 -0.1310
 1938SOL    HW117273   1.901   1.844  15.165  0.3533 -0.4359 -1.8835
 1938SOL    HW217274   1.835   1.973  15.169 -0.1913 -1.1136  4.6653
 1939SOL     OW17275   3.275   0.903  11.724  0.5739  0.2557 -0.0317
 1939SOL    HW117276   3.367   0.924  11.739 -0.1244  1.8141  2.0565
 1939SOL    HW217277   3.247   0.951  11.646  1.4603 -1.5631 -1.4863
 1940SOL     OW17278   2.461   1.184   4.474  0.6223  0.1625 -0.5754
 1940SOL    HW117279   2.499   1.098   4.490  0.8885  0.7400  1.9557
 1940SOL    HW217280   2.393   1.193   4.541 -0.2321  1.1901 -1.5833
 1941SOL     OW17281   3.178   0.917   3.278 -0.4346 -0.0987 -0.3916
 1941SOL    HW117282   3.198   1.010   3.288  0.5435 -0.4663  1.1140
 1941SOL    HW217283   3.128   0.894   3.357 -0.4635 -1.8595 -0.9253
 1942SOL     OW17284   3.700   3.135   9.434 -0.4905 -0.5722  0.0703
 1942SOL    HW117285   3.717   3.073   9.363  0.5726 -1.1797  0.8423
 1942SOL    HW217286   3.710   3.081   9.513  0.2775 -0.4769  0.0398
 1943SOL     OW17287   4.169   2.332   8.651  0.5676 -0.0356 -0.0124
 1943SOL    HW117288   4.097   2.359   8.594  1.2575  0.7905 -0.4822
 1943SOL    HW217289   4.234   2.397   8.626 -0.6862  0.3975 -2.1899
 1944SOL     OW17290   3.256   0.661   8.019 -0.2675 -0.0267  0.2182
 1944SOL    HW117291   3.350   0.675   8.015 -0.4935  1.1372 -1.1904
 1944SOL    HW217292   3.241   0.571   8.048 -1.1095 -0.0300 -0.2118
 1945SOL     OW17293   4.470   0.768   8.288 -0.9722 -0.3681  1.1053
 1945SOL    HW117294   4.492   0.720   8.368  4.6373 -0.5633 -0.5781
 1945SOL    HW217295   4.517   0.851   8.291 -2.2684  0.4539 -1.0602
 1946SOL     OW17296   2.952   3.064  15.918 -0.3477 -0.8360 -0.0671
 1946SOL    HW117297   3.003   3.006  15.975  0.5196  0.7199  0.7320
 1946SOL    HW217298   3.026   3.120  15.892 -0.0898 -0.8551  0.6347
 1947SOL     OW17299   1.881   2.375   3.231 -0.2004 -0.1340 -0.0231
 1947SOL    HW117300   1.840   2.460   3.241  1.4808  0.4424  1.8997
 1947SOL    HW217301   1.933   2.384   3.150  0.4626 -0.2996  0.3824
 1948SOL     OW17302   2.173   3.204   5.764 -0.4817 -0.9535  0.2250
 1948SOL    HW117303   2.231   3.175   5.834  0.3415 -1.1519 -0.5397
 1948SOL    HW217304   2.183   3.133   5.700 -1.7529 -1.0621  0.1368
 1949SOL     OW17305   1.108   4.260   8.434  0.0279 -0.0272  0.6363
 1949SOL    HW117306   1.132   4.345   8.397 -1.0436  0.1876  0.4164
 1949SOL    HW217307   1.192   4.219   8.450  0.7161  1.4393  0.8072
 1950SOL     OW17308   1.994   0.988   9.771  0.3953  0.4211 -0.9095
 1950SOL    HW117309   1.916   1.043   9.775  0.8164  0.7946  2.5551
 1950SOL    HW217310   1.958   0.906   9.803  2.8004 -0.4002 -0.3072
 1951SOL     OW17311   1.811   3.410   5.757  0.1219 -0.1012  0.1462
 1951SOL    HW117312   1.846   3.450   5.837  2.0688  0.7060 -1.1159
 1951SOL    HW217313   1.716   3.419   5.769  0.3757 -1.2217  2.9699
 1952SOL     OW17314   2.338   1.643   3.318  0.0661  0.1053 -0.1398
 1952SOL    HW117315   2.249   1.666   3.293 -0.3918 -0.7641  0.6849
 1952SOL    HW217316   2.317   1.586   3.393 -1.2507  1.3267  0.4103
 1953SOL     OW17317   3.337   2.059   5.029  0.0648  0.2629 -0.0805
 1953SOL    HW117318   3.431   2.075   5.023  0.4511 -1.8410  0.5423
 1953SOL    HW217319   3.328   2.000   5.104  2.2203  0.9029  0.6763
 1954SOL     OW17320   4.561   1.932  17.297 -0.4354 -0.2522 -0.3722
 1954SOL    HW117321   4.653   1.953  17.284 -0.8635  1.7068 -0.3390
 1954SOL    HW217322   4.561   1.837  17.285  1.1654 -0.0828 -1.6247
 1955SOL     OW17323   3.656   4.674  14.686 -0.0283 -0.1443 -0.1201
 1955SOL    HW117324   3.602   0.030  14.683 -0.8995 -0.7715 -0.7117
 1955SOL    HW217325   3.685   4.667  14.777  0.7640  0.1889 -0.3450
 1956SOL     OW17326   0.985   3.729  10.305 -0.2351  0.9128 -0.4591
 1956SOL    HW117327   1.007   3.643  10.267 -0.3015  0.5469  0.3400
 1956SOL    HW217328   0.933   3.711  10.383 -0.1810 -0.6786 -0.7896
 1957SOL     OW17329   2.030   3.252  17.438 -0.0163 -0.0948 -0.0262
 1957SOL    HW117330   1.955   3.236  17.381 -0.1348 -0.6593  0.2957
 1957SOL    HW217331   2.010   3.342  17.464  1.1731 -0.1817  1.2071
 1958SOL     OW17332   2.296   4.599   8.744 -0.0215 -0.5462  0.0838
 1958SOL    HW117333   2.281   4.612   8.837  0.5067 -1.9569  0.3798
 1958SOL    HW217334   2.211   4.569   8.712 -1.0167 -0.7543  2.9444
 1959SOL     OW17335   4.237   0.773   5.761  0.0383 -0.5311  0.2772
 1959SOL    HW117336   4.274   0.761   5.848  0.5268 -2.0822 -0.1365
 1959SOL    HW217337   4.159   0.716   5.761 -1.2935  1.3138  2.3656
 1960SOL     OW17338   3.792   1.358   6.560  0.1274 -0.1799  0.2693
 1960SOL    HW117339   3.717   1.357   6.502 -1.9692 -0.8962  2.9906
 1960SOL    HW217340   3.864   1.331   6.503  0.0520 -1.0154  0.5671
 1961SOL     OW17341   3.975   3.626   3.066 -0.0583 -0.2112 -0.2370
 1961SOL    HW117342   4.065   3.652   3.052  0.3380 -2.4112 -1.7467
 1961SOL    HW217343   3.958   3.587   2.980 -0.1144 -0.6354 -0.0328
 1962SOL     OW17344   3.348   4.168   2.917  0.0654  0.3091 -0.0668
 1962SOL    HW117345   3.435   4.137   2.890  0.2853  0.6106  0.2924
 1962SOL    HW217346   3.330   4.109   2.989  1.4684 -0.0359  0.0096
 1963SOL     OW17347   1.201   4.496   5.449  0.2909 -0.0521 -0.0923
 1963SOL    HW117348   1.247   4.415   5.427  1.0048 -0.0371  1.3744
 1963SOL    HW217349   1.136   4.500   5.380  0.0774 -3.0014 -0.0449
 1964SOL     OW17350   1.078   3.282   8.065 -0.6021  0.0046 -0.2941
 1964SOL    HW117351   1.071   3.329   8.148  0.1000 -1.9846  0.8941
 1964SOL    HW217352   1.017   3.209   8.077 -1.4439  0.6428 -0.7415
 1965SOL     OW17353   2.813   3.433  10.861  0.4754  0.5178  0.0752
 1965SOL    HW117354   2.887   3.392  10.904  0.6583  1.5224  0.7124
 1965SOL    HW217355   2.805   3.517  10.905 -1.1007 -0.0791  0.9213
 1966SOL     OW17356   4.202   1.629   2.295 -0.1892  0.1752  0.4921
 1966SOL    HW117357   4.161   1.692   2.236  1.0487 -1.4055 -2.0332
 1966SOL    HW217358   4.152   1.548   2.289  0.6658 -0.2786 -0.3903
 1967SOL     OW17359   2.368   3.830  12.259  0.5874  0.4698  0.3900
 1967SOL    HW117360   2.456   3.866  12.271  1.6386 -1.4863 -1.4787
 1967SOL    HW217361   2.352   3.761  12.324  1.8875 -0.0874  0.1134
 1968SOL     OW17362   3.797   1.128   7.398 -0.0156  0.5975  0.0593
 1968SOL    HW117363   3.789   1.039   7.361 -0.5506  1.1560 -1.1727
 1968SOL    HW217364   3.800   1.178   7.316  0.9184 -0.1571 -0.3736
 1969SOL     OW17365   2.000   0.183  13.001  0.7683  0.1069 -0.3031
 1969SOL    HW117366   2.090   0.151  12.998  0.4674 -0.6374 -1.7021
 1969SOL    HW217367   1.979   0.160  13.091  0.2935  1.1666 -0.1467
 1970SOL     OW17368   0.568   0.410  10.030  0.0608 -0.2881  0.1189
 1970SOL    HW117369   0.569   0.336  10.090 -2.5113  1.3062  2.0896
 1970SOL    HW217370   0.570   0.491  10.080 -4.3845 -1.1354  1.6865
 1971SOL     OW17371   3.812   4.529   7.792 -0.0793  0.4015 -0.3254
 1971SOL    HW117372   3.880   4.535   7.860 -0.6178 -0.3139  0.2777
 1971SOL    HW217373   3.760   4.452   7.814 -1.9616  1.1457 -2.2395
 1972SOL     OW17374   1.628   4.585   7.264  0.4737  0.3703  0.3101
 1972SOL    HW117375   1.668   4.501   7.288 -0.5204 -0.0345  0.5743
 1972SOL    HW217376   1.699   4.648   7.256 -0.8637  2.0498  1.7544
 1973SOL     OW17377   3.008   3.319  11.025  0.5457  0.6911 -0.5997
 1973SOL    HW117378   2.989   3.404  11.065 -0.4297 -0.3786  1.2310
 1973SOL    HW217379   3.099   3.321  11.056  0.9356 -0.3665 -1.6915
 1974SOL     OW17380   0.814   4.559   3.284  0.3699 -0.3019 -0.2070
 1974SOL    HW117381   0.744   4.538   3.222  1.6512 -2.2490 -0.9964
 1974SOL    HW217382   0.883   4.582   3.221 -0.4543  0.4755 -0.8332
 1975SOL     OW17383   0.218   3.906  16.565 -0.2117 -0.1544  0.8226
 1975SOL    HW117384   0.222   3.812  16.552  1.3016  0.0710 -0.3302
 1975SOL    HW217385   0.295   3.934  16.516 -1.5553 -0.6020 -1.5251
 1976SOL     OW17386   2.002   0.134   9.053 -0.3248  0.4086  0.3518
 1976SOL    HW117387   1.960   0.174   8.977  1.1548  0.8720 -0.2189
 1976SOL    HW217388   2.092   0.118   9.024 -0.5628  2.6227 -1.5888
 1977SOL     OW17389   3.044   2.702   7.882  0.5002  0.7907 -0.3863
 1977SOL    HW117390   3.097   2.623   7.894 -0.6940 -0.2749 -2.0952
 1977SOL    HW217391   2.958   2.659   7.883  0.0172  1.7339 -1.2942
 1978SOL     OW17392   0.192   4.068   2.497  0.4719  0.2613  0.3485
 1978SOL    HW117393   0.270   4.012   2.496  0.5804  0.4509 -0.7974
 1978SOL    HW217394   0.225   4.139   2.443 -0.5878  0.3956 -0.1163
 1979SOL     OW17395   0.616   1.131  17.126  0.3402  0.3116  0.2324
 1979SOL    HW117396   0.582   1.056  17.076  0.5004  1.8003 -2.0923
 1979SOL    HW217397   0.700   1.164  17.095  0.5448 -0.0573  0.3991
 1980SOL     OW17398   1.404   3.928   5.773 -0.1952  0.1514  0.2513
 1980SOL    HW117399   1.343   3.981   5.721  1.2564  0.0121 -1.5845
 1980SOL    HW217400   1.401   3.850   5.718 -0.2101 -2.1961  3.6481
 1981SOL     OW17401   3.737   1.784   9.775 -0.4710  0.3283  0.1533
 1981SOL    HW117402   3.761   1.872   9.803  1.4640  0.3120 -1.4452
 1981SOL    HW217403   3.655   1.803   9.729 -0.9910 -0.7315  0.6282
 1982SOL     OW17404   1.645   4.239   5.026  0.5594  0.9437  0.1762
 1982SOL    HW117405   1.562   4.229   5.072  1.2865  0.7632  1.4510
 1982SOL    HW217406   1.653   4.334   5.038 -2.9855  1.3926 -1.1130
 1983SOL     OW17407   4.585   0.266   5.353  0.4394 -0.1614 -0.6672
 1983SOL    HW117408   4.645   0.202   5.315  2.1988  1.7780 -1.1531
 1983SOL    HW217409   4.501   0.249   5.310  0.4874 -0.1292 -0.7742
 1984SOL     OW17410   1.522   4.327   5.923  0.2013  0.1415  0.0401
 1984SOL    HW117411   1.531   4.324   5.827 -3.5667 -1.1481 -0.2864
 1984SOL    HW217412   1.544   4.420   5.928  1.9232 -0.3400  1.1694
 1985SOL     OW17413   0.716   1.336   1.999 -0.3044  0.4634 -0.2077
 1985SOL    HW117414   0.755   1.348   2.086 -0.8317 -1.2745  0.2627
 1985SOL    HW217415   0.624   1.352   2.023  0.3789  1.6218  1.7085
 1986SOL     OW17416   2.099   1.047   9.034 -0.1703 -0.0532  0.2171
 1986SOL    HW117417   2.082   1.014   9.122 -2.1747  3.1537  1.0270
 1986SOL    HW217418   2.129   1.134   9.058 -3.3470  1.3186 -0.6699
 1987SOL     OW17419   3.292   1.723   9.582  0.3764  0.0278 -0.0953
 1987SOL    HW117420   3.197   1.735   9.576  0.5241  1.3495  0.0262
 1987SOL    HW217421   3.297   1.698   9.674  1.6894  0.8626  0.0577
 1988SOL     OW17422   2.152   3.766   8.192 -0.1197  0.4137 -0.5173
 1988SOL    HW117423   2.068   3.803   8.218  0.0278 -0.6725  1.4664
 1988SOL    HW217424   2.212   3.839   8.179 -1.8870  1.8034 -0.8947
 1989SOL     OW17425   3.522   0.915  11.862  0.4535  0.0630  0.1077
 1989SOL    HW117426   3.483   0.834  11.894 -2.9963  0.9970 -1.7517
 1989SOL    HW217427   3.616   0.903  11.879  0.3942  0.0700  0.4254
 1990SOL     OW17428   3.470   1.874   3.120  0.0402 -0.0823  0.4668
 1990SOL    HW117429   3.473   1.883   3.025  2.2656  0.9797  0.6259
 1990SOL    HW217430   3.432   1.786   3.125  0.6277 -0.4686 -2.0946
 1991SOL     OW17431   1.212   4.556   7.432 -0.0771  0.3551  0.3727
 1991SOL    HW117432   1.232   4.574   7.524  0.3920 -0.9731  0.5271
 1991SOL    HW217433   1.188   4.464   7.435 -0.5589  0.5428  2.0079
 1992SOL     OW17434   1.678   1.483   4.201  0.0882 -0.1064 -0.1905
 1992SOL    HW117435   1.759   1.504   4.154  0.3930 -1.8501 -0.4369
 1992SOL    HW217436   1.649   1.408   4.151 -0.8693  0.2888 -0.2281
 1993SOL     OW17437   1.583   3.500   6.329 -0.1721 -0.5680  0.2198
 1993SOL    HW117438   1.628   3.545   6.258  0.9231 -3.2219 -0.7663
 1993SOL    HW217439   1.630   3.535   6.405  1.2859  3.0155 -2.3573
 1994SOL     OW17440   0.795   2.996  17.001  0.6328  0.1783  0.0103
 1994SOL    HW117441   0.796   2.968  17.092  2.3411  1.2061  0.3258
 1994SOL    HW217442   0.883   2.963  16.979  0.1920 -0.5774 -0.6070
 1995SOL     OW17443   3.275   4.200   8.536  0.3986  0.1457 -0.4928
 1995SOL    HW117444   3.283   4.137   8.608  3.4054  2.9358  1.6341
 1995SOL    HW217445   3.278   4.282   8.584 -0.3143 -0.7451  1.0662
 1996SOL     OW17446   3.760   3.610   4.652 -0.0673 -0.1600  0.1545
 1996SOL    HW117447   3.734   3.668   4.724  0.6673  0.4913 -0.1053
 1996SOL    HW217448   3.758   3.676   4.583  1.7943 -1.5628 -1.2606
 1997SOL     OW17449   3.474   2.121   4.047 -0.6066  0.3245  0.5436
 1997SOL    HW117450   3.486   2.214   4.028  1.0805  0.3012  1.5226
 1997SOL    HW217451   3.383   2.106   4.022 -0.3256 -2.0394  0.9508
 1998SOL     OW17452   0.489   1.896   2.593 -0.1368 -0.5110 -0.0219
 1998SOL    HW117453   0.506   1.990   2.590  0.6706 -0.7416 -2.7821
 1998SOL    HW217454   0.457   1.880   2.504 -1.6143  1.2050  0.1905
 1999SOL     OW17455   3.498   3.987   4.323  0.2775  0.0284 -0.6813
 1999SOL    HW117456   3.553   4.066   4.324  0.2641  0.0051  3.1164
 1999SOL    HW217457   3.445   3.998   4.402  1.4192  0.9529 -0.0390
 2000SOL     OW17458   1.230   3.789   6.219  0.0030  0.4617  0.1460
 2000SOL    HW117459   1.140   3.821   6.210 -0.1004  0.7369  2.1309
 2000SOL    HW217460   1.247   3.811   6.127 -0.7821  0.6214  0.0387
 2001SOL     OW17461   4.583   2.427   2.427  0.0518 -0.0731 -0.4591
 2001SOL    HW117462   4.640   2.459   2.358  2.0868  0.4416  1.4673
 2001SOL    HW217463   4.564   2.509   2.472  0.2332 -0.2167 -0.1181
 2002SOL     OW17464   2.157   4.446   5.680  0.9156 -0.3624 -0.2792
 2002SOL    HW117465   2.068   4.468   5.651 -0.5488 -1.3584  3.4541
 2002SOL    HW217466   2.141   4.463   5.773  2.5174  0.5532 -0.1844
 2003SOL     OW17467   3.744   4.012   7.329  0.4253  0.0954  0.1553
 2003SOL    HW117468   3.793   4.093   7.315  0.8599 -0.0402  0.8641
 2003SOL    HW217469   3.658   4.049   7.311 -0.5219 -1.2169  1.9613
 2004SOL     OW17470   0.703   2.001   5.571 -0.1465 -0.6871 -0.0079
 2004SOL    HW117471   0.642   2.052   5.517 -1.9200 -1.0861  1.6361
 2004SOL    HW217472   0.753   1.958   5.502 -2.9782 -0.9551 -1.9026
 2005SOL     OW17473   3.620   4.647   5.412 -0.3205  0.1954 -0.0823
 2005SOL    HW117474   3.528   4.649   5.386 -0.7844  2.6369  1.7651
 2005SOL    HW217475   3.650   4.621   5.325 -0.5224 -1.7343  0.4361
 2006SOL     OW17476   0.032   2.229   1.770 -0.3109  0.8716 -0.7227
 2006SOL    HW117477   4.695   2.231   1.694 -1.3729  1.8038  0.1438
 2006SOL    HW217478   0.118   2.232   1.728  0.8374  0.1406  1.6129
 2007SOL     OW17479   4.151   3.112   1.239 -0.3681  0.4720  0.3205
 2007SOL    HW117480   4.244   3.119   1.260 -0.0343 -0.2833 -0.9560
 2007SOL    HW217481   4.115   3.051   1.304 -2.7023  0.6615 -0.8065
 2008SOL     OW17482   0.515   4.021   7.271 -0.3009  0.1958 -0.1222
 2008SOL    HW117483   0.421   4.020   7.286 -0.1757  0.4138  0.6530
 2008SOL    HW217484   0.508   4.012   7.176 -1.4731  1.1388 -0.1198
 2009SOL     OW17485   2.152   1.357   6.390 -0.2614  0.0606  0.0579
 2009SOL    HW117486   2.085   1.406   6.436  0.5948  1.3119 -0.0177
 2009SOL    HW217487   2.225   1.401   6.434 -0.0983 -0.9846  0.8274
 2010SOL     OW17488   1.867   0.177   8.770  0.7450 -0.2727 -0.2895
 2010SOL    HW117489   1.912   0.231   8.705 -1.4507  0.3206 -1.3027
 2010SOL    HW217490   1.813   0.115   8.720 -1.5178  2.6625 -1.4275
 2011SOL     OW17491   1.744   0.767   1.150  0.1468  1.0026 -0.1643
 2011SOL    HW117492   1.830   0.740   1.120 -0.4310 -0.5302 -0.4382
 2011SOL    HW217493   1.733   0.752   1.244 -0.2224 -0.1591 -0.3948
 2012SOL     OW17494   3.972   4.450  15.905  0.5631 -0.8304 -0.8955
 2012SOL    HW117495   4.022   4.441  15.987 -0.8024 -2.8058 -0.3017
 2012SOL    HW217496   3.952   4.544  15.908  2.1525 -0.5483  1.5271
 2013SOL     OW17497   3.912   2.538   2.067 -0.3057  0.0269  0.5553
 2013SOL    HW117498   3.941   2.625   2.095  1.1744  0.1924 -1.4725
 2013SOL    HW217499   3.997   2.502   2.041 -1.0605 -1.7386  0.5534
 2014SOL     OW17500   2.882   1.014   2.757  0.5822 -0.2437 -0.5969
 2014SOL    HW117501   2.806   1.064   2.786 -0.1939 -2.5669  1.4283
 2014SOL    HW217502   2.879   0.948   2.826  1.0048  2.0681  1.6429
 2015SOL     OW17503   3.753   0.907   0.315  0.1133  0.3299 -0.0007
 2015SOL    HW117504   3.775   0.842   0.383  1.2664 -0.7360 -1.4037
 2015SOL    HW217505   3.658   0.894   0.319 -0.0907  1.9240  0.1446
 2016SOL     OW17506   4.467   1.431   4.716 -0.0360  0.7208  0.3473
 2016SOL    HW117507   4.505   1.421   4.803 -1.3387  1.8733  1.0477
 2016SOL    HW217508   4.460   1.337   4.696 -1.4771  0.6761  1.0083
 2017SOL     OW17509   0.947   3.236  11.502 -0.2041  0.1442  0.0284
 2017SOL    HW117510   1.010   3.307  11.487 -0.5511  0.1608 -1.3192
 2017SOL    HW217511   0.878   3.259  11.439  1.0551 -0.7024 -1.6632
 2018SOL     OW17512   3.226   2.863  12.504 -0.2902 -0.0406  0.0587
 2018SOL    HW117513   3.252   2.934  12.445  0.4419 -3.1600 -3.3408
 2018SOL    HW217514   3.296   2.854  12.569  0.1691 -2.0533 -0.7345
 2019SOL     OW17515   2.907   2.836   5.303 -0.3827  0.3434 -0.3353
 2019SOL    HW117516   2.828   2.795   5.268 -1.1932 -0.2894  2.3026
 2019SOL    HW217517   2.965   2.764   5.327 -0.8851  0.0601  0.0296
 2020SOL     OW17518   4.261   3.159  13.282  0.1659  0.4088  0.8680
 2020SOL    HW117519   4.336   3.211  13.311 -0.0523  0.8279  0.6901
 2020SOL    HW217520   4.267   3.094  13.352 -1.1762 -1.3212 -0.6205
 2021SOL     OW17521   0.526   0.465   1.024  0.0524  0.1462  0.6638
 2021SOL    HW117522   0.587   0.531   1.058 -1.4035  1.9594 -0.2118
 2021SOL    HW217523   0.459   0.525   0.990  0.9873  0.8031 -0.0025
 2022SOL     OW17524   0.233   2.574   3.658 -0.4680 -0.4704  0.2294
 2022SOL    HW117525   0.196   2.652   3.619  1.2228  0.1723 -0.0764
 2022SOL    HW217526   0.228   2.598   3.751  0.3874  3.0916 -0.6677
 2023SOL     OW17527   0.180   3.666   3.760  0.2232 -0.5134 -0.0231
 2023SOL    HW117528   0.145   3.582   3.789  1.5260 -1.0492  0.0216
 2023SOL    HW217529   0.183   3.664   3.664 -2.2373 -1.5221 -0.0831
 2024SOL     OW17530   0.161   2.115   4.622  0.7373 -0.1644  0.2758
 2024SOL    HW117531   0.120   2.037   4.659  0.1142  1.3158  2.6755
 2024SOL    HW217532   0.241   2.085   4.579 -0.2600 -3.3723  0.7195
 2025SOL     OW17533   2.974   1.055   8.456 -0.6358 -0.2135 -0.7355
 2025SOL    HW117534   3.047   1.036   8.398  0.5285  1.3182  0.2284
 2025SOL    HW217535   2.996   1.026   8.545 -1.5131 -1.3433 -0.8871
 2026SOL     OW17536   0.674   0.096  12.268  0.3078  0.0096 -0.1590
 2026SOL    HW117537   0.685   0.144  12.186 -0.7882 -1.1432 -1.0001
 2026SOL    HW217538   0.603   0.034  12.249  2.2953 -2.2999 -0.0772
 2027SOL     OW17539   4.263   2.429  15.265 -0.1296 -0.3639 -0.0299
 2027SOL    HW117540   4.305   2.515  15.271 -0.4349 -0.0958 -1.7414
 2027SOL    HW217541   4.260   2.389  15.352  1.2373 -2.7369 -1.0691
 2028SOL     OW17542   3.983   1.740  10.495  0.0788 -0.2236 -0.1622
 2028SOL    HW117543   3.999   1.827  10.457  1.2269 -0.6369 -0.6332
 2028SOL    HW217544   4.037   1.756  10.572  1.7246  2.0516 -1.7664
 2029SOL     OW17545   0.083   3.260   5.735 -0.5231 -0.0350  0.3112
 2029SOL    HW117546   0.161   3.233   5.784 -1.6231 -1.9985  0.9967
 2029SOL    HW217547   0.028   3.300   5.803  0.8745 -0.1881  1.5493
 2030SOL     OW17548   0.826   0.710  12.926  0.6384  0.1867  0.0104
 2030SOL    HW117549   0.860   0.667  13.005  0.7599  2.4869  1.2231
 2030SOL    HW217550   0.757   0.651  12.896  1.2334 -0.6347  0.2318
 2031SOL     OW17551   0.250   1.236   0.517 -0.1520 -0.0962  0.2569
 2031SOL    HW117552   0.252   1.292   0.440 -0.1489  1.5328  1.4315
 2031SOL    HW217553   0.308   1.164   0.492 -0.4461 -0.8299  1.6884
 2032SOL     OW17554   0.513   1.363   3.060  0.1788  0.1395 -0.0515
 2032SOL    HW117555   0.427   1.327   3.038 -0.6457  0.8197  1.9738
 2032SOL    HW217556   0.514   1.434   2.995 -0.6208 -1.1599 -1.4808
 2033SOL     OW17557   1.873   4.537  12.198 -0.4940  0.0150 -0.0398
 2033SOL    HW117558   1.874   4.633  12.200  0.0924  0.0090  0.1825
 2033SOL    HW217559   1.895   4.513  12.108 -0.9270 -0.1311 -0.1064
 2034SOL     OW17560   0.064   2.167  12.725  0.0159  0.2203  0.4312
 2034SOL    HW117561   0.089   2.138  12.812 -3.5137  1.1540  1.7819
 2034SOL    HW217562   4.706   2.115  12.719 -0.5934  1.3003 -0.8657
 2035SOL     OW17563   4.524   2.018  12.742 -0.0264  0.4931 -0.0618
 2035SOL    HW117564   4.541   1.931  12.776  1.5550  0.6965 -0.3289
 2035SOL    HW217565   4.470   2.064  12.806  0.6745  0.4692  0.5456
 2036SOL     OW17566   3.380   2.014   7.180  0.1242  0.2107 -0.5962
 2036SOL    HW117567   3.326   2.060   7.244  0.8936  1.5487 -0.9236
 2036SOL    HW217568   3.365   1.926   7.217  0.2989  1.2826  2.0277
 2037SOL     OW17569   4.204   0.398   8.756 -0.2977 -0.4663 -0.5500
 2037SOL    HW117570   4.231   0.325   8.701  0.4405 -0.2551 -0.4667
 2037SOL    HW217571   4.229   0.475   8.705  2.3311 -0.0360  1.4112
 2038SOL     OW17572   4.608   4.166   3.012 -0.0436  0.2031 -0.0096
 2038SOL    HW117573   4.631   4.136   2.924 -0.5168 -1.4126  0.4163
 2038SOL    HW217574   4.525   4.122   3.029  0.6075 -0.7483  0.6680
 2039SOL     OW17575   3.124   3.500   0.489  0.1171  0.2685 -0.3326
 2039SOL    HW117576   3.183   3.536   0.424 -0.8356  1.4085 -0.5617
 2039SOL    HW217577   3.104   3.578   0.541  2.6598  0.3153  0.5841
 2040SOL     OW17578   2.916   3.918  11.628  0.0089  0.3753  0.5322
 2040SOL    HW117579   2.929   3.828  11.598  0.1065  0.8282 -0.7962
 2040SOL    HW217580   2.828   3.923  11.590  0.0190  0.9755  0.5914
 2041SOL     OW17581   1.863   4.051   7.446  0.2058  0.1497  0.4264
 2041SOL    HW117582   1.923   4.105   7.394 -1.3064  0.4510 -1.0006
 2041SOL    HW217583   1.912   4.047   7.528  0.9413  0.5394 -0.0012
 2042SOL     OW17584   1.931   3.259  12.295 -0.1908  0.4528 -0.1995
 2042SOL    HW117585   1.912   3.329  12.232 -0.7530  0.4547 -0.0330
 2042SOL    HW217586   2.013   3.288  12.333 -0.5343  4.0905 -2.2549
 2043SOL     OW17587   0.640   2.137   1.357 -0.5216  0.0887 -0.1031
 2043SOL    HW117588   0.675   2.065   1.408 -0.6277  0.4624  0.4930
 2043SOL    HW217589   0.696   2.207   1.390 -1.7396  0.0759  1.9809
 2044SOL     OW17590   0.246   4.007   7.356 -0.4581 -0.0340 -0.3003
 2044SOL    HW117591   0.283   3.920   7.371 -0.1922  0.2165  0.5151
 2044SOL    HW217592   0.198   4.027   7.437 -2.4678 -1.0896 -1.2395
 2045SOL     OW17593   4.287   0.066   4.248  0.7676 -0.3991  0.7755
 2045SOL    HW117594   4.203   0.054   4.203  1.0691 -0.8278  0.3214
 2045SOL    HW217595   4.277   0.132   4.316  1.9706 -1.1057  1.6383
 2046SOL     OW17596   2.767   4.074  15.858 -0.7632  0.6809 -0.5238
 2046SOL    HW117597   2.804   3.987  15.848 -0.4786  1.1488 -3.4439
 2046SOL    HW217598   2.694   4.069  15.796 -0.0117  4.0572 -1.7265
 2047SOL     OW17599   0.849   2.292   4.401 -0.1953 -0.0333 -0.1260
 2047SOL    HW117600   0.942   2.316   4.401 -0.0736 -0.5051 -0.0042
 2047SOL    HW217601   0.829   2.340   4.481  2.4453 -0.1805  0.5968
 2048SOL     OW17602   1.018   3.231   4.981  0.1412  0.0107 -0.0712
 2048SOL    HW117603   0.974   3.152   4.950  0.0661 -0.0786  0.2686
 2048SOL    HW217604   1.048   3.205   5.068 -1.8793 -0.0244  0.6044
 2049SOL     OW17605   2.118   2.711   5.960 -0.4405 -0.5381 -0.0593
 2049SOL    HW117606   2.036   2.706   5.912 -1.7746  2.6615  1.8173
 2049SOL    HW217607   2.154   2.790   5.920 -0.9827 -1.2915 -2.0117
 2050SOL     OW17608   1.322   4.281   8.902  0.4479 -0.0700 -0.0108
 2050SOL    HW117609   1.243   4.229   8.884  0.7343 -0.3313 -0.5013
 2050SOL    HW217610   1.283   4.359   8.942 -2.1308 -1.4220  0.1098
 2051SOL     OW17611   0.939   4.516   8.647  0.0391  0.1334  0.6746
 2051SOL    HW117612   0.914   4.430   8.679  2.0916 -0.1779  1.4461
 2051SOL    HW217613   0.856   4.563   8.638  1.5103  2.1914 -2.1310
 2052SOL     OW17614   4.288   0.380   1.361  0.0846  0.5461  0.1421
 2052SOL    HW117615   4.303   0.397   1.268  2.9631 -0.0578  0.5076
 2052SOL    HW217616   4.197   0.352   1.373  0.2923 -0.3562 -0.4259
 2053SOL     OW17617   4.510   3.919   0.309  0.0897  0.6133 -0.1012
 2053SOL    HW117618   4.586   3.866   0.285 -1.0821 -2.5593  3.3372
 2053SOL    HW217619   4.549   4.004   0.331  0.1067  1.1813 -2.3091
 2054SOL     OW17620   4.212   2.659  16.514 -0.1389 -0.2785 -0.2241
 2054SOL    HW117621   4.242   2.740  16.472 -0.6596  0.3285  0.5643
 2054SOL    HW217622   4.290   2.605  16.502 -1.6133 -1.9230 -2.3334
 2055SOL     OW17623   1.692   0.753   2.298 -0.2886  0.3998  0.2185
 2055SOL    HW117624   1.716   0.838   2.261  0.4913 -0.0644 -0.3470
 2055SOL    HW217625   1.648   0.721   2.219  0.4217  0.8899 -0.3773
 2056SOL     OW17626   2.203   3.424   5.574 -0.3735 -0.6872  0.4728
 2056SOL    HW117627   2.209   3.360   5.645  0.2969 -0.7460  0.3680
 2056SOL    HW217628   2.260   3.391   5.505 -2.1084 -2.5704 -0.0511
 2057SOL     OW17629   0.752   4.514  13.371 -0.7602 -0.5734  0.1036
 2057SOL    HW117630   0.698   4.444  13.407 -2.2177  0.7775  0.5491
 2057SOL    HW217631   0.745   4.594  13.424 -0.1919 -1.7294  1.9551
 2058SOL     OW17632   0.445   0.871   4.257  0.2067  0.4096 -0.7270
 2058SOL    HW117633   0.482   0.856   4.344  0.8055  1.4978 -0.7884
 2058SOL    HW217634   0.383   0.799   4.262  0.0968  0.5346 -0.3381
 2059SOL     OW17635   2.717   4.545   3.823 -0.3905 -0.4477 -1.0202
 2059SOL    HW117636   2.668   4.623   3.796 -0.7731 -0.8836 -1.5946
 2059SOL    HW217637   2.806   4.575   3.840 -0.6734  0.8054 -1.7658
 2060SOL     OW17638   2.607   1.718   5.838  0.0464 -0.0509 -0.5235
 2060SOL    HW117639   2.649   1.784   5.783 -0.4966  2.4235  2.0352
 2060SOL    HW217640   2.660   1.638   5.838  0.0352 -0.0574  0.0533
 2061SOL     OW17641   3.466   1.845   3.673  0.2522  0.4641 -0.4171
 2061SOL    HW117642   3.483   1.931   3.711 -0.0308  0.1711  0.3807
 2061SOL    HW217643   3.551   1.823   3.636 -1.4746 -2.8041 -2.4186
 2062SOL     OW17644   4.347   1.648   1.804  0.1193 -0.3783 -0.2065
 2062SOL    HW117645   4.364   1.623   1.712  0.7344 -0.3712 -0.0968
 2062SOL    HW217646   4.359   1.572   1.861 -0.7490  0.2750  0.8199
 2063SOL     OW17647   1.889   4.161   6.418 -0.2569 -0.2600  0.1578
 2063SOL    HW117648   1.896   4.236   6.360  0.5349  0.4275  1.1539
 2063SOL    HW217649   1.824   4.109   6.371 -0.4005  0.2212 -0.1759
 2064SOL     OW17650   2.758   1.029   7.321  0.7292 -1.1212 -0.4715
 2064SOL    HW117651   2.760   0.934   7.335 -2.6002 -1.4721 -2.4071
 2064SOL    HW217652   2.849   1.032   7.292  0.9095 -1.1294  0.0807
 2065SOL     OW17653   0.427   0.953   5.302 -0.2527 -0.0110  0.0472
 2065SOL    HW117654   0.513   0.992   5.318  0.0799 -0.4193 -0.7306
 2065SOL    HW217655   0.401   1.004   5.225 -0.7610  0.0971  0.2867
 2066SOL     OW17656   2.426   3.003   4.283 -0.0992  0.0501  0.4640
 2066SOL    HW117657   2.394   2.965   4.365  1.4923  0.4527  1.2545
 2066SOL    HW217658   2.435   3.092   4.318 -0.2224  0.0783  0.4245
 2067SOL     OW17659   4.498   3.032   6.382 -0.1041 -0.0828 -0.2385
 2067SOL    HW117660   4.409   3.011   6.411  0.1988 -1.7464 -0.4949
 2067SOL    HW217661   4.477   3.064   6.295 -2.7103 -1.4371 -0.1032
 2068SOL     OW17662   2.960   1.477   4.323 -0.5227  0.2372 -0.0710
 2068SOL    HW117663   3.005   1.430   4.393  0.3007  0.3816 -0.5016
 2068SOL    HW217664   3.033   1.526   4.285  0.9366 -2.5866 -0.9067
 2069SOL     OW17665   4.589   2.377   3.432 -0.3180  0.0249 -0.3220
 2069SOL    HW117666   4.510   2.420   3.400 -0.1222 -0.2375 -1.1524
 2069SOL    HW217667   4.550   2.322   3.500  2.3216 -2.3038 -0.7428
 2070SOL     OW17668   0.022   1.640   4.897  0.0913  0.1221  0.6968
 2070SOL    HW117669   4.668   1.641   4.955  1.0546 -1.4032  1.9903
 2070SOL    HW217670   0.073   1.713   4.933 -0.7422  1.7773 -1.4484
 2071SOL     OW17671   4.640   0.816   0.850  0.0935  0.2135 -0.0539
 2071SOL    HW117672   4.580   0.885   0.877  0.6898  1.7143 -2.5370
 2071SOL    HW217673   4.605   0.775   0.771 -0.0346  0.5483 -0.1733
 2072SOL     OW17674   3.099   1.234   3.959  0.1678 -0.0531 -0.4573
 2072SOL    HW117675   3.023   1.250   4.015  0.2971 -1.3285  0.1030
 2072SOL    HW217676   3.058   1.265   3.879 -2.5258  1.9842  1.7273
 2073SOL     OW17677   4.470   1.156   3.459  0.0107 -0.0637 -0.4921
 2073SOL    HW117678   4.549   1.144   3.406  0.4745 -1.7383  0.5770
 2073SOL    HW217679   4.470   1.251   3.467 -0.3019 -0.0633 -0.4800
 2074SOL     OW17680   1.111   1.672   9.047  0.0904 -0.0652  0.0581
 2074SOL    HW117681   1.103   1.582   9.016 -2.2498  0.2957 -0.3646
 2074SOL    HW217682   1.050   1.666   9.120  0.3905  1.2325  0.4173
 2075SOL     OW17683   4.129   0.047   1.409 -0.1144  1.0175 -0.6268
 2075SOL    HW117684   4.104   0.137   1.430  1.3654  0.5941  2.8976
 2075SOL    HW217685   4.096   0.011   1.491  1.2172 -3.5557 -2.1187
 2076SOL     OW17686   2.393   3.359   5.925  0.7211 -0.5884 -0.0685
 2076SOL    HW117687   2.450   3.377   5.999  0.6016  0.8375 -0.3232
 2076SOL    HW217688   2.344   3.439   5.905  1.2572 -0.0381  0.8634
 2077SOL     OW17689   4.110   4.568   8.519  0.1502 -0.4269 -0.0472
 2077SOL    HW117690   4.176   4.593   8.584  0.8705 -0.6330 -0.7023
 2077SOL    HW217691   4.067   4.495   8.563  2.5400 -0.1552  2.7717
 2078SOL     OW17692   0.478   3.028   4.077  0.4729 -0.1256  0.2709
 2078SOL    HW117693   0.548   2.968   4.104  0.8293  0.4977  0.7337
 2078SOL    HW217694   0.526   3.087   4.019 -2.4584 -0.1105 -2.1346
 2079SOL     OW17695   0.026   1.672   8.399 -0.0324 -0.4151 -0.0221
 2079SOL    HW117696   4.665   1.715   8.380 -0.2872 -1.0766 -0.4006
 2079SOL    HW217697   0.038   1.700   8.490  2.6151  0.3801 -0.6129
 2080SOL     OW17698   0.497   1.247   3.660  0.3302  0.5789 -0.4209
 2080SOL    HW117699   0.533   1.181   3.719 -0.7155  1.3578  1.0681
 2080SOL    HW217700   0.418   1.269   3.709 -0.7052  0.6556 -2.1198
 2081SOL     OW17701   3.242   4.051   0.006 -0.0891 -0.1489  0.4063
 2081SOL    HW117702   3.199   4.079  17.617  0.4112 -1.6735 -0.3953
 2081SOL    HW217703   3.286   4.132   0.031  1.5500 -0.5213 -1.2327
 2082SOL     OW17704   0.545   0.880   9.353  0.2688  1.2298  0.0220
 2082SOL    HW117705   0.602   0.955   9.336  2.4150 -0.0240  1.7852
 2082SOL    HW217706   0.509   0.866   9.265  0.7060 -2.3494  0.4153
 2083SOL     OW17707   1.303   3.095   3.091 -0.1881  0.9395  0.4465
 2083SOL    HW117708   1.362   3.040   3.142  1.2946  1.7342 -0.3883
 2083SOL    HW217709   1.325   3.046   3.011 -0.9417  3.2238 -1.1492
 2084SOL     OW17710   2.094   1.614   3.664  0.0401  0.1223  0.0032
 2084SOL    HW117711   2.002   1.593   3.680  0.0348 -0.2055 -0.4740
 2084SOL    HW217712   2.135   1.554   3.725  1.2853  0.5339 -0.4197
 2085SOL     OW17713   3.563   1.730   0.290  0.2560  0.2341 -0.6687
 2085SOL    HW117714   3.548   1.661   0.225  1.3265 -0.9989  0.3816
 2085SOL    HW217715   3.479   1.775   0.294 -0.3037 -0.7165 -1.6494
 2086SOL     OW17716   0.997   1.253  11.297  0.3528 -0.2642  0.0629
 2086SOL    HW117717   1.072   1.299  11.258 -0.5707  1.3541  0.1919
 2086SOL    HW217718   0.968   1.200  11.223  2.0790 -0.1219 -0.7141
 2087SOL     OW17719   0.019   2.396   9.705 -0.0542 -0.8429  0.3208
 2087SOL    HW117720   0.025   2.455   9.630 -1.0822 -0.6722  0.3770
 2087SOL    HW217721   0.045   2.460   9.771  0.7948  0.1898 -1.0271
 2088SOL     OW17722   1.624   0.016   0.419  0.1760 -0.2346 -0.3041
 2088SOL    HW117723   1.584   4.670   0.472 -2.5894  0.8553 -1.0320
 2088SOL    HW217724   1.575   0.007   0.337 -0.9420  0.5282  0.2857
 2089SOL     OW17725   0.666   2.052   4.166 -0.4286  0.1831 -0.0669
 2089SOL    HW117726   0.613   2.089   4.095 -2.4611 -0.2198  1.2212
 2089SOL    HW217727   0.685   1.963   4.137 -0.2711 -0.3310  1.6052
 2090SOL     OW17728   1.939   3.071   1.915  0.1146 -0.4661  0.2033
 2090SOL    HW117729   1.877   3.136   1.881  1.0080  0.2788 -0.0119
 2090SOL    HW217730   1.888   2.992   1.895  0.6479 -0.3543 -1.6352
 2091SOL     OW17731   4.468   0.901   1.914 -0.5667  0.1249 -0.0874
 2091SOL    HW117732   4.407   0.953   1.863 -2.5254 -1.4029  0.6697
 2091SOL    HW217733   4.397   0.837   1.930 -0.0275 -0.2666  0.7593
 2092SOL     OW17734   2.735   3.415   2.859 -0.2479 -0.1433 -0.0982
 2092SOL    HW117735   2.747   3.445   2.769  1.1846 -0.5805 -0.0505
 2092SOL    HW217736   2.809   3.354   2.859  1.1622  1.5542 -0.6584
 2093SOL     OW17737   3.096   3.908   2.989 -0.4218  0.1823  0.4961
 2093SOL    HW117738   3.054   3.987   2.954 -2.5446 -1.3572 -0.3858
 2093SOL    HW217739   3.147   3.947   3.060 -1.4726  3.2811 -0.4440
 2094SOL     OW17740   2.014   0.125  14.223  0.2682 -0.1862 -0.1049
 2094SOL    HW117741   2.057   0.041  14.238 -1.4245 -0.7050  1.8517
 2094SOL    HW217742   1.928   0.115  14.264  0.5145 -0.0335  0.4582
 2095SOL     OW17743   3.183   3.469  16.099  0.5984  0.3525 -0.1147
 2095SOL    HW117744   3.121   3.437  16.034  2.7733 -0.3913 -1.8500
 2095SOL    HW217745   3.188   3.408  16.172  3.2162 -1.5227 -1.8498
 2096SOL     OW17746   0.996   3.994   7.182  0.2663 -0.0117  0.0460
 2096SOL    HW117747   0.909   4.027   7.207  0.4449 -0.5331  1.3357
 2096SOL    HW217748   1.048   3.996   7.262  2.0269 -2.1588 -1.0531
 2097SOL     OW17749   0.994   3.363  15.888 -0.1732  0.0190 -0.3209
 2097SOL    HW117750   0.908   3.366  15.846 -0.3730  0.8234  0.1394
 2097SOL    HW217751   1.046   3.406  15.820  1.6022 -1.8444 -0.1335
 2098SOL     OW17752   2.193   3.557   3.936  0.4283 -0.3359  0.3240
 2098SOL    HW117753   2.257   3.628   3.937 -1.5626  1.4608 -0.1185
 2098SOL    HW217754   2.127   3.594   3.878  1.5678  1.5164  0.1938
 2099SOL     OW17755   3.263   1.579  10.748 -0.1899 -0.0663 -0.9284
 2099SOL    HW117756   3.263   1.629  10.666  0.2812  2.1839  0.4451
 2099SOL    HW217757   3.358   1.580  10.763 -0.1158 -0.3219 -1.4012
 2100SOL     OW17758   4.419   2.258   8.841  0.8793 -0.0905 -0.4255
 2100SOL    HW117759   4.379   2.328   8.789  2.0078 -0.0161 -1.1799
 2100SOL    HW217760   4.443   2.301   8.923 -0.7516 -3.0090  1.5932
 2101SOL     OW17761   1.738   0.847   8.776 -0.9772 -0.7176 -0.4337
 2101SOL    HW117762   1.734   0.810   8.688  1.3662  0.5137 -1.0786
 2101SOL    HW217763   1.725   0.767   8.827  2.4485 -2.1591 -1.8054
 2102SOL     OW17764   3.277   4.551   4.250  0.0130  0.4157 -0.3308
 2102SOL    HW117765   3.347   4.609   4.282 -0.6224  1.4876 -0.8575
 2102SOL    HW217766   3.197   4.603   4.259 -0.7906 -1.0696  1.0359
 2103SOL     OW17767   1.165   1.044   3.785 -0.2066 -0.0964  0.1949
 2103SOL    HW117768   1.196   1.055   3.696 -2.7600  1.1850 -0.5342
 2103SOL    HW217769   1.089   0.988   3.769  1.1713 -1.8854 -0.0894
 2104SOL     OW17770   4.167   2.991   7.670 -0.5107 -0.1217  0.3270
 2104SOL    HW117771   4.214   2.953   7.744 -0.9063  0.4825  0.8913
 2104SOL    HW217772   4.230   2.976   7.600  0.2262  0.9942  0.7754
 2105SOL     OW17773   1.022   2.574   2.877  0.3776  0.2374 -0.3499
 2105SOL    HW117774   0.984   2.662   2.871  0.3491  0.2560  0.1685
 2105SOL    HW217775   0.962   2.529   2.818  0.4792 -0.0461 -0.2362
 2106SOL     OW17776   3.470   1.872   7.879  0.0716 -0.2488  0.3563
 2106SOL    HW117777   3.418   1.848   7.955  1.5863 -0.7646  1.2310
 2106SOL    HW217778   3.467   1.967   7.887 -1.3002 -0.2967  0.3781
 2107SOL     OW17779   2.503   2.748  15.796 -0.5928  0.2276  0.5909
 2107SOL    HW117780   2.594   2.766  15.822 -0.6639 -1.2454  1.8472
 2107SOL    HW217781   2.509   2.653  15.792  0.1116  0.3060 -0.1664
 2108SOL     OW17782   3.102   4.223  13.371  0.0055  0.3931 -0.4027
 2108SOL    HW117783   3.175   4.231  13.432  0.0383  0.1180 -0.4069
 2108SOL    HW217784   3.033   4.268  13.419 -0.5362  0.7386 -1.5072
 2109SOL     OW17785   2.268   1.366   2.932  0.3926  0.0009  0.0248
 2109SOL    HW117786   2.208   1.402   2.866 -1.2086 -0.4336  1.2478
 2109SOL    HW217787   2.311   1.295   2.885  1.3015  1.3843 -1.2417
 2110SOL     OW17788   2.570   2.381  10.001  0.2291 -0.1216 -0.4487
 2110SOL    HW117789   2.477   2.360  10.000 -0.5575  3.2275  1.7941
 2110SOL    HW217790   2.574   2.476  10.001 -0.3797 -0.0847  0.7931
 2111SOL     OW17791   1.407   2.889   2.942 -0.1125 -0.3084  0.2286
 2111SOL    HW117792   1.438   2.889   2.852  2.1992  1.9261  1.0450
 2111SOL    HW217793   1.342   2.818   2.942 -0.1517 -0.2717  0.9471
 2112SOL     OW17794   2.471   0.483   7.583  0.1494  0.2505  0.1792
 2112SOL    HW117795   2.493   0.556   7.525 -1.9728  2.8324  2.6130
 2112SOL    HW217796   2.406   0.533   7.632 -2.4952  0.4421 -3.4838
 2113SOL     OW17797   2.108   1.195   3.129  0.6458 -0.1510 -0.0562
 2113SOL    HW117798   2.177   1.131   3.149 -0.3401 -0.4966  2.2469
 2113SOL    HW217799   2.155   1.260   3.078 -0.8084  0.7546 -0.2189
 2114SOL     OW17800   1.838   0.941   0.100  0.6380 -0.2042  0.0770
 2114SOL    HW117801   1.881   0.996   0.165  0.7250 -2.0899  1.6168
 2114SOL    HW217802   1.805   0.870   0.156  0.4422  0.0924  0.3350
 2115SOL     OW17803   4.656   2.438   5.939  0.2841  0.4772 -0.2330
 2115SOL    HW117804   4.587   2.483   5.987 -0.5448 -0.4769 -0.5109
 2115SOL    HW217805   4.717   2.409   6.006 -2.4490 -1.4629  1.4197
 2116SOL     OW17806   0.122   2.503   3.082  0.0264  0.6487 -0.2662
 2116SOL    HW117807   0.171   2.422   3.098  1.2524  1.7028  1.3776
 2116SOL    HW217808   0.037   2.471   3.053  0.8658  0.2818 -2.3547
 2117SOL     OW17809   2.407   0.960   9.895 -0.0974 -0.0691 -0.0768
 2117SOL    HW117810   2.456   0.973   9.976  2.4295 -1.0502 -1.4496
 2117SOL    HW217811   2.342   1.030   9.888  0.6715  0.8651  2.2401
 2118SOL     OW17812   0.447   2.273  16.048  0.0525 -0.0968 -0.2061
 2118SOL    HW117813   0.422   2.219  16.122 -0.1007  0.7144  0.3395
 2118SOL    HW217814   0.433   2.211  15.976 -0.5382 -1.2302  0.9035
 2119SOL     OW17815   3.505   3.104  13.251  1.0072 -0.0826 -0.5686
 2119SOL    HW117816   3.445   3.035  13.222 -0.1331  0.2139  1.0627
 2119SOL    HW217817   3.544   3.144  13.174  0.7191 -1.2462 -1.3231
 2120SOL     OW17818   3.000   4.416   4.532  0.1466  0.3605 -0.0692
 2120SOL    HW117819   3.003   4.380   4.444 -1.0853  0.1968 -0.0490
 2120SOL    HW217820   3.022   4.508   4.514  1.8111  0.1899  1.0592
 2121SOL     OW17821   3.068   0.339   9.022  0.0920 -0.6198  0.3984
 2121SOL    HW117822   2.990   0.387   8.995  1.5929  0.4908 -2.0077
 2121SOL    HW217823   3.123   0.412   9.048 -2.9595  1.9816 -0.4683
 2122SOL     OW17824   4.099   0.999  12.609  0.6618  0.1004  0.2410
 2122SOL    HW117825   4.182   0.963  12.641  1.6668  1.0339 -1.2970
 2122SOL    HW217826   4.125   1.083  12.570  1.2530  0.0171  0.4453
 2123SOL     OW17827   3.363   2.180  15.052  0.4107 -0.2612  0.2145
 2123SOL    HW117828   3.402   2.120  15.116  1.1358  0.7030  0.6707
 2123SOL    HW217829   3.275   2.148  15.069  0.2564  0.3933  0.6406
 2124SOL     OW17830   0.396   4.519   5.155 -0.0682  0.2304 -0.1583
 2124SOL    HW117831   0.462   4.569   5.107  0.0612 -1.9454 -2.2679
 2124SOL    HW217832   0.354   4.467   5.087  0.9498 -1.0629  0.2047
 2125SOL     OW17833   0.176   4.646   7.559  0.1728 -0.1399 -0.4139
 2125SOL    HW117834   0.234   4.607   7.494 -2.4651 -1.1242 -2.1796
 2125SOL    HW217835   0.170   4.574   7.622 -0.7487  1.0431  0.8508
 2126SOL     OW17836   1.558   4.160   3.827 -0.7012  0.2805 -0.3514
 2126SOL    HW117837   1.643   4.122   3.849 -1.0938 -0.5862 -0.3560
 2126SOL    HW217838   1.492   4.093   3.839 -0.8405  0.3506 -0.7524
 2127SOL     OW17839   0.323   4.325   9.705  0.0328  0.2496  0.3838
 2127SOL    HW117840   0.265   4.275   9.648 -0.5316  2.1339 -0.7191
 2127SOL    HW217841   0.313   4.414   9.671 -0.5013  0.1879  0.3681
 2128SOL     OW17842   1.695   0.912   7.380  0.2137 -0.8753 -0.0805
 2128SOL    HW117843   1.759   0.962   7.329 -2.1478  2.1610 -0.0625
 2128SOL    HW217844   1.658   0.987   7.426  0.2931  0.5475 -2.3648
 2129SOL     OW17845   1.919   2.355  14.918  0.2961 -0.1985 -0.6884
 2129SOL    HW117846   1.996   2.332  14.971 -0.6404  0.3967  0.9156
 2129SOL    HW217847   1.962   2.411  14.854  1.0646  1.0563  0.9069
 2130SOL     OW17848   0.043   4.032   8.099  0.7580 -0.6638  0.0889
 2130SOL    HW117849   0.128   4.009   8.061  0.2971 -1.4221 -0.4830
 2130SOL    HW217850   4.709   3.979   8.042 -3.5718  1.7858  2.1084
 2131SOL     OW17851   1.134   3.420   6.207 -0.0686 -0.0045  1.3265
 2131SOL    HW117852   1.115   3.502   6.252  1.3369  0.6908  0.6313
 2131SOL    HW217853   1.228   3.403   6.215  0.2918  1.6731  0.5858
 2132SOL     OW17854   0.626   4.163   0.073  0.1179  0.0418  0.5215
 2132SOL    HW117855   0.578   4.227   0.021  0.7369  0.1950  0.1387
 2132SOL    HW217856   0.717   4.193   0.079  0.5437 -1.1534  0.1829
 2133SOL     OW17857   1.684   3.427   7.067  0.0080 -0.0542  0.3318
 2133SOL    HW117858   1.764   3.476   7.085  0.2003  0.1934 -1.2309
 2133SOL    HW217859   1.696   3.399   6.977  1.2668 -2.0893  1.1405
 2134SOL     OW17860   1.337   0.301  17.356 -0.4398 -0.2737  0.0428
 2134SOL    HW117861   1.259   0.328  17.404  1.0378  0.6545  1.9406
 2134SOL    HW217862   1.305   0.310  17.266 -0.7157  0.6833  0.2453
 2135SOL     OW17863   3.379   4.368   3.272  0.1741  0.4041 -0.1570
 2135SOL    HW117864   3.302   4.356   3.217  0.8758 -0.1887 -1.0009
 2135SOL    HW217865   3.445   4.384   3.204 -1.3719 -0.0357 -1.7472
 2136SOL     OW17866   4.519   4.478   0.353  0.4703 -0.1279 -0.1686
 2136SOL    HW117867   4.499   4.450   0.442  0.4610  0.6807  0.0896
 2136SOL    HW217868   4.600   4.436   0.324 -0.5621 -1.2331 -1.4167
 2137SOL     OW17869   0.711   3.975   6.166 -0.1720 -0.0517  0.0070
 2137SOL    HW117870   0.644   3.929   6.115 -1.2862  0.3606  1.0674
 2137SOL    HW217871   0.697   4.063   6.132 -1.1638  0.4312  1.6303
 2138SOL     OW17872   3.178   4.233  15.528  0.7849 -0.2257 -0.4818
 2138SOL    HW117873   3.118   4.171  15.489  0.6697 -0.7980  0.6098
 2138SOL    HW217874   3.178   4.202  15.618  0.7111 -1.2616 -0.8347
 2139SOL     OW17875   0.897   0.056  11.278  0.3319  0.0917  0.0304
 2139SOL    HW117876   0.893   0.124  11.211  1.1693  1.4847  1.4002
 2139SOL    HW217877   0.961   0.092  11.339  0.2249 -0.2621  0.3545
 2140SOL     OW17878   4.431   3.210   3.737  0.0464 -0.3632 -0.3221
 2140SOL    HW117879   4.487   3.288   3.743 -0.7632  0.3615 -2.0951
 2140SOL    HW217880   4.366   3.236   3.802 -0.1789  0.9104 -1.0383
 2141SOL     OW17881   2.740   1.893   5.668  0.2932 -0.3745  0.1710
 2141SOL    HW117882   2.791   1.946   5.607  0.9295 -0.2588  0.8028
 2141SOL    HW217883   2.654   1.920   5.636  1.1999  0.5350 -1.5093
 2142SOL     OW17884   1.916   3.721   5.755  0.4268  0.2018  0.3095
 2142SOL    HW117885   1.919   3.680   5.842  1.2538  2.2078  1.2338
 2142SOL    HW217886   2.003   3.707   5.719  0.1901 -2.6851  0.9191
 2143SOL     OW17887   0.579   4.392   1.181 -0.0432  0.0242  0.3074
 2143SOL    HW117888   0.665   4.432   1.171 -0.3441  0.5886  0.0107
 2143SOL    HW217889   0.583   4.331   1.255 -1.5934 -0.7759 -0.2691
 2144SOL     OW17890   0.096   1.977   3.706  0.6319 -0.1843  0.0439
 2144SOL    HW117891   0.093   1.980   3.610 -2.9047 -1.9797  0.1353
 2144SOL    HW217892   0.057   1.892   3.724 -0.6252  0.1527 -1.1137
 2145SOL     OW17893   3.448   1.046   7.377  0.5335  0.6363  0.0937
 2145SOL    HW117894   3.505   1.000   7.315 -0.7204  0.3573 -0.8619
 2145SOL    HW217895   3.475   1.136   7.360 -0.9861  1.0463 -0.1215
 2146SOL     OW17896   1.533   2.587   7.968 -0.7752  0.8302  0.6638
 2146SOL    HW117897   1.480   2.532   8.026  0.1227  0.0841  0.7832
 2146SOL    HW217898   1.490   2.666   7.998 -1.3991 -0.1694  2.4491
 2147SOL     OW17899   4.324   1.878   7.326  0.1000 -0.0361  0.4918
 2147SOL    HW117900   4.283   1.811   7.271  2.2769 -1.2375  0.3179
 2147SOL    HW217901   4.418   1.864   7.312 -0.0589 -0.1835 -0.4100
 2148SOL     OW17902   2.987   1.060   4.964  0.3822 -0.7782 -0.0802
 2148SOL    HW117903   3.025   0.992   4.908 -0.5841 -1.8337  0.5399
 2148SOL    HW217904   3.063   1.082   5.017  1.1999  0.0898 -1.6075
 2149SOL     OW17905   0.652   4.127   2.408  0.0158  0.3401  0.0818
 2149SOL    HW117906   0.611   4.061   2.464  0.8076  0.1779  0.4586
 2149SOL    HW217907   0.743   4.115   2.435 -0.3080 -1.9662  0.1850
 2150SOL     OW17908   4.509   2.261   6.249  0.2244 -0.1582  0.3826
 2150SOL    HW117909   4.470   2.335   6.204 -2.7866 -2.1803 -0.3400
 2150SOL    HW217910   4.601   2.285   6.240  0.6425 -1.6283  0.5937
 2151SOL     OW17911   4.272   0.422   7.128 -0.4976 -0.2259 -0.0977
 2151SOL    HW117912   4.206   0.360   7.096 -1.4931  0.5678  0.4334
 2151SOL    HW217913   4.339   0.389   7.069 -0.6618  0.1479 -0.4881
 2152SOL     OW17914   4.526   0.554   5.955  0.4034  0.1740  0.1191
 2152SOL    HW117915   4.460   0.614   5.989  2.5067  2.4638  0.1501
 2152SOL    HW217916   4.609   0.594   5.982  2.0358 -1.8786 -1.9089
 2153SOL     OW17917   2.336   1.143   8.506  0.0851  0.0442 -0.0344
 2153SOL    HW117918   2.313   1.102   8.422 -1.0856 -0.7961  0.6939
 2153SOL    HW217919   2.315   1.070   8.564 -0.9662  2.4080  2.5957
 2154SOL     OW17920   1.240   4.603  16.061  0.5080  0.3026  0.3720
 2154SOL    HW117921   1.323   4.556  16.058  0.0170 -0.5774  0.3426
 2154SOL    HW217922   1.256   4.672  16.124 -2.8479 -1.4899  3.1919
 2155SOL     OW17923   3.044   1.489  11.621 -0.2296 -0.3646 -0.2811
 2155SOL    HW117924   3.010   1.401  11.608  1.4671 -1.0409 -0.2110
 2155SOL    HW217925   3.122   1.492  11.565  0.0505  0.4504  0.1466
 2156SOL     OW17926   0.182   3.976  10.063 -0.1924 -0.2669  0.2868
 2156SOL    HW117927   0.180   3.884  10.037  1.1777 -0.9037  2.4331
 2156SOL    HW217928   0.242   4.014   9.999 -0.2149 -1.1378 -0.2576
 2157SOL     OW17929   2.680   2.210   1.443 -0.1832  0.2788 -0.1066
 2157SOL    HW117930   2.766   2.234   1.477 -1.2053  1.6654  1.4381
 2157SOL    HW217931   2.630   2.290   1.457 -0.6106  0.4128 -2.2895
 2158SOL     OW17932   1.713   2.603   3.281  0.0076  0.2198  0.4607
 2158SOL    HW117933   1.659   2.558   3.346  0.6194 -1.1882 -0.0191
 2158SOL    HW217934   1.722   2.693   3.313 -0.6882  0.6276 -0.4887
 2159SOL     OW17935   1.400   4.641   3.626  0.2933 -0.3419  0.1629
 2159SOL    HW117936   1.419   4.566   3.683  2.5310  1.3526  1.6480
 2159SOL    HW217937   1.305   4.653   3.636  0.1577 -1.3511  0.1551
 2160SOL     OW17938   0.797   0.081   3.783 -0.5748  0.5996  0.2659
 2160SOL    HW117939   0.835   0.117   3.702 -1.9645 -0.9181 -1.0674
 2160SOL    HW217940   0.864   0.093   3.850  0.5956 -0.7331 -0.6608
 2161SOL     OW17941   4.577   1.347   4.973 -0.1056  0.4813 -0.3182
 2161SOL    HW117942   4.610   1.313   5.056 -2.0314 -1.1123 -0.2167
 2161SOL    HW217943   4.489   1.310   4.968 -0.9953  2.3048  2.0050
 2162SOL     OW17944   0.155   1.748  17.191  0.1899  0.0144 -0.7602
 2162SOL    HW117945   0.148   1.844  17.185  0.7732  0.0442 -0.9809
 2162SOL    HW217946   0.152   1.727  17.285  0.6886 -0.0420 -0.7570
 2163SOL     OW17947   3.088   3.829   3.903 -0.3982 -0.0343  0.3632
 2163SOL    HW117948   3.125   3.817   3.815  1.2970  0.7916  0.9737
 2163SOL    HW217949   3.134   3.903   3.942 -2.2598  1.4410 -0.2414
 2164SOL     OW17950   2.851   0.558   2.979 -0.9269  0.8087  0.5245
 2164SOL    HW117951   2.868   0.465   2.986 -1.4143  0.6068 -0.9028
 2164SOL    HW217952   2.888   0.576   2.892 -0.5355  2.7104  1.0750
 2165SOL     OW17953   1.857   0.151   4.918  0.2493 -0.2540 -0.3963
 2165SOL    HW117954   1.843   0.154   5.013 -3.1251  1.4446 -0.9551
 2165SOL    HW217955   1.926   0.085   4.919 -0.0636 -0.5770  0.0439
 2166SOL     OW17956   4.540   2.154   9.485 -0.2124 -0.0495  0.1440
 2166SOL    HW117957   4.487   2.161   9.406  1.9377  3.1023 -1.0104
 2166SOL    HW217958   4.521   2.060   9.490  0.7210 -0.1899  1.0704
 2167SOL     OW17959   0.411   1.898   7.952  0.5506  0.2188  0.4928
 2167SOL    HW117960   0.439   1.807   7.941  0.6832  0.1862  1.1511
 2167SOL    HW217961   0.334   1.900   7.894  2.0433 -0.6014 -1.5262
 2168SOL     OW17962   3.232   0.011  16.267 -0.2410  0.1494  0.1464
 2168SOL    HW117963   3.224   4.713  16.174 -1.7445 -2.5473  0.8531
 2168SOL    HW217964   3.181   4.661  16.304 -1.2939 -0.4530 -2.5175
 2169SOL     OW17965   4.601   3.400  16.226  0.5128  0.2669 -0.4230
 2169SOL    HW117966   4.514   3.427  16.254 -0.1232 -0.9853 -1.2259
 2169SOL    HW217967   4.629   3.475  16.174 -1.9970  2.6187  1.6463
 2170SOL     OW17968   4.290   0.408   2.197 -0.0786  0.1731  0.6245
 2170SOL    HW117969   4.226   0.348   2.161  0.7367 -0.2483 -0.1217
 2170SOL    HW217970   4.246   0.487   2.166  0.4489 -0.2063 -1.0719
 2171SOL     OW17971   0.491   0.402   1.941  0.3782 -0.7712  0.2628
 2171SOL    HW117972   0.421   0.341   1.963 -3.9348  3.6016 -1.2456
 2171SOL    HW217973   0.535   0.348   1.876  0.6553  0.9019 -0.9206
 2172SOL     OW17974   3.153   2.634   7.372  0.2654  0.3570 -0.5541
 2172SOL    HW117975   3.144   2.633   7.277 -0.4858 -4.4484 -0.4216
 2172SOL    HW217976   3.232   2.583   7.388  0.4422  0.4660 -1.1082
 2173SOL     OW17977   2.685   3.362   8.255 -0.3822  0.0377  0.0570
 2173SOL    HW117978   2.646   3.345   8.169 -2.0779  0.1600  0.8141
 2173SOL    HW217979   2.777   3.382   8.237  0.5225 -3.6137  0.6050
 2174SOL     OW17980   3.730   1.688   4.299 -0.0441 -0.3792  0.5105
 2174SOL    HW117981   3.710   1.657   4.211 -0.9679 -1.2654  1.0340
 2174SOL    HW217982   3.773   1.773   4.292 -1.0619  0.2229  1.5620
 2175SOL     OW17983   4.083   1.151   2.082  0.0651  0.6000  0.0703
 2175SOL    HW117984   4.160   1.198   2.113 -0.2480 -1.1172  3.4908
 2175SOL    HW217985   4.058   1.209   2.010 -1.8591  1.6922  1.5870
 2176SOL     OW17986   0.900   0.670   5.888 -0.8446  0.3663 -0.4591
 2176SOL    HW117987   0.862   0.758   5.886 -1.2267  0.1564 -3.2951
 2176SOL    HW217988   0.990   0.695   5.869 -1.7841  3.6127 -0.6972
 2177SOL     OW17989   1.815   2.798  15.626  0.2037 -0.0485 -0.3940
 2177SOL    HW117990   1.820   2.830  15.536 -2.0861 -0.4073 -0.6543
 2177SOL    HW217991   1.725   2.767  15.636  0.3245 -0.7429 -1.4436
 2178SOL     OW17992   3.502   2.530   3.614  0.3711 -0.2871 -0.5959
 2178SOL    HW117993   3.424   2.512   3.667  0.1070 -0.3242 -0.9914
 2178SOL    HW217994   3.510   2.440   3.583 -1.1318 -0.5627 -0.1787
 2179SOL     OW17995   1.965   2.594   4.960 -0.3688  0.3907  0.0558
 2179SOL    HW117996   2.005   2.562   4.879 -2.2796  1.5684 -1.3517
 2179SOL    HW217997   1.981   2.515   5.012  1.5778  0.3754 -0.5744
 2180SOL     OW17998   1.539   2.929   4.674 -0.1831 -0.0374  0.0347
 2180SOL    HW117999   1.580   3.008   4.638  1.2490 -0.4719  0.6961
 2180SOL    HW218000   1.486   2.897   4.601 -0.4259 -3.5909  1.7497
 2181SOL     OW18001   1.952   3.906   0.278 -0.3862 -1.0601  0.4565
 2181SOL    HW118002   1.917   3.839   0.218  0.8770 -1.3200 -0.0035
 2181SOL    HW218003   2.033   3.866   0.308  1.9737  1.9682 -1.8120
 2182SOL     OW18004   2.666   1.477  15.176  0.4409  0.6689  0.9759
 2182SOL    HW118005   2.625   1.555  15.139  0.0495 -0.7300 -1.5430
 2182SOL    HW218006   2.721   1.457  15.101  0.2741  3.2374  0.1743
 2183SOL     OW18007   3.490   1.189   2.448 -0.1886  0.3509  0.6823
 2183SOL    HW118008   3.454   1.182   2.536  3.5038 -0.0902  2.1319
 2183SOL    HW218009   3.562   1.127   2.454  0.6424  1.2685  0.2355
 2184SOL     OW18010   3.109   3.529   3.969  0.4191 -0.0506 -0.3175
 2184SOL    HW118011   3.093   3.623   3.954  1.2301 -0.3214 -2.8900
 2184SOL    HW218012   3.021   3.492   3.960  0.9377 -1.3557  0.1304
 2185SOL     OW18013   1.299   2.643  10.523  0.0505  0.9462  0.2185
 2185SOL    HW118014   1.222   2.699  10.517  0.7968  1.9385 -0.0331
 2185SOL    HW218015   1.259   2.555  10.522 -0.3197  1.1118  0.4773
 2186SOL     OW18016   0.406   2.488   2.826 -0.0380  0.3468  0.2031
 2186SOL    HW118017   0.388   2.579   2.802  1.1048  0.2843 -0.9162
 2186SOL    HW218018   0.466   2.503   2.899 -0.2063  1.4474  0.1125
 2187SOL     OW18019   4.356   0.500   4.296  0.1290 -0.0724 -0.0803
 2187SOL    HW118020   4.278   0.474   4.246  0.1699 -2.6191  1.1360
 2187SOL    HW218021   4.307   0.520   4.376  0.7267  0.0367  0.2540
 2188SOL     OW18022   4.158   3.567   0.593 -0.1373  0.3421  0.5444
 2188SOL    HW118023   4.078   3.523   0.562 -0.9232  1.3600  1.0989
 2188SOL    HW218024   4.120   3.587   0.678  0.0258  0.5930  0.5571
 2189SOL     OW18025   4.530   3.487   9.440 -0.6303 -0.1640 -0.7526
 2189SOL    HW118026   4.606   3.545   9.447 -0.8897  0.3282 -2.0534
 2189SOL    HW218027   4.514   3.454   9.529 -0.2884 -0.2847 -0.7373
 2190SOL     OW18028   2.197   3.296   7.005 -0.7108 -0.5971 -0.4605
 2190SOL    HW118029   2.166   3.367   7.061  0.1113 -0.1150 -0.6184
 2190SOL    HW218030   2.202   3.230   7.074 -2.2430 -0.5143 -0.2822
 2191SOL     OW18031   0.308   2.357   1.927 -0.4268  0.1951  0.6817
 2191SOL    HW118032   0.385   2.314   1.889  0.3218  0.1148  2.3025
 2191SOL    HW218033   0.244   2.286   1.933  0.6972 -1.0991 -2.9940
 2192SOL     OW18034   4.446   0.387  12.204 -0.0925 -0.2180  0.5643
 2192SOL    HW118035   4.405   0.467  12.235  0.0379  0.0581  0.0291
 2192SOL    HW218036   4.442   0.341  12.288  1.3883  1.3837  1.5015
 2193SOL     OW18037   3.325   2.842   4.384 -0.6186  0.1358 -0.5516
 2193SOL    HW118038   3.414   2.877   4.375 -0.0594 -0.9747  0.7753
 2193SOL    HW218039   3.302   2.877   4.470 -0.6700 -1.2159 -0.0308
 2194SOL     OW18040   4.362   1.216   2.230  0.1369  0.5704 -0.0415
 2194SOL    HW118041   4.426   1.254   2.170  1.7140 -0.8791  0.7256
 2194SOL    HW218042   4.419   1.184   2.300 -0.1472 -0.2183 -0.1781
 2195SOL     OW18043   3.881   3.398   9.922 -0.0507  0.2922 -0.4117
 2195SOL    HW118044   3.893   3.493   9.914  0.8021 -0.1212 -3.9432
 2195SOL    HW218045   3.806   3.390   9.981  0.1119 -0.6442 -0.3444
 2196SOL     OW18046   0.378   1.762   6.834 -0.3536 -0.1984  0.0181
 2196SOL    HW118047   0.453   1.813   6.804 -0.9552  1.2082  0.8938
 2196SOL    HW218048   0.304   1.805   6.792  1.6297  3.0107 -0.2326
 2197SOL     OW18049   2.110   3.290   3.274 -0.7791  0.2171 -0.0073
 2197SOL    HW118050   2.152   3.327   3.196 -2.8560  0.3252 -1.0868
 2197SOL    HW218051   2.021   3.316   3.250 -0.3444  1.7528  0.0475
 2198SOL     OW18052   1.472   3.280   6.749 -0.1164  0.0599  0.5769
 2198SOL    HW118053   1.426   3.262   6.667 -1.2514 -1.7247  1.6081
 2198SOL    HW218054   1.404   3.323   6.801  1.6450  2.3473  0.9942
 2199SOL     OW18055   3.137   1.090  10.475 -0.1638 -0.4500 -0.1023
 2199SOL    HW118056   3.069   1.138  10.428 -2.1281  0.5027  3.6855
 2199SOL    HW218057   3.117   1.113  10.565  1.3694  0.7604 -0.0663
 2200SOL     OW18058   0.171   1.972   6.987  0.1304 -1.0301 -0.1164
 2200SOL    HW118059   0.203   1.984   6.897 -0.0770  0.8851  0.0625
 2200SOL    HW218060   0.221   1.896   7.017 -1.1658 -1.6821  0.3696
 2201SOL     OW18061   2.193   0.395   5.325  0.2396  0.4832  0.1754
 2201SOL    HW118062   2.192   0.387   5.230 -2.5129  1.6817  0.1043
 2201SOL    HW218063   2.128   0.464   5.338  0.8519  0.8620  1.2801
 2202SOL     OW18064   2.318   0.792  17.106 -0.3041 -0.1302  0.2125
 2202SOL    HW118065   2.370   0.871  17.091 -0.2209 -0.4462 -1.1163
 2202SOL    HW218066   2.231   0.829  17.115 -0.9280 -2.3858  3.7513
 2203SOL     OW18067   2.851   1.327   6.818 -0.2842  0.7409 -0.4898
 2203SOL    HW118068   2.925   1.317   6.759 -0.4757 -1.2654 -0.4046
 2203SOL    HW218069   2.807   1.404   6.782 -1.5680  0.3370  0.1971
 2204SOL     OW18070   2.770   3.137   7.706  0.4107  0.2793 -0.0741
 2204SOL    HW118071   2.829   3.155   7.632 -1.9560 -2.8021 -2.7044
 2204SOL    HW218072   2.724   3.220   7.719 -1.1743 -0.1810 -2.9282
 2205SOL     OW18073   0.887   0.324   6.677  0.4996 -0.1565  0.1996
 2205SOL    HW118074   0.938   0.362   6.749  1.1275  0.3451 -0.5018
 2205SOL    HW218075   0.956   0.273   6.634  0.2105  0.0965 -0.5642
 2206SOL     OW18076   0.712   3.580   5.176  0.2619 -0.0556  0.9590
 2206SOL    HW118077   0.778   3.522   5.137 -0.9397 -1.9226  1.7196
 2206SOL    HW218078   0.718   3.655   5.117 -1.6248  1.8553  3.2223
 2207SOL     OW18079   2.092   1.360  13.395  0.0989 -0.7024 -0.0072
 2207SOL    HW118080   2.148   1.436  13.382  0.0674 -0.4350  1.3829
 2207SOL    HW218081   2.019   1.400  13.443  1.8284 -0.3893  2.3725
 2208SOL     OW18082   3.679   4.562  16.044  0.2210 -0.1085  0.4242
 2208SOL    HW118083   3.608   4.549  16.107  0.5583  1.9194  1.2204
 2208SOL    HW218084   3.703   4.470  16.032 -0.9522 -0.0909 -1.8967
 2209SOL     OW18085   0.723   3.775   4.979  0.1578  0.1963  0.1590
 2209SOL    HW118086   0.674   3.738   4.906 -0.1100 -0.6459  0.7629
 2209SOL    HW218087   0.774   3.848   4.945  1.8078 -0.8189  0.3928
 2210SOL     OW18088   1.496   3.977   2.468 -0.5119 -0.1594 -0.3862
 2210SOL    HW118089   1.540   3.960   2.552 -2.2054 -1.1408  0.2993
 2210SOL    HW218090   1.503   4.072   2.457 -0.7467  0.1729  2.1830
 2211SOL     OW18091   2.954   3.975   0.098  0.2123  0.1828 -0.6162
 2211SOL    HW118092   3.048   3.972   0.081  0.6498 -0.3715  1.7905
 2211SOL    HW218093   2.927   3.883   0.109  2.3617 -0.6919 -2.8037
 2212SOL     OW18094   2.402   1.678  12.165 -0.3335  0.5746  0.8088
 2212SOL    HW118095   2.462   1.623  12.216 -1.6178 -1.3289  0.2532
 2212SOL    HW218096   2.352   1.727  12.230 -0.9356 -0.2110  0.9366
 2213SOL     OW18097   1.428   2.751   4.496 -0.0180  0.1521  0.1799
 2213SOL    HW118098   1.504   2.696   4.474 -1.3108 -2.0772  1.2816
 2213SOL    HW218099   1.402   2.768   4.405  1.0028 -3.1048 -0.7497
 2214SOL     OW18100   4.681   3.027   3.029  0.4477  0.2058  0.2001
 2214SOL    HW118101   4.636   2.977   2.961  1.4928 -2.1789  1.2763
 2214SOL    HW218102   4.702   3.103   2.976  2.6145 -1.7137 -1.6824
 2215SOL     OW18103   2.216   1.311   7.998  0.0465  0.2422  0.0348
 2215SOL    HW118104   2.142   1.259   7.967  1.0808 -2.5470  2.3052
 2215SOL    HW218105   2.254   1.331   7.912 -1.4250 -0.5517 -0.7884
 2216SOL     OW18106   1.850   0.008   7.190  0.2886 -0.9040  0.3291
 2216SOL    HW118107   1.905   0.037   7.262 -1.3028 -1.8258  1.9165
 2216SOL    HW218108   1.897   4.652   7.161 -0.0403 -1.0292  0.1320
 2217SOL     OW18109   1.351   2.942   3.501  0.6144 -0.2762 -0.1787
 2217SOL    HW118110   1.406   3.012   3.536  1.6791 -0.8918 -0.6355
 2217SOL    HW218111   1.372   2.917   3.411  0.1992 -2.9990  0.4709
 2218SOL     OW18112   0.971   3.587   1.956 -0.1677 -0.2375  0.3189
 2218SOL    HW118113   1.022   3.542   2.023  1.6232  1.9542  0.4563
 2218SOL    HW218114   0.919   3.510   1.934 -0.8541  0.2861  0.1291
 2219SOL     OW18115   2.433   4.586   4.496 -0.1866  0.2308  0.0147
 2219SOL    HW118116   2.404   4.516   4.555 -0.6309 -0.8680 -1.5139
 2219SOL    HW218117   2.442   4.537   4.415 -1.6123 -1.0918  0.6594
 2220SOL     OW18118   2.995   3.555   8.753 -0.3928  0.2764  0.2985
 2220SOL    HW118119   3.003   3.462   8.732 -0.0378  0.7466 -1.6466
 2220SOL    HW218120   2.944   3.560   8.834 -0.5683  0.3198  0.1860
 2221SOL     OW18121   3.850   3.441   6.260 -0.1863 -0.3644  0.5749
 2221SOL    HW118122   3.914   3.510   6.272 -1.6318  0.9195  0.8188
 2221SOL    HW218123   3.794   3.447   6.337 -1.1407 -1.2393 -0.0361
 2222SOL     OW18124   0.259   0.628   0.587  0.4747 -0.2473  0.5458
 2222SOL    HW118125   0.241   0.720   0.571  0.0225 -0.8653 -2.5771
 2222SOL    HW218126   0.338   0.637   0.641  0.5964 -0.9120  0.4816
 2223SOL     OW18127   0.323   3.400   1.286 -0.2857  0.0161  0.5616
 2223SOL    HW118128   0.361   3.470   1.339  1.6518 -1.2861  0.9130
 2223SOL    HW218129   0.230   3.408   1.305 -0.4805  1.4080 -1.0758
 2224SOL     OW18130   1.288   2.525   3.705  0.1923  0.1809  0.5000
 2224SOL    HW118131   1.341   2.600   3.731 -0.4723  0.0766  2.1404
 2224SOL    HW218132   1.210   2.580   3.701  0.5788  0.7093  0.2689
 2225SOL     OW18133   0.403   0.125   7.611 -0.0406  0.2833 -0.2445
 2225SOL    HW118134   0.416   0.093   7.521  2.6891 -0.1222  0.2840
 2225SOL    HW218135   0.337   0.059   7.633  0.4799  0.0597  0.6161
 2226SOL     OW18136   2.733   2.483   1.969  0.3533 -0.6156  0.4455
 2226SOL    HW118137   2.776   2.398   1.959  0.2078 -0.7560  1.0462
 2226SOL    HW218138   2.706   2.470   2.059  2.3501 -0.5151  1.0636
 2227SOL     OW18139   2.253   3.778   9.510 -0.4265  0.1366  0.0070
 2227SOL    HW118140   2.310   3.730   9.569 -3.2018 -0.8263  1.9251
 2227SOL    HW218141   2.207   3.828   9.578  0.9127  1.7202 -0.2595
 2228SOL     OW18142   3.508   3.339   5.588  0.4718 -0.2090  0.5150
 2228SOL    HW118143   3.554   3.327   5.672  0.4645 -0.2782  0.5084
 2228SOL    HW218144   3.471   3.251   5.585  0.4285 -0.1459 -0.4649
 2229SOL     OW18145   3.215   0.187   4.441  0.0406 -0.3650  0.3494
 2229SOL    HW118146   3.297   0.236   4.435 -0.8193  1.0744  0.3293
 2229SOL    HW218147   3.153   0.260   4.439  2.3809  1.5000 -3.0069
 2230SOL     OW18148   3.413   0.076   3.384  0.2308  0.6095  0.0501
 2230SOL    HW118149   3.476   0.033   3.326 -0.9208 -0.0409 -0.7236
 2230SOL    HW218150   3.342   0.082   3.321  0.9048  0.3952 -0.7388
 2231SOL     OW18151   2.724   2.311   6.214 -0.9320 -0.5874 -0.6190
 2231SOL    HW118152   2.794   2.261   6.257 -0.2710  2.0530  1.3597
 2231SOL    HW218153   2.650   2.252   6.227 -1.1559 -0.1968 -0.1203
 2232SOL     OW18154   0.306   2.076   8.973 -0.0428  0.7284 -0.0100
 2232SOL    HW118155   0.255   2.002   9.006 -0.9721  0.6205 -1.6844
 2232SOL    HW218156   0.374   2.070   9.040  0.2695 -2.1028 -0.5480
 2233SOL     OW18157   0.119   2.534   1.954  0.6068 -0.1630  0.1016
 2233SOL    HW118158   0.186   2.473   1.922  0.1028 -0.3531 -0.6094
 2233SOL    HW218159   0.180   2.598   1.990  0.1146 -0.0728  0.7645
 2234SOL     OW18160   0.245   2.964  11.423  0.0694  0.2159 -0.4537
 2234SOL    HW118161   0.250   2.869  11.412 -1.4529 -0.0372  1.1509
 2234SOL    HW218162   0.165   2.982  11.472  0.8996 -0.3898  1.1347
 2235SOL     OW18163   2.446   0.143   9.290  0.3545 -0.1370 -0.2243
 2235SOL    HW118164   2.382   0.191   9.237 -0.2200  0.3489  0.8990
 2235SOL    HW218165   2.522   0.151   9.233  2.0827 -1.2491  1.9092
 2236SOL     OW18166   1.471   0.020   2.537  0.1459  0.2136  0.6261
 2236SOL    HW118167   1.503   0.107   2.561 -1.0688  1.0399 -0.7573
 2236SOL    HW218168   1.427   0.042   2.455 -1.3354 -0.7633  1.1470
 2237SOL     OW18169   4.219   4.075  11.078  0.0611 -0.0436  0.4536
 2237SOL    HW118170   4.135   4.103  11.113 -0.9898 -1.7839 -0.6545
 2237SOL    HW218171   4.274   4.094  11.155  1.6011 -1.4027 -0.3027
 2238SOL     OW18172   1.979   1.377  17.048 -0.1040  0.4102  0.0448
 2238SOL    HW118173   1.954   1.320  16.975  1.0615 -0.7279  0.5489
 2238SOL    HW218174   2.045   1.436  17.011 -0.0312  1.3277  1.6432
 2239SOL     OW18175   1.196   4.658   5.676 -0.2255  0.8710  0.0628
 2239SOL    HW118176   1.235   4.624   5.595 -0.0435 -0.6098  0.7740
 2239SOL    HW218177   1.147   0.012   5.647  0.9911  1.2965 -0.9241
 2240SOL     OW18178   1.316   4.486  10.243  0.3994 -0.0165 -0.5221
 2240SOL    HW118179   1.295   4.507  10.152 -1.6325 -0.8974 -0.2727
 2240SOL    HW218180   1.345   4.397  10.225  1.0215 -0.0191  0.4556
 2241SOL     OW18181   3.119   0.348   4.923 -0.7486  0.1018 -0.6332
 2241SOL    HW118182   3.094   0.263   4.959  0.7623 -0.6302 -1.3094
 2241SOL    HW218183   3.062   0.340   4.846  0.9109  0.5543 -1.9108
 2242SOL     OW18184   3.454   4.110   2.573 -0.2800 -0.0540  0.0617
 2242SOL    HW118185   3.378   4.110   2.517 -0.1501 -0.7190 -0.1157
 2242SOL    HW218186   3.454   4.018   2.601 -2.2208  0.5042  1.8536
 2243SOL     OW18187   1.007   2.688   6.953 -0.3968 -0.4093  0.5236
 2243SOL    HW118188   0.965   2.715   6.872 -0.2340 -2.9680 -0.4127
 2243SOL    HW218189   0.937   2.642   7.000 -2.5740  1.1234 -1.2552
 2244SOL     OW18190   3.198   3.831   3.623 -0.1688 -0.1427  0.3501
 2244SOL    HW118191   3.209   3.767   3.552  0.9148  1.2620 -0.7563
 2244SOL    HW218192   3.281   3.810   3.667 -1.0362  1.9662  2.9528
 2245SOL     OW18193   4.418   2.160   6.480 -0.1003  0.3984  0.4660
 2245SOL    HW118194   4.386   2.251   6.477  0.6044  0.5503 -2.4040
 2245SOL    HW218195   4.460   2.147   6.395  1.2873 -1.2023  1.4054
 2246SOL     OW18196   0.436   2.753   3.961  0.2855  0.4482 -0.5330
 2246SOL    HW118197   0.532   2.745   3.960  0.3579  1.1160  0.4554
 2246SOL    HW218198   0.433   2.836   4.009 -1.2839 -0.2727  0.6008
 2247SOL     OW18199   1.782   3.475   2.858 -0.1718  0.0182  0.1144
 2247SOL    HW118200   1.805   3.383   2.862 -1.9994 -0.3751  1.5855
 2247SOL    HW218201   1.838   3.502   2.785 -0.0453 -0.5005  0.0189
 2248SOL     OW18202   0.236   4.686   1.132 -0.2058  0.5963  0.2720
 2248SOL    HW118203   0.260   4.603   1.173  1.1163  1.2502  0.7992
 2248SOL    HW218204   0.273   4.665   1.046  3.3333 -0.1430  1.9856
 2249SOL     OW18205   3.583   1.364  10.543  0.2916  0.2059  0.5267
 2249SOL    HW118206   3.575   1.391  10.635 -0.0915 -1.0139  0.8494
 2249SOL    HW218207   3.667   1.401  10.514 -1.0432  2.0083 -1.0333
 2250SOL     OW18208   0.041   0.825   7.622  0.0655  1.0702  0.2727
 2250SOL    HW118209   0.086   0.862   7.698  2.1681  0.0529 -0.4936
 2250SOL    HW218210   0.020   0.733   7.642  0.8720  0.8762  0.2159
 2251SOL     OW18211   1.274   3.776   1.927 -0.3564 -0.5181 -0.0685
 2251SOL    HW118212   1.324   3.716   1.873  0.4936 -0.2696  0.4300
 2251SOL    HW218213   1.302   3.860   1.890 -3.7829  0.2030 -1.0497
 2252SOL     OW18214   3.660   3.490   6.894 -0.0590  0.3577 -0.0148
 2252SOL    HW118215   3.730   3.538   6.938 -0.7372  1.1893  0.1687
 2252SOL    HW218216   3.633   3.539   6.816  0.0018  0.9232  0.3167
 2253SOL     OW18217   0.321   1.927   4.028  0.4335 -0.2755 -0.4067
 2253SOL    HW118218   0.274   1.919   4.111  0.4292  1.9317 -0.1948
 2253SOL    HW218219   0.391   1.990   4.046  0.0841 -0.1749  0.6224
 2254SOL     OW18220   1.695   2.021   2.478 -0.4461 -0.3079 -0.3454
 2254SOL    HW118221   1.644   1.958   2.427 -1.6505 -0.8529  1.5319
 2254SOL    HW218222   1.638   2.096   2.494 -1.3364 -0.5921 -2.1918
 2255SOL     OW18223   4.225   0.739   1.858  0.1515  0.7462  0.4590
 2255SOL    HW118224   4.181   0.810   1.811 -2.5151 -1.9956 -1.1954
 2255SOL    HW218225   4.247   0.686   1.781  0.4500 -2.1940  2.5876
 2256SOL     OW18226   4.157   2.558   5.959 -0.3487  0.2026 -0.4933
 2256SOL    HW118227   4.077   2.523   5.920 -0.6459  1.6314 -1.1443
 2256SOL    HW218228   4.107   2.600   6.029 -2.8634 -1.5265 -1.2589
 2257SOL     OW18229   1.608   0.307   7.360 -0.1254  0.0072  0.3856
 2257SOL    HW118230   1.559   0.384   7.330 -0.3543 -1.0873 -1.9663
 2257SOL    HW218231   1.697   0.344   7.365 -0.7031  1.5554 -0.7015
 2258SOL     OW18232   4.708   0.710  15.917  0.0783 -0.1589 -0.0492
 2258SOL    HW118233   4.634   0.675  15.868 -1.3419  0.7893  1.4183
 2258SOL    HW218234   4.715   0.798  15.880  2.0171  0.9214  2.8670
 2259SOL     OW18235   0.924   3.712  12.239  0.1999 -0.1850  0.3027
 2259SOL    HW118236   0.951   3.667  12.159 -0.9691 -0.9193  0.3099
 2259SOL    HW218237   0.940   3.636  12.295 -1.8938 -0.4765  0.5248
 2260SOL     OW18238   3.839   2.593   0.676  0.0534 -0.5265 -0.5517
 2260SOL    HW118239   3.747   2.609   0.656  0.5658  0.2352 -2.2703
 2260SOL    HW218240   3.884   2.595   0.591  2.0277 -0.8311  0.4729
 2261SOL     OW18241   4.625   1.749   5.689 -0.1794  0.4547  0.2285
 2261SOL    HW118242   4.623   1.821   5.752  0.3361  0.1546  0.5888
 2261SOL    HW218243   4.720   1.738   5.682  0.0650  2.8270 -0.1732
 2262SOL     OW18244   2.983   0.230  13.496  0.4121 -0.0985  0.0511
 2262SOL    HW118245   3.012   0.217  13.405 -0.3957  1.3004 -0.4007
 2262SOL    HW218246   3.028   0.155  13.535  0.8502  0.6348  0.9642
 2263SOL     OW18247   2.247   3.743  10.791  0.0531  0.4175 -0.6745
 2263SOL    HW118248   2.195   3.688  10.732  0.3626 -1.0861  0.4794
 2263SOL    HW218249   2.293   3.671  10.833 -0.0893  0.5864 -0.2320
 2264SOL     OW18250   3.690   3.047   5.219  0.3152 -0.4346  0.0028
 2264SOL    HW118251   3.759   3.104   5.185  0.5529 -1.0292 -0.5272
 2264SOL    HW218252   3.702   3.045   5.314  0.5081 -2.2328 -0.0554
 2265SOL     OW18253   1.044   1.247   4.834  0.1699  0.1911 -0.4617
 2265SOL    HW118254   1.052   1.285   4.921 -0.4452 -0.7817  0.0209
 2265SOL    HW218255   1.130   1.210   4.818 -0.9222 -2.6139  0.1844
 2266SOL     OW18256   4.019   0.907   6.566  0.2955  0.0818  0.8218
 2266SOL    HW118257   3.978   0.962   6.633  2.0045  1.1149  1.0245
 2266SOL    HW218258   4.068   0.970   6.513  0.8058  0.5768  1.8773
 2267SOL     OW18259   3.839   2.747   6.589 -0.0124  0.2399 -0.1285
 2267SOL    HW118260   3.754   2.704   6.581 -0.1617  0.7507 -1.3953
 2267SOL    HW218261   3.854   2.798   6.509 -0.1303  1.1349  0.4167
 2268SOL     OW18262   0.802   0.651   7.145  0.2901 -0.1987  0.1885
 2268SOL    HW118263   0.799   0.562   7.108 -0.3027  1.2051 -3.1662
 2268SOL    HW218264   0.871   0.637   7.210 -0.1161 -1.2888  0.3778
 2269SOL     OW18265   3.267   1.727  14.437 -1.2806 -0.4562  0.2561
 2269SOL    HW118266   3.307   1.664  14.497 -0.8320  0.6861  1.1732
 2269SOL    HW218267   3.330   1.731  14.365 -0.3862  0.0749  1.0578
 2270SOL     OW18268   0.990   2.753  17.143  0.3654  0.1385 -0.2007
 2270SOL    HW118269   0.919   2.804  17.183  0.4032 -0.4153  0.5841
 2270SOL    HW218270   0.953   2.669  17.170 -0.0842  1.0992  2.2531
 2271SOL     OW18271   4.519   1.481   7.357  0.0301 -0.5006  0.1430
 2271SOL    HW118272   4.431   1.451   7.334  0.6280 -2.4800  0.4162
 2271SOL    HW218273   4.574   1.442   7.290  0.0366  1.2349 -0.8528
 2272SOL     OW18274   0.762   1.464   9.140  0.1594  0.1888  0.2708
 2272SOL    HW118275   0.693   1.486   9.203 -0.5788  0.4838 -0.6418
 2272SOL    HW218276   0.837   1.516   9.168  1.7736 -0.2418 -3.1760
 2273SOL     OW18277   0.000   3.197   3.486  0.1682 -0.1615 -0.1907
 2273SOL    HW118278   0.013   3.116   3.536 -0.4381 -0.9012 -1.2419
 2273SOL    HW218279   4.628   3.207   3.480 -0.0034 -1.7423  0.0113
 2274SOL     OW18280   3.032   2.758   9.589 -0.0089  0.1364 -0.0715
 2274SOL    HW118281   3.090   2.832   9.573 -2.8179  2.2238 -0.6533
 2274SOL    HW218282   3.060   2.689   9.528  0.1463 -0.8676  1.1224
 2275SOL     OW18283   4.341   3.028   2.191 -0.0268 -0.6280 -0.3652
 2275SOL    HW118284   4.415   3.015   2.131  1.6534 -2.5154  2.1283
 2275SOL    HW218285   4.300   3.105   2.150  0.3720 -0.1415  0.1514
 2276SOL     OW18286   2.946   0.197  12.405  0.1175  0.4722  0.7236
 2276SOL    HW118287   2.936   0.102  12.397 -0.2010  0.5706 -0.0284
 2276SOL    HW218288   2.991   0.205  12.489  0.9158  0.1005  0.3317
 2277SOL     OW18289   1.968   3.051   3.634  0.6086 -0.0007  0.0793
 2277SOL    HW118290   1.986   3.072   3.542  2.3759 -1.2940  0.1273
 2277SOL    HW218291   1.975   2.956   3.627  1.0775  0.0584 -0.3553
 2278SOL     OW18292   3.609   0.582   8.535 -0.6072 -0.0457  0.0165
 2278SOL    HW118293   3.690   0.596   8.487 -1.2351 -0.8998 -1.2996
 2278SOL    HW218294   3.642   0.600   8.623  2.3019 -0.3195 -1.0222
 2279SOL     OW18295   0.711   3.726   3.011 -0.5450  0.1020  0.1184
 2279SOL    HW118296   0.694   3.644   2.965  0.7585  0.4259 -0.9683
 2279SOL    HW218297   0.733   3.784   2.939  2.2135 -0.0737  0.8081
 2280SOL     OW18298   1.551   3.086   8.535  0.0772 -0.9781  0.3139
 2280SOL    HW118299   1.589   3.007   8.575 -0.6396 -0.8579  1.2405
 2280SOL    HW218300   1.481   3.112   8.595 -0.8105 -2.4225 -0.1004
 2281SOL     OW18301   4.349   4.087   1.721 -0.5234  0.2564 -0.7593
 2281SOL    HW118302   4.393   4.006   1.694 -3.3693 -1.4409 -0.3242
 2281SOL    HW218303   4.327   4.143   1.646 -3.1703  0.0728 -0.1247
 2282SOL     OW18304   1.520   3.863  11.239  0.2218  0.0568 -0.2730
 2282SOL    HW118305   1.590   3.820  11.190  2.4770  1.8270  1.3824
 2282SOL    HW218306   1.536   3.815  11.321 -1.6129 -1.6826 -0.9282
 2283SOL     OW18307   1.785   2.171   4.012 -0.3608 -0.5728 -0.6711
 2283SOL    HW118308   1.764   2.078   4.027  1.0806 -0.5863  1.3122
 2283SOL    HW218309   1.877   2.162   3.987 -0.2751  0.7628 -0.8372
 2284SOL     OW18310   0.130   4.283  11.754  0.1085  0.2078  0.3662
 2284SOL    HW118311   0.179   4.328  11.823  1.3025 -0.1552 -0.2355
 2284SOL    HW218312   0.189   4.211  11.731 -0.2983  1.1185 -3.5794
 2285SOL     OW18313   3.335   1.618  16.404 -0.2678 -0.0068 -0.3586
 2285SOL    HW118314   3.343   1.538  16.353 -0.0149 -1.0109  1.2771
 2285SOL    HW218315   3.303   1.681  16.339 -1.0610  1.1528  1.1347
 2286SOL     OW18316   1.610   1.683   7.289  0.8135 -0.1431  0.2934
 2286SOL    HW118317   1.587   1.604   7.239  0.7763  0.0310  0.0341
 2286SOL    HW218318   1.654   1.741   7.227  1.3790 -1.7359 -0.7987
 2287SOL     OW18319   2.743   4.315   2.152  0.4086 -0.3607  1.0744
 2287SOL    HW118320   2.653   4.341   2.173  0.1103 -0.1857 -0.4476
 2287SOL    HW218321   2.773   4.317   2.243  1.9675  1.3967  0.5314
 2288SOL     OW18322   3.354   0.120  17.452  0.2828 -0.0434 -0.7948
 2288SOL    HW118323   3.383   0.206  17.483  0.3855  0.3014 -1.8662
 2288SOL    HW218324   3.289   0.140  17.384 -0.3812 -0.9297 -0.4297
 2289SOL     OW18325   1.441   3.041   7.456 -0.5833  0.0058 -0.4053
 2289SOL    HW118326   1.376   2.972   7.439 -1.8297  1.1103 -0.1069
 2289SOL    HW218327   1.384   3.105   7.498 -1.3939 -0.3538 -0.9542
 2290SOL     OW18328   3.498   3.781  12.886  0.3265 -0.0701 -0.0704
 2290SOL    HW118329   3.567   3.776  12.952  0.1833  0.2740  0.0990
 2290SOL    HW218330   3.470   3.872  12.893  1.9883  0.3436  1.2399
 2291SOL     OW18331   1.234   2.512   2.640  0.3359  0.0224 -0.1718
 2291SOL    HW118332   1.160   2.478   2.690  0.1108  1.5575  0.5208
 2291SOL    HW218333   1.290   2.573   2.687  0.5345  1.3079 -2.0737
 2292SOL     OW18334   1.120   0.571  15.342  0.0538  0.0084 -0.0284
 2292SOL    HW118335   1.111   0.563  15.437  1.4151 -2.2506 -0.0759
 2292SOL    HW218336   1.085   0.657  15.320  1.9450  1.2438  1.8051
 2293SOL     OW18337   4.235   3.404   4.602  0.0166  0.1072 -0.1151
 2293SOL    HW118338   4.157   3.419   4.655  0.0556 -0.3902  0.0852
 2293SOL    HW218339   4.267   3.320   4.635 -0.7392 -0.7541 -1.5698
 2294SOL     OW18340   4.153   2.530  16.756 -0.0874  0.5647  0.0177
 2294SOL    HW118341   4.141   2.588  16.681 -1.0089  0.6926  0.2642
 2294SOL    HW218342   4.218   2.468  16.721 -1.1407 -0.1846 -0.6174
 2295SOL     OW18343   0.597   2.165  17.366 -0.0828 -0.7863  0.4338
 2295SOL    HW118344   0.578   2.143  17.275  1.2872 -2.2357  0.4938
 2295SOL    HW218345   0.517   2.215  17.382 -0.0852 -0.9744  1.0005
 2296SOL     OW18346   0.946   3.084   9.923 -0.5033 -0.2045 -0.2019
 2296SOL    HW118347   0.870   3.026   9.919 -0.4769 -0.2772  0.4596
 2296SOL    HW218348   1.014   3.025   9.891 -0.1910 -0.0443  0.1608
 2297SOL     OW18349   2.342   3.157  14.444 -0.1533 -0.1674 -0.6068
 2297SOL    HW118350   2.272   3.218  14.465 -2.1206 -1.8533 -2.3374
 2297SOL    HW218351   2.394   3.208  14.382 -0.7273 -0.0227 -0.9621
 2298SOL     OW18352   1.436   3.300  11.470  0.0572  0.7888 -0.1481
 2298SOL    HW118353   1.385   3.271  11.395 -0.7006  0.7863  0.3626
 2298SOL    HW218354   1.372   3.286  11.540  0.0027 -0.4592 -0.4502
 2299SOL     OW18355   1.988   1.045  12.104 -0.2446 -0.2378 -0.2650
 2299SOL    HW118356   2.038   1.050  12.023  0.2294 -0.5862  0.0064
 2299SOL    HW218357   1.950   1.133  12.116 -1.3863 -0.8892  0.8477
 2300SOL     OW18358   1.816   0.516   8.809 -0.3678 -0.0867 -0.4575
 2300SOL    HW118359   1.742   0.508   8.748 -0.8750 -0.2771  0.1855
 2300SOL    HW218360   1.778   0.568   8.880  0.7809  1.0374 -0.6759
 2301SOL     OW18361   0.202   0.484   2.331 -0.8360  0.5448  0.3263
 2301SOL    HW118362   0.159   0.410   2.287  0.7560 -0.5045  0.5592
 2301SOL    HW218363   0.292   0.470   2.302 -0.1403  1.3593  2.1039
 2302SOL     OW18364   1.415   2.366   6.444 -0.0489  0.8810  0.5514
 2302SOL    HW118365   1.440   2.413   6.364  2.0188  0.0780  0.7112
 2302SOL    HW218366   1.396   2.280   6.406  0.0870  0.5880  1.1387
 2303SOL     OW18367   1.122   0.884   0.199 -0.3984  0.1826  0.4127
 2303SOL    HW118368   1.056   0.953   0.188 -1.0948 -0.4632  0.5531
 2303SOL    HW218369   1.110   0.837   0.117  0.3710 -0.9220  0.9335
 2304SOL     OW18370   4.144   3.297  10.122 -0.1335  0.1342  0.7181
 2304SOL    HW118371   4.138   3.283  10.216  0.0946 -2.4905  0.3503
 2304SOL    HW218372   4.052   3.288  10.096  0.5448  0.4719 -1.7940
 2305SOL     OW18373   1.238   4.388   9.263 -0.1383 -0.2553 -0.4190
 2305SOL    HW118374   1.229   4.474   9.305 -1.6061  0.0026 -1.2334
 2305SOL    HW218375   1.332   4.381   9.250 -0.3672  0.4404 -2.5446
 2306SOL     OW18376   0.139   1.471   8.795  0.1341  0.2732  0.5445
 2306SOL    HW118377   0.202   1.513   8.737  0.1288  1.3387  1.3066
 2306SOL    HW218378   0.178   1.385   8.812  0.2761  0.4707  1.2054
 2307SOL     OW18379   3.264   4.716  10.049 -0.3801 -0.1804 -0.1694
 2307SOL    HW118380   3.350   4.691  10.015 -0.6061  0.7492 -1.3972
 2307SOL    HW218381   3.209   4.638  10.036 -0.5861 -0.0148 -0.2897
 2308SOL     OW18382   3.059   0.138   2.088  0.2733  0.6445  0.1916
 2308SOL    HW118383   2.995   0.184   2.034 -0.2609 -0.4672 -0.1162
 2308SOL    HW218384   3.115   0.206   2.126  0.2554  0.5276  0.4267
 2309SOL     OW18385   1.107   0.379   0.800 -0.0007  0.2488 -0.8318
 2309SOL    HW118386   1.142   0.448   0.857 -1.0196 -0.2149  0.3628
 2309SOL    HW218387   1.183   0.327   0.774  0.3724  0.9845 -1.2114
 2310SOL     OW18388   2.215   3.043   8.176 -0.0863 -1.0814  0.4400
 2310SOL    HW118389   2.282   3.109   8.160 -1.9035  0.6530  0.0355
 2310SOL    HW218390   2.255   2.988   8.243 -2.7515 -2.1066  1.1992
 2311SOL     OW18391   0.795   3.258  13.909 -0.0281 -0.1876  0.1889
 2311SOL    HW118392   0.857   3.268  13.837 -0.3735  1.2865  0.0939
 2311SOL    HW218393   0.798   3.348  13.941 -0.2871 -1.0342  2.5653
 2312SOL     OW18394   4.604   1.164   2.445 -0.2370 -0.2295  0.5033
 2312SOL    HW118395   4.651   1.099   2.498  0.8226 -0.2862 -0.5175
 2312SOL    HW218396   4.671   1.191   2.383 -1.6510  1.7316 -0.1729
 2313SOL     OW18397   3.316   4.428   9.152  0.6963 -0.4657  0.0771
 2313SOL    HW118398   3.271   4.512   9.154 -1.3898 -1.5904  1.1217
 2313SOL    HW218399   3.253   4.363   9.184 -0.0800  1.1270  1.7863
 2314SOL     OW18400   1.875   2.537   9.838 -0.1614  0.2785 -0.0087
 2314SOL    HW118401   1.935   2.586   9.894  1.0195 -1.5694  0.3520
 2314SOL    HW218402   1.796   2.546   9.892 -1.7526 -0.4222 -2.2151
 2315SOL     OW18403   0.962   0.564  10.494  0.0386 -0.7421  0.1771
 2315SOL    HW118404   1.043   0.584  10.448 -1.3746 -0.5420 -2.2792
 2315SOL    HW218405   0.947   0.476  10.458  0.6004 -0.7036 -0.1475
 2316SOL     OW18406   1.072   0.785   7.198 -0.4657 -0.1953 -0.1510
 2316SOL    HW118407   1.038   0.852   7.258 -0.9743 -1.0392  0.5134
 2316SOL    HW218408   1.139   0.827   7.144  0.9209 -0.3771  1.4060
 2317SOL     OW18409   0.513   3.795  10.383 -0.0261  0.5047 -0.0243
 2317SOL    HW118410   0.484   3.872  10.335 -2.5776 -1.0505 -0.9694
 2317SOL    HW218411   0.448   3.791  10.453 -0.2112 -0.6807 -0.2514
 2318SOL     OW18412   4.091   4.583   4.580 -0.1038  0.0785  0.0639
 2318SOL    HW118413   4.148   4.508   4.599 -0.1130  0.7040  2.5822
 2318SOL    HW218414   4.135   4.655   4.624  1.4306  0.5045 -2.1561
 2319SOL     OW18415   0.450   0.228   0.312  0.1459 -0.4667 -0.0405
 2319SOL    HW118416   0.415   0.298   0.368  0.5588 -1.2520  1.1887
 2319SOL    HW218417   0.423   0.257   0.225  0.1434 -3.3372 -0.9719
 2320SOL     OW18418   0.325   4.316  10.205  0.1024  0.0869  0.3459
 2320SOL    HW118419   0.420   4.323  10.194  0.1248 -0.8704 -0.1445
 2320SOL    HW218420   0.298   4.406  10.187 -1.9272 -0.9299 -1.6572
 2321SOL     OW18421   0.061   2.406  10.628  0.2798  0.1384 -0.3493
 2321SOL    HW118422   0.049   2.392  10.534 -0.2379  0.2748 -0.3035
 2321SOL    HW218423   0.040   2.322  10.670 -1.1288  0.2783 -0.7791
 2322SOL     OW18424   0.940   0.000   4.817 -0.0398 -0.2886  0.6220
 2322SOL    HW118425   0.859   0.047   4.795 -0.6710 -2.0687 -0.8425
 2322SOL    HW218426   0.938   4.657   4.748 -1.5262  0.1854  0.1952
 2323SOL     OW18427   2.096   2.804   1.093  0.2348  0.2676  0.0313
 2323SOL    HW118428   2.052   2.758   1.165 -1.5805 -0.4009 -1.5288
 2323SOL    HW218429   2.023   2.836   1.041  0.3249  1.3824  0.5746
 2324SOL     OW18430   0.833   0.786  12.082  0.2414  0.5003  0.2392
 2324SOL    HW118431   0.910   0.762  12.030 -0.8105  0.0684 -1.1103
 2324SOL    HW218432   0.869   0.866  12.119 -1.1510  0.7583  1.0075
 2325SOL     OW18433   3.436   2.986  14.012  0.3231  0.1622  0.5904
 2325SOL    HW118434   3.424   2.939  13.929 -1.1990  0.7867  0.4719
 2325SOL    HW218435   3.514   3.038  13.992  0.0364  0.4263  0.1661
 2326SOL     OW18436   2.592   1.722   3.376  0.1652  0.3130  0.2732
 2326SOL    HW118437   2.497   1.706   3.371  0.2205  0.4134 -0.9281
 2326SOL    HW218438   2.606   1.747   3.467 -0.7559  1.3132  0.1346
 2327SOL     OW18439   2.687   1.301  16.539  0.3915  0.0147  0.0095
 2327SOL    HW118440   2.727   1.228  16.493  1.5277  0.5461  0.1667
 2327SOL    HW218441   2.654   1.355  16.466 -2.0379  0.6874  1.5871
 2328SOL     OW18442   2.548   2.903  15.578 -0.0757 -0.3537  0.4597
 2328SOL    HW118443   2.563   2.843  15.651  0.6261  0.6506  1.1439
 2328SOL    HW218444   2.592   2.984  15.602 -2.1935  0.5591  1.2638
 2329SOL     OW18445   2.106   4.150   5.657  0.8723  0.4328  0.5913
 2329SOL    HW118446   2.106   4.115   5.746  0.1540 -1.7075 -0.2325
 2329SOL    HW218447   2.165   4.225   5.664  0.0093  1.1734 -0.1818
 2330SOL     OW18448   4.085   0.322   3.428  0.0735 -0.1779 -0.6149
 2330SOL    HW118449   4.174   0.325   3.393 -0.1896 -0.5644 -1.3071
 2330SOL    HW218450   4.098   0.299   3.520  1.5685 -0.8595 -1.0011
 2331SOL     OW18451   2.955   0.996   5.562  0.3025 -0.2687  0.2970
 2331SOL    HW118452   2.869   1.004   5.602  0.3024  1.0902  0.0088
 2331SOL    HW218453   2.931   1.000   5.469  2.7009 -3.7778 -0.4945
 2332SOL     OW18454   3.065   2.883  13.255 -0.0926 -0.2169  0.5840
 2332SOL    HW118455   3.057   2.788  13.268  2.1915 -0.7111 -1.6257
 2332SOL    HW218456   2.991   2.917  13.305 -1.1178 -2.0143  0.3009
 2333SOL     OW18457   1.877   4.717   0.287 -0.0754  0.8177 -0.7133
 2333SOL    HW118458   1.795   4.709   0.335  0.9466  1.3976  1.1155
 2333SOL    HW218459   1.845   4.679   0.205 -2.7405  0.3140  0.5632
 2334SOL     OW18460   2.187   3.078   1.838  0.0124  0.4832  0.5464
 2334SOL    HW118461   2.168   2.995   1.793 -0.6459  1.3946 -0.8558
 2334SOL    HW218462   2.102   3.103   1.874 -0.2196  0.5288 -0.0282
 2335SOL     OW18463   2.163   2.733   0.127  0.2442 -0.4538  0.8038
 2335SOL    HW118464   2.191   2.704   0.214  1.7021 -1.5190 -0.0126
 2335SOL    HW218465   2.228   2.796   0.096  1.8789 -1.5196  2.0529
 2336SOL     OW18466   2.911   2.491   5.594  0.0973  1.1693  0.4135
 2336SOL    HW118467   2.903   2.480   5.500 -2.6987 -1.0550  0.9166
 2336SOL    HW218468   2.951   2.406   5.614 -0.9721  0.3985 -0.7011
 2337SOL     OW18469   3.133   3.717   6.293  0.0739 -0.4253  0.1668
 2337SOL    HW118470   3.098   3.630   6.271  0.6632  0.0854 -2.7722
 2337SOL    HW218471   3.194   3.718   6.219  1.4507 -0.8992  1.3039
 2338SOL     OW18472   1.392   0.366   4.132  0.2071 -0.3215  0.3511
 2338SOL    HW118473   1.300   0.338   4.127  0.4775 -0.5202 -2.8969
 2338SOL    HW218474   1.381   0.460   4.147  1.5892 -0.2713  0.9822
 2339SOL     OW18475   3.822   0.473   6.880 -0.3334 -0.2768  0.6245
 2339SOL    HW118476   3.776   0.489   6.798  0.1247  0.1267  0.4486
 2339SOL    HW218477   3.910   0.486   6.844  0.3055 -0.5683  2.0720
 2340SOL     OW18478   1.559   2.635   5.139 -0.0182 -0.0906  0.0282
 2340SOL    HW118479   1.528   2.716   5.097  2.1465 -0.7450 -2.8579
 2340SOL    HW218480   1.526   2.637   5.229  1.2000  0.2397  0.4632
 2341SOL     OW18481   2.007   4.020  17.379 -0.1311  0.6501  0.5186
 2341SOL    HW118482   2.038   3.946  17.326 -0.2627  0.7304  0.3297
 2341SOL    HW218483   2.082   4.046  17.433 -0.7879  2.3155  0.6055
 2342SOL     OW18484   3.058   4.693   0.093  0.1041  0.7076 -0.6999
 2342SOL    HW118485   3.077   0.064   0.098 -0.8839  0.9589 -1.8773
 2342SOL    HW218486   3.047   4.677   0.187  1.2596  1.6026 -0.4080
 2343SOL     OW18487   4.471   3.731   4.304  0.4906 -0.0226  0.1907
 2343SOL    HW118488   4.511   3.660   4.254 -0.3740 -1.4886  1.5688
 2343SOL    HW218489   4.394   3.750   4.251 -0.4238  0.2621  1.6227
 2344SOL     OW18490   4.675   0.961   6.532  0.4740  0.2210  0.0502
 2344SOL    HW118491   4.607   0.900   6.560 -0.1636  0.2034 -1.5130
 2344SOL    HW218492   4.668   1.034   6.594  1.6386  0.3440  0.0250
 2345SOL     OW18493   0.818   2.517   7.683 -0.1380 -0.1630 -0.0655
 2345SOL    HW118494   0.726   2.504   7.658 -0.4295 -1.8019  1.8856
 2345SOL    HW218495   0.821   2.609   7.706  1.8684 -0.5483  1.1747
 2346SOL     OW18496   1.280   0.387   4.709 -0.1339  0.0435 -0.2053
 2346SOL    HW118497   1.261   0.328   4.636  3.1696  0.8072 -1.6650
 2346SOL    HW218498   1.219   0.353   4.775 -0.7893  1.1460 -0.2475
 2347SOL     OW18499   0.582   0.200  14.012  0.6170 -0.3804  0.0622
 2347SOL    HW118500   0.563   0.108  13.994 -0.5662  0.0530 -0.8842
 2347SOL    HW218501   0.676   0.203  13.995  0.4763  1.0942 -0.4458
 2348SOL     OW18502   2.149   2.361  12.359  0.1464 -0.4993  0.3359
 2348SOL    HW118503   2.231   2.328  12.395  0.7913  0.1333 -0.5576
 2348SOL    HW218504   2.144   2.455  12.374  2.6129 -0.0614 -1.6750
 2349SOL     OW18505   1.281   2.010   5.460  0.2738 -0.0678 -0.2726
 2349SOL    HW118506   1.245   2.073   5.399  0.0657  0.4463  0.3772
 2349SOL    HW218507   1.213   1.943   5.458 -1.6255  1.8241  0.6398
 2350SOL     OW18508   0.088   0.115   4.269  0.4900  0.5458  0.2651
 2350SOL    HW118509   0.064   0.074   4.352  0.3379  2.5577  1.2306
 2350SOL    HW218510   0.006   0.158   4.245  1.6016  3.3662  1.4054
 2351SOL     OW18511   1.571   3.768   9.195 -0.5839 -0.2231 -0.7887
 2351SOL    HW118512   1.571   3.800   9.105  0.9398  0.2526 -0.6103
 2351SOL    HW218513   1.525   3.686   9.176 -1.9641  0.1331  1.0334
 2352SOL     OW18514   2.825   2.483  13.540  0.0725 -0.2814 -0.7972
 2352SOL    HW118515   2.808   2.436  13.458  0.1352  0.3974 -1.1939
 2352SOL    HW218516   2.749   2.449  13.588  0.5769 -0.7889 -0.3616
 2353SOL     OW18517   4.455   2.209   3.723 -0.7793 -0.2284 -0.2190
 2353SOL    HW118518   4.425   2.295   3.751 -1.2185 -0.0373 -1.3043
 2353SOL    HW218519   4.551   2.217   3.720 -0.8538  1.0686  0.8841
 2354SOL     OW18520   4.272   0.346  13.104 -0.1517 -0.3266  0.5244
 2354SOL    HW118521   4.337   0.342  13.033  0.3996 -0.3253  1.0256
 2354SOL    HW218522   4.312   0.292  13.173 -0.0142 -2.7986 -1.4904
 2355SOL     OW18523   3.916   0.856   2.536  0.0886  0.2484  0.4468
 2355SOL    HW118524   3.913   0.802   2.457  0.8450  0.6929  0.1138
 2355SOL    HW218525   4.010   0.877   2.539  0.0068  0.9664 -2.1619
 2356SOL     OW18526   1.493   1.264   3.275 -0.1797  0.1668  0.4344
 2356SOL    HW118527   1.444   1.344   3.294 -1.1098 -0.5242  0.9478
 2356SOL    HW218528   1.503   1.226   3.362  1.8787  0.9674  0.5575
 2357SOL     OW18529   3.688   3.670   5.341 -0.3289  0.1617 -0.3907
 2357SOL    HW118530   3.650   3.602   5.287  0.8278  0.5248 -1.6544
 2357SOL    HW218531   3.753   3.625   5.395 -1.3517 -1.4581 -0.5376
 2358SOL     OW18532   3.763   4.389   2.047 -0.5439  0.1207 -0.3927
 2358SOL    HW118533   3.838   4.335   2.020  0.2410  0.1210  1.8273
 2358SOL    HW218534   3.694   4.323   2.039  0.3220 -0.8328 -0.0312
 2359SOL     OW18535   2.237   0.659   8.509  0.0885  0.4902 -0.3547
 2359SOL    HW118536   2.248   0.751   8.533 -0.7225  0.0073  1.8446
 2359SOL    HW218537   2.185   0.639   8.586 -0.4266 -0.1954 -0.8886
 2360SOL     OW18538   1.996   1.046   2.738 -0.0667 -0.4493 -0.7058
 2360SOL    HW118539   1.954   1.076   2.819  0.4072  1.3412 -1.1066
 2360SOL    HW218540   1.963   1.124   2.692 -2.2329 -0.3078  1.0739
 2361SOL     OW18541   3.279   2.956  13.465 -0.6608  0.5747 -0.3293
 2361SOL    HW118542   3.201   2.958  13.409 -1.2523  1.6636  0.5396
 2361SOL    HW218543   3.347   2.970  13.399 -1.0078 -1.8400 -1.2092
 2362SOL     OW18544   3.251   3.971  15.291  0.3146 -0.2609 -1.0663
 2362SOL    HW118545   3.183   3.990  15.355  0.3035  0.9194 -1.4231
 2362SOL    HW218546   3.227   4.033  15.222 -2.6437 -1.1809 -0.8832
 2363SOL     OW18547   1.245   1.168  10.693 -1.0497  0.2820 -0.0232
 2363SOL    HW118548   1.173   1.176  10.757  0.7171  1.0774  1.8667
 2363SOL    HW218549   1.316   1.124  10.739 -2.8920 -0.4815  2.0902
 2364SOL     OW18550   1.933   0.944  11.734 -0.4771  0.0472  0.6493
 2364SOL    HW118551   1.904   0.875  11.793 -0.1175 -1.1401 -0.5657
 2364SOL    HW218552   1.897   0.908  11.653  0.7576 -1.5688  0.8081
 2365SOL     OW18553   2.189   1.903   0.630 -0.1755  0.4093  0.5928
 2365SOL    HW118554   2.167   1.970   0.565 -0.9460 -0.2316  0.2051
 2365SOL    HW218555   2.276   1.932   0.660 -0.1748 -0.6164  1.6055
 2366SOL     OW18556   3.210   1.227   8.594 -0.3327  0.0270 -0.3351
 2366SOL    HW118557   3.147   1.222   8.666  0.4274  0.7622  0.3795
 2366SOL    HW218558   3.186   1.297   8.534  0.3562 -0.0953 -0.7481
 2367SOL     OW18559   1.386   3.283   5.445 -0.7953 -0.6725  0.0006
 2367SOL    HW118560   1.471   3.310   5.481 -1.3825 -1.5333  2.0445
 2367SOL    HW218561   1.350   3.232   5.517 -1.0342  1.5784  1.4891
 2368SOL     OW18562   2.505   2.346  16.555 -0.3455 -0.0016  0.6499
 2368SOL    HW118563   2.561   2.408  16.508  1.3590  0.2561  3.0146
 2368SOL    HW218564   2.486   2.289  16.480 -0.2780 -0.6681  1.1384
 2369SOL     OW18565   2.280   2.646   5.201  0.2925  0.2587 -0.1871
 2369SOL    HW118566   2.209   2.710   5.212 -0.0734 -0.2694  0.4964
 2369SOL    HW218567   2.241   2.571   5.155  0.2931  0.3057 -0.2656
 2370SOL     OW18568   0.272   0.372   3.311 -0.2154 -0.4699 -1.0746
 2370SOL    HW118569   0.254   0.354   3.403  0.5208  1.3542 -0.5712
 2370SOL    HW218570   0.366   0.373   3.329 -0.2865  2.5567 -0.8834
 2371SOL     OW18571   2.054   0.368  17.229  0.5465 -0.0768  0.3820
 2371SOL    HW118572   2.053   0.453  17.272 -3.3501 -0.4438  1.0119
 2371SOL    HW218573   2.124   0.324  17.277  1.3860  0.8814  0.0469
 2372SOL     OW18574   4.717   3.290   8.205  0.6958  0.8309  0.9155
 2372SOL    HW118575   4.676   3.226   8.264  0.5222  0.5400  0.4826
 2372SOL    HW218576   4.688   3.372   8.244 -0.9356  1.1511 -0.9524
 2373SOL     OW18577   2.550   0.425  13.318  0.1533 -0.1687 -0.4507
 2373SOL    HW118578   2.639   0.399  13.337  0.2679 -0.0638 -0.8434
 2373SOL    HW218579   2.538   0.397  13.228 -1.4488  1.5884 -0.7984
 2374SOL     OW18580   0.024   4.632   5.351  0.5774  0.0783  0.4911
 2374SOL    HW118581   4.678   4.569   5.374  0.8543 -0.2208  0.4918
 2374SOL    HW218582   0.005   4.696   5.420 -2.0053 -0.0106 -0.1089
 2375SOL     OW18583   3.856   3.963   9.930 -0.0330  0.3851  0.7357
 2375SOL    HW118584   3.782   3.959   9.869  2.1423 -0.2921 -1.8548
 2375SOL    HW218585   3.822   4.035   9.983 -2.9644  0.2402 -0.9409
 2376SOL     OW18586   2.480   3.685  13.833 -0.3502  0.2577 -0.5534
 2376SOL    HW118587   2.467   3.677  13.928  2.9574  1.0094 -0.0324
 2376SOL    HW218588   2.575   3.687  13.824 -0.3063  0.8203 -0.0529
 2377SOL     OW18589   2.473   2.787  13.746 -0.0353 -0.1248 -0.0654
 2377SOL    HW118590   2.396   2.823  13.789  0.1613 -0.5482  0.6404
 2377SOL    HW218591   2.528   2.777  13.823  3.2553  1.9058 -2.1464
 2378SOL     OW18592   1.372   0.557   7.934  0.1953  0.3254  0.1529
 2378SOL    HW118593   1.373   0.626   8.000  0.3665  0.1985  0.2853
 2378SOL    HW218594   1.291   0.516   7.966 -0.3176  0.5981 -0.8104
 2379SOL     OW18595   4.321   1.638   7.696 -0.3038  0.3238 -0.6938
 2379SOL    HW118596   4.328   1.551   7.736  2.4973  1.3339  0.9478
 2379SOL    HW218597   4.406   1.672   7.724 -0.0032  1.5672 -3.1027
 2380SOL     OW18598   1.385   1.193  14.769  0.2134  0.2343 -0.2486
 2380SOL    HW118599   1.437   1.195  14.689  0.2373 -0.1039 -0.2435
 2380SOL    HW218600   1.342   1.107  14.766  2.9753 -1.1639  0.1502
 2381SOL     OW18601   2.008   2.682   8.505 -0.2995 -0.1812 -0.9087
 2381SOL    HW118602   2.088   2.679   8.452  1.7532  0.8307  2.1365
 2381SOL    HW218603   1.994   2.777   8.509  0.0428 -0.2685  2.1163
 2382SOL     OW18604   3.526   2.110   5.680  0.0281 -0.1705 -0.1831
 2382SOL    HW118605   3.485   2.196   5.674 -0.3243 -0.3745 -0.6636
 2382SOL    HW218606   3.609   2.138   5.718  1.1371 -0.6830 -2.2147
 2383SOL     OW18607   2.488   0.559  10.774  0.3474  0.7881  0.4201
 2383SOL    HW118608   2.432   0.543  10.698  1.2190  0.2293 -0.1056
 2383SOL    HW218609   2.498   0.654  10.772 -0.5904  0.8654 -1.2508
 2384SOL     OW18610   3.584   2.901   6.205  0.0098 -0.9822 -0.6600
 2384SOL    HW118611   3.537   2.862   6.131 -0.4799 -1.0426 -0.3162
 2384SOL    HW218612   3.668   2.917   6.161  1.2974 -1.1323  1.6884
 2385SOL     OW18613   3.729   1.720  14.718 -0.7601  0.2315 -0.8194
 2385SOL    HW118614   3.717   1.626  14.702  2.7691 -0.4790  0.8222
 2385SOL    HW218615   3.825   1.722  14.721 -0.8507  1.5916  1.0199
 2386SOL     OW18616   2.617   2.973   1.106 -0.2485  0.3454 -0.3043
 2386SOL    HW118617   2.610   2.906   1.174 -0.0809  1.2228  0.5869
 2386SOL    HW218618   2.626   2.902   1.043  0.4353  1.1286 -1.0911
 2387SOL     OW18619   2.895   3.379   4.997 -0.3695 -0.3979 -0.7213
 2387SOL    HW118620   2.843   3.313   4.952  0.4061 -1.7212  0.3235
 2387SOL    HW218621   2.831   3.395   5.066  1.0324  1.7674  0.0587
 2388SOL     OW18622   1.310   3.337   1.323 -0.7484  0.3971 -0.0214
 2388SOL    HW118623   1.386   3.395   1.324 -1.0035  0.7206  0.3174
 2388SOL    HW218624   1.242   3.401   1.344 -1.6210 -1.2318  2.1166
 2389SOL     OW18625   3.614   3.676  15.510 -0.2892 -0.5557 -0.2294
 2389SOL    HW118626   3.704   3.708  15.510 -0.4868 -0.0007  2.8745
 2389SOL    HW218627   3.562   3.742  15.557  1.2418  0.5571 -0.1280
 2390SOL     OW18628   0.469   4.006   0.213  0.3607  0.6535  0.5107
 2390SOL    HW118629   0.484   4.040   0.301 -2.0111  1.7793  0.4917
 2390SOL    HW218630   0.533   4.056   0.162  1.0643 -1.7434 -0.9263
 2391SOL     OW18631   3.335   3.566  12.826 -0.2936 -0.1869  0.0393
 2391SOL    HW118632   3.402   3.624  12.861 -0.9050  0.0288  0.8695
 2391SOL    HW218633   3.255   3.608  12.860  1.1345  0.4740  2.5468
 2392SOL     OW18634   1.260   3.558   2.978 -0.0125 -0.6303 -0.0243
 2392SOL    HW118635   1.351   3.527   2.975  0.4036  0.6243 -0.7785
 2392SOL    HW218636   1.210   3.484   3.012 -1.8230  0.4225 -0.3882
 2393SOL     OW18637   3.260   4.278   8.289 -0.0871  0.0996  0.2260
 2393SOL    HW118638   3.260   4.235   8.375  1.2398 -1.5498 -0.5851
 2393SOL    HW218639   3.173   4.250   8.262 -0.2215  0.2466  0.5028
 2394SOL     OW18640   4.710   4.240   5.210 -0.1107 -0.2520  0.2413
 2394SOL    HW118641   4.699   4.210   5.120  1.7949 -1.7015  0.4901
 2394SOL    HW218642   0.081   4.232   5.231 -0.6597 -0.8185  2.4873
 2395SOL     OW18643   2.072   3.074  13.053  0.2353  0.0598 -0.0070
 2395SOL    HW118644   2.147   3.126  13.024 -1.6637  1.5094 -2.3397
 2395SOL    HW218645   2.028   3.048  12.971  2.3134 -3.1194 -0.1493
 2396SOL     OW18646   0.141   0.804   2.952  0.4232 -0.8507 -0.2298
 2396SOL    HW118647   0.206   0.811   2.882  0.6823 -0.9886 -0.0030
 2396SOL    HW218648   0.072   0.760   2.903  0.6301  0.7156 -1.9200
 2397SOL     OW18649   3.244   3.712   9.220 -0.0931 -0.1970  0.2486
 2397SOL    HW118650   3.226   3.633   9.270 -2.4983 -0.3953 -0.9250
 2397SOL    HW218651   3.241   3.787   9.280  0.1863  0.5869 -0.7207
 2398SOL     OW18652   0.626   1.682  15.945  0.2118  0.2275 -0.4602
 2398SOL    HW118653   0.622   1.643  15.858 -1.1314 -1.1882  0.2302
 2398SOL    HW218654   0.632   1.775  15.925  0.4467 -0.3150 -2.9038
 2399SOL     OW18655   2.664   4.267  13.352 -0.4781  0.0001 -0.3580
 2399SOL    HW118656   2.736   4.209  13.326 -0.3954 -0.0068 -0.1102
 2399SOL    HW218657   2.692   4.347  13.308  0.9236 -0.0748  0.4114
 2400SOL     OW18658   4.055   0.991   3.538  0.1140 -0.3339 -0.0895
 2400SOL    HW118659   4.028   1.047   3.611  0.9430 -0.1855  0.1009
 2400SOL    HW218660   4.010   0.911   3.565 -1.0404  1.0520  2.1714
 2401SOL     OW18661   1.835   2.538   9.554  0.8247 -0.7519  0.2350
 2401SOL    HW118662   1.876   2.619   9.525  0.9885 -1.1534 -0.6493
 2401SOL    HW218663   1.847   2.531   9.649  0.6353  0.5853  0.3563
 2402SOL     OW18664   0.060   0.508   8.145  0.2518  0.0897 -0.8096
 2402SOL    HW118665   0.132   0.553   8.100  0.4121 -1.1735 -1.8214
 2402SOL    HW218666   4.722   0.489   8.073  0.9452  0.7771 -1.5825
 2403SOL     OW18667   2.433   0.366   8.026 -0.3064 -0.3157  0.6274
 2403SOL    HW118668   2.403   0.423   7.955 -0.3645 -1.5974 -0.3834
 2403SOL    HW218669   2.392   0.413   8.099 -0.2242 -3.0766  2.4251
 2404SOL     OW18670   2.673   3.806   1.403 -0.3683 -0.1499 -0.0718
 2404SOL    HW118671   2.605   3.766   1.348  0.0921  1.0301 -1.4933
 2404SOL    HW218672   2.731   3.730   1.414 -0.5451 -0.2869 -0.0836
 2405SOL     OW18673   2.180   4.251  14.657 -0.1248  0.6416  0.4710
 2405SOL    HW118674   2.260   4.217  14.618 -1.3631 -2.5191  0.7105
 2405SOL    HW218675   2.204   4.343  14.669  0.3357  0.6317 -0.4000
 2406SOL     OW18676   2.340   2.507  14.307 -0.1438 -0.4145  0.3920
 2406SOL    HW118677   2.419   2.471  14.268 -0.0731  0.3790 -0.1902
 2406SOL    HW218678   2.375   2.579  14.360  2.2795 -1.4244  0.1564
 2407SOL     OW18679   2.989   2.204   6.683 -0.1839  0.0115  0.4016
 2407SOL    HW118680   3.053   2.251   6.736 -0.1116 -1.8809  1.9721
 2407SOL    HW218681   2.979   2.264   6.608 -0.2220 -1.2968 -0.6350
 2408SOL     OW18682   0.534   1.818  11.522  0.4130 -0.1245  0.2419
 2408SOL    HW118683   0.584   1.825  11.441  0.1505 -0.0916  0.0817
 2408SOL    HW218684   0.546   1.725  11.543  2.3576 -0.5388 -2.7826
 2409SOL     OW18685   2.547   3.648  17.295  0.3971 -0.6530 -0.4989
 2409SOL    HW118686   2.487   3.614  17.228  0.8880  0.2533 -1.4032
 2409SOL    HW218687   2.625   3.601  17.266  0.8993 -0.4051  0.4612
 2410SOL     OW18688   3.132   2.176   4.358  0.4794  0.0633 -0.1494
 2410SOL    HW118689   3.158   2.101   4.411  0.0382 -0.3013 -0.4527
 2410SOL    HW218690   3.038   2.164   4.345 -0.1406  1.5268  3.0294
 2411SOL     OW18691   1.068   4.047   8.081  0.4064 -0.8660  0.3736
 2411SOL    HW118692   1.139   4.067   8.019  1.0612  0.3880  1.5321
 2411SOL    HW218693   1.037   4.137   8.093 -0.8652 -1.4449  1.4528
 2412SOL     OW18694   0.700   2.018   1.694  0.1035 -0.0413  0.5154
 2412SOL    HW118695   0.783   1.991   1.733 -1.2393 -1.2988  2.4629
 2412SOL    HW218696   0.701   1.952   1.624  1.4364 -0.4032  0.8684
 2413SOL     OW18697   0.841   1.393   3.720 -0.0737 -0.1176  0.2867
 2413SOL    HW118698   0.871   1.334   3.650  2.2679 -1.2317  2.2490
 2413SOL    HW218699   0.782   1.452   3.672 -0.9749 -1.7372 -0.6014
 2414SOL     OW18700   1.611   1.904  10.486  0.2740 -0.3564 -0.0196
 2414SOL    HW118701   1.525   1.942  10.470  0.2056 -0.5441 -0.0916
 2414SOL    HW218702   1.630   1.856  10.405  2.3568  0.2931  0.0751
 2415SOL     OW18703   2.975   3.770   4.877  0.4955 -0.2797 -0.2332
 2415SOL    HW118704   3.018   3.684   4.883 -0.9130 -1.0598 -1.3107
 2415SOL    HW218705   3.005   3.806   4.960  0.0344  2.2562 -1.1465
 2416SOL     OW18706   0.838   4.389   7.976 -0.2783  0.4735  0.2890
 2416SOL    HW118707   0.838   4.402   7.882 -0.4245  0.7512  0.3269
 2416SOL    HW218708   0.745   4.381   7.998 -0.6055 -0.5336 -1.5172
 2417SOL     OW18709   0.597   4.194   7.482 -0.2131  0.1976 -0.3976
 2417SOL    HW118710   0.573   4.126   7.419  1.3432 -0.9500  0.2471
 2417SOL    HW218711   0.534   4.263   7.461 -0.6935  0.0704  0.6218
 2418SOL     OW18712   0.138   0.288   8.329 -0.3076  0.4687  0.3734
 2418SOL    HW118713   0.078   0.347   8.283 -0.4226 -1.8516 -2.4730
 2418SOL    HW218714   0.167   0.343   8.402  0.3077 -1.5056  1.6108
 2419SOL     OW18715   1.603   2.917  15.333  0.4291 -0.4060  0.0202
 2419SOL    HW118716   1.509   2.912  15.348  0.4916 -1.3440  0.1000
 2419SOL    HW218717   1.607   3.007  15.300 -3.5573 -0.0131  0.6490
 2420SOL     OW18718   0.784   3.072   0.258 -0.3652 -0.2381  0.2810
 2420SOL    HW118719   0.868   3.045   0.223 -0.3029  1.5771 -0.9627
 2420SOL    HW218720   0.805   3.164   0.274 -0.0442 -0.7613  2.7888
 2421SOL     OW18721   2.859   4.370   1.138  1.0501 -0.1291  0.6255
 2421SOL    HW118722   2.953   4.387   1.133  0.8410  0.5912 -0.9077
 2421SOL    HW218723   2.860   4.290   1.191 -0.2612 -2.4616 -2.8291
 2422SOL     OW18724   2.631   2.451   1.579 -0.0798  0.3963  0.4269
 2422SOL    HW118725   2.671   2.510   1.515  0.5282 -2.4186 -1.8103
 2422SOL    HW218726   2.703   2.449   1.642  0.8964  2.2345 -0.6443
 2423SOL     OW18727   0.342   3.228   5.411  0.6891  0.1085 -0.2974
 2423SOL    HW118728   0.420   3.180   5.384 -0.1670 -0.7590 -1.2104
 2423SOL    HW218729   0.394   3.307   5.424  0.0907  0.5771 -0.7477
 2424SOL     OW18730   1.436   3.280  16.658  0.0557  0.0374 -0.6579
 2424SOL    HW118731   1.366   3.305  16.597 -0.4367 -0.3228 -0.2464
 2424SOL    HW218732   1.453   3.370  16.685  1.2256 -0.2584 -0.4102
 2425SOL     OW18733   0.292   3.140  16.395  0.2031  0.4604 -0.2174
 2425SOL    HW118734   0.340   3.207  16.444 -0.5979  0.0998  1.0725
 2425SOL    HW218735   0.258   3.092  16.471 -1.8818 -0.7122 -1.8935
 2426SOL     OW18736   1.446   0.875   7.264  0.4338  0.6894 -0.2246
 2426SOL    HW118737   1.395   0.952   7.287 -2.1728 -0.9108 -0.6010
 2426SOL    HW218738   1.534   0.897   7.295 -0.9316  3.7654  1.4314
 2427SOL     OW18739   0.854   1.339  14.192  0.4489  0.4707 -0.0402
 2427SOL    HW118740   0.819   1.254  14.163 -3.4726  1.7488  0.9585
 2427SOL    HW218741   0.803   1.353  14.272  1.3873  1.1852  0.4226
 2428SOL     OW18742   2.208   2.843   8.643  0.0230  0.1849  0.0867
 2428SOL    HW118743   2.201   2.867   8.735  2.9077  0.1615  0.2889
 2428SOL    HW218744   2.209   2.749   8.660  1.1010  0.3700  1.0059
 2429SOL     OW18745   3.107   4.631  17.246 -0.2091 -0.0936 -0.2833
 2429SOL    HW118746   3.106   4.570  17.320  2.0989  0.1175 -0.0731
 2429SOL    HW218747   3.014   4.650  17.236 -0.1260  0.4085 -0.0684
 2430SOL     OW18748   0.040   3.862  17.676 -0.6662 -0.5752 -0.5312
 2430SOL    HW118749   4.679   3.910  17.673 -1.1285 -1.4172 -1.1174
 2430SOL    HW218750   0.089   3.929  17.628 -1.7364  0.9404  0.4738
 2431SOL     OW18751   3.535   1.373   3.686 -0.0956  0.4914  0.2647
 2431SOL    HW118752   3.522   1.458   3.727  1.3515  0.6774  0.3299
 2431SOL    HW218753   3.472   1.327   3.741 -0.8120  0.7724 -0.3123
 2432SOL     OW18754   0.987   2.809   3.142  0.1697  0.3191 -0.1307
 2432SOL    HW118755   0.986   2.807   3.046 -0.3054 -2.2225 -0.0619
 2432SOL    HW218756   1.073   2.766   3.148  0.1018  0.1966 -0.0505
 2433SOL     OW18757   2.146   2.635   7.576 -0.0386  0.3953 -0.2664
 2433SOL    HW118758   2.216   2.694   7.604  0.4614 -0.1568 -0.3639
 2433SOL    HW218759   2.065   2.683   7.593 -0.3367  0.2850 -1.3708
 2434SOL     OW18760   0.156   3.616   2.157  0.3450  0.0478  0.4662
 2434SOL    HW118761   0.200   3.609   2.072  0.2150  0.8365  0.3404
 2434SOL    HW218762   0.063   3.625   2.140  0.1000  0.2761  1.9357
 2435SOL     OW18763   0.700   2.229   3.767  0.7562 -0.1567 -0.9004
 2435SOL    HW118764   0.710   2.170   3.842  0.6930  0.8007 -0.1428
 2435SOL    HW218765   0.645   2.297   3.804  0.8321 -0.6440  0.0887
 2436SOL     OW18766   3.425   3.582  10.994  0.1444 -0.5073 -0.5401
 2436SOL    HW118767   3.382   3.548  11.072 -0.1940 -0.5436 -0.7420
 2436SOL    HW218768   3.500   3.627  11.032 -0.1127 -0.1387 -0.4732
 2437SOL     OW18769   0.687   0.614  15.653 -0.2881 -0.5675  0.0152
 2437SOL    HW118770   0.594   0.596  15.639 -0.7940  1.9264  0.0869
 2437SOL    HW218771   0.711   0.527  15.622 -0.1756 -1.4604  2.6434
 2438SOL     OW18772   4.527   1.561  12.763 -0.5441 -0.3137  0.6881
 2438SOL    HW118773   4.607   1.535  12.809 -0.3603 -2.5925 -0.9446
 2438SOL    HW218774   4.537   1.655  12.778  0.6175 -0.0843 -1.6282
 2439SOL     OW18775   1.645   4.106   2.058 -0.2598 -0.0436 -0.0586
 2439SOL    HW118776   1.634   4.190   2.102 -0.0944 -0.0462 -0.0098
 2439SOL    HW218777   1.562   4.090   2.014 -0.6782 -0.4141  0.8738
 2440SOL     OW18778   2.558   0.361   0.682 -0.2982 -0.4389 -0.1910
 2440SOL    HW118779   2.641   0.315   0.690  0.8100  2.0459  2.5439
 2440SOL    HW218780   2.552   0.404   0.768 -1.2748  0.5045 -0.7322
 2441SOL     OW18781   0.563   4.196   2.147  0.1022  0.0330  0.6273
 2441SOL    HW118782   0.589   4.171   2.236  2.5627 -0.2252 -0.1755
 2441SOL    HW218783   0.640   4.241   2.113  1.0522 -1.2861  1.0515
 2442SOL     OW18784   4.705   1.936  15.483 -0.3048 -0.4262  0.1690
 2442SOL    HW118785   0.078   1.927  15.488 -0.1645  1.6454  1.1724
 2442SOL    HW218786   4.704   2.005  15.417 -0.2442  0.4676  1.0874
 2443SOL     OW18787   3.323   1.726   4.614 -0.5090 -0.2830 -0.2641
 2443SOL    HW118788   3.377   1.676   4.552 -3.2040 -2.6970 -0.6278
 2443SOL    HW218789   3.391   1.788   4.642  0.7291 -1.0054 -1.6518
 2444SOL     OW18790   2.968   4.706   3.536 -0.5603  0.1188  0.3732
 2444SOL    HW118791   2.982   0.056   3.475 -0.9015  0.0130  0.1665
 2444SOL    HW218792   2.942   0.029   3.616 -0.8843 -0.3871  0.5515
 2445SOL     OW18793   3.615   3.421   1.975  0.4018  0.1612 -0.2919
 2445SOL    HW118794   3.632   3.394   1.884  0.1578 -1.6796  0.2160
 2445SOL    HW218795   3.679   3.363   2.017 -0.8993 -0.3127  1.0304
 2446SOL     OW18796   0.413   0.869   3.405 -0.4841  0.3205  0.1710
 2446SOL    HW118797   0.401   0.777   3.379  1.1555  0.7625 -2.1932
 2446SOL    HW218798   0.505   0.878   3.381 -0.5438 -0.4945 -0.3671
 2447SOL     OW18799   0.459   2.294   8.124 -0.0696 -0.5924  0.9456
 2447SOL    HW118800   0.378   2.327   8.163  0.4744  1.5910  0.2317
 2447SOL    HW218801   0.440   2.200   8.118 -0.1344 -0.4619 -1.0365
 2448SOL     OW18802   0.348   0.438   6.666  0.0013  0.3044  0.8601
 2448SOL    HW118803   0.426   0.453   6.719  0.3461  0.8613  0.1855
 2448SOL    HW218804   0.378   0.416   6.578 -2.2384  0.7796 -0.0259
 2449SOL     OW18805   0.900   2.691   4.768 -0.6026  0.3608  0.1242
 2449SOL    HW118806   0.838   2.739   4.822 -0.3224  1.2894 -0.3801
 2449SOL    HW218807   0.911   2.751   4.694  0.3574  0.0641  0.0269
 2450SOL     OW18808   1.579   0.856  12.121  0.0075 -0.2249  0.0381
 2450SOL    HW118809   1.569   0.826  12.030 -1.1388 -2.5338  0.9132
 2450SOL    HW218810   1.493   0.880  12.157  0.8794  1.0766  1.2530
 2451SOL     OW18811   2.320   0.689   5.961 -0.4902 -0.4050  0.2311
 2451SOL    HW118812   2.387   0.631   5.925 -0.3818 -0.1230 -0.0212
 2451SOL    HW218813   2.343   0.685   6.054  0.5852  1.2174  0.0141
 2452SOL     OW18814   0.569   4.702   0.965 -0.3967 -0.5617  0.4533
 2452SOL    HW118815   0.653   0.014   0.937  0.0804 -0.9021  1.4455
 2452SOL    HW218816   0.521   0.046   1.015  1.0134  1.3515 -0.7463
 2453SOL     OW18817   0.724   3.171   7.286  0.1398  0.0036  0.0788
 2453SOL    HW118818   0.748   3.085   7.321 -1.5267  0.2481  1.8286
 2453SOL    HW218819   0.756   3.231   7.354 -1.2297 -0.0455  0.7601
 2454SOL     OW18820   4.083   0.277   7.808 -0.0928  0.4503  0.7854
 2454SOL    HW118821   4.170   0.316   7.806 -0.6480  1.6947  1.1234
 2454SOL    HW218822   4.026   0.350   7.832 -1.4284  0.6337 -2.9171
 2455SOL     OW18823   4.159   0.226   2.626  0.1547  0.5231  0.2000
 2455SOL    HW118824   4.085   0.229   2.686  0.3324 -1.3005  0.5158
 2455SOL    HW218825   4.109   0.205   2.548 -0.0175  1.0044  0.1816
 2456SOL     OW18826   4.015   3.631   6.781 -0.6884  0.1586  0.3703
 2456SOL    HW118827   4.022   3.554   6.837 -0.1209  0.7437  1.1066
 2456SOL    HW218828   4.082   3.691   6.816  1.2026 -2.6297  1.5741
 2457SOL     OW18829   2.978   0.248  16.696 -0.1787 -0.1260  0.3285
 2457SOL    HW118830   3.033   0.295  16.759  0.2159 -0.3805  0.1745
 2457SOL    HW218831   2.913   0.214  16.756  0.5588  0.7471  1.6277
 2458SOL     OW18832   0.590   3.796   4.412  0.3376 -0.1102  0.0896
 2458SOL    HW118833   0.495   3.809   4.414  0.1563 -0.9338 -2.7155
 2458SOL    HW218834   0.605   3.748   4.331  2.3845 -1.2813  1.1525
 2459SOL     OW18835   1.238   2.565   6.173 -0.4259 -0.0973 -0.1784
 2459SOL    HW118836   1.284   2.482   6.160 -1.3359 -0.3862 -1.5250
 2459SOL    HW218837   1.282   2.616   6.105 -2.1911  1.3935 -0.1985
 2460SOL     OW18838   0.031   3.449   0.670  0.2377 -0.2711  0.8570
 2460SOL    HW118839   4.688   3.518   0.681 -1.4111 -1.5853 -0.7158
 2460SOL    HW218840   0.101   3.464   0.734  3.2199 -0.4632 -2.3010
 2461SOL     OW18841   4.392   1.667   2.731 -0.2581  0.3266 -0.1314
 2461SOL    HW118842   4.357   1.754   2.712  0.0309  0.7723  1.3857
 2461SOL    HW218843   4.401   1.613   2.652  3.2756  0.7393 -0.0087
 2462SOL     OW18844   1.779   1.748   8.785 -0.1418 -0.3822  0.6248
 2462SOL    HW118845   1.861   1.797   8.797 -0.3763 -0.1775  1.3718
 2462SOL    HW218846   1.783   1.733   8.691 -0.0449 -1.9339  0.8763
 2463SOL     OW18847   0.573   2.161   2.568  0.1077 -0.1570  0.2663
 2463SOL    HW118848   0.518   2.207   2.505 -0.3627  0.7077  1.2954
 2463SOL    HW218849   0.599   2.233   2.626 -0.3681 -0.7015  1.1625
 2464SOL     OW18850   3.947   0.510   0.326  0.2688 -0.3791  0.4249
 2464SOL    HW118851   4.020   0.476   0.378  0.7194 -1.3418 -0.8559
 2464SOL    HW218852   3.983   0.502   0.238 -1.0690 -3.3894  0.1709
 2465SOL     OW18853   2.217   1.126   9.760  0.0114  0.4514  0.3597
 2465SOL    HW118854   2.216   1.142   9.665 -1.2677 -0.3888  0.2301
 2465SOL    HW218855   2.143   1.066   9.770  0.1664  0.1330 -0.3868
 2466SOL     OW18856   3.928   0.182   2.776  0.5430  0.3587 -0.2575
 2466SOL    HW118857   3.838   0.189   2.745  1.1089  2.5794 -1.4114
 2466SOL    HW218858   3.925   0.195   2.871  1.7350 -1.2790  0.0018
 2467SOL     OW18859   3.817   4.035   3.790 -0.0095 -0.1211  0.2142
 2467SOL    HW118860   3.809   3.954   3.739 -0.7857  1.0399 -1.5132
 2467SOL    HW218861   3.743   4.025   3.850 -0.0835  1.2827  0.3549
 2468SOL     OW18862   2.827   3.776   7.071 -0.7790 -0.3881  0.0501
 2468SOL    HW118863   2.750   3.833   7.064  0.2656  1.0052 -0.0418
 2468SOL    HW218864   2.899   3.838   7.061  0.9951 -2.2688  1.2140
 2469SOL     OW18865   1.006   0.105   3.590 -0.2439  0.1645  0.1382
 2469SOL    HW118866   1.055   0.047   3.532  1.0576  1.4730 -0.0546
 2469SOL    HW218867   1.067   0.136   3.657 -1.5137  0.3927  1.1920
 2470SOL     OW18868   0.373   2.908   5.009 -0.0020  0.2631 -0.2381
 2470SOL    HW118869   0.385   3.000   4.985 -0.9359  0.2503 -0.7324
 2470SOL    HW218870   0.348   2.860   4.930 -2.0089  0.6232  0.1828
 2471SOL     OW18871   0.975   2.945  12.469 -0.5995  0.1753 -0.4330
 2471SOL    HW118872   1.023   2.925  12.389  0.6735  0.6159  0.2216
 2471SOL    HW218873   0.996   3.031  12.506  0.5556 -0.5161  0.5240
 2472SOL     OW18874   3.235   3.636   3.431 -0.3885  0.0096  0.0207
 2472SOL    HW118875   3.168   3.568   3.422  0.5142 -0.6372 -1.8941
 2472SOL    HW218876   3.287   3.646   3.351 -0.6457  1.7565  0.0679
 2473SOL     OW18877   2.261   2.990   4.047 -0.0584 -0.6522 -0.2581
 2473SOL    HW118878   2.184   3.046   4.061  1.0630  1.1661 -1.5041
 2473SOL    HW218879   2.313   2.992   4.128  0.7361  2.6653 -0.8621
 2474SOL     OW18880   3.064   1.986   4.736  0.5306 -0.1722 -0.3800
 2474SOL    HW118881   3.107   1.997   4.820  0.3421 -1.0522 -0.1604
 2474SOL    HW218882   2.979   2.025   4.757  1.4208  0.6796  1.5865
 2475SOL     OW18883   4.633   4.302   4.796 -0.3242 -0.7345 -0.6460
 2475SOL    HW118884   4.629   4.397   4.793  3.5666 -0.5729  0.0752
 2475SOL    HW218885   4.558   4.285   4.739  0.6553  0.3422 -2.2350
 2476SOL     OW18886   4.259   1.153   9.104 -0.0919 -0.5273  0.0149
 2476SOL    HW118887   4.169   1.156   9.069 -0.6882  1.0504  1.6773
 2476SOL    HW218888   4.299   1.199   9.031  1.1769  1.4161  1.9360
 2477SOL     OW18889   1.956   0.283  14.005  0.5111 -0.8077  0.0174
 2477SOL    HW118890   1.979   0.218  13.938  2.3845 -0.9130  0.7573
 2477SOL    HW218891   1.974   0.234  14.085  0.7042 -0.6237  0.0871
 2478SOL     OW18892   3.883   2.188   4.899 -0.3515 -0.5405  0.1384
 2478SOL    HW118893   3.896   2.123   4.830 -1.6555 -1.1434  0.4655
 2478SOL    HW218894   3.820   2.248   4.859  1.2805 -0.2372 -1.9846
 2479SOL     OW18895   4.011   1.251   1.844  0.0577  0.8576 -0.1806
 2479SOL    HW118896   4.037   1.195   1.771 -0.4129  0.4146 -0.0078
 2479SOL    HW218897   4.045   1.332   1.807  0.1452  0.4368 -1.0304
 2480SOL     OW18898   3.159   0.127   4.707  0.0685 -0.1502 -0.5205
 2480SOL    HW118899   3.244   0.143   4.748  0.1975 -1.3334 -0.3184
 2480SOL    HW218900   3.187   0.108   4.618 -0.9982  0.7337 -1.0483
 2481SOL     OW18901   0.749   1.291   6.736  0.1271  1.1650 -0.3652
 2481SOL    HW118902   0.657   1.315   6.730  0.3924  2.2340 -0.1910
 2481SOL    HW218903   0.774   1.257   6.650  2.2475 -1.6647  1.3382
 2482SOL     OW18904   3.567   1.811   4.667  0.0143  0.1992 -0.5130
 2482SOL    HW118905   3.611   1.836   4.748 -0.2402  0.0143 -0.3195
 2482SOL    HW218906   3.646   1.817   4.613  0.1453 -0.8530 -0.4255
 2483SOL     OW18907   4.695   1.594   7.502 -0.2137 -0.4296 -0.4186
 2483SOL    HW118908   4.634   1.648   7.552 -2.2925 -2.5097 -0.6945
 2483SOL    HW218909   4.640   1.536   7.448 -1.1442  0.2290 -0.1728
 2484SOL     OW18910   1.358   0.039   5.355  0.0799  0.3271  0.3041
 2484SOL    HW118911   1.364   0.088   5.438 -0.6385 -1.6049  1.4843
 2484SOL    HW218912   1.292   0.095   5.315  0.8834 -0.9675 -2.7695
 2485SOL     OW18913   0.958   2.314   5.818 -0.0063  0.0714 -0.4938
 2485SOL    HW118914   0.990   2.404   5.823 -1.2584  0.5909 -1.6580
 2485SOL    HW218915   1.026   2.280   5.761 -0.7599  0.5303 -1.6719
 2486SOL     OW18916   0.876   0.170   5.158  0.2937  0.0933  0.6749
 2486SOL    HW118917   0.851   0.212   5.241  0.2131 -0.7086  1.0587
 2486SOL    HW218918   0.825   0.217   5.092 -3.2479 -4.3162  0.1919
 2487SOL     OW18919   2.932   3.549   5.336 -0.0706 -0.5378  0.1908
 2487SOL    HW118920   2.931   3.454   5.343  2.3838 -0.3362  3.2417
 2487SOL    HW218921   2.851   3.577   5.378 -0.3979  1.3477 -1.7125
 2488SOL     OW18922   0.364   3.757   0.164  0.8648  0.2568 -0.0505
 2488SOL    HW118923   0.397   3.847   0.163 -1.3831  1.0928  0.4422
 2488SOL    HW218924   0.384   3.723   0.251 -0.7704 -0.8193 -0.0859
 2489SOL     OW18925   0.725   3.867   0.296  0.5705 -0.4961  0.3572
 2489SOL    HW118926   0.630   3.874   0.308  0.5894  2.3794 -1.0976
 2489SOL    HW218927   0.736   3.860   0.202  0.3967 -0.1977  0.3169
 2490SOL     OW18928   3.761   1.285   1.947 -0.6960 -0.4166  0.6759
 2490SOL    HW118929   3.837   1.259   1.895  0.2082 -0.9503  2.2378
 2490SOL    HW218930   3.780   1.374   1.977 -0.1797 -0.4422  0.4222
 2491SOL     OW18931   2.588   0.957   4.541  0.6442 -0.0665  0.4430
 2491SOL    HW118932   2.605   0.977   4.633 -3.0968  0.8320  0.9563
 2491SOL    HW218933   2.518   0.894   4.555  1.3934 -0.8480  0.6760
 2492SOL     OW18934   3.585   0.104   0.920 -0.5703  0.0193 -0.5535
 2492SOL    HW118935   3.626   0.173   0.867  0.8725 -2.3191 -2.4567
 2492SOL    HW218936   3.657   0.086   0.981  1.5268  0.7773 -2.7982
 2493SOL     OW18937   0.947   0.979   3.386  0.3891 -0.1681 -0.1060
 2493SOL    HW118938   0.978   1.057   3.340  1.7462 -0.7653 -0.2231
 2493SOL    HW218939   1.023   0.951   3.438  2.1465 -2.2834 -3.7745
 2494SOL     OW18940   2.107   4.012   1.471  0.4568  0.2930 -0.3311
 2494SOL    HW118941   2.088   4.032   1.563 -3.1292 -2.7695 -0.4287
 2494SOL    HW218942   2.023   3.982   1.437  1.4476 -1.3156 -1.3332
 2495SOL     OW18943   1.623   2.445   3.062  0.2329 -0.2315 -0.0252
 2495SOL    HW118944   1.712   2.464   3.033 -1.2861 -0.0497 -4.5655
 2495SOL    HW218945   1.621   2.499   3.140  0.2198 -1.4784  0.8440
 2496SOL     OW18946   2.337   1.105   8.829 -0.8874  0.0493  0.1400
 2496SOL    HW118947   2.272   1.069   8.890 -0.5894 -0.6794  0.0265
 2496SOL    HW218948   2.353   1.035   8.766 -0.4160  2.6856 -2.7253
 2497SOL     OW18949   4.605   3.402   2.363 -0.0455  0.1112 -0.2060
 2497SOL    HW118950   4.683   3.456   2.376 -0.6959  1.1391 -0.6485
 2497SOL    HW218951   4.538   3.438   2.420 -0.4943  0.8700 -1.2163
 2498SOL     OW18952   4.048   0.111   8.709 -0.4636 -0.3535  0.3240
 2498SOL    HW118953   4.134   0.068   8.719 -0.0194  0.9340  2.0404
 2498SOL    HW218954   4.016   0.084   8.623 -1.0536  0.0133  0.4334
 2499SOL     OW18955   4.652   0.229   2.801 -0.5888  0.4208  0.0947
 2499SOL    HW118956   4.590   0.178   2.749  1.7775 -2.0428 -0.2812
 2499SOL    HW218957   4.655   0.171   2.877 -1.8600  2.1781  1.4862
 2500SOL     OW18958   3.359   2.470  13.055 -0.0747 -0.2344 -0.2417
 2500SOL    HW118959   3.453   2.462  13.069 -0.2700  0.1574  1.2940
 2500SOL    HW218960   3.334   2.537  13.119  0.1220 -0.0238 -0.3861
 2501SOL     OW18961   3.093   2.161  16.915  0.0387  0.7478  0.2262
 2501SOL    HW118962   3.000   2.149  16.937  0.3712 -1.3021  0.5212
 2501SOL    HW218963   3.116   2.205  16.997 -0.2931  1.4349 -0.0507
 2502SOL     OW18964   0.797   0.985   5.110  0.5895  0.3774 -0.1196
 2502SOL    HW118965   0.749   0.932   5.046 -2.0019  2.5609 -0.0174
 2502SOL    HW218966   0.881   0.943   5.099  0.4214  0.2909 -1.1183
 2503SOL     OW18967   2.330   1.712  17.075  0.2091 -0.2869  0.1703
 2503SOL    HW118968   2.334   1.805  17.094 -0.6775 -0.1536 -0.2952
 2503SOL    HW218969   2.314   1.678  17.163 -2.8022 -0.9865 -0.6321
 2504SOL     OW18970   3.075   2.601   2.729 -0.0664 -0.0078  0.2750
 2504SOL    HW118971   3.068   2.689   2.693 -0.3195 -1.0643 -2.2808
 2504SOL    HW218972   3.049   2.554   2.649  0.8652  0.5284 -0.3470
 2505SOL     OW18973   1.832   4.194  14.045  0.4754  0.0035  0.1672
 2505SOL    HW118974   1.899   4.129  14.025 -0.3090 -1.1280  1.2365
 2505SOL    HW218975   1.846   4.255  13.972 -0.1065  1.9383  1.6593
 2506SOL     OW18976   3.052   1.910   5.038  0.2468 -0.0679  0.3013
 2506SOL    HW118977   3.130   1.867   5.000  1.7892  1.6345  1.5600
 2506SOL    HW218978   2.995   1.836   5.058  1.6630 -1.7752 -1.9380
 2507SOL     OW18979   1.444   0.366   0.819  0.0334 -0.1334 -0.5843
 2507SOL    HW118980   1.520   0.314   0.791  1.1258  2.0649 -1.6549
 2507SOL    HW218981   1.442   0.433   0.751  2.1077 -0.9220 -1.4348
 2508SOL     OW18982   4.106   1.652   0.462 -0.1643  0.4066  0.4462
 2508SOL    HW118983   4.019   1.618   0.438 -0.6576  1.7940  0.2325
 2508SOL    HW218984   4.104   1.736   0.508  0.1561 -0.8904  2.8255
 2509SOL     OW18985   2.096   0.656   7.950 -0.2482  0.1923 -0.4255
 2509SOL    HW118986   2.108   0.656   8.045  2.8703  0.4279 -0.8096
 2509SOL    HW218987   2.035   0.583   7.938 -2.4132  1.9296  0.0437
 2510SOL     OW18988   2.395   2.446   8.815 -0.4186  0.3168 -0.1438
 2510SOL    HW118989   2.474   2.452   8.870 -1.7128 -0.4934  1.8117
 2510SOL    HW218990   2.446   2.417   8.739 -2.0940 -2.5339 -0.1697
 2511SOL     OW18991   1.993   3.056   6.122  0.2016 -0.0436 -0.0542
 2511SOL    HW118992   1.978   2.969   6.158 -1.0670  0.1390 -0.1164
 2511SOL    HW218993   2.077   3.087   6.156  1.2850 -1.3422 -1.5546
 2512SOL     OW18994   2.288   0.978   3.076  0.1465  0.0453 -0.5074
 2512SOL    HW118995   2.329   1.008   2.995  0.4430 -0.0605 -0.3988
 2512SOL    HW218996   2.300   0.885   3.058 -0.7758 -0.0683 -0.5134
 2513SOL     OW18997   4.574   4.416   5.390  0.1053 -0.2203  0.4792
 2513SOL    HW118998   4.498   4.433   5.334 -0.5702  0.9938  1.7671
 2513SOL    HW218999   4.623   4.359   5.331  0.7219  1.1343 -0.3067
 2514SOL     OW19000   0.482   0.251   4.703 -0.2601 -0.1175 -0.1927
 2514SOL    HW119001   0.415   0.242   4.771  0.2502  1.8145  0.5786
 2514SOL    HW219002   0.464   0.181   4.641 -1.1924 -0.8923  0.9450
 2515SOL     OW19003   1.349   1.578   2.493 -0.4445  0.1052  0.1112
 2515SOL    HW119004   1.275   1.523   2.521  0.2820 -1.0434 -0.2108
 2515SOL    HW219005   1.410   1.560   2.564 -0.5909 -0.2069  0.1600
 2516SOL     OW19006   1.306   2.867  15.363 -0.1317 -1.0080  0.2343
 2516SOL    HW119007   1.299   2.771  15.358 -0.8650 -0.9924  1.0231
 2516SOL    HW219008   1.248   2.892  15.292  1.0001  1.0241  0.0519
 2517SOL     OW19009   3.993   2.991   7.358 -1.0316  0.4691  0.7232
 2517SOL    HW119010   4.079   2.951   7.343 -1.2623  0.7503 -1.3287
 2517SOL    HW219011   4.024   3.068   7.405 -2.8549  1.8409 -0.3609
 2518SOL     OW19012   0.435   4.424   6.921 -0.0318  0.2180  0.2249
 2518SOL    HW119013   0.520   4.417   6.877  0.2262 -0.7214  0.8843
 2518SOL    HW219014   0.426   4.335   6.955  0.0277  0.2153  0.2345
 2519SOL     OW19015   1.661   0.912  14.175  0.4532  0.2216 -0.1312
 2519SOL    HW119016   1.720   0.846  14.140 -0.1484 -1.4591  2.0341
 2519SOL    HW219017   1.624   0.930  14.088 -1.9951  1.5871  1.1766
 2520SOL     OW19018   2.255   0.430   4.835  0.1431 -0.3595 -0.5767
 2520SOL    HW119019   2.314   0.387   4.897  0.0649 -1.6249 -1.3837
 2520SOL    HW219020   2.216   0.354   4.791 -0.0575 -1.5165  1.6181
 2521SOL     OW19021   4.656   0.639   8.469  0.2787  0.4226  0.4086
 2521SOL    HW119022   4.695   0.552   8.457  2.9305  1.8285 -1.0169
 2521SOL    HW219023   0.009   0.696   8.455  1.7086 -1.2743  1.2155
 2522SOL     OW19024   2.974   2.594  13.230 -0.2352 -0.1984  0.2332
 2522SOL    HW119025   2.905   2.540  13.270 -1.4196  0.3352 -1.0675
 2522SOL    HW219026   3.015   2.531  13.170 -0.7092 -0.1168 -0.1771
 2523SOL     OW19027   1.933   4.554   6.320 -0.2532 -0.2927 -0.0578
 2523SOL    HW119028   1.882   4.634   6.334 -0.3204 -0.7975  2.6037
 2523SOL    HW219029   1.923   4.517   6.408 -0.4480 -0.7710 -0.2818
 2524SOL     OW19030   4.078   1.925   2.635 -0.0054  0.7652  0.2498
 2524SOL    HW119031   4.077   1.945   2.729 -1.1528  2.6104 -0.1410
 2524SOL    HW219032   4.028   1.845   2.617  1.6464  0.0274 -1.0071
 2525SOL     OW19033   3.752   1.957   2.384 -0.4684 -0.1925  0.6902
 2525SOL    HW119034   3.674   1.902   2.386  0.7898 -2.0110 -0.8711
 2525SOL    HW219035   3.725   2.049   2.390 -1.8068 -0.4021 -2.0191
 2526SOL     OW19036   4.477   3.906   9.429  0.1547 -0.5840 -1.0022
 2526SOL    HW119037   4.421   3.978   9.399  1.4703  0.8342  0.0088
 2526SOL    HW219038   4.420   3.845   9.477 -1.0258  0.2060 -1.3919
 2527SOL     OW19039   2.836   1.130   2.377 -0.1931 -0.2509  0.1968
 2527SOL    HW119040   2.857   1.052   2.325 -0.1133 -0.0393 -0.0918
 2527SOL    HW219041   2.921   1.172   2.387 -0.4452 -0.2630  2.3141
 2528SOL     OW19042   4.269   1.937  15.752 -0.1083  0.4770 -0.3735
 2528SOL    HW119043   4.364   1.934  15.746 -0.0755 -0.9972  0.5950
 2528SOL    HW219044   4.247   1.962  15.663 -0.9033 -1.6147 -0.7675
 2529SOL     OW19045   1.824   1.947   9.021 -0.2360  0.3783  0.2031
 2529SOL    HW119046   1.911   1.983   9.040 -0.2482  0.3723  0.2684
 2529SOL    HW219047   1.848   1.855   9.019 -0.6265  0.2245  4.0425
 2530SOL     OW19048   4.147   1.291  11.821 -0.4332 -0.2110  0.5540
 2530SOL    HW119049   4.218   1.326  11.875  1.9320 -1.6679 -1.5989
 2530SOL    HW219050   4.075   1.328  11.872 -1.8470 -1.1703 -0.7640
 2531SOL     OW19051   1.052   1.242  11.826 -0.2087  0.0244  0.3219
 2531SOL    HW119052   1.047   1.320  11.882 -0.1556 -0.6173  1.2356
 2531SOL    HW219053   0.958   1.231  11.812 -0.1080 -2.0357  1.2930
 2532SOL     OW19054   4.034   2.043  10.229 -0.1589 -0.4293 -0.0012
 2532SOL    HW119055   4.029   1.990  10.149  1.6081  1.1060 -1.1058
 2532SOL    HW219056   4.020   2.129  10.191  0.0199 -0.3844  0.0384
 2533SOL     OW19057   2.727   0.397   3.884  0.2182 -0.5364  0.4095
 2533SOL    HW119058   2.818   0.421   3.901  0.9237 -1.9551 -1.3889
 2533SOL    HW219059   2.708   0.431   3.797 -1.6457 -0.8445  0.6800
 2534SOL     OW19060   0.160   2.679   8.850 -0.3290 -0.0697  0.2634
 2534SOL    HW119061   0.226   2.614   8.873 -0.3883 -0.1576  0.1836
 2534SOL    HW219062   0.178   2.761   8.895 -0.2734  0.4575 -0.7117
 2535SOL     OW19063   1.087   2.454   8.405  0.2720 -0.3816 -0.7066
 2535SOL    HW119064   1.077   2.547   8.388  3.1206 -0.1365 -1.1577
 2535SOL    HW219065   1.067   2.421   8.317 -0.2691 -0.2936 -0.6158
 2536SOL     OW19066   1.640   4.354   2.823  0.7786 -0.6105  0.3410
 2536SOL    HW119067   1.697   4.412   2.873 -0.4105 -0.2079  1.2538
 2536SOL    HW219068   1.616   4.417   2.754  0.9616  1.7380  2.4186
 2537SOL     OW19069   0.168   2.201  16.450  0.2789 -0.2027  0.1254
 2537SOL    HW119070   0.086   2.179  16.405  1.0823 -1.4558 -0.7070
 2537SOL    HW219071   0.135   2.231  16.535  2.4308 -0.5895  1.1024
 2538SOL     OW19072   0.375   0.400   3.826 -0.5237 -0.1729  0.4029
 2538SOL    HW119073   0.313   0.374   3.894 -3.1644  0.4905 -1.7540
 2538SOL    HW219074   0.437   0.459   3.871 -0.8620 -1.2441  2.2893
 2539SOL     OW19075   1.891   0.138   2.352 -0.2076 -0.0347  0.3452
 2539SOL    HW119076   1.852   0.196   2.287  0.1934  1.0573  1.0718
 2539SOL    HW219077   1.878   0.189   2.431 -1.3859  1.5166 -0.8558
 2540SOL     OW19078   4.009   3.731   5.002  0.3381  0.3284  0.1851
 2540SOL    HW119079   4.060   3.795   5.050 -1.6868  1.1402  1.2743
 2540SOL    HW219080   4.010   3.767   4.913 -0.2092 -0.8071 -0.2918
 2541SOL     OW19081   3.909   2.060   6.028 -0.3710  0.3502 -0.2476
 2541SOL    HW119082   3.854   2.067   6.106  0.1219 -1.0258  0.2161
 2541SOL    HW219083   3.996   2.082   6.061 -0.0351  2.1834 -2.4080
 2542SOL     OW19084   4.337   0.163   8.089 -0.5115 -0.0604 -0.4355
 2542SOL    HW119085   4.286   0.104   8.144  0.6251 -1.9144 -1.3519
 2542SOL    HW219086   4.270   0.229   8.070  1.3880  2.3218  1.2455
 2543SOL     OW19087   2.508   2.241   9.163 -0.0226  0.6516 -0.1763
 2543SOL    HW119088   2.566   2.169   9.188  0.9476  1.8511  1.0470
 2543SOL    HW219089   2.559   2.290   9.098 -0.4177 -0.7704 -1.5640
 2544SOL     OW19090   1.745   0.411   9.477  0.5110 -0.6868 -0.6283
 2544SOL    HW119091   1.798   0.428   9.399  1.7450  0.2589  0.4055
 2544SOL    HW219092   1.657   0.390   9.445 -0.1215  0.6773  0.2059
 2545SOL     OW19093   1.250   1.942  14.764 -0.0418  0.2062 -0.3979
 2545SOL    HW119094   1.211   1.871  14.815 -0.3320  1.0062  0.4980
 2545SOL    HW219095   1.269   1.884  14.690 -4.0483 -0.4604 -0.9299
 2546SOL     OW19096   0.903   0.758  11.184 -0.2029  0.5591 -0.6657
 2546SOL    HW119097   0.944   0.771  11.269  2.0613  2.2746 -1.9999
 2546SOL    HW219098   0.935   0.670  11.166 -1.0543 -0.0201  0.7190
 2547SOL     OW19099   0.631   3.324  11.114  0.0743  0.0585 -0.4479
 2547SOL    HW119100   0.602   3.391  11.176 -1.7406  0.2961 -1.5549
 2547SOL    HW219101   0.715   3.293  11.147  0.0873  2.2132  1.5427
 2548SOL     OW19102   0.645   4.215   6.036 -0.3877  0.5431  0.1496
 2548SOL    HW119103   0.599   4.266   5.970  1.2727  0.5044 -1.0476
 2548SOL    HW219104   0.736   4.233   6.012 -0.2253  0.3225  0.6093
 2549SOL     OW19105   0.572   1.851   8.497  0.4879 -0.1396 -0.5931
 2549SOL    HW119106   0.664   1.878   8.502  0.6466 -0.6058 -0.9058
 2549SOL    HW219107   0.520   1.931   8.503  1.1301  0.2100  0.2594
 2550SOL     OW19108   2.288   0.280   7.458 -0.4099  0.0112  0.6222
 2550SOL    HW119109   2.260   0.282   7.550 -2.6645  0.1220 -0.0665
 2550SOL    HW219110   2.374   0.239   7.454 -0.3160  0.3157 -0.4442
 2551SOL     OW19111   0.225   2.843  15.926 -0.3370  0.0816 -0.4382
 2551SOL    HW119112   0.147   2.800  15.962  1.2378 -0.8313  1.9268
 2551SOL    HW219113   0.278   2.865  16.002  0.1658  0.8382 -1.0122
 2552SOL     OW19114   1.363   4.570   7.657 -0.4971 -0.1985  0.5885
 2552SOL    HW119115   1.297   4.624   7.700  0.8708  0.8866  1.3154
 2552SOL    HW219116   1.437   4.630   7.648 -0.0063 -0.4635  2.8596
 2553SOL     OW19117   3.934   2.306   2.265 -0.4379  0.0603  0.7051
 2553SOL    HW119118   3.952   2.324   2.173  2.2801 -1.3522  0.9620
 2553SOL    HW219119   3.948   2.394   2.300  1.9208 -0.1680  0.3536
 2554SOL     OW19120   2.443   1.453   4.016  0.1319 -0.2090  0.1057
 2554SOL    HW119121   2.394   1.402   4.082  0.8867 -0.9913  0.0555
 2554SOL    HW219122   2.508   1.503   4.065 -0.9245  1.3209 -0.0536
 2555SOL     OW19123   3.569   2.790  14.204  0.0392 -0.1199  0.4528
 2555SOL    HW119124   3.585   2.871  14.253 -0.2551  1.2232 -1.6726
 2555SOL    HW219125   3.507   2.826  14.140 -0.6409 -0.2363  1.0515
 2556SOL     OW19126   0.357   3.374   6.212 -0.3884 -0.8812  0.0812
 2556SOL    HW119127   0.402   3.444   6.164  1.7140 -1.3787  1.3219
 2556SOL    HW219128   0.372   3.409   6.300 -2.2598  0.3536 -0.0941
 2557SOL     OW19129   3.579   0.357   5.918  0.2356  0.6128  0.4971
 2557SOL    HW119130   3.589   0.283   5.979  0.4433 -0.9910 -1.4558
 2557SOL    HW219131   3.561   0.433   5.972 -0.3452 -1.9926  4.0088
 2558SOL     OW19132   0.822   0.060   8.219 -0.3410  0.2517 -0.4522
 2558SOL    HW119133   0.733   0.025   8.217 -0.8462  1.5334 -0.1112
 2558SOL    HW219134   0.837   0.097   8.132 -1.7551 -1.4689 -1.4348
 2559SOL     OW19135   3.772   2.409   3.563  0.3543  0.6901 -0.3492
 2559SOL    HW119136   3.801   2.486   3.515  1.6658  0.3873 -0.0450
 2559SOL    HW219137   3.740   2.459   3.639 -2.0236  0.5638 -1.2504
 2560SOL     OW19138   0.015   0.427   9.983  0.0466  0.3186  0.4674
 2560SOL    HW119139   4.707   0.355  10.038  0.4766 -0.2557 -0.0469
 2560SOL    HW219140   0.108   0.409   9.977 -0.2660 -0.5817 -1.6055
 2561SOL     OW19141   0.109   1.276   4.625  0.4587 -0.0552  0.4014
 2561SOL    HW119142   0.014   1.266   4.621  0.3132  1.6971 -0.2899
 2561SOL    HW219143   0.127   1.210   4.692 -0.1948 -1.0406 -0.3899
 2562SOL     OW19144   0.482   0.255   2.576 -0.2347  0.0548  0.4196
 2562SOL    HW119145   0.388   0.269   2.576 -0.4049 -1.0468 -0.8977
 2562SOL    HW219146   0.483   0.160   2.587  0.2001 -0.3660 -3.0736
 2563SOL     OW19147   0.132   2.835   4.514 -0.0587 -0.2575 -0.8048
 2563SOL    HW119148   0.149   2.906   4.453  0.9399  0.1409 -0.0709
 2563SOL    HW219149   0.196   2.771   4.483 -1.3918 -1.1265 -1.7665
 2564SOL     OW19150   4.004   2.773   7.598  0.3966 -0.2848  0.7700
 2564SOL    HW119151   4.051   2.850   7.629 -1.6252  1.4713 -0.5130
 2564SOL    HW219152   4.009   2.776   7.502 -1.2451 -0.3612  0.6821
 2565SOL     OW19153   0.550   1.596   3.341 -1.0582 -0.2305 -0.1462
 2565SOL    HW119154   0.548   1.520   3.399 -1.4894  0.7198  1.1028
 2565SOL    HW219155   0.497   1.665   3.382  1.3809  0.8653  1.1956
 2566SOL     OW19156   3.369   1.781   9.326  0.2399  0.0176 -0.1920
 2566SOL    HW119157   3.288   1.822   9.295 -0.3192  0.6843  2.1473
 2566SOL    HW219158   3.349   1.777   9.420  1.3408  0.8270  0.0630
 2567SOL     OW19159   0.114   0.160   5.827 -0.1538  0.0300 -0.2032
 2567SOL    HW119160   0.193   0.211   5.845  0.8829 -1.2938 -1.0058
 2567SOL    HW219161   0.125   0.084   5.883  1.2568  0.1390 -0.3342
 2568SOL     OW19162   3.927   4.633   4.345 -0.2732  0.2308  0.3693
 2568SOL    HW119163   3.999   4.624   4.407  0.7169  1.0496 -0.6606
 2568SOL    HW219164   3.861   4.683   4.393 -0.6596  0.6168 -0.5604
 2569SOL     OW19165   2.449   4.339   7.259  0.1434  0.3626 -0.1789
 2569SOL    HW119166   2.413   4.269   7.314 -1.2039  1.6132  0.5455
 2569SOL    HW219167   2.440   4.417   7.313 -2.4025 -0.1867  0.2314
 2570SOL     OW19168   2.708   2.643  16.613 -0.5233  0.4261  0.1694
 2570SOL    HW119169   2.729   2.653  16.520  0.9056  1.3272  0.5910
 2570SOL    HW219170   2.626   2.692  16.615  0.0546  1.1621  4.3575
 2571SOL     OW19171   3.448   0.099   9.734  0.1699  0.1856  0.4926
 2571SOL    HW119172   3.429   0.006   9.722 -1.3789  0.5546  0.0676
 2571SOL    HW219173   3.521   0.084   9.793 -1.0077 -0.4389  1.7941
 2572SOL     OW19174   0.168   1.284   2.010  0.0356 -0.5587 -0.6310
 2572SOL    HW119175   0.238   1.339   1.974  0.9286 -1.0593  0.3154
 2572SOL    HW219176   0.154   1.223   1.938 -2.0870 -0.2107 -0.4982
 2573SOL     OW19177   2.642   4.236   9.314 -0.1140 -0.2091  0.0787
 2573SOL    HW119178   2.703   4.183   9.365  0.5720  1.4942  1.0155
 2573SOL    HW219179   2.598   4.293   9.377  0.9780  0.3855  0.2972
 2574SOL     OW19180   3.894   1.706   2.771 -0.6535  0.1860  0.2839
 2574SOL    HW119181   3.833   1.778   2.757  0.5556  0.9962 -0.8908
 2574SOL    HW219182   3.955   1.748   2.831  1.7981  0.2203 -2.2365
 2575SOL     OW19183   4.449   1.010   5.098 -0.2810 -0.1971  0.2848
 2575SOL    HW119184   4.363   1.048   5.114 -1.5010 -2.0968 -1.7619
 2575SOL    HW219185   4.484   1.004   5.187  1.0056 -1.2896 -0.2980
 2576SOL     OW19186   0.430   2.006   1.747  0.2969 -0.5032  0.6219
 2576SOL    HW119187   0.523   2.027   1.735 -0.2154  1.6671  0.4033
 2576SOL    HW219188   0.421   2.024   1.840 -0.4268  0.3748  0.3777
 2577SOL     OW19189   2.896   4.594  12.719 -0.1996  0.6945 -0.2058
 2577SOL    HW119190   2.816   4.542  12.713  1.1133 -1.5504  1.9011
 2577SOL    HW219191   2.865   4.650  12.790 -1.1504 -1.0299  0.7282
 2578SOL     OW19192   4.366   2.683   9.225  0.2870  0.7443  0.2182
 2578SOL    HW119193   4.286   2.691   9.173 -0.7384 -0.6071  1.6224
 2578SOL    HW219194   4.353   2.729   9.308  0.5323  1.0272  0.1037
 2579SOL     OW19195   3.367   0.747   6.775 -0.1103 -0.6149 -0.0079
 2579SOL    HW119196   3.364   0.656   6.745  0.8991 -0.8199  0.5140
 2579SOL    HW219197   3.273   0.766   6.775 -0.0593 -0.4447  2.3762
 2580SOL     OW19198   0.905   4.236   5.343 -0.2976 -0.4186 -0.1054
 2580SOL    HW119199   0.907   4.286   5.424  0.7731  1.4465 -1.2755
 2580SOL    HW219200   0.959   4.286   5.281  1.0081 -1.2814  0.3364
 2581SOL     OW19201   4.637   0.584   7.706  0.4048 -0.5367  0.5601
 2581SOL    HW119202   4.611   0.636   7.782 -1.0593  1.3797 -1.2390
 2581SOL    HW219203   4.661   0.497   7.738 -0.8252 -1.0659  0.0603
 2582SOL     OW19204   2.716   2.559  10.729  0.6921 -0.2568  0.1803
 2582SOL    HW119205   2.792   2.614  10.712 -0.2832  1.5131  1.4838
 2582SOL    HW219206   2.650   2.591  10.667  1.8856 -0.9518 -1.4498
 2583SOL     OW19207   0.632   0.777   2.176  0.0327  0.0870 -0.0183
 2583SOL    HW119208   0.596   0.724   2.247 -3.2104  1.5393 -0.5658
 2583SOL    HW219209   0.594   0.724   2.107  0.0864 -0.1262  0.1151
 2584SOL     OW19210   3.089   3.525  12.978  0.4070  0.5810  0.0838
 2584SOL    HW119211   3.022   3.550  13.042 -1.1661 -1.3274 -0.8058
 2584SOL    HW219212   3.155   3.514  13.047 -0.0554  1.8756  0.7368
 2585SOL     OW19213   1.628   1.819   3.836 -0.1319 -0.2436  0.1039
 2585SOL    HW119214   1.555   1.879   3.846  0.1046  0.2738 -1.3161
 2585SOL    HW219215   1.700   1.880   3.819 -1.3411  1.3391  0.7277
 2586SOL     OW19216   2.674   2.172   0.543  0.0657  0.0054 -0.0129
 2586SOL    HW119217   2.684   2.083   0.509 -1.6947 -0.0025 -0.5165
 2586SOL    HW219218   2.586   2.174   0.582  0.0066 -0.6473 -0.1179
 2587SOL     OW19219   1.522   1.645  14.333  0.2266 -0.0020 -0.3139
 2587SOL    HW119220   1.464   1.636  14.257  1.4185 -2.2238 -0.9683
 2587SOL    HW219221   1.503   1.559  14.371  0.3951 -0.5642 -1.5133
 2588SOL     OW19222   0.310   3.801   2.911  0.0703  0.2200  0.5803
 2588SOL    HW119223   0.364   3.875   2.882  1.6030 -0.3901  1.8235
 2588SOL    HW219224   0.353   3.734   2.859 -0.2125  0.3606  0.1697
 2589SOL     OW19225   3.050   2.380   6.041  0.0906 -0.1361  0.0435
 2589SOL    HW119226   3.013   2.444   5.981  0.8029 -0.4139 -0.6988
 2589SOL    HW219227   3.094   2.317   5.984  0.8373  0.1099  0.3433
 2590SOL     OW19228   1.365   1.005   6.669 -0.1229  0.6971 -0.3519
 2590SOL    HW119229   1.352   1.072   6.736  0.3204  1.7107 -1.2774
 2590SOL    HW219230   1.350   0.938   6.736  2.2961  0.9841  0.4975
 2591SOL     OW19231   0.448   0.545  15.371 -0.1265  0.1801  0.2563
 2591SOL    HW119232   0.386   0.615  15.355 -1.3192 -0.4646  2.0066
 2591SOL    HW219233   0.474   0.518  15.283 -0.7254  1.1123 -0.1933
 2592SOL     OW19234   0.925   1.795   0.490  0.3819 -0.0799 -0.4154
 2592SOL    HW119235   0.935   1.841   0.573  1.4913  0.1661 -0.6815
 2592SOL    HW219236   0.879   1.714   0.510 -1.6098  1.0979 -0.2179
 2593SOL     OW19237   0.587   2.233   2.079 -0.0685 -0.1771  0.0971
 2593SOL    HW119238   0.680   2.214   2.085  0.0017  1.4427  3.9954
 2593SOL    HW219239   0.555   2.145   2.061  0.6798 -0.3128 -0.5808
 2594SOL     OW19240   3.414   3.141   5.193  0.2115 -0.5802 -0.1074
 2594SOL    HW119241   3.399   3.234   5.177  0.4641 -0.3856  0.7709
 2594SOL    HW219242   3.507   3.131   5.215 -0.0268 -2.1928  0.1568
 2595SOL     OW19243   2.201   0.018   6.889  0.4274 -0.1340  0.4838
 2595SOL    HW119244   2.272   0.082   6.897 -0.9521  1.7203 -2.3518
 2595SOL    HW219245   2.158   0.045   6.808 -1.1423 -0.1730  1.3095
 2596SOL     OW19246   2.310   3.849   3.742  0.1445  0.0764  0.5094
 2596SOL    HW119247   2.364   3.804   3.808  2.1759 -2.5127 -2.8965
 2596SOL    HW219248   2.354   3.934   3.737 -2.1206  1.3126  1.6539
 2597SOL     OW19249   1.807   2.324   6.112 -0.0526 -0.5343  1.1344
 2597SOL    HW119250   1.784   2.259   6.046  2.3185 -0.3333  0.1141
 2597SOL    HW219251   1.900   2.334   6.095 -0.0886 -0.1247  1.1952
 2598SOL     OW19252   1.878   4.129   1.910  0.3303  0.3263  0.0727
 2598SOL    HW119253   1.805   4.110   1.969  1.3355 -0.1865  1.1492
 2598SOL    HW219254   1.846   4.098   1.825  0.6049 -2.1947  0.8933
 2599SOL     OW19255   4.565   4.242   7.642  0.0466  0.2060 -1.1218
 2599SOL    HW119256   4.529   4.192   7.570  1.4018  1.4164 -2.6333
 2599SOL    HW219257   4.570   4.173   7.708  0.0202 -0.9794 -2.3809
 2600SOL     OW19258   0.480   0.369   7.201 -0.6130  0.2497 -0.0136
 2600SOL    HW119259   0.473   0.289   7.253 -1.4713  0.9878  1.0017
 2600SOL    HW219260   0.452   0.436   7.263 -1.4710  0.3069 -0.4661
 2601SOL     OW19261   4.703   0.689  11.900 -0.3584 -0.5586  0.1538
 2601SOL    HW119262   4.626   0.746  11.908  0.5236  0.5716  0.6785
 2601SOL    HW219263   0.020   0.722  11.820 -3.3462 -1.5596 -1.7372
 2602SOL     OW19264   4.227   4.173   0.245  0.7425 -0.3521  0.5076
 2602SOL    HW119265   4.226   4.143   0.336  1.5840 -3.4537 -0.5070
 2602SOL    HW219266   4.139   4.210   0.238  1.6763  1.7293 -0.0487
 2603SOL     OW19267   0.250   4.470   8.682 -0.7167  0.1216  0.1613
 2603SOL    HW119268   0.253   4.563   8.705 -1.0684  0.0724  0.4187
 2603SOL    HW219269   0.335   4.458   8.641 -1.3909 -1.2297 -0.8321
 2604SOL     OW19270   3.740   2.700  17.032  0.4822 -0.3719  0.2874
 2604SOL    HW119271   3.773   2.738  17.114 -0.9972 -2.2414  1.7603
 2604SOL    HW219272   3.815   2.642  17.019  0.7444  0.1592 -0.5208
 2605SOL     OW19273   2.344   0.404  16.647 -0.2967 -0.2495 -0.1978
 2605SOL    HW119274   2.378   0.330  16.597  5.1160  1.0848  1.5087
 2605SOL    HW219275   2.407   0.473  16.627 -1.6847  1.1077  0.0781
 2606SOL     OW19276   1.272   3.397  16.474 -0.4520  0.8245 -0.2292
 2606SOL    HW119277   1.234   3.347  16.402  1.9693  0.8963 -1.5750
 2606SOL    HW219278   1.309   3.469  16.423 -1.8440  0.3668 -1.8764
 2607SOL     OW19279   0.548   0.887   8.037 -0.2921 -0.1161  0.0356
 2607SOL    HW119280   0.634   0.854   8.061 -1.1678 -2.4787 -0.1063
 2607SOL    HW219281   0.493   0.826   8.086  1.5677 -0.8679  1.1468
 2608SOL     OW19282   0.381   3.803   1.028 -0.2313 -0.0350 -0.4660
 2608SOL    HW119283   0.301   3.752   1.021  0.0803 -0.3707 -1.5558
 2608SOL    HW219284   0.410   3.794   0.937  0.3671 -1.9059 -0.0859
 2609SOL     OW19285   1.532   1.987   6.206 -0.1700 -0.1133 -0.0558
 2609SOL    HW119286   1.626   1.984   6.226 -0.2305 -2.6884 -0.1859
 2609SOL    HW219287   1.513   1.893   6.204 -0.3032 -0.0847 -0.1408
 2610SOL     OW19288   1.045   3.673  15.492  0.0768  0.2299 -0.0697
 2610SOL    HW119289   1.092   3.681  15.410  1.3865 -0.4427  0.6268
 2610SOL    HW219290   0.990   3.597  15.472 -0.1739  1.0178 -2.3062
 2611SOL     OW19291   2.357   2.086   6.487 -0.7034  0.1689 -0.2630
 2611SOL    HW119292   2.440   2.083   6.439  0.7661 -0.6501  2.3047
 2611SOL    HW219293   2.352   2.173   6.525 -0.6835  0.5737 -1.1855
 2612SOL     OW19294   2.773   0.322  13.198 -0.7741  0.2345  0.5461
 2612SOL    HW119295   2.867   0.338  13.207 -0.4514 -0.2694 -1.8270
 2612SOL    HW219296   2.763   0.256  13.266 -0.1281 -1.2141 -0.7696
 2613SOL     OW19297   0.157   4.009   0.602  0.1054  0.0676 -0.3783
 2613SOL    HW119298   0.168   3.980   0.511 -0.1016  1.1570 -0.7532
 2613SOL    HW219299   0.123   4.097   0.585 -2.1480 -0.2694  2.4381
 2614SOL     OW19300   0.734   4.589  11.348 -0.2655 -0.6003  0.4812
 2614SOL    HW119301   0.805   4.653  11.348 -1.3756  0.6344  1.4035
 2614SOL    HW219302   0.667   4.645  11.309  0.6204 -1.2545 -2.0270
 2615SOL     OW19303   0.556   3.100   3.716  0.0485  0.1699 -0.1350
 2615SOL    HW119304   0.558   3.195   3.705 -0.3471  0.1097 -0.6948
 2615SOL    HW219305   0.523   3.075   3.630  0.3153 -0.3086 -0.1017
 2616SOL     OW19306   3.199   1.200   5.104  0.1315 -0.5857 -0.0783
 2616SOL    HW119307   3.259   1.226   5.174  0.8614  0.7031 -1.1569
 2616SOL    HW219308   3.169   1.285   5.070  1.1226 -0.5102 -0.7728
 2617SOL     OW19309   2.655   1.074   5.027 -0.0055 -0.2224 -0.2334
 2617SOL    HW119310   2.711   1.139   5.070  1.4576 -1.2974 -0.5045
 2617SOL    HW219311   2.589   1.054   5.093 -1.4490  1.3999 -1.1831
 2618SOL     OW19312   1.726   3.580   8.327  0.8791 -0.0367  0.1487
 2618SOL    HW119313   1.708   3.519   8.399  5.7067  0.9790  2.1934
 2618SOL    HW219314   1.684   3.539   8.252  0.4845 -0.8343  0.7993
 2619SOL     OW19315   0.555   2.206   4.370  0.1230  0.8367  0.6006
 2619SOL    HW119316   0.632   2.232   4.420  0.5644 -0.5433  0.6470
 2619SOL    HW219317   0.600   2.140   4.317  0.5779  1.6478 -0.0131
 2620SOL     OW19318   3.076   1.705   8.536  0.0329 -0.0918  0.3801
 2620SOL    HW119319   3.060   1.758   8.458 -0.3705 -1.0998 -0.2273
 2620SOL    HW219320   3.096   1.621   8.493 -0.1761 -0.7298  1.5321
 2621SOL     OW19321   1.752   4.599   2.153  0.1141  1.0534  0.5695
 2621SOL    HW119322   1.788   4.526   2.102 -1.2499  1.0182 -0.3481
 2621SOL    HW219323   1.793   4.673   2.109  0.3185  0.4305 -0.2840
 2622SOL     OW19324   0.771   1.002  11.221  0.4335  0.0242  0.1045
 2622SOL    HW119325   0.832   1.048  11.163 -0.0857  0.2504 -0.2646
 2622SOL    HW219326   0.808   0.914  11.212 -1.7843 -1.2940  3.7307
 2623SOL     OW19327   1.272   3.869  13.340 -0.0513  0.0900 -0.1211
 2623SOL    HW119328   1.225   3.802  13.391 -0.0579  1.5912  1.8531
 2623SOL    HW219329   1.230   3.952  13.361 -0.0477 -0.2544  1.2360
 2624SOL     OW19330   2.251   4.174   5.340 -0.2574  0.1330 -0.5761
 2624SOL    HW119331   2.305   4.253   5.341 -1.4508  0.9603 -1.1463
 2624SOL    HW219332   2.245   4.158   5.434 -0.6136  2.1565 -0.2559
 2625SOL     OW19333   2.440   4.039   2.102 -0.3998 -0.2538 -0.2230
 2625SOL    HW119334   2.407   4.071   2.018  0.1881 -0.6369 -0.6022
 2625SOL    HW219335   2.451   4.123   2.146 -0.7200 -0.3693  0.0698
 2626SOL     OW19336   3.815   1.676   8.564 -0.0866  0.0606  0.6985
 2626SOL    HW119337   3.765   1.716   8.635 -1.9512 -1.9977  0.5453
 2626SOL    HW219338   3.755   1.690   8.491 -2.8084  0.7199  3.0502
 2627SOL     OW19339   4.377   3.743   7.137 -0.2607  0.3221  0.3823
 2627SOL    HW119340   4.451   3.763   7.079 -0.0052  0.1904  0.6652
 2627SOL    HW219341   4.350   3.829   7.169  2.1837  2.0871 -2.1904
 2628SOL     OW19342   2.207   0.270   4.500  0.4796 -0.8587 -0.9078
 2628SOL    HW119343   2.195   0.219   4.580 -2.4397  0.4488 -0.4741
 2628SOL    HW219344   2.293   0.242   4.469  0.6893 -1.0290 -0.1763
 2629SOL     OW19345   2.052   1.228   2.513  0.4225 -0.4982 -0.3085
 2629SOL    HW119346   2.086   1.297   2.570  2.8910  0.5559 -3.0448
 2629SOL    HW219347   1.991   1.268   2.452  0.9332 -0.3809 -0.7372
 2630SOL     OW19348   1.738   1.828   9.441  0.3185  0.1551 -0.2476
 2630SOL    HW119349   1.703   1.916   9.451  1.3342  0.5815 -0.3887
 2630SOL    HW219350   1.655   1.782   9.446  0.6503 -0.2355  1.9951
 2631SOL     OW19351   3.851   2.801   9.921 -0.8107 -0.4067  0.0770
 2631SOL    HW119352   3.905   2.866   9.967  0.1874 -1.0966 -0.1090
 2631SOL    HW219353   3.903   2.789   9.841 -1.0046 -2.3049  0.2290
 2632SOL     OW19354   0.374   1.252   7.969 -0.2846  0.2705 -0.1501
 2632SOL    HW119355   0.342   1.310   7.900  1.3753 -0.2795 -1.3826
 2632SOL    HW219356   0.368   1.315   8.041  0.7930 -2.8836  2.7226
 2633SOL     OW19357   2.306   2.242   8.208 -0.0306  0.1078  0.1370
 2633SOL    HW119358   2.211   2.252   8.215 -0.1589  0.3046 -2.0248
 2633SOL    HW219359   2.313   2.150   8.182 -1.1595  0.5385 -1.6932
 2634SOL     OW19360   4.312   3.781   9.623  0.0752 -0.1184 -0.2795
 2634SOL    HW119361   4.347   3.703   9.667 -0.1379 -0.4209 -0.6469
 2634SOL    HW219362   4.220   3.755   9.614 -0.0817  0.6286 -0.7647
 2635SOL     OW19363   1.954   4.550   8.422 -0.4256 -0.0337 -0.0513
 2635SOL    HW119364   1.876   4.512   8.462 -0.0381 -2.4617 -1.5530
 2635SOL    HW219365   1.937   4.515   8.334  1.8625 -0.6332 -0.2505
 2636SOL     OW19366   0.160   4.098   1.755  0.5965 -0.9222  0.0433
 2636SOL    HW119367   0.193   4.011   1.733  2.0884  0.1079 -1.7840
 2636SOL    HW219368   0.066   4.081   1.762  0.8859 -2.4901  0.2144
 2637SOL     OW19369   1.923   2.916   0.144  0.6294  0.0707 -0.7622
 2637SOL    HW119370   1.981   2.992   0.137  0.8779  0.0281  0.9463
 2637SOL    HW219371   1.986   2.845   0.132  1.6447  0.4795  2.2006
 2638SOL     OW19372   0.898   0.652   8.235 -0.5692 -0.1246 -0.2059
 2638SOL    HW119373   0.802   0.648   8.227 -0.4623 -1.4527 -0.9638
 2638SOL    HW219374   0.931   0.566   8.263 -0.1184  0.1381  0.0582
 2639SOL     OW19375   1.747   3.133   5.096 -0.1053  0.2696  0.0391
 2639SOL    HW119376   1.733   3.226   5.079  2.3273  0.4635 -0.8426
 2639SOL    HW219377   1.814   3.145   5.164 -0.5232 -0.2133  0.5406
 2640SOL     OW19378   2.708   2.023   6.038 -0.1936 -0.0853  0.3403
 2640SOL    HW119379   2.704   1.927   6.029 -0.7905 -0.1793  1.6576
 2640SOL    HW219380   2.620   2.058   6.026 -1.0711 -1.7885  1.8197
 2641SOL     OW19381   0.165   4.175   9.522  0.5403 -0.1728  0.3999
 2641SOL    HW119382   0.242   4.125   9.496  0.9573  1.0153 -0.6486
 2641SOL    HW219383   0.103   4.105   9.540  0.9419 -0.1636  1.7894
 2642SOL     OW19384   2.001   0.776   1.596  0.1708 -0.7540 -0.3227
 2642SOL    HW119385   1.965   0.857   1.631  1.3082 -0.8302  1.0211
 2642SOL    HW219386   2.089   0.806   1.577 -0.2720  0.7668  0.0144
 2643SOL     OW19387   2.075   0.807   3.361  0.1800 -0.0414 -0.4370
 2643SOL    HW119388   2.141   0.873   3.378  0.1884 -0.8389  2.6223
 2643SOL    HW219389   2.134   0.737   3.333 -0.1370 -0.2839 -0.5061
 2644SOL     OW19390   1.463   2.028   4.078  0.0161 -0.2436 -0.0549
 2644SOL    HW119391   1.547   1.983   4.089 -0.0497 -0.6015 -1.0587
 2644SOL    HW219392   1.409   1.951   4.065  1.5618 -1.3465  0.0997
 2645SOL     OW19393   3.845   3.023   7.873 -0.0919 -0.1323  0.0400
 2645SOL    HW119394   3.752   3.045   7.878 -0.1918 -1.7809  5.5307
 2645SOL    HW219395   3.870   3.082   7.944 -1.9733  0.4652  0.2225
 2646SOL     OW19396   0.514   0.489   5.756  0.1890  0.2586  1.1398
 2646SOL    HW119397   0.545   0.495   5.666  0.1653  0.7928  1.1684
 2646SOL    HW219398   0.596   0.468   5.800  0.8646 -1.3551 -0.8998
 2647SOL     OW19399   3.652   1.113   7.671  0.1120 -0.2259  0.1306
 2647SOL    HW119400   3.588   1.180   7.696  0.0452 -0.0838 -0.4289
 2647SOL    HW219401   3.678   1.142   7.584 -0.5787 -0.7430 -0.2492
 2648SOL     OW19402   4.466   3.403  10.002  0.0599 -0.2512 -0.5216
 2648SOL    HW119403   4.498   3.431  10.088 -2.4751  1.2650 -0.0828
 2648SOL    HW219404   4.517   3.468   9.953  1.1009  0.4125  1.4046
 2649SOL     OW19405   4.678   2.545  13.629  0.0614 -0.1549 -0.4303
 2649SOL    HW119406   4.603   2.602  13.615  0.4202 -0.0083 -1.7500
 2649SOL    HW219407   4.690   2.490  13.551  0.3332  1.4669 -1.5426
 2650SOL     OW19408   0.472   3.990   2.821 -0.3184  0.4209 -0.3614
 2650SOL    HW119409   0.442   4.080   2.807 -0.4897  0.4877  0.4218
 2650SOL    HW219410   0.565   4.013   2.823  0.0027 -0.8228 -0.8751
 2651SOL     OW19411   4.162   1.434   4.927 -0.3103  0.3619  0.3488
 2651SOL    HW119412   4.185   1.362   4.867  1.6782  1.0870  0.2615
 2651SOL    HW219413   4.132   1.499   4.864 -0.0615 -1.8236 -2.0550
 2652SOL     OW19414   2.200   3.632   3.611 -0.1404 -0.2313  0.3035
 2652SOL    HW119415   2.251   3.600   3.537  0.6617  1.0131  0.3271
 2652SOL    HW219416   2.249   3.709   3.640 -1.3612 -0.0653  1.9343
 2653SOL     OW19417   2.532   2.899   7.978 -0.1772 -0.0436  0.2126
 2653SOL    HW119418   2.441   2.878   7.956 -0.6260  0.3662  1.6788
 2653SOL    HW219419   2.525   2.989   8.012 -1.0229  0.7548 -2.0518
 2654SOL     OW19420   3.311   1.843   5.293 -0.2827 -0.1487 -0.2081
 2654SOL    HW119421   3.360   1.821   5.372  0.5379  0.4719 -0.5411
 2654SOL    HW219422   3.377   1.813   5.231 -0.5033 -1.5624  0.2486
 2655SOL     OW19423   4.677   0.033   1.998  0.3635 -0.1498 -0.0068
 2655SOL    HW119424   4.604   4.704   1.963 -1.3890 -0.3279  3.9164
 2655SOL    HW219425   4.634   0.110   2.033 -0.3190 -0.3156 -0.4811
 2656SOL     OW19426   3.706   0.294   0.023  0.6001  0.1719  0.2708
 2656SOL    HW119427   3.698   0.327   0.112 -2.2322 -0.9664  0.4497
 2656SOL    HW219428   3.799   0.312   0.008  0.6669 -0.5915 -0.2762
 2657SOL     OW19429   0.195   2.920   0.533 -0.0471 -0.0462  0.2735
 2657SOL    HW119430   0.271   2.909   0.591  2.2099  1.2231 -2.4785
 2657SOL    HW219431   0.223   3.008   0.510  1.5064 -0.6977 -0.3541
 2658SOL     OW19432   1.796   0.466   9.189 -0.2714 -0.2942  0.4194
 2658SOL    HW119433   1.787   0.397   9.123 -0.1898  1.9710 -1.9367
 2658SOL    HW219434   1.748   0.540   9.152  0.3046  0.1941  0.6579
 2659SOL     OW19435   0.442   0.493  10.348  0.0039  0.0547  0.1249
 2659SOL    HW119436   0.520   0.538  10.313 -1.9298  2.8038 -0.6552
 2659SOL    HW219437   0.468   0.469  10.436  0.2090 -0.9144 -0.2049
 2660SOL     OW19438   0.448   1.553   7.015 -0.2678 -1.2949 -0.2574
 2660SOL    HW119439   0.466   1.643   6.990  1.4348 -1.7254 -0.5541
 2660SOL    HW219440   0.532   1.513   6.994  0.3475 -0.3032  0.3765
 2661SOL     OW19441   2.833   4.353   7.484 -0.2352  0.5792 -0.4216
 2661SOL    HW119442   2.825   4.297   7.561  0.2527  1.3378  0.1840
 2661SOL    HW219443   2.878   4.427   7.524  0.4494  0.8716 -1.7244
 2662SOL     OW19444   3.790   3.517   2.387 -0.1429  0.2670  0.0469
 2662SOL    HW119445   3.776   3.601   2.343 -1.3977  1.9738  3.7226
 2662SOL    HW219446   3.704   3.517   2.428  1.2623  0.8538  2.9598
 2663SOL     OW19447   2.948   0.096   4.858 -0.0946 -0.0949  0.0231
 2663SOL    HW119448   3.014   0.056   4.801  0.1884  0.2483  0.1076
 2663SOL    HW219449   2.938   0.181   4.816  0.4518 -0.2617 -0.4417
 2664SOL     OW19450   2.041   2.748  14.970 -0.4241 -0.4445 -0.2684
 2664SOL    HW119451   2.103   2.809  14.930 -2.3250  1.3716 -0.4329
 2664SOL    HW219452   2.072   2.663  14.937  0.0312 -0.7823  1.0221
 2665SOL     OW19453   3.907   0.907   7.258 -0.1622 -0.2198 -0.2943
 2665SOL    HW119454   3.848   0.844   7.216 -2.2256  1.1639  0.5411
 2665SOL    HW219455   3.930   0.874   7.345 -0.6261 -0.6416 -0.3313
 2666SOL     OW19456   4.088   4.174   8.661 -0.1837 -0.7503  0.5417
 2666SOL    HW119457   4.068   4.080   8.667 -2.1223 -0.3324  0.5309
 2666SOL    HW219458   4.088   4.203   8.752 -0.1629 -2.2948  1.0322
 2667SOL     OW19459   2.911   4.316   4.905  0.8263  0.2305  0.0279
 2667SOL    HW119460   2.906   4.231   4.949 -1.3415  0.1389 -0.4138
 2667SOL    HW219461   2.829   4.314   4.856  1.1342 -0.5182 -0.4646
 2668SOL     OW19462   3.265   4.060   3.149 -0.8608  0.7208  0.2382
 2668SOL    HW119463   3.272   4.042   3.242  3.8679  2.4942  0.2381
 2668SOL    HW219464   3.205   4.134   3.148 -1.5400  0.1644 -0.1550
 2669SOL     OW19465   1.484   2.190   6.774  0.1468  0.3249  0.0162
 2669SOL    HW119466   1.433   2.135   6.714 -0.5971 -0.7571  1.6272
 2669SOL    HW219467   1.576   2.165   6.759  0.6100  2.1501 -0.0974
 2670SOL     OW19468   1.674   1.195   8.060  0.1160 -0.5834 -0.4438
 2670SOL    HW119469   1.610   1.262   8.084  0.0633  0.0637 -2.4014
 2670SOL    HW219470   1.747   1.245   8.096 -0.8593  0.0100  0.7002
 2671SOL     OW19471   3.323   2.052   8.792  0.8197 -0.0341 -0.2952
 2671SOL    HW119472   3.268   2.114   8.744  1.4251  1.4272  0.8979
 2671SOL    HW219473   3.256   2.023   8.855  0.9531  0.3698  0.0390
 2672SOL     OW19474   0.185   1.415   2.240 -0.1623  0.3551  0.1100
 2672SOL    HW119475   0.171   1.359   2.163  1.9307  1.9489 -1.4144
 2672SOL    HW219476   0.237   1.361   2.301  1.6006  0.1145 -1.6015
 2673SOL     OW19477   0.782   1.968   8.114  0.5292  0.4880  0.7521
 2673SOL    HW119478   0.839   2.008   8.049 -1.0624  1.2583 -0.1614
 2673SOL    HW219479   0.771   1.882   8.074  1.0585  1.0553 -0.5911
 2674SOL     OW19480   0.412   3.865   6.657 -0.1257 -0.2958  0.3598
 2674SOL    HW119481   0.432   3.827   6.743 -0.4403 -0.1542  0.4930
 2674SOL    HW219482   0.362   3.801   6.606  1.0182  0.2457 -1.4401
 2675SOL     OW19483   1.151   0.851   5.802 -0.3245  0.0572 -0.2451
 2675SOL    HW119484   1.241   0.818   5.793 -0.1697  0.8145 -1.4001
 2675SOL    HW219485   1.153   0.844   5.898 -0.0533 -0.6469 -0.2976
 2676SOL     OW19486   4.543   3.858   3.410 -0.1345  0.0630 -0.3910
 2676SOL    HW119487   4.576   3.842   3.322 -0.8221  0.1347 -0.6661
 2676SOL    HW219488   4.623   3.866   3.462  0.0444 -1.8083 -0.4062
 2677SOL     OW19489   3.223   1.847   3.796  0.1568 -0.3779  0.4923
 2677SOL    HW119490   3.310   1.848   3.756 -0.1446 -3.6890 -0.2023
 2677SOL    HW219491   3.187   1.770   3.752 -0.6953  1.2077 -1.5879
 2678SOL     OW19492   3.898   0.783  16.728  0.9082  0.2740  0.9110
 2678SOL    HW119493   3.813   0.822  16.705  1.2032  0.1485 -0.3533
 2678SOL    HW219494   3.891   0.783  16.824 -0.2523  1.6656  0.8203
 2679SOL     OW19495   2.733   0.824   2.570 -0.2315  0.0147 -0.0120
 2679SOL    HW119496   2.757   0.805   2.480  2.1322  0.5395  0.5163
 2679SOL    HW219497   2.812   0.875   2.587 -0.7888 -0.4823  4.0858
 2680SOL     OW19498   2.911   0.016   5.314 -0.2205  0.0167 -0.2374
 2680SOL    HW119499   2.827   0.056   5.335  0.0351  0.8229 -0.7746
 2680SOL    HW219500   2.967   0.060   5.379 -1.3873  0.4937  0.4393
 2681SOL     OW19501   2.967   1.075   6.082  1.1162  0.2299 -0.4583
 2681SOL    HW119502   2.988   1.107   5.994 -0.4396  0.1386 -0.8744
 2681SOL    HW219503   2.992   1.151   6.134 -2.2423  0.3542  0.9667
 2682SOL     OW19504   3.107   1.932   8.941 -0.0645 -0.0773 -0.4573
 2682SOL    HW119505   3.149   1.918   9.025 -1.1435  1.6994  0.3761
 2682SOL    HW219506   3.070   1.845   8.922  0.5696 -0.6886  1.1407
 2683SOL     OW19507   1.019   1.257   1.452 -0.1555 -0.1520  0.0618
 2683SOL    HW119508   1.096   1.202   1.437  0.4132  0.7605 -0.3036
 2683SOL    HW219509   0.957   1.194   1.490  1.3838 -1.9647 -0.3989
 2684SOL     OW19510   4.682   2.838   6.544  0.1474  0.3996 -0.4600
 2684SOL    HW119511   0.037   2.895   6.543 -1.8111  3.0390 -1.8012
 2684SOL    HW219512   4.632   2.867   6.468 -0.9355 -0.9392 -0.2396
 2685SOL     OW19513   3.967   1.030  15.374 -0.2422  0.2439  0.7368
 2685SOL    HW119514   4.041   1.086  15.399  1.1401 -0.5267 -1.5092
 2685SOL    HW219515   3.969   1.056  15.281 -1.6090 -0.1527  0.5975
 2686SOL     OW19516   3.685   3.817   4.863  0.1911 -0.6416  0.2368
 2686SOL    HW119517   3.678   3.860   4.948 -2.7027  0.2800 -0.4648
 2686SOL    HW219518   3.778   3.807   4.844  0.6179  3.4032  0.1630
 2687SOL     OW19519   0.450   0.205   0.993 -0.1497 -0.7264  0.1411
 2687SOL    HW119520   0.355   0.198   0.978 -0.0736 -0.1374 -0.6208
 2687SOL    HW219521   0.468   0.298   1.004 -1.5503 -0.4503  0.1233
 2688SOL     OW19522   1.915   2.742  10.094 -0.5395  0.5249 -0.4885
 2688SOL    HW119523   1.855   2.743  10.169  1.1899 -0.7091  0.8889
 2688SOL    HW219524   1.979   2.811  10.114 -0.2191 -0.4186  1.7107
 2689SOL     OW19525   3.382   1.196   2.182 -0.3840 -0.1156  0.1148
 2689SOL    HW119526   3.323   1.124   2.202  0.3406 -0.3384  1.4452
 2689SOL    HW219527   3.441   1.203   2.257  1.1236 -1.1129 -0.9738
 2690SOL     OW19528   4.147   1.861   3.650  0.2644 -0.4837  0.3160
 2690SOL    HW119529   4.186   1.806   3.581 -0.2406 -0.6724  0.1815
 2690SOL    HW219530   4.198   1.939   3.631 -0.5011  0.2754  1.4407
 2691SOL     OW19531   3.599   2.922   8.809  0.1498  0.7283  0.1503
 2691SOL    HW119532   3.604   2.872   8.728  4.1451  1.5796 -0.1273
 2691SOL    HW219533   3.503   2.927   8.813  0.0637  0.5720 -1.9492
 2692SOL     OW19534   4.655   3.482   8.750 -0.3061  0.0564  0.0577
 2692SOL    HW119535   4.576   3.434   8.728  0.8747 -0.6621 -2.6104
 2692SOL    HW219536   4.628   3.510   8.838  0.0587  3.4807 -0.9504
 2693SOL     OW19537   3.261   0.954   7.184  0.2306 -0.1719 -0.4202
 2693SOL    HW119538   3.174   0.993   7.194  0.6282  0.4265  0.6675
 2693SOL    HW219539   3.303   0.960   7.270 -0.2672  2.0236 -0.3300
 2694SOL     OW19540   1.383   0.709   5.466 -0.6321  0.1332  0.5802
 2694SOL    HW119541   1.452   0.663   5.418 -2.6008 -1.6667 -0.5295
 2694SOL    HW219542   1.329   0.750   5.399  0.6655 -0.2145 -0.6854
 2695SOL     OW19543   1.266   4.152  12.934 -0.0017  0.2755 -0.2613
 2695SOL    HW119544   1.351   4.162  12.978 -0.8562 -1.4625  1.7717
 2695SOL    HW219545   1.204   4.178  13.002  2.3065 -0.0235  1.9489
 2696SOL     OW19546   1.892   4.211   8.303  0.2419 -0.5274 -0.0403
 2696SOL    HW119547   1.896   4.299   8.266  3.3094 -0.4077  0.5828
 2696SOL    HW219548   1.969   4.202   8.359  0.7329 -0.3355 -0.6915
 2697SOL     OW19549   0.905   3.100   8.114 -0.6127  0.0052 -0.4585
 2697SOL    HW119550   0.973   3.032   8.118  0.7282  1.1723 -3.4199
 2697SOL    HW219551   0.839   3.036   8.088  0.3928 -1.0036 -0.5562
 2698SOL     OW19552   2.774   0.251   7.757 -0.4240  0.2469  0.3901
 2698SOL    HW119553   2.860   0.218   7.783 -0.1745 -0.0605 -0.8513
 2698SOL    HW219554   2.720   0.189   7.806  0.9444 -1.5712 -0.4073
 2699SOL     OW19555   0.616   1.109   7.868  0.7732  0.1079 -0.1948
 2699SOL    HW119556   0.610   1.021   7.905  2.8189  0.7215  1.6584
 2699SOL    HW219557   0.566   1.157   7.934  0.9121  1.1724 -0.8650
 2700SOL     OW19558   3.803   3.200   5.628  0.5187  0.1264  0.2609
 2700SOL    HW119559   3.757   3.249   5.696  0.6553  0.2524  0.2627
 2700SOL    HW219560   3.863   3.271   5.605 -2.2592  2.2165 -0.4815
 2701SOL     OW19561   0.912   1.637  15.904 -0.5166 -0.0907 -0.1908
 2701SOL    HW119562   0.833   1.679  15.938 -0.3935 -1.7928  2.1703
 2701SOL    HW219563   0.951   1.702  15.846 -1.3365 -0.3350 -1.0256
 2702SOL     OW19564   3.458   3.495   8.890  0.3239  0.3728 -0.3098
 2702SOL    HW119565   3.379   3.514   8.839  0.3459  1.8585  0.2270
 2702SOL    HW219566   3.450   3.563   8.956  0.5494 -1.2025  1.3400
 2703SOL     OW19567   0.714   1.020  10.404  0.0365  0.5541 -0.1662
 2703SOL    HW119568   0.778   1.037  10.473 -0.0755 -2.0416  0.5597
 2703SOL    HW219569   0.691   0.930  10.425  0.1386  0.5601 -0.0315
 2704SOL     OW19570   1.092   2.917   6.392 -0.1686  0.1303  0.4797
 2704SOL    HW119571   1.032   2.979   6.432 -1.4137 -0.8996  0.2099
 2704SOL    HW219572   1.139   2.973   6.330 -0.8791  0.6216  0.3917
 2705SOL     OW19573   3.608   3.232   4.846  1.2543 -0.1046  0.2734
 2705SOL    HW119574   3.616   3.271   4.759 -1.7406 -0.8750 -0.3565
 2705SOL    HW219575   3.595   3.307   4.904  3.3739 -0.0438  0.6523
 2706SOL     OW19576   0.157   2.183  11.611 -0.1839 -0.4182 -0.5062
 2706SOL    HW119577   0.092   2.251  11.592  0.1459 -0.9185 -3.4154
 2706SOL    HW219578   0.153   2.132  11.531 -1.3490 -0.6265 -0.3286
 2707SOL     OW19579   0.809   3.428   6.439 -0.6836 -0.3879  0.1805
 2707SOL    HW119580   0.731   3.468   6.478 -1.2610  0.1137 -1.5119
 2707SOL    HW219581   0.795   3.427   6.344  1.0014  1.6741 -0.0903
 2708SOL     OW19582   4.027   2.986   4.063  0.5186  0.1252  0.1895
 2708SOL    HW119583   4.019   2.892   4.079  2.2865 -0.6245 -3.2655
 2708SOL    HW219584   4.031   3.020   4.152  0.0555  2.0321 -0.5066
 2709SOL     OW19585   1.333   4.236   5.406 -0.1565 -0.2243 -0.8736
 2709SOL    HW119586   1.418   4.210   5.369  0.0342 -1.1730  0.2070
 2709SOL    HW219587   1.277   4.251   5.331  0.1240  0.1109 -1.0156
 2710SOL     OW19588   3.062   0.315  15.963 -0.4030  0.0952  1.0934
 2710SOL    HW119589   3.099   0.362  16.038  2.0329  1.3799 -0.9090
 2710SOL    HW219590   3.111   0.369  15.901  0.5520 -2.2225 -0.1684
 2711SOL     OW19591   0.457   4.313   8.327 -0.3831  0.2283 -0.2076
 2711SOL    HW119592   0.485   4.225   8.352 -0.2611  0.6667  1.2421
 2711SOL    HW219593   0.368   4.311   8.360 -0.2753  1.5222  0.1767
 2712SOL     OW19594   2.051   2.103  12.814 -0.1222  0.4970  0.1716
 2712SOL    HW119595   1.999   2.023  12.808  0.7156 -0.1148  1.2303
 2712SOL    HW219596   2.117   2.086  12.881  0.0347  0.2210 -0.0524
 2713SOL     OW19597   4.056   1.639   4.747  0.0904  1.1018  0.5131
 2713SOL    HW119598   3.973   1.604   4.714  1.4720 -0.5911 -1.1822
 2713SOL    HW219599   4.016   1.698   4.811 -2.7044 -1.9994  1.6419
 2714SOL     OW19600   2.966   3.410   8.274 -0.4987 -0.2885 -1.0237
 2714SOL    HW119601   3.020   3.370   8.205  3.6941  1.5789  1.1550
 2714SOL    HW219602   3.018   3.367   8.342 -0.7055  0.3921 -0.4410
 2715SOL     OW19603   0.119   0.788   4.894  0.7879 -0.3730 -0.4519
 2715SOL    HW119604   0.133   0.726   4.966 -1.1683  1.5276  1.5664
 2715SOL    HW219605   0.195   0.776   4.837  1.1784 -0.8795  0.1711
 2716SOL     OW19606   4.243   2.519  15.556 -0.2890 -0.2975 -0.3964
 2716SOL    HW119607   4.217   2.611  15.550 -0.3210 -0.4168 -2.1648
 2716SOL    HW219608   4.276   2.511  15.646 -2.5230 -1.0342  0.3549
 2717SOL     OW19609   1.438   2.685   5.978  0.2141 -0.2609 -0.4953
 2717SOL    HW119610   1.422   2.600   5.936 -3.6562 -0.3922  1.1994
 2717SOL    HW219611   1.375   2.742   5.934 -0.3666 -0.6458 -0.1720
 2718SOL     OW19612   1.478   3.015  13.627 -0.2884  0.2221  0.1364
 2718SOL    HW119613   1.475   3.107  13.600 -0.4228 -0.0545 -0.7768
 2718SOL    HW219614   1.388   2.982  13.624  1.4090 -4.1497 -1.4511
 2719SOL     OW19615   4.406   1.382   6.675  0.2309 -0.1348  0.0740
 2719SOL    HW119616   4.419   1.429   6.757  0.6937  0.8286 -0.5512
 2719SOL    HW219617   4.485   1.329   6.666  2.3675  3.6824 -3.6666
 2720SOL     OW19618   4.224   2.598   7.871 -0.3835 -0.1634 -0.0287
 2720SOL    HW119619   4.306   2.591   7.822 -0.8331  0.3933 -0.8517
 2720SOL    HW219620   4.237   2.688   7.902  0.7039 -0.7006  1.0933
 2721SOL     OW19621   1.851   3.446   4.281 -0.9639 -0.7796  0.3263
 2721SOL    HW119622   1.892   3.372   4.235 -0.2977  0.8607 -1.7391
 2721SOL    HW219623   1.902   3.514   4.238 -1.9050 -0.1059  0.2772
 2722SOL     OW19624   0.371   3.339   4.310 -0.1521  0.5278  0.0688
 2722SOL    HW119625   0.301   3.275   4.299  0.9571 -0.7323  0.3464
 2722SOL    HW219626   0.368   3.384   4.225  1.1931 -0.2701 -0.4074
 2723SOL     OW19627   0.774   4.207   4.909  0.1672  0.5047  0.4110
 2723SOL    HW119628   0.779   4.299   4.886 -0.6321  0.4931  0.2113
 2723SOL    HW219629   0.745   4.211   5.000  0.1167  1.4074  0.3527
 2724SOL     OW19630   4.133   0.555   1.559  0.4292 -0.0975  0.6773
 2724SOL    HW119631   4.072   0.520   1.624 -2.2517  2.5857 -0.4489
 2724SOL    HW219632   4.083   0.535   1.480  0.9713 -2.9361  1.0205
 2725SOL     OW19633   3.997   4.513   5.545 -0.0885  0.6315 -0.1384
 2725SOL    HW119634   3.996   4.550   5.457  0.0679 -1.9259 -1.2086
 2725SOL    HW219635   4.089   4.492   5.562 -0.1098 -0.0065 -0.8137
 2726SOL     OW19636   0.472   4.431   7.406  1.0484  0.4058 -0.1032
 2726SOL    HW119637   0.514   4.516   7.396  1.4488 -0.1206 -3.1437
 2726SOL    HW219638   0.382   4.444   7.376  1.0112  2.3286  0.9209
 2727SOL     OW19639   0.102   0.995   1.307  0.0561  0.0420 -0.5975
 2727SOL    HW119640   0.168   1.063   1.315 -0.0165 -0.0528  0.7106
 2727SOL    HW219641   0.060   1.008   1.222  0.0211 -0.2082 -0.6212
 2728SOL     OW19642   2.109   2.221   7.992 -0.3791  0.2762  0.4692
 2728SOL    HW119643   2.090   2.181   7.907 -1.7224 -0.7186  1.2450
 2728SOL    HW219644   2.082   2.312   7.987 -2.2769 -0.2343  1.5606
 2729SOL     OW19645   0.120   1.184  13.762 -0.2556  0.1092  0.2824
 2729SOL    HW119646   0.099   1.201  13.854 -1.9764  1.8086 -0.4134
 2729SOL    HW219647   0.078   1.262  13.724  0.4746  0.5148  0.3183
 2730SOL     OW19648   4.581   3.454  10.245  0.1697  0.3832  0.5828
 2730SOL    HW119649   4.567   3.396  10.320  1.0099  2.1444  2.0869
 2730SOL    HW219650   4.579   3.540  10.285  1.4564  0.4771  0.4391
 2731SOL     OW19651   0.050   1.423   8.275  0.0668 -0.1188  0.9661
 2731SOL    HW119652   0.049   1.508   8.317 -2.2118 -0.3811  1.4363
 2731SOL    HW219653   4.709   1.432   8.205 -0.0836 -1.1351  0.9606
 2732SOL     OW19654   2.266   2.644   6.201  0.2257 -0.1033 -0.3611
 2732SOL    HW119655   2.310   2.727   6.220  2.6610 -1.4438 -0.1258
 2732SOL    HW219656   2.229   2.675   6.119 -0.1445 -0.8502 -0.4714
 2733SOL     OW19657   1.869   2.987   8.514 -0.1461 -0.0489  0.1476
 2733SOL    HW119658   1.790   2.937   8.535  0.0118 -1.3631 -2.3478
 2733SOL    HW219659   1.832   3.027   8.435 -1.1602 -2.9953 -0.8730
 2734SOL     OW19660   1.632   2.022   4.628 -0.5133 -0.4237  0.4431
 2734SOL    HW119661   1.605   2.004   4.538 -3.9575 -1.9779  1.7719
 2734SOL    HW219662   1.694   2.092   4.606  1.3259 -1.7992  1.2534
 2735SOL     OW19663   3.168   0.801   7.615  1.0223 -0.0341  0.1518
 2735SOL    HW119664   3.094   0.835   7.665 -0.2153  0.7296 -2.1928
 2735SOL    HW219665   3.203   0.883   7.580  0.1301  0.3882  0.2397
 2736SOL     OW19666   3.095   3.877   1.369  0.0048  0.4085 -0.0340
 2736SOL    HW119667   3.086   3.781   1.367 -2.4525  0.6297  1.5852
 2736SOL    HW219668   3.072   3.883   1.461  3.3688  0.1878  0.8274
 2737SOL     OW19669   3.717   0.526   8.782 -0.1950 -0.2159 -0.7475
 2737SOL    HW119670   3.787   0.587   8.760 -1.1864  0.3676 -2.3401
 2737SOL    HW219671   3.771   0.457   8.819 -0.0121  0.2939 -0.0708
 2738SOL     OW19672   0.284   1.019  10.152  0.6671  0.8660 -0.7994
 2738SOL    HW119673   0.311   1.063  10.233  0.4340  0.4465 -0.4949
 2738SOL    HW219674   0.304   0.932  10.186  2.3041  1.5739 -0.0044
 2739SOL     OW19675   1.843   0.777   3.641 -0.4136  0.3566 -0.1321
 2739SOL    HW119676   1.871   0.713   3.576 -1.0670  2.5550 -2.5581
 2739SOL    HW219677   1.816   0.727   3.718  3.0921 -0.7882  0.3174
 2740SOL     OW19678   4.462   0.916  15.371 -0.4571  0.0259  0.7699
 2740SOL    HW119679   4.539   0.972  15.381  0.2773 -0.5003 -1.9201
 2740SOL    HW219680   4.464   0.857  15.446 -1.7036  2.2405  2.5730
 2741SOL     OW19681   3.828   1.323   4.898 -0.3068 -0.4732  0.2901
 2741SOL    HW119682   3.778   1.369   4.831 -0.7814 -1.1587  0.1716
 2741SOL    HW219683   3.853   1.251   4.841  1.8983 -0.1907  0.9146
 2742SOL     OW19684   3.903   4.396   6.409 -0.4264 -0.0675  0.5963
 2742SOL    HW119685   3.970   4.445   6.361 -1.2238 -1.2494 -1.7097
 2742SOL    HW219686   3.821   4.436   6.378  0.0022  1.0911  0.9483
 2743SOL     OW19687   4.236   2.046  14.991  0.2523 -0.4643  0.0646
 2743SOL    HW119688   4.195   2.123  14.952 -1.6454  0.2010  3.4016
 2743SOL    HW219689   4.282   2.019  14.912 -1.9060 -2.7472 -0.4182
 2744SOL     OW19690   2.505   4.404   2.741 -0.6387 -0.5152  0.8865
 2744SOL    HW119691   2.454   4.323   2.747 -1.8502  0.1082 -1.3359
 2744SOL    HW219692   2.441   4.461   2.698  1.6619 -0.1078 -1.9396
 2745SOL     OW19693   4.646   1.937   5.112  0.0055 -0.1399  0.5978
 2745SOL    HW119694   4.551   1.929   5.104  0.1872  1.5998 -3.1425
 2745SOL    HW219695   4.662   2.031   5.121  0.2308 -0.1196 -0.0027
 2746SOL     OW19696   0.942   3.062   4.210 -0.0835  0.7171  0.0906
 2746SOL    HW119697   1.021   3.041   4.259  0.7957  0.4390 -1.4721
 2746SOL    HW219698   0.865   3.041   4.264 -0.2642 -0.1711 -0.5017
 2747SOL     OW19699   4.156   2.281   9.192  0.0233  0.2550  0.3246
 2747SOL    HW119700   4.155   2.352   9.128 -1.3819  0.0624  0.1404
 2747SOL    HW219701   4.105   2.318   9.265 -0.4638  0.6161 -0.1991
 2748SOL     OW19702   4.178   0.100   5.604  0.5756 -0.0392  0.1758
 2748SOL    HW119703   4.173   0.177   5.548  0.1442  1.7626  2.7391
 2748SOL    HW219704   4.086   0.079   5.618  0.4233 -0.7608 -1.8039
 2749SOL     OW19705   4.503   4.434  13.324 -0.4700 -0.1763  0.2565
 2749SOL    HW119706   4.583   4.433  13.271 -0.8620  2.7595 -0.3979
 2749SOL    HW219707   4.446   4.383  13.266  1.0721  1.1740 -2.4172
 2750SOL     OW19708   0.442   1.977   7.235  0.1403  0.5234 -0.3062
 2750SOL    HW119709   0.502   1.966   7.160  1.3008 -1.0889  0.8582
 2750SOL    HW219710   0.380   1.906   7.223 -0.5706  0.7941  1.8830
 2751SOL     OW19711   2.484   4.049   5.592 -0.6274 -0.2579  0.8169
 2751SOL    HW119712   2.548   3.992   5.551  1.4353  2.8537 -0.2312
 2751SOL    HW219713   2.518   4.138   5.595 -1.3717  0.1093 -2.5161
 2752SOL     OW19714   2.712   3.438   8.564 -0.1830 -0.2020  0.3887
 2752SOL    HW119715   2.788   3.491   8.584  1.0689 -1.2237 -1.6462
 2752SOL    HW219716   2.726   3.385   8.485 -0.7332 -0.4612  0.4581
 2753SOL     OW19717   0.996   1.921   6.586  0.4207 -0.2870 -0.5407
 2753SOL    HW119718   1.080   1.940   6.544  0.2401  2.1234  0.1626
 2753SOL    HW219719   0.937   1.972   6.531 -0.9376 -1.1789  0.0795
 2754SOL     OW19720   4.229   2.496   2.450  0.9851 -0.2219 -0.3596
 2754SOL    HW119721   4.304   2.550   2.477  0.3353 -0.6102  2.1833
 2754SOL    HW219722   4.184   2.564   2.400 -4.1009 -2.4198  1.2558
 2755SOL     OW19723   0.282   4.592   5.399 -0.0054 -0.2117 -0.3376
 2755SOL    HW119724   0.300   4.581   5.306  0.9839  0.2159 -0.1894
 2755SOL    HW219725   0.187   4.587   5.411  0.1110 -0.6290  0.4696
 2756SOL     OW19726   0.387   0.193  16.950  0.2256 -0.1956  0.0361
 2756SOL    HW119727   0.323   0.253  16.990 -0.5155  0.1418 -1.6693
 2756SOL    HW219728   0.377   0.105  16.986 -0.4915 -0.8209 -1.7064
 2757SOL     OW19729   2.422   1.023   2.421  0.2667  0.2788 -0.4035
 2757SOL    HW119730   2.375   1.005   2.502  1.0201 -2.6148 -0.6035
 2757SOL    HW219731   2.359   1.083   2.382 -2.6638 -1.1036  2.1591
 2758SOL     OW19732   3.360   3.712  15.252  0.2216 -0.0757 -0.3819
 2758SOL    HW119733   3.316   3.795  15.267 -0.4742 -1.2838  4.5371
 2758SOL    HW219734   3.455   3.729  15.254 -0.0361  1.2851 -0.3169
 2759SOL     OW19735   2.904   4.164  17.254  0.5832  0.0193 -0.3476
 2759SOL    HW119736   2.902   4.202  17.166  0.6950  0.5392 -0.1226
 2759SOL    HW219737   2.892   4.243  17.306  0.9619  0.3026 -0.6840
 2760SOL     OW19738   0.424   3.563  16.691  0.9536  0.3175 -0.2784
 2760SOL    HW119739   0.413   3.468  16.691  0.2788  0.3974 -0.9568
 2760SOL    HW219740   0.354   3.588  16.631  1.3985 -1.2595 -1.4509
 2761SOL     OW19741   1.666   2.715   2.858 -0.3611  0.3241 -0.5978
 2761SOL    HW119742   1.617   2.786   2.899  1.2117  1.5524 -0.8384
 2761SOL    HW219743   1.639   2.730   2.767  1.1582 -0.1368 -1.1310
 2762SOL     OW19744   4.214   2.648   7.325  0.6298  0.4562  0.1403
 2762SOL    HW119745   4.248   2.565   7.358  0.0346  0.5066  0.8775
 2762SOL    HW219746   4.123   2.626   7.308  0.8504 -0.9177  0.7756
 2763SOL     OW19747   0.293   4.663   6.833 -0.0024  0.0947  0.4022
 2763SOL    HW119748   0.207   4.624   6.822 -0.1202  0.7966 -1.1003
 2763SOL    HW219749   0.344   4.586   6.858  0.6848  0.6899  0.8574
 2764SOL     OW19750   1.315   2.636  14.447  0.0648  0.7296  0.1543
 2764SOL    HW119751   1.314   2.696  14.372  2.6353  0.7237  0.1346
 2764SOL    HW219752   1.386   2.579  14.419  1.2940  1.7762  1.1402
 2765SOL     OW19753   2.808   2.655   7.630 -0.0125 -0.1836 -0.4298
 2765SOL    HW119754   2.826   2.702   7.549  1.4792  1.1088  0.6627
 2765SOL    HW219755   2.783   2.733   7.679 -1.3515 -1.1026  0.3744
 2766SOL     OW19756   2.060   3.082  15.939 -0.8320  0.0548 -0.6498
 2766SOL    HW119757   1.968   3.080  15.963 -0.2894  1.0023  1.5372
 2766SOL    HW219758   2.079   2.995  15.903 -1.8728 -0.1445 -0.7162
 2767SOL     OW19759   2.297   1.313  17.109  0.1607 -0.1658 -0.6474
 2767SOL    HW119760   2.256   1.279  17.188 -0.0008  1.1576 -0.1582
 2767SOL    HW219761   2.290   1.241  17.047 -1.7362  1.2304 -2.0503
 2768SOL     OW19762   3.269   1.914   8.154 -0.1445 -0.3252 -0.4566
 2768SOL    HW119763   3.210   1.983   8.123 -2.0034 -0.6815  2.2400
 2768SOL    HW219764   3.358   1.946   8.137 -1.4554  2.5388 -1.9304
 2769SOL     OW19765   3.182   2.307  12.927 -0.1784  1.1690  0.0818
 2769SOL    HW119766   3.194   2.363  12.850 -1.7640  1.0288 -0.2546
 2769SOL    HW219767   3.238   2.355  12.988 -2.1149  1.7973  1.3657
 2770SOL     OW19768   3.874   3.124   2.932 -0.4397  0.5521 -0.1808
 2770SOL    HW119769   3.855   3.087   3.018  1.2383  3.3043  1.3800
 2770SOL    HW219770   3.835   3.055   2.879  1.4847 -0.0956 -0.7394
 2771SOL     OW19771   2.110   3.168   2.136 -0.1761  0.5417 -0.9421
 2771SOL    HW119772   2.081   3.135   2.050  0.6847 -1.0587 -0.6143
 2771SOL    HW219773   2.035   3.226   2.152 -0.5026 -0.3821  0.8616
 2772SOL     OW19774   3.911   3.187   3.782  0.0226 -0.2392 -0.1476
 2772SOL    HW119775   3.850   3.194   3.856 -0.5446  0.5892 -0.6897
 2772SOL    HW219776   3.880   3.101   3.754 -0.1658  0.1753 -1.2166
 2773SOL     OW19777   4.538   0.274  17.470  0.4077 -0.3311 -0.3997
 2773SOL    HW119778   4.553   0.319  17.387 -2.2902  0.1461 -0.6094
 2773SOL    HW219779   4.484   0.336  17.518  2.4698  0.2679  1.1689
 2774SOL     OW19780   0.745   2.395   2.904  0.1444  0.0843  0.5028
 2774SOL    HW119781   0.705   2.469   2.950  1.0808  0.6921  0.3280
 2774SOL    HW219782   0.794   2.440   2.835  1.7097 -2.0949  0.2001
 2775SOL     OW19783   3.092   4.387   8.867 -1.1237 -0.0017  0.1013
 2775SOL    HW119784   3.045   4.470   8.872 -1.3875 -0.1020 -0.7314
 2775SOL    HW219785   3.045   4.333   8.931  0.3023  1.5487  2.4692
 2776SOL     OW19786   4.232   0.282   4.561 -0.3981 -0.1872 -0.4033
 2776SOL    HW119787   4.226   0.375   4.583  0.6626 -0.4371  0.8825
 2776SOL    HW219788   4.165   0.279   4.492  0.7373  1.2566 -1.5668
 2777SOL     OW19789   2.277   3.424  11.496  0.2397 -0.2706 -0.0461
 2777SOL    HW119790   2.340   3.352  11.508 -0.7682 -1.1395  0.0653
 2777SOL    HW219791   2.264   3.449  11.588 -1.1023 -2.3874  0.3559
 2778SOL     OW19792   1.173   4.121   7.677 -0.2149 -0.2162  0.8439
 2778SOL    HW119793   1.088   4.137   7.720 -0.3970 -0.2321  0.4872
 2778SOL    HW219794   1.216   4.194   7.721 -0.9856  0.6537  0.1705
 2779SOL     OW19795   1.965   2.806   7.291 -0.2751  0.0497  0.0497
 2779SOL    HW119796   1.910   2.875   7.254 -0.0583  0.0257 -0.3191
 2779SOL    HW219797   2.037   2.855   7.330 -0.8302  1.0940 -0.2407
 2780SOL     OW19798   3.985   1.208   8.888 -0.0444  0.1159 -1.0717
 2780SOL    HW119799   3.961   1.299   8.871 -1.5570  0.2509  1.6668
 2780SOL    HW219800   4.065   1.207   8.836  0.7766 -0.5634  0.1912
 2781SOL     OW19801   2.032   1.570   0.858 -0.8657 -0.1839 -0.9200
 2781SOL    HW119802   2.003   1.585   0.768 -0.2815  0.8827 -0.9370
 2781SOL    HW219803   2.019   1.659   0.890  1.4798 -0.2163  0.1181
 2782SOL     OW19804   0.133   1.482   5.661  0.1963  0.6010  0.2784
 2782SOL    HW119805   0.114   1.402   5.709  0.3193 -0.0154 -0.7074
 2782SOL    HW219806   0.116   1.557   5.718 -1.3932 -0.7039  1.5212
 2783SOL     OW19807   4.199   4.449  12.007  0.2717 -0.1335 -0.4038
 2783SOL    HW119808   4.256   4.466  12.082 -0.7919 -1.4488  0.7281
 2783SOL    HW219809   4.255   4.403  11.945  0.0043 -0.9800 -0.0272
 2784SOL     OW19810   4.233   1.304  17.494 -0.0558 -0.3068  0.4360
 2784SOL    HW119811   4.159   1.343  17.540 -2.1646  0.0199 -3.2774
 2784SOL    HW219812   4.249   1.352  17.413  0.2592 -0.3329  0.4800
 2785SOL     OW19813   3.013   3.720  15.435  0.1413 -0.2838 -0.2755
 2785SOL    HW119814   2.947   3.692  15.372 -1.1238 -2.7336  2.1277
 2785SOL    HW219815   2.974   3.792  15.486 -2.0579 -0.5787 -1.5763
 2786SOL     OW19816   3.904   0.629  10.503 -0.4039  0.3649 -0.4035
 2786SOL    HW119817   3.911   0.670  10.417 -0.3053  0.6345 -0.2696
 2786SOL    HW219818   3.941   0.542  10.498  2.5092  1.5615  0.5012
 2787SOL     OW19819   0.938   0.586   2.064  0.9186 -0.0319  0.8003
 2787SOL    HW119820   0.882   0.517   2.100 -0.8586  0.9902 -0.0401
 2787SOL    HW219821   0.884   0.664   2.069  0.9586  0.0094  0.6022
 2788SOL     OW19822   2.265   0.035   5.611  0.3067 -0.1259  0.2835
 2788SOL    HW119823   2.344   0.075   5.648 -0.6296  1.8424  0.1371
 2788SOL    HW219824   2.236   4.710   5.689  0.8087  3.6534  2.7573
 2789SOL     OW19825   2.919   2.187   1.052 -0.3827 -0.1877  0.5050
 2789SOL    HW119826   2.947   2.097   1.069  2.7455  0.7925  0.4049
 2789SOL    HW219827   2.825   2.172   1.036  0.0578 -2.2784 -0.1443
 2790SOL     OW19828   0.117   4.206  10.368  0.3117  0.2063  0.5530
 2790SOL    HW119829   0.192   4.257  10.338  0.2843  1.3024  2.3466
 2790SOL    HW219830   0.136   4.209  10.462 -0.1940 -0.1923  0.6725
 2791SOL     OW19831   1.403   2.356   5.438  0.0302  0.7002  0.0082
 2791SOL    HW119832   1.448   2.392   5.515  0.5394  0.6173 -0.2542
 2791SOL    HW219833   1.351   2.288   5.481  0.7283  0.2787  0.1941
 2792SOL     OW19834   4.718   2.152   7.196  0.1553 -0.5099 -0.5069
 2792SOL    HW119835   4.664   2.111   7.128 -1.7537 -1.5201  1.5888
 2792SOL    HW219836   0.064   2.201   7.151  0.9593  0.3134  1.5832
 2793SOL     OW19837   3.937   1.722   5.637 -0.6950  0.1404 -0.2556
 2793SOL    HW119838   3.851   1.683   5.624 -0.9136  0.3731  0.4745
 2793SOL    HW219839   3.936   1.706   5.732 -3.3475  1.3739 -0.0692
 2794SOL     OW19840   0.389   0.228   1.543  0.1584 -0.3671  0.3218
 2794SOL    HW119841   0.410   0.203   1.453 -1.3704  1.0111 -0.4258
 2794SOL    HW219842   0.302   0.191   1.558 -0.6907  0.8961 -1.5232
 2795SOL     OW19843   1.882   0.620  15.638  0.0386  0.5906  0.0840
 2795SOL    HW119844   1.945   0.687  15.664  1.6270 -0.6056 -0.6848
 2795SOL    HW219845   1.812   0.672  15.599  0.9576  0.5650 -1.6135
 2796SOL     OW19846   3.892   1.569   7.288 -0.2540 -0.2572 -0.3418
 2796SOL    HW119847   3.872   1.584   7.380  0.7379  1.3646 -0.3918
 2796SOL    HW219848   3.869   1.655   7.253 -0.7770 -0.9137 -1.6202
 2797SOL     OW19849   3.235   2.663   5.081 -0.2757  0.3308  0.2194
 2797SOL    HW119850   3.160   2.648   5.023 -0.2768 -1.3794  0.6544
 2797SOL    HW219851   3.230   2.759   5.086  1.5738  0.3007  2.4902
 2798SOL     OW19852   2.653   0.493   8.614  0.1706 -0.0305  0.4477
 2798SOL    HW119853   2.634   0.571   8.667  1.4112 -0.2543  1.2162
 2798SOL    HW219854   2.740   0.468   8.646  0.0970  0.8498  1.3414
 2799SOL     OW19855   4.671   1.653   1.886  0.0197 -0.0373 -0.2497
 2799SOL    HW119856   4.627   1.593   1.947 -1.9753  1.7990  0.1237
 2799SOL    HW219857   4.626   1.628   1.805 -1.0887 -0.1302  0.3947
 2800SOL     OW19858   3.404   1.501   6.555  0.2360 -0.2004  0.1346
 2800SOL    HW119859   3.383   1.595   6.556  2.4625  0.3109 -0.8604
 2800SOL    HW219860   3.473   1.507   6.489 -0.0095 -1.2794 -0.2049
 2801SOL     OW19861   1.161   2.039   0.633 -0.2439  0.2792  0.1383
 2801SOL    HW119862   1.190   2.074   0.717  3.5390 -1.5986 -0.3762
 2801SOL    HW219863   1.076   2.005   0.661 -1.5640  1.9917 -1.7367
 2802SOL     OW19864   0.342   1.948   5.278  0.2438  0.1186 -0.0018
 2802SOL    HW119865   0.300   1.881   5.224  1.6584  0.1663 -1.1432
 2802SOL    HW219866   0.378   1.904   5.354 -0.1086  0.8522  0.5938
 2803SOL     OW19867   0.356   1.064   1.576  0.8050  0.4614 -0.1708
 2803SOL    HW119868   0.350   1.139   1.517 -1.3284 -0.2305 -0.8341
 2803SOL    HW219869   0.354   0.983   1.526  2.1062 -0.3080  0.9940
 2804SOL     OW19870   2.910   0.293   6.852  0.0986 -0.5919 -0.2351
 2804SOL    HW119871   2.952   0.298   6.766 -0.1216 -0.8413 -0.3590
 2804SOL    HW219872   2.984   0.287   6.912  0.8404  0.4378 -1.0387
 2805SOL     OW19873   4.333   4.241   8.197  0.3949 -0.0736 -0.9565
 2805SOL    HW119874   4.357   4.333   8.203  0.4937 -0.1810  0.3697
 2805SOL    HW219875   4.272   4.235   8.271  0.0012  1.8509 -1.1333
 2806SOL     OW19876   3.104   3.262   7.731  0.1922  0.2500  0.3110
 2806SOL    HW119877   3.062   3.316   7.798 -1.7875 -1.9052  0.8164
 2806SOL    HW219878   3.056   3.179   7.729  1.4442 -0.5111  1.0750
 2807SOL     OW19879   0.429   2.599   8.524 -0.0010 -1.0152 -0.0662
 2807SOL    HW119880   0.430   2.661   8.597  1.8240 -0.0694 -0.9167
 2807SOL    HW219881   0.352   2.550   8.554 -0.2398 -1.9413 -2.2235
 2808SOL     OW19882   3.775   3.260   4.023  0.3355  0.1703 -0.2757
 2808SOL    HW119883   3.714   3.334   4.025  1.3233  0.9536  0.5772
 2808SOL    HW219884   3.783   3.237   4.116  0.4615 -1.7108 -0.7473
 2809SOL     OW19885   0.446   3.025   1.125  0.0196 -0.4795  0.8594
 2809SOL    HW119886   0.491   2.969   1.188 -0.6686 -1.9221  0.0672
 2809SOL    HW219887   0.360   3.022   1.167  0.7380 -2.2138  2.1891
 2810SOL     OW19888   0.280   1.710  10.055  0.1253  0.2608  0.0394
 2810SOL    HW119889   0.347   1.701  10.122 -0.1324  1.5695  0.4840
 2810SOL    HW219890   0.323   1.747   9.978 -1.4968 -1.2140 -1.5546
 2811SOL     OW19891   2.801   0.247   0.654  0.1375  0.7950  0.0349
 2811SOL    HW119892   2.896   0.250   0.669  0.5067  1.1909 -2.3328
 2811SOL    HW219893   2.808   0.197   0.572  1.1179  2.4742 -0.9069
 2812SOL     OW19894   0.251   2.761   4.817  0.0606 -0.4316 -0.4126
 2812SOL    HW119895   0.180   2.764   4.880 -0.3645  1.3947 -0.9997
 2812SOL    HW219896   0.213   2.694   4.759 -0.8193  0.9672 -1.4405
 2813SOL     OW19897   2.326   0.936   0.386  0.2817  0.5666  0.3288
 2813SOL    HW119898   2.309   1.005   0.450 -0.2957 -0.7959  1.6263
 2813SOL    HW219899   2.373   0.989   0.321  1.5601  0.4678  1.1695
 2814SOL     OW19900   2.116   4.012   2.475  0.4360  0.0614  0.0068
 2814SOL    HW119901   2.209   4.017   2.452  0.1841 -0.6001 -1.1456
 2814SOL    HW219902   2.113   3.978   2.565  0.7236 -0.3324 -0.1343
 2815SOL     OW19903   1.075   4.532  12.044 -0.2654 -0.3186 -0.4584
 2815SOL    HW119904   1.046   4.619  12.018  0.6772  0.2628  0.4254
 2815SOL    HW219905   1.011   4.499  12.106  2.0592 -0.5716  1.7974
 2816SOL     OW19906   3.834   2.082   6.922 -0.4963 -0.7316 -0.2905
 2816SOL    HW119907   3.762   2.020   6.936 -0.0186 -1.0952  0.5622
 2816SOL    HW219908   3.878   2.072   7.006  1.0131  0.3871 -0.9625
 2817SOL     OW19909   4.567   0.044   1.546  0.4432 -0.2219  0.3008
 2817SOL    HW119910   4.524   4.705   1.487  2.7249 -0.3421 -1.2214
 2817SOL    HW219911   4.500   0.055   1.614 -0.7755 -0.1119 -0.9205
 2818SOL     OW19912   1.567   1.814   8.412 -0.0510  0.3982 -0.2715
 2818SOL    HW119913   1.535   1.855   8.492  0.6164  1.4198 -0.5278
 2818SOL    HW219914   1.497   1.764   8.371 -0.4983 -0.5119  1.5698
 2819SOL     OW19915   1.561   1.917  14.757  0.1497 -0.0535  1.0266
 2819SOL    HW119916   1.529   1.961  14.678 -0.1072  0.5313  1.4536
 2819SOL    HW219917   1.499   1.844  14.757  1.2881 -1.0149 -2.1123
 2820SOL     OW19918   0.133   4.569  10.141 -0.3673  0.6157  0.6781
 2820SOL    HW119919   0.050   4.608  10.170 -0.8164 -0.9884  1.5191
 2820SOL    HW219920   0.098   4.507  10.078 -0.2236  0.2775  0.9308
 2821SOL     OW19921   4.200   1.918  10.965  0.3157 -0.0747  0.3735
 2821SOL    HW119922   4.131   1.946  11.025 -1.1775 -0.3316 -1.2286
 2821SOL    HW219923   4.266   1.893  11.031 -0.0752 -0.6722  0.5410
 2822SOL     OW19924   0.998   2.784   4.498  0.1429  0.1259 -0.1533
 2822SOL    HW119925   1.063   2.805   4.565  0.0131  0.5633 -0.1617
 2822SOL    HW219926   1.031   2.841   4.429 -1.2083  1.1003 -0.0133
 2823SOL     OW19927   1.633   1.717   0.463 -0.1981 -0.1089  0.3031
 2823SOL    HW119928   1.623   1.632   0.506  1.8818 -0.6086 -0.2065
 2823SOL    HW219929   1.670   1.696   0.377  0.7974  0.3871  0.6103
 2824SOL     OW19930   0.424   3.016   7.827 -0.4252  0.1327  0.1175
 2824SOL    HW119931   0.430   3.027   7.922 -0.0016 -1.1040  0.2342
 2824SOL    HW219932   0.505   2.967   7.809 -1.3660 -0.9015 -1.3741
 2825SOL     OW19933   3.510   0.510   7.454 -0.1480 -0.3209 -0.2142
 2825SOL    HW119934   3.455   0.482   7.528 -1.9601  0.9523 -1.0709
 2825SOL    HW219935   3.450   0.533   7.383 -0.9515  0.9316  0.8582
 2826SOL     OW19936   1.383   1.065   5.577  0.3361 -0.1162 -0.2765
 2826SOL    HW119937   1.394   1.003   5.649  2.2701 -3.0916 -3.0883
 2826SOL    HW219938   1.337   1.138   5.616 -1.4469 -2.0717  1.2825
 2827SOL     OW19939   2.610   3.371   8.802 -0.1347 -0.1975  0.3725
 2827SOL    HW119940   2.536   3.430   8.789 -1.7575 -2.6683 -1.7628
 2827SOL    HW219941   2.631   3.368   8.709  0.6696 -1.6526  0.5878
 2828SOL     OW19942   2.572   0.173   2.988 -0.6344  0.4934  0.8679
 2828SOL    HW119943   2.489   0.129   3.005  0.2016 -1.6874 -0.7318
 2828SOL    HW219944   2.625   0.104   2.950 -1.2626  0.6740 -0.3485
 2829SOL     OW19945   1.256   2.129  17.040  0.3253 -0.3814  0.0627
 2829SOL    HW119946   1.210   2.153  16.959  0.3505  3.9393  1.3304
 2829SOL    HW219947   1.317   2.061  17.012 -0.9632 -0.8958 -1.5420
 2830SOL     OW19948   1.376   4.469  12.136  0.7505  1.0359  0.3083
 2830SOL    HW119949   1.409   4.499  12.221  0.2202 -2.6081  1.7688
 2830SOL    HW219950   1.349   4.378  12.148 -1.3817  1.5890 -0.3022
 2831SOL     OW19951   3.510   4.383   5.287 -0.0232  0.2060 -0.6655
 2831SOL    HW119952   3.424   4.352   5.258  0.1313  0.7936 -1.7422
 2831SOL    HW219953   3.565   4.344   5.220  0.7882  0.3867 -0.1010
 2832SOL     OW19954   1.904   4.079   3.771  0.0711 -0.4970 -0.0562
 2832SOL    HW119955   1.887   4.039   3.686  1.7318 -0.2265 -0.5111
 2832SOL    HW219956   1.848   4.029   3.830 -0.5231 -1.0626 -1.1002
 2833SOL     OW19957   1.272   0.130   8.077  0.3746 -0.6292  0.2862
 2833SOL    HW119958   1.361   0.151   8.106 -0.2600  1.0116  1.0212
 2833SOL    HW219959   1.216   0.134   8.155 -0.2862 -0.6964 -0.1874
 2834SOL     OW19960   2.185   0.353   8.152 -0.5494  0.1030 -0.2136
 2834SOL    HW119961   2.103   0.401   8.141 -1.0255 -0.0623  2.5792
 2834SOL    HW219962   2.219   0.394   8.231  1.2537  0.6863 -1.2961
 2835SOL     OW19963   1.923   2.812   0.415 -0.3340 -0.1977  0.1135
 2835SOL    HW119964   1.905   2.868   0.340 -1.6821 -2.8065 -1.4828
 2835SOL    HW219965   1.926   2.872   0.490  0.6119  0.4214 -0.4186
 2836SOL     OW19966   0.748   1.645   5.787  0.4182 -0.2746  0.2836
 2836SOL    HW119967   0.733   1.610   5.699  0.3129 -0.3518  0.3328
 2836SOL    HW219968   0.711   1.582   5.849 -1.2075  1.6629  1.2864
 2837SOL     OW19969   1.815   0.826   4.038 -0.8460  0.2654  0.2189
 2837SOL    HW119970   1.781   0.738   4.055  0.5839 -0.3612 -0.1419
 2837SOL    HW219971   1.734   0.878   4.042 -0.0138  1.4447  1.6358
 2838SOL     OW19972   2.658   0.156   9.105 -1.1324 -0.2308  0.2121
 2838SOL    HW119973   2.659   0.081   9.046 -0.8070  0.0878 -0.1914
 2838SOL    HW219974   2.622   0.227   9.052  0.6467  0.3380 -0.2318
 2839SOL     OW19975   0.601   2.392   5.213 -0.6247  0.5640 -0.1614
 2839SOL    HW119976   0.568   2.383   5.124  0.4773 -0.7161 -0.4608
 2839SOL    HW219977   0.666   2.322   5.210  2.0982  3.0734  0.1705
 2840SOL     OW19978   4.489   3.255   4.414 -0.1953  0.5606 -0.0440
 2840SOL    HW119979   4.484   3.223   4.324 -0.4032  1.1385 -0.2419
 2840SOL    HW219980   4.474   3.178   4.469  1.9639  0.8380  0.9430
 2841SOL     OW19981   2.400   3.861  14.933  0.2864 -0.3490 -0.5033
 2841SOL    HW119982   2.358   3.869  15.018  2.3162  1.0562  0.3509
 2841SOL    HW219983   2.427   3.948  14.904  2.0802 -0.8688 -0.4129
 2842SOL     OW19984   1.965   4.331  13.442  0.4325  0.0990  0.0612
 2842SOL    HW119985   1.890   4.390  13.432  0.8267  0.6374  0.2928
 2842SOL    HW219986   2.034   4.395  13.455  1.2575 -0.4373 -1.7118
 2843SOL     OW19987   4.112   1.103  15.729  0.1867  0.2461  0.0679
 2843SOL    HW119988   4.114   1.058  15.814 -0.9136  2.1098  1.0684
 2843SOL    HW219989   4.182   1.067  15.674  0.3656 -0.4115  0.7223
 2844SOL     OW19990   0.628   2.850   5.908 -0.0928 -0.0311  0.0238
 2844SOL    HW119991   0.710   2.801   5.905  1.3897  2.3789  1.4947
 2844SOL    HW219992   0.622   2.890   5.822  1.7755  0.1130 -0.0320
 2845SOL     OW19993   4.462   2.979   1.255  0.0082  0.6179 -0.2693
 2845SOL    HW119994   4.435   3.052   1.198 -3.5987  0.0216  0.6852
 2845SOL    HW219995   4.551   2.991   1.288  0.3694  1.0407 -1.4005
 2846SOL     OW19996   1.985   0.603   2.410 -0.8728  0.0054 -0.5361
 2846SOL    HW119997   1.914   0.653   2.369 -1.6692 -0.2717  0.4872
 2846SOL    HW219998   2.011   0.555   2.332 -2.2081 -2.7518  0.6984
 2847SOL     OW19999   4.167   2.917   9.125 -0.3276 -0.2989  0.2400
 2847SOL    HW120000   4.130   2.873   9.201 -0.5994 -1.8968 -0.8177
 2847SOL    HW220001   4.167   2.842   9.066  1.3105  0.0602 -0.2090
 2848SOL     OW20002   0.813   0.233   9.712  0.1215 -0.1722 -0.0953
 2848SOL    HW120003   0.908   0.229   9.727 -0.2039  0.1942  1.9598
 2848SOL    HW220004   0.797   0.319   9.749  1.0171 -0.9029  2.0016
 2849SOL     OW20005   1.664   3.197  15.738 -0.0485 -0.3895 -0.0051
 2849SOL    HW120006   1.747   3.214  15.692  0.8733 -0.0550  1.7688
 2849SOL    HW220007   1.615   3.161  15.664 -1.1155 -0.3698  0.7049
 2850SOL     OW20008   3.904   0.047   6.251  0.5800  0.1412  0.2259
 2850SOL    HW120009   3.855   0.015   6.175  0.9195 -0.8707  0.4288
 2850SOL    HW220010   3.832   0.047   6.314  0.7485  2.3797  0.4131
 2851SOL     OW20011   4.413   2.660   2.558 -0.5428 -0.1181  0.0535
 2851SOL    HW120012   4.508   2.656   2.575 -0.6418  1.2945  0.9220
 2851SOL    HW220013   4.396   2.753   2.568  0.6703  0.1377 -0.2803
 2852SOL     OW20014   1.897   1.025   3.188  0.0814  0.5446 -0.3590
 2852SOL    HW120015   1.917   1.048   3.278 -1.6017  2.0850 -0.3620
 2852SOL    HW220016   1.954   1.085   3.140 -0.8235  2.1904  0.6212
 2853SOL     OW20017   3.670   0.523   4.481  0.4115  0.0603  0.0810
 2853SOL    HW120018   3.671   0.469   4.402 -0.1338 -1.5341  1.1621
 2853SOL    HW220019   3.743   0.581   4.457  2.4222 -1.3790  2.7474
 2854SOL     OW20020   0.592   4.631   6.609  0.0978 -0.0096 -0.5685
 2854SOL    HW120021   0.636   4.550   6.586 -0.4629 -1.1156  2.2739
 2854SOL    HW220022   0.662   4.693   6.631 -0.3863  0.0576  0.8001
 2855SOL     OW20023   0.770   1.458  10.083  0.1704  0.4307  0.2441
 2855SOL    HW120024   0.843   1.405  10.118 -0.9878 -1.5277 -0.2788
 2855SOL    HW220025   0.798   1.471   9.992  2.8428 -1.2138  0.8158
 2856SOL     OW20026   1.303   4.428   2.269 -0.0651 -0.2713 -0.0397
 2856SOL    HW120027   1.288   4.409   2.361 -0.5500 -1.0370 -0.2794
 2856SOL    HW220028   1.272   4.519   2.278  0.5329 -0.1125  0.3888
 2857SOL     OW20029   2.902   3.348  11.859 -0.2629 -0.3180  0.0750
 2857SOL    HW120030   2.953   3.350  11.940 -1.9119  0.6892  1.0800
 2857SOL    HW220031   2.860   3.262  11.857 -0.5315 -0.1574 -0.9700
 2858SOL     OW20032   0.058   3.851   2.940  0.0654  0.2416 -0.1089
 2858SOL    HW120033   0.059   3.905   2.861  2.3606  1.0952  0.4961
 2858SOL    HW220034   0.151   3.829   2.953  0.3197  1.8872  0.8258
 2859SOL     OW20035   1.953   2.986   1.312  0.3559  0.7313 -0.1871
 2859SOL    HW120036   1.901   2.975   1.391  1.1305  1.4119  0.4145
 2859SOL    HW220037   1.911   3.061   1.271  0.6799 -0.3896 -2.5982
 2860SOL     OW20038   3.051   0.450  16.520 -0.4795 -0.3950  0.1910
 2860SOL    HW120039   3.067   0.411  16.606 -3.7760 -1.2954  0.3894
 2860SOL    HW220040   3.075   0.378  16.462  2.2942 -1.2062  2.3239
 2861SOL     OW20041   0.297   0.470   9.996 -0.3649  0.2095 -0.6744
 2861SOL    HW120042   0.380   0.424   9.982 -1.3440 -1.3896 -1.3023
 2861SOL    HW220043   0.314   0.554   9.954 -0.1110 -0.5548 -2.1088
 2862SOL     OW20044   1.731   2.261  12.795  0.2878 -0.2320 -0.1240
 2862SOL    HW120045   1.640   2.281  12.818  1.2502  2.3713  1.4579
 2862SOL    HW220046   1.743   2.181  12.846 -2.2737 -0.1507  0.6316
 2863SOL     OW20047   0.731   4.046   7.977  0.0573  0.5710  0.3154
 2863SOL    HW120048   0.681   4.057   7.896 -0.4120  0.5235  0.5976
 2863SOL    HW220049   0.669   3.983   8.013  0.3612 -1.6251 -2.9469
 2864SOL     OW20050   2.723   3.456  17.188 -0.1741  0.5800  0.0196
 2864SOL    HW120051   2.670   3.430  17.113 -1.0497  0.6845  0.6019
 2864SOL    HW220052   2.815   3.453  17.163  0.4256 -2.2967  2.5294
 2865SOL     OW20053   0.476   2.213   7.336 -0.3017 -0.8519  0.0648
 2865SOL    HW120054   0.468   2.123   7.303 -0.6624 -0.6969 -0.2666
 2865SOL    HW220055   0.567   2.201   7.362  0.2920 -2.4278 -2.7183
 2866SOL     OW20056   2.101   1.314   4.461 -0.0927  0.6397 -0.2371
 2866SOL    HW120057   2.112   1.289   4.552 -0.0767  0.8783 -0.1729
 2866SOL    HW220058   2.119   1.228   4.422 -2.4277  0.1847 -0.2735
 2867SOL     OW20059   0.026   0.064  17.452 -0.5960  0.7647  0.4830
 2867SOL    HW120060   4.653   0.065  17.437 -0.2874  3.6949 -1.1780
 2867SOL    HW220061   0.049   0.120  17.379  0.5031 -1.0235 -0.5427
 2868SOL     OW20062   1.395   4.150   8.479  0.0038 -0.0008  0.0219
 2868SOL    HW120063   1.415   4.103   8.560 -0.6073  0.5511  0.4954
 2868SOL    HW220064   1.484   4.167   8.448 -1.1375  1.2233 -2.6077
 2869SOL     OW20065   2.022   2.271   2.512  0.3847  0.2931  0.9791
 2869SOL    HW120066   2.035   2.292   2.420 -0.7044 -0.4304  0.6620
 2869SOL    HW220067   2.024   2.176   2.498 -0.4680  0.4927 -0.4579
 2870SOL     OW20068   2.574   4.605   7.060  0.2314  0.4520  0.3307
 2870SOL    HW120069   2.585   4.621   7.154  2.4659  0.7874  0.0027
 2870SOL    HW220070   2.578   4.510   7.051  0.9226  0.6823 -1.7759
 2871SOL     OW20071   1.242   0.830  11.814  0.0446 -1.2979 -0.1057
 2871SOL    HW120072   1.163   0.787  11.848 -0.9244  3.7450  3.8855
 2871SOL    HW220073   1.207   0.917  11.831 -0.0809 -1.8849  2.5698
 2872SOL     OW20074   4.447   1.766   2.149  0.0317 -0.5374 -0.6847
 2872SOL    HW120075   4.481   1.676   2.150  0.1727 -0.4557  1.2313
 2872SOL    HW220076   4.352   1.754   2.142  0.0559 -0.7544 -0.6414
 2873SOL     OW20077   2.149   4.332   6.254  0.7582 -0.1312  0.1400
 2873SOL    HW120078   2.054   4.340   6.241  0.7501  3.3767  2.3560
 2873SOL    HW220079   2.186   4.416   6.281  1.8144 -0.7088  0.4565
 2874SOL     OW20080   2.774   0.457  14.285 -0.2964  0.1541 -0.6925
 2874SOL    HW120081   2.755   0.420  14.371  2.0723  0.7100  0.0542
 2874SOL    HW220082   2.845   0.405  14.248  0.5457  1.8003 -1.3668
 2875SOL     OW20083   0.724   1.678  16.746  0.4223 -0.2635 -0.3639
 2875SOL    HW120084   0.811   1.641  16.758  1.1420  1.4829 -0.2174
 2875SOL    HW220085   0.671   1.628  16.808 -0.0436  1.3669  0.5538
 2876SOL     OW20086   4.088   4.496  17.223 -0.0110  0.0934  0.0533
 2876SOL    HW120087   4.103   4.540  17.307  1.3532  1.6649 -1.0212
 2876SOL    HW220088   4.106   4.407  17.253 -1.5591 -0.3976 -0.4941
 2877SOL     OW20089   1.824   4.307   6.184  0.2821 -0.1678 -0.3161
 2877SOL    HW120090   1.802   4.391   6.143 -0.9560 -1.5757 -2.5160
 2877SOL    HW220091   1.835   4.254   6.105 -0.7899 -0.6763 -0.1246
 2878SOL     OW20092   0.201   2.715  13.428  0.8872  0.2865  0.3626
 2878SOL    HW120093   0.120   2.676  13.395  0.2017  1.2207  0.9247
 2878SOL    HW220094   0.243   2.641  13.472  0.1203  1.4704  3.1054
 2879SOL     OW20095   3.709   2.566  13.604 -0.3511  0.2822 -0.1839
 2879SOL    HW120096   3.674   2.655  13.610 -2.3147 -0.5078  0.2777
 2879SOL    HW220097   3.763   2.559  13.682 -0.3084 -0.8411 -0.3207
 2880SOL     OW20098   4.197   4.591   5.116  0.8297  0.4218 -0.5459
 2880SOL    HW120099   4.281   4.556   5.086 -0.0207 -1.3190 -0.8753
 2880SOL    HW220100   4.210   4.602   5.210 -0.1102 -1.1860 -0.2359
 2881SOL     OW20101   2.332   0.534   7.863  0.1360 -0.2737 -0.0915
 2881SOL    HW120102   2.330   0.599   7.792  3.2554  0.7893  0.8098
 2881SOL    HW220103   2.251   0.560   7.907 -0.3982 -3.3281  0.7341
 2882SOL     OW20104   4.039   0.280  10.959 -0.0097 -0.2062 -1.0434
 2882SOL    HW120105   4.001   0.366  10.977  1.1008 -0.2780  1.7669
 2882SOL    HW220106   4.131   0.292  10.986 -0.3348 -2.1995  0.8748
 2883SOL     OW20107   3.287   1.287  16.533  0.0819  0.8645  0.2926
 2883SOL    HW120108   3.297   1.316  16.442  1.6652  1.9293  0.8048
 2883SOL    HW220109   3.225   1.353  16.566 -0.3110  0.7660 -0.2473
 2884SOL     OW20110   2.656   3.491   4.683 -0.0561  0.1126 -0.8133
 2884SOL    HW120111   2.683   3.574   4.722  1.1772 -0.8479  0.4104
 2884SOL    HW220112   2.694   3.500   4.596 -0.1722 -1.0724 -0.9954
 2885SOL     OW20113   1.020   2.659   6.664 -0.1109 -0.4050 -0.2575
 2885SOL    HW120114   1.100   2.623   6.627  0.9530  0.0747  1.6022
 2885SOL    HW220115   0.982   2.583   6.708  3.0186 -1.4531  0.6431
 2886SOL     OW20116   0.230   2.196   1.564  0.4622 -0.2499  0.4685
 2886SOL    HW120117   0.255   2.105   1.547  0.6305  0.1451 -1.3767
 2886SOL    HW220118   0.153   2.197   1.507  2.3732  0.6000 -2.0911
 2887SOL     OW20119   2.394   3.875   9.935 -0.4502 -0.3053 -0.1067
 2887SOL    HW120120   2.446   3.893  10.013  1.6606  2.0915 -2.0411
 2887SOL    HW220121   2.312   3.921   9.952  1.6906  2.9930  1.2735
 2888SOL     OW20122   1.529   2.071   7.040 -0.2422 -0.4137  0.3065
 2888SOL    HW120123   1.442   2.108   7.056 -0.9972 -2.9057  1.9958
 2888SOL    HW220124   1.509   2.066   6.947  3.5744  0.6687 -0.5799
 2889SOL     OW20125   1.566   1.879   6.816  0.2085 -0.2243 -0.1955
 2889SOL    HW120126   1.639   1.896   6.756 -1.0196  1.1667 -1.2993
 2889SOL    HW220127   1.503   1.842   6.754  0.6863 -0.7910 -0.3510
 2890SOL     OW20128   2.616   4.625   9.011  0.1094 -0.6196  0.1236
 2890SOL    HW120129   2.693   4.569   9.014 -0.2826 -1.2438 -1.5034
 2890SOL    HW220130   2.559   4.566   9.060  0.8168 -1.8048 -0.4890
 2891SOL     OW20131   0.078   3.018   6.115  0.5289  0.5569 -0.0938
 2891SOL    HW120132   0.089   2.999   6.209  3.2805  1.3929 -0.2520
 2891SOL    HW220133   0.013   3.089   6.114  1.0624  1.0011 -3.0247
 2892SOL     OW20134   0.834   3.088  10.992  0.3255 -0.0976 -0.1122
 2892SOL    HW120135   0.913   3.085  11.046  0.7393 -3.5628 -0.9207
 2892SOL    HW220136   0.763   3.055  11.048  0.7316 -0.8822 -0.0563
 2893SOL     OW20137   1.659   2.811   7.099  0.0337  0.0175 -0.4982
 2893SOL    HW120138   1.731   2.869   7.121  1.5567 -1.1008 -2.5137
 2893SOL    HW220139   1.675   2.808   7.004 -0.9554 -0.1175 -0.6617
 2894SOL     OW20140   0.683   1.120  16.221  0.0513  0.4439  0.3956
 2894SOL    HW120141   0.594   1.105  16.253  0.7062  1.2049  2.5461
 2894SOL    HW220142   0.711   1.207  16.250  1.1945 -0.3580  1.7005
 2895SOL     OW20143   1.061   0.510   5.086 -0.4051 -0.4680  0.1873
 2895SOL    HW120144   0.995   0.536   5.151 -1.6702 -3.6011  0.1456
 2895SOL    HW220145   1.065   0.575   5.016  3.8423  0.4596  1.2921
 2896SOL     OW20146   0.570   1.368  10.239 -0.0936 -0.6894 -0.4755
 2896SOL    HW120147   0.596   1.278  10.256 -0.2292 -0.7284 -0.4791
 2896SOL    HW220148   0.632   1.393  10.170 -0.1526 -0.9199 -0.6092
 2897SOL     OW20149   3.155   1.849   4.070 -0.2622 -0.1614  0.0988
 2897SOL    HW120150   3.182   1.939   4.089  0.1680 -0.6323  1.7043
 2897SOL    HW220151   3.191   1.845   3.981 -0.5046  1.9033 -0.0917
 2898SOL     OW20152   4.483   4.403   7.927  0.3018  0.0242  0.0882
 2898SOL    HW120153   4.418   4.417   7.996  0.4301  2.0782 -0.1927
 2898SOL    HW220154   4.435   4.354   7.860 -0.9286  0.5034  0.6189
 2899SOL     OW20155   1.710   4.493  16.494 -0.5939 -0.1661  0.0646
 2899SOL    HW120156   1.799   4.508  16.527 -0.9334  2.3069 -0.0900
 2899SOL    HW220157   1.672   4.580  16.509  0.2814  0.3055 -0.4583
 2900SOL     OW20158   3.598   2.184   2.403 -0.0556 -0.1457 -0.1577
 2900SOL    HW120159   3.609   2.276   2.377  0.4675 -0.5085 -1.1921
 2900SOL    HW220160   3.504   2.168   2.399 -0.2180  0.5944  0.6283
 2901SOL     OW20161   1.316   1.557   3.878  0.1972 -0.6696  0.4658
 2901SOL    HW120162   1.231   1.593   3.852 -0.0500 -1.1377  0.6088
 2901SOL    HW220163   1.308   1.463   3.859  1.7400 -0.5178 -0.8856
 2902SOL     OW20164   4.158   0.701  15.896 -0.7258 -0.4858 -0.2866
 2902SOL    HW120165   4.186   0.727  15.808 -0.1091 -0.4129 -0.0694
 2902SOL    HW220166   4.064   0.716  15.896 -0.4238  1.3356  0.6875
 2903SOL     OW20167   0.621   2.795   6.819 -0.2735 -0.0293 -0.0281
 2903SOL    HW120168   0.633   2.707   6.784  0.1475  0.5051 -1.2056
 2903SOL    HW220169   0.711   2.825   6.810  0.0432 -1.2613 -0.9381
 2904SOL     OW20170   1.518   0.392   4.971  0.4037  0.1910 -0.1554
 2904SOL    HW120171   1.487   0.458   4.910 -2.0191 -1.1738 -0.4027
 2904SOL    HW220172   1.445   0.409   5.030  2.0862 -0.8630  2.2467
 2905SOL     OW20173   2.325   1.928   1.392  0.6461  0.0295  0.5121
 2905SOL    HW120174   2.231   1.946   1.398  1.1180  2.7516 -0.4965
 2905SOL    HW220175   2.328   1.872   1.315  0.1327 -2.5540  2.3456
 2906SOL     OW20176   4.516   2.591   0.415  0.0286 -0.4456  0.6024
 2906SOL    HW120177   4.538   2.539   0.338  1.7683 -0.5209  1.1378
 2906SOL    HW220178   4.589   2.653   0.423  0.2056 -0.8170  1.7977
 2907SOL     OW20179   0.476   2.573  16.860 -1.0386 -0.2322 -0.0355
 2907SOL    HW120180   0.410   2.515  16.897 -1.8186  0.3594 -0.4993
 2907SOL    HW220181   0.528   2.594  16.937 -2.5987 -1.5066  1.3422
 2908SOL     OW20182   4.154   0.543   9.876  0.6176  0.0087 -0.2017
 2908SOL    HW120183   4.227   0.491   9.909  1.6741  0.6997 -1.4302
 2908SOL    HW220184   4.209   0.601   9.823 -0.9041 -1.0077 -2.8884
 2909SOL     OW20185   4.453   2.539   4.073  0.3003 -0.2327 -0.5302
 2909SOL    HW120186   4.374   2.528   4.125 -0.3270 -0.6952 -1.5930
 2909SOL    HW220187   4.460   2.631   4.050 -0.5925  0.2013  0.8885
 2910SOL     OW20188   0.970   1.975   9.764  0.3301  0.4498  0.6346
 2910SOL    HW120189   0.930   1.943   9.844 -0.0902  0.1066  0.2867
 2910SOL    HW220190   0.940   2.065   9.778 -1.0548 -0.1741  1.5755
 2911SOL     OW20191   4.443   2.442   8.419  0.5068  0.4904  0.0198
 2911SOL    HW120192   4.373   2.446   8.354  1.4956  1.1798 -1.0097
 2911SOL    HW220193   4.405   2.478   8.499 -0.9697 -0.2500 -0.3485
 2912SOL     OW20194   3.890   3.096   6.765 -0.1749  0.0034  0.2250
 2912SOL    HW120195   3.928   3.150   6.834  1.6575 -0.3833 -0.5049
 2912SOL    HW220196   3.959   3.084   6.700  0.1684 -0.1802  0.6241
 2913SOL     OW20197   3.294   4.245  13.560  0.2906 -0.9460  0.1283
 2913SOL    HW120198   3.278   4.190  13.637 -1.9892 -1.8476 -1.0131
 2913SOL    HW220199   3.389   4.244  13.548  0.4996 -0.3424  1.6905
 2914SOL     OW20200   2.606   2.478   7.668 -0.6821 -0.0176 -1.0043
 2914SOL    HW120201   2.688   2.526   7.655  0.2885 -1.5346 -0.4395
 2914SOL    HW220202   2.603   2.496   7.762  2.3998  1.5428 -1.1963
 2915SOL     OW20203   2.020   3.230   8.588 -0.6680  0.4103 -0.2936
 2915SOL    HW120204   2.067   3.204   8.667  1.3069  0.6899 -1.3973
 2915SOL    HW220205   1.983   3.146   8.561  0.4775 -0.4713  0.8810
 2916SOL     OW20206   0.102   1.075   3.074  0.3834  0.0631 -0.1273
 2916SOL    HW120207   0.069   1.057   2.986 -0.8029 -3.4507  1.0696
 2916SOL    HW220208   0.122   0.985   3.096 -1.4742 -0.9939 -2.7686
 2917SOL     OW20209   3.713   0.932   8.657 -0.7425  0.2551 -0.2591
 2917SOL    HW120210   3.735   0.948   8.749 -0.3180  2.6417 -0.7934
 2917SOL    HW220211   3.792   0.957   8.610 -0.9443  0.0679 -0.6996
 2918SOL     OW20212   0.934   1.820  14.299  0.6584  0.1042 -0.2398
 2918SOL    HW120213   0.853   1.773  14.277  0.5386  0.4410 -0.5068
 2918SOL    HW220214   0.977   1.750  14.349 -0.1365 -1.3151 -1.5245
 2919SOL     OW20215   4.306   2.901  10.461  0.0285  0.1910 -0.0060
 2919SOL    HW120216   4.311   2.933  10.550  0.1944  1.6086 -0.5286
 2919SOL    HW220217   4.299   2.806  10.474  1.6911  0.6788  4.1826
 2920SOL     OW20218   2.993   3.465   6.249 -0.3439 -0.1817  0.5543
 2920SOL    HW120219   3.065   3.435   6.305  0.1603  1.5925  0.8864
 2920SOL    HW220220   2.926   3.401   6.272 -1.6053  0.9040 -0.0686
 2921SOL     OW20221   1.205   0.558   8.311 -0.2010 -0.1312 -0.2908
 2921SOL    HW120222   1.175   0.553   8.402  0.8658  0.4439  0.0956
 2921SOL    HW220223   1.181   0.474   8.270 -0.7602  0.4159 -1.0940
 2922SOL     OW20224   3.622   1.405   8.071  0.4219  0.0904 -0.1126
 2922SOL    HW120225   3.541   1.450   8.046 -0.1089  1.8994  5.0087
 2922SOL    HW220226   3.643   1.372   7.983  0.5358  0.6858 -0.3099
 2923SOL     OW20227   2.337   4.078   8.901 -0.4358 -0.0565  0.0126
 2923SOL    HW120228   2.337   3.988   8.935 -1.9185  0.1263  0.4785
 2923SOL    HW220229   2.345   4.120   8.987 -0.1607 -2.5351  1.2169
 2924SOL     OW20230   3.469   0.355   3.540 -0.2082  0.2524  0.5385
 2924SOL    HW120231   3.417   0.331   3.464  2.4611 -1.3752 -0.7501
 2924SOL    HW220232   3.546   0.303   3.518 -1.4346 -0.3906 -2.1409
 2925SOL     OW20233   2.546   2.024   1.263 -0.0204 -0.0376 -0.3673
 2925SOL    HW120234   2.467   1.991   1.307  0.1520 -0.1544 -0.1461
 2925SOL    HW220235   2.567   2.088   1.330  1.6052 -3.6421  2.5614
 2926SOL     OW20236   0.654   4.218   5.248 -0.4635  0.4950 -0.5805
 2926SOL    HW120237   0.744   4.213   5.281  0.0784  0.3010 -2.0475
 2926SOL    HW220238   0.644   4.309   5.274 -0.3484  0.5994 -0.8966
 2927SOL     OW20239   0.060   2.723   7.081  0.1884  0.1978 -0.0409
 2927SOL    HW120240   0.075   2.726   6.986 -0.4934 -1.6011 -0.2145
 2927SOL    HW220241   0.124   2.785   7.117  0.4654 -0.9459  1.4141
 2928SOL     OW20242   0.801   2.234   9.011  0.5120 -0.3775  0.0211
 2928SOL    HW120243   0.730   2.201   8.956  1.4589  0.6300 -1.8019
 2928SOL    HW220244   0.825   2.317   8.970 -1.8393 -0.8824 -2.4085
 2929SOL     OW20245   2.520   2.797   8.939 -0.0526 -0.1540  0.2661
 2929SOL    HW120246   2.441   2.847   8.916  0.1037 -0.2082 -0.3936
 2929SOL    HW220247   2.583   2.865   8.963 -1.1352  1.6004 -1.7553
 2930SOL     OW20248   1.450   2.504  16.670  0.7850  0.4315 -0.1889
 2930SOL    HW120249   1.366   2.528  16.630  1.8710  2.4373 -1.2710
 2930SOL    HW220250   1.481   2.586  16.707 -0.9626  0.3835  1.3526
 2931SOL     OW20251   0.248   0.089  17.618 -0.9854 -0.0408  0.1685
 2931SOL    HW120252   0.191   0.109  17.544 -2.3688 -2.2346  0.6437
 2931SOL    HW220253   0.258   0.177  17.656 -0.3214  0.0533 -0.2350
 2932SOL     OW20254   1.603   0.991  11.682  0.4296  0.2071 -0.4771
 2932SOL    HW120255   1.548   0.939  11.623  2.0774  1.0220 -2.6883
 2932SOL    HW220256   1.643   1.044  11.613 -1.5564 -2.1446 -3.4262
 2933SOL     OW20257   2.299   4.601   5.387  0.0191 -0.1985  0.2282
 2933SOL    HW120258   2.282   4.643   5.471 -1.2397  0.8089 -0.5296
 2933SOL    HW220259   2.302   4.507   5.405 -0.6738  0.0850  1.7635
 2934SOL     OW20260   1.111   1.261   1.045  0.6268 -0.1140 -0.1241
 2934SOL    HW120261   1.187   1.256   0.987  1.1698  3.2864  0.3298
 2934SOL    HW220262   1.093   1.354   1.057 -0.8297 -0.0505 -2.6650
 2935SOL     OW20263   3.413   4.364  15.487  0.0843  0.3334  0.8075
 2935SOL    HW120264   3.343   4.307  15.518 -1.9125  3.0667  1.3044
 2935SOL    HW220265   3.445   4.402  15.568  1.7282  1.2653 -0.2713
 2936SOL     OW20266   4.228   1.456  11.291  1.0758 -0.3757  0.3346
 2936SOL    HW120267   4.199   1.371  11.324  0.7042 -0.5487 -0.4402
 2936SOL    HW220268   4.182   1.513  11.352  0.1073 -1.0263  0.2152
 2937SOL     OW20269   2.014   4.240  10.012 -0.0799 -0.2256 -0.8916
 2937SOL    HW120270   1.947   4.305  10.030  1.9627  1.3169  1.1081
 2937SOL    HW220271   2.082   4.296   9.973 -2.7731  3.2573 -0.5896
 2938SOL     OW20272   0.446   3.182   6.561 -0.7590  0.2765  0.6192
 2938SOL    HW120273   0.442   3.163   6.467 -0.2470  0.9219  0.4630
 2938SOL    HW220274   0.476   3.095   6.588 -0.1510  0.3058  0.0551
 2939SOL     OW20275   0.097   4.490   0.309 -0.4086 -0.7970 -0.1658
 2939SOL    HW120276   0.147   4.551   0.253 -0.9568 -1.7289 -1.6843
 2939SOL    HW220277   0.173   4.434   0.324 -1.5757 -1.9648  1.3318
 2940SOL     OW20278   4.550   2.754   4.435  0.1240 -0.0829 -0.0653
 2940SOL    HW120279   4.507   2.670   4.447 -0.0615  0.6727  4.5617
 2940SOL    HW220280   4.635   2.731   4.399  0.5713  0.4406  0.6632
 2941SOL     OW20281   2.134   2.564  11.795  0.2479 -0.3605 -0.1674
 2941SOL    HW120282   2.153   2.475  11.826  0.0365  0.3775  2.0181
 2941SOL    HW220283   2.042   2.544  11.779  0.3346 -2.6089  2.2088
 2942SOL     OW20284   4.431   3.199   7.569 -0.5610 -0.0250 -0.3024
 2942SOL    HW120285   4.420   3.279   7.518 -1.1419  1.2352  1.8028
 2942SOL    HW220286   4.442   3.244   7.653  1.0879  0.9432 -1.0363
 2943SOL     OW20287   0.575   1.093   2.889 -0.4507 -0.3103  0.7871
 2943SOL    HW120288   0.613   1.156   2.828 -2.3060  3.2702  3.3095
 2943SOL    HW220289   0.483   1.122   2.891  0.2179  1.9464 -1.7492
 2944SOL     OW20290   4.014   1.133   9.304 -0.6489 -0.3114  0.1582
 2944SOL    HW120291   4.109   1.118   9.306 -0.9151 -2.4989 -3.2862
 2944SOL    HW220292   3.990   1.086   9.383 -0.4911  1.3092  1.1837
 2945SOL     OW20293   2.742   4.265  12.981 -0.1407  0.3199  0.1877
 2945SOL    HW120294   2.825   4.239  13.021  0.3688  2.1825  0.3649
 2945SOL    HW220295   2.685   4.191  13.001 -0.0855  0.3991  0.6524
 2946SOL     OW20296   4.514   2.399   0.604 -0.5897 -0.0631  0.2041
 2946SOL    HW120297   4.482   2.394   0.514  3.1133 -2.1453 -0.9713
 2946SOL    HW220298   4.549   2.488   0.611  0.7447 -0.6658  1.1993
 2947SOL     OW20299   3.213   1.952   4.516  0.8337 -0.4708 -0.0912
 2947SOL    HW120300   3.247   1.866   4.540  1.6692  0.0925  0.7180
 2947SOL    HW220301   3.177   1.976   4.602 -1.6351 -0.5775 -1.0959
 2948SOL     OW20302   0.106   3.267   9.183 -0.0877 -0.1970 -0.1252
 2948SOL    HW120303   0.090   3.195   9.122  3.7412 -0.5278 -0.7364
 2948SOL    HW220304   0.025   3.267   9.234 -0.7573  0.6741 -1.2176
 2949SOL     OW20305   0.271   2.263  10.188 -0.5615 -0.2827 -0.5566
 2949SOL    HW120306   0.228   2.187  10.229  1.1974 -1.1811 -0.3533
 2949SOL    HW220307   0.246   2.342  10.236  1.8535  0.4996 -0.5881
 2950SOL     OW20308   4.423   1.605   5.587 -0.2577 -0.4209 -0.2410
 2950SOL    HW120309   4.486   1.661   5.632  1.1845 -2.0985 -0.1945
 2950SOL    HW220310   4.448   1.514   5.602 -0.8423 -0.7059 -0.9678
 2951SOL     OW20311   3.566   1.240  13.917 -0.6245 -0.3279 -0.1050
 2951SOL    HW120312   3.526   1.253  13.831  3.9952 -1.6155 -2.4515
 2951SOL    HW220313   3.489   1.199  13.958  0.6835 -0.8927  1.7944
 2952SOL     OW20314   2.249   2.963   6.426 -0.3795  0.2438  0.1419
 2952SOL    HW120315   2.325   2.926   6.382 -0.5287  2.4691 -1.9685
 2952SOL    HW220316   2.246   3.048   6.382 -1.5658  1.0621  1.7987
 2953SOL     OW20317   1.873   3.460   8.591  0.2990 -0.3096  0.5232
 2953SOL    HW120318   1.940   3.392   8.596 -1.1128 -1.8091 -1.3546
 2953SOL    HW220319   1.799   3.404   8.569  0.7615 -0.6937 -0.0499
 2954SOL     OW20320   1.848   0.029  10.126  0.2934 -0.3167 -0.4250
 2954SOL    HW120321   1.942   0.034  10.141  0.5711  1.7939 -2.8857
 2954SOL    HW220322   1.820   0.083  10.201  0.6292 -2.7570  1.4498
 2955SOL     OW20323   4.362   3.129  10.281  0.2324  0.2061  0.2724
 2955SOL    HW120324   4.295   3.190  10.310 -1.1599 -1.3445  0.3142
 2955SOL    HW220325   4.313   3.050  10.259 -1.8201  1.1922  1.3798
 2956SOL     OW20326   0.116   0.939   8.689 -0.4990 -0.7097 -0.1715
 2956SOL    HW120327   0.209   0.929   8.668 -0.2366  0.0022  0.6609
 2956SOL    HW220328   0.081   0.910   8.605 -0.8741  1.9977 -0.9472
 2957SOL     OW20329   4.712   2.829   5.268  0.7357  0.5721  0.2516
 2957SOL    HW120330   0.074   2.784   5.272  0.5893  0.5250  2.6748
 2957SOL    HW220331   4.674   2.799   5.351  1.9390 -0.1049  0.5536
 2958SOL     OW20332   4.076   3.666   9.535  0.4398  0.4026 -0.1998
 2958SOL    HW120333   4.001   3.608   9.521  0.5742  0.3187 -0.5802
 2958SOL    HW220334   4.039   3.754   9.532  2.9698  1.4990  0.7712
 2959SOL     OW20335   2.050   0.967   2.418 -0.0385 -0.2659  0.1877
 2959SOL    HW120336   2.060   1.058   2.444  1.4377 -0.6426  0.9555
 2959SOL    HW220337   2.117   0.924   2.471  0.3142  1.1874  0.9309
 2960SOL     OW20338   0.920   3.969  17.133  0.3445  0.2841 -0.0708
 2960SOL    HW120339   0.873   3.917  17.067  1.0241 -0.6397  0.1833
 2960SOL    HW220340   0.870   4.050  17.128  0.1004  0.0461 -1.5631
 2961SOL     OW20341   1.821   2.327   2.683 -0.5312 -0.1133 -0.3420
 2961SOL    HW120342   1.875   2.322   2.604 -0.3389 -0.7814 -0.1781
 2961SOL    HW220343   1.734   2.335   2.644 -2.0958  0.5842  3.2982
 2962SOL     OW20344   0.498   3.634   5.333 -0.2997 -0.5717  0.2480
 2962SOL    HW120345   0.508   3.728   5.351  0.3490 -0.6976  0.5686
 2962SOL    HW220346   0.584   3.631   5.291  0.5809  2.2148  1.7926
 2963SOL     OW20347   3.683   1.419  10.011 -0.3984 -0.1402  0.0982
 2963SOL    HW120348   3.635   1.425   9.929 -2.1832 -1.7516  1.0349
 2963SOL    HW220349   3.684   1.324  10.013  2.5646 -0.1447 -0.5370
 2964SOL     OW20350   0.892   1.628  11.551  0.0393 -0.3982 -0.0363
 2964SOL    HW120351   0.932   1.540  11.551 -1.6062 -1.1476  1.3293
 2964SOL    HW220352   0.799   1.606  11.555  0.6259 -3.5522 -3.1225
 2965SOL     OW20353   1.781   1.139   9.833  0.7537  0.0400 -0.3152
 2965SOL    HW120354   1.727   1.197   9.780  1.6750 -0.5651 -1.9549
 2965SOL    HW220355   1.814   1.200   9.899  0.0942 -1.1433  1.1088
 2966SOL     OW20356   3.231   0.385  11.708 -0.3986  0.1546 -0.6753
 2966SOL    HW120357   3.308   0.374  11.764 -2.1242  2.7308  2.2123
 2966SOL    HW220358   3.195   0.468  11.739 -0.2474 -0.1658  0.3681
 2967SOL     OW20359   1.065   3.047  11.660 -0.6224  0.2669 -0.4745
 2967SOL    HW120360   1.011   3.108  11.610  1.4586  1.5393 -1.1482
 2967SOL    HW220361   1.135   3.041  11.595 -0.5861  3.3445 -0.7258
 2968SOL     OW20362   3.522   1.227   4.680  0.3518  0.0578  0.3537
 2968SOL    HW120363   3.613   1.199   4.685  0.3138  0.1645  1.5753
 2968SOL    HW220364   3.474   1.160   4.729 -1.5696 -0.0310 -1.6306
 2969SOL     OW20365   4.289   1.450   3.727  0.1238 -0.4848  0.0209
 2969SOL    HW120366   4.346   1.414   3.795 -0.8467 -0.1137  1.0220
 2969SOL    HW220367   4.201   1.432   3.761  0.0667  0.8799  0.5628
 2970SOL     OW20368   0.147   1.432   7.613  0.0348  0.8027 -0.3992
 2970SOL    HW120369   0.102   1.375   7.550  1.9399 -2.3593  1.0953
 2970SOL    HW220370   0.092   1.510   7.607  0.3485  1.1176  0.8832
 2971SOL     OW20371   0.525   2.562  17.116  0.0325 -0.4980  0.1317
 2971SOL    HW120372   0.469   2.501  17.164  0.3800  0.8527  2.2844
 2971SOL    HW220373   0.576   2.597  17.190 -1.4266  0.2917  0.7819
 2972SOL     OW20374   4.446   3.486   8.338 -0.2308  0.4973  0.3679
 2972SOL    HW120375   4.397   3.456   8.262  0.2674 -0.8131  0.5555
 2972SOL    HW220376   4.434   3.580   8.327  1.9084  0.5575 -1.4003
 2973SOL     OW20377   4.158   2.325   3.527  0.0106 -0.2062  0.3290
 2973SOL    HW120378   4.087   2.375   3.488  1.1259  0.5329 -0.7353
 2973SOL    HW220379   4.235   2.347   3.475 -0.2928  1.7149  0.6948
 2974SOL     OW20380   3.991   2.987  11.996  0.1913  0.8545 -0.5525
 2974SOL    HW120381   4.008   3.019  12.084  2.5913 -0.2325 -0.6199
 2974SOL    HW220382   3.917   3.040  11.966 -1.9943 -1.8859  0.0314
 2975SOL     OW20383   2.139   4.044  10.623 -0.8555  0.2852  0.1792
 2975SOL    HW120384   2.077   4.097  10.673  0.3631  0.7328  1.2165
 2975SOL    HW220385   2.119   4.066  10.532 -0.3980 -0.6090 -0.1414
 2976SOL     OW20386   3.359   0.316   5.042 -0.1962  0.4067 -0.0941
 2976SOL    HW120387   3.275   0.345   5.006  0.0995  1.4290  0.0242
 2976SOL    HW220388   3.356   0.365   5.124  2.8660  0.7967 -0.2084
 2977SOL     OW20389   0.294   0.877  16.307 -0.0238 -0.4379  0.0510
 2977SOL    HW120390   0.206   0.910  16.325 -0.6784 -1.8194 -0.6635
 2977SOL    HW220391   0.298   0.869  16.212  1.8128  2.6041 -0.1448
 2978SOL     OW20392   2.975   3.011   5.514 -0.1868  0.2526 -0.4338
 2978SOL    HW120393   2.998   2.952   5.586  0.4522  0.1726 -0.7081
 2978SOL    HW220394   2.983   2.952   5.440  1.7964  1.7045 -1.3991
 2979SOL     OW20395   0.506   1.768  12.459  0.9985  0.1793 -0.1925
 2979SOL    HW120396   0.431   1.818  12.491  1.2675  0.4790 -0.0256
 2979SOL    HW220397   0.499   1.791  12.366 -0.1159 -2.6372 -0.8055
 2980SOL     OW20398   1.185   0.834   1.371  0.5292 -0.0600 -0.6106
 2980SOL    HW120399   1.158   0.896   1.304  1.4780  3.1870  2.0415
 2980SOL    HW220400   1.272   0.810   1.337  0.8158 -0.8332  0.6548
 2981SOL     OW20401   2.426   1.820   6.448 -0.5248 -0.5050 -0.0410
 2981SOL    HW120402   2.487   1.797   6.518 -1.2475  0.4830  0.9040
 2981SOL    HW220403   2.404   1.903   6.490 -0.8926  0.0465 -1.3160
 2982SOL     OW20404   1.138   3.187  14.654 -0.6142 -0.4361  0.2935
 2982SOL    HW120405   1.169   3.198  14.744 -0.4367 -0.1381  0.1941
 2982SOL    HW220406   1.120   3.094  14.668  0.0870 -0.5517  0.4404
 2983SOL     OW20407   3.101   2.974   3.878 -0.3085  0.0340 -0.1196
 2983SOL    HW120408   3.131   2.942   3.793  0.6532  0.2154  0.1573
 2983SOL    HW220409   3.096   2.896   3.932 -0.9243 -0.5919 -1.0762
 2984SOL     OW20410   3.196   1.617   4.239  0.0056  0.2332  0.4707
 2984SOL    HW120411   3.266   1.651   4.295 -0.4668 -1.2871  1.9841
 2984SOL    HW220412   3.162   1.692   4.190  2.0231  0.3755 -0.6671
 2985SOL     OW20413   3.867   0.609  15.174 -0.0043 -0.2256 -0.6146
 2985SOL    HW120414   3.933   0.659  15.222  1.0554 -1.7114 -0.5292
 2985SOL    HW220415   3.918   0.542  15.130 -1.3578 -0.8077 -1.2992
 2986SOL     OW20416   2.878   2.827   9.000  0.5453 -0.4091  0.0342
 2986SOL    HW120417   2.827   2.747   9.015  0.1830 -0.3441 -0.8325
 2986SOL    HW220418   2.819   2.898   9.025  0.8553 -0.0539 -0.2301
 2987SOL     OW20419   1.222   0.033   7.819 -0.1623  0.6807 -0.4516
 2987SOL    HW120420   1.154   4.711   7.870  1.4100  0.6530  1.6496
 2987SOL    HW220421   1.262   0.088   7.887 -0.0948 -1.9282  1.6533
 2988SOL     OW20422   2.565   0.636  11.044  0.0928 -0.2583 -0.0062
 2988SOL    HW120423   2.539   0.607  10.957  0.1167  0.8514 -0.3826
 2988SOL    HW220424   2.639   0.576  11.056  0.7585  0.2623 -1.4285
 2989SOL     OW20425   3.210   2.433   1.661  0.5137  0.1852 -0.3210
 2989SOL    HW120426   3.226   2.341   1.682  1.5126  0.3721 -0.2590
 2989SOL    HW220427   3.214   2.436   1.565 -2.0901 -0.2281 -0.4471
 2990SOL     OW20428   1.695   3.935   9.391  0.2812  0.4466 -0.7486
 2990SOL    HW120429   1.644   3.879   9.333 -0.3071 -1.1011  1.3012
 2990SOL    HW220430   1.631   3.944   9.462  1.5141 -1.3393  0.5719
 2991SOL     OW20431   0.414   2.448  10.933 -0.1065  0.4274  0.0026
 2991SOL    HW120432   0.486   2.397  10.969  0.0299  0.5824 -0.0485
 2991SOL    HW220433   0.434   2.451  10.840 -0.7318 -0.3202 -0.1498
 2992SOL     OW20434   0.642   4.546   7.112 -0.0378  0.2893  0.1955
 2992SOL    HW120435   0.665   4.635   7.085  3.0277 -0.3855  0.5036
 2992SOL    HW220436   0.562   4.531   7.062  0.2692 -0.5616 -0.0310
 2993SOL     OW20437   3.734   1.154   9.980 -0.3119  0.1192  0.5167
 2993SOL    HW120438   3.820   1.116   9.965 -0.3454  0.6774 -1.1226
 2993SOL    HW220439   3.708   1.101  10.055  0.3471 -0.4748  0.3294
 2994SOL     OW20440   2.212   2.055  12.609  0.4218  0.2197 -0.0206
 2994SOL    HW120441   2.168   2.100  12.681 -2.1097  1.8368 -2.6013
 2994SOL    HW220442   2.302   2.084  12.620  0.4323 -0.0216  0.5737
 2995SOL     OW20443   2.776   3.270  15.975  0.1896  0.2208  0.0522
 2995SOL    HW120444   2.702   3.209  15.969  1.1492 -0.8071 -1.1981
 2995SOL    HW220445   2.846   3.206  15.971 -1.4960 -1.7518  2.1788
 2996SOL     OW20446   0.266   4.400  12.148 -0.0242  0.5011  0.2339
 2996SOL    HW120447   0.264   4.309  12.118  2.3191  0.6115 -0.2486
 2996SOL    HW220448   0.247   4.386  12.241 -3.1695 -2.1709 -0.8185
 2997SOL     OW20449   0.214   1.282   1.132 -0.1109  0.1350  0.4236
 2997SOL    HW120450   0.230   1.224   1.057  0.5515  1.4499 -0.4393
 2997SOL    HW220451   0.197   1.359   1.078  1.6799 -1.4378 -2.4125
 2998SOL     OW20452   2.075   2.414   6.018 -0.4210  0.0294 -0.1170
 2998SOL    HW120453   2.170   2.415   6.019 -0.3546  1.4059 -4.9000
 2998SOL    HW220454   2.059   2.508   6.025  0.9359  0.3598 -1.5671
 2999SOL     OW20455   0.499   1.286   4.194 -0.6646 -0.4823  0.0367
 2999SOL    HW120456   0.577   1.280   4.249 -1.1438  0.4688  0.8167
 2999SOL    HW220457   0.527   1.363   4.144  0.0236  0.1566  1.3961
 3000SOL     OW20458   1.692   4.531   1.498 -0.1237 -0.3710 -0.2077
 3000SOL    HW120459   1.772   4.567   1.460  0.6248 -1.1028  0.6626
 3000SOL    HW220460   1.646   4.518   1.415 -2.8230  0.6861  1.1450
 3001SOL     OW20461   4.576   1.743   7.773 -0.7046  0.5632 -0.1201
 3001SOL    HW120462   4.586   1.730   7.867 -2.6111  1.7508  0.2469
 3001SOL    HW220463   4.606   1.833   7.765 -0.5740  0.6630  1.4664
 3002SOL     OW20464   4.527   0.148  14.108  0.3480  0.5402  0.3100
 3002SOL    HW120465   4.432   0.154  14.118  0.2379 -0.2747 -0.2330
 3002SOL    HW220466   4.516   0.103  14.024 -1.4523 -0.0029  0.8500
 3003SOL     OW20467   0.860   4.701   6.475 -0.0418  0.2061  0.0906
 3003SOL    HW120468   0.945   0.022   6.481  0.3484 -0.4314 -0.9383
 3003SOL    HW220469   0.881   4.610   6.494 -1.3005 -0.0773  0.1208
 3004SOL     OW20470   3.284   2.025  16.355  0.1242 -0.3638  0.1301
 3004SOL    HW120471   3.305   1.987  16.270  0.7666  0.5142 -0.0982
 3004SOL    HW220472   3.357   1.999  16.411 -0.5753 -0.4493  1.0065
 3005SOL     OW20473   4.499   0.364   4.854  0.1584 -0.5970  0.2998
 3005SOL    HW120474   4.557   0.425   4.809  1.3495 -0.2171  2.3724
 3005SOL    HW220475   4.439   0.436   4.873  0.7154 -0.3242  1.0173
 3006SOL     OW20476   1.039   1.183  16.150 -0.8768  0.0130  0.2707
 3006SOL    HW120477   0.985   1.260  16.132  1.0056  1.2662 -0.1211
 3006SOL    HW220478   0.972   1.116  16.159  0.1869 -1.3599 -2.1077
 3007SOL     OW20479   4.059   1.621   1.305 -0.2044 -0.6233 -0.3188
 3007SOL    HW120480   4.152   1.632   1.286 -0.5078 -0.4495 -1.6933
 3007SOL    HW220481   4.042   1.535   1.268 -1.6599 -0.3608 -0.2628
 3008SOL     OW20482   3.729   3.049   7.600 -0.3711 -0.2372 -0.3045
 3008SOL    HW120483   3.731   3.109   7.526 -0.4481 -1.3213 -1.1978
 3008SOL    HW220484   3.816   3.064   7.637 -0.8550  2.8785 -0.4304
 3009SOL     OW20485   0.028   0.682   6.045  0.1508  0.4259 -0.3671
 3009SOL    HW120486   0.050   0.725   5.962  0.4785  0.8954 -0.0338
 3009SOL    HW220487   0.113   0.673   6.088 -1.1373 -2.1540  1.5957
 3010SOL     OW20488   3.558   4.512  15.682  0.5186  0.0776  0.4714
 3010SOL    HW120489   3.588   4.594  15.722  0.0836  0.8815 -0.8382
 3010SOL    HW220490   3.642   4.471  15.665  0.5985  0.2050  0.5596
 3011SOL     OW20491   0.047   4.640   2.210 -0.2881  0.1451 -0.4923
 3011SOL    HW120492   4.697   4.578   2.210 -0.7848  0.7569  2.4788
 3011SOL    HW220493   0.030   4.672   2.121 -2.4714 -0.3838 -0.2508
 3012SOL     OW20494   4.126   3.742   9.972  0.5240  0.3049 -0.3299
 3012SOL    HW120495   4.066   3.677   9.935  0.8845 -0.6703  0.7953
 3012SOL    HW220496   4.090   3.821   9.932  1.6064  1.0248  0.1228
 3013SOL     OW20497   3.479   3.536   1.257 -0.4015  0.0456  0.6550
 3013SOL    HW120498   3.411   3.485   1.301  1.0474 -1.7825  0.7954
 3013SOL    HW220499   3.556   3.482   1.277 -0.4250 -1.2840 -2.9180
 3014SOL     OW20500   1.880   4.715   4.623 -0.0633  0.2070  0.3864
 3014SOL    HW120501   1.855   0.014   4.534 -0.6513  1.8436  0.9514
 3014SOL    HW220502   1.894   4.620   4.622 -1.4732  0.0010 -0.2092
 3015SOL     OW20503   1.549   1.364   7.323  0.1229 -0.3794  0.1417
 3015SOL    HW120504   1.618   1.386   7.260  0.8114  1.4695  1.5512
 3015SOL    HW220505   1.571   1.394   7.411  0.5283  2.5613 -0.9544
 3016SOL     OW20506   4.260   1.391  10.879  0.5018 -0.1120 -0.4289
 3016SOL    HW120507   4.263   1.471  10.932  1.4476 -0.7068  0.4100
 3016SOL    HW220508   4.279   1.424  10.791  0.2605 -1.5593 -1.0127
 3017SOL     OW20509   0.739   0.391   2.109 -0.1246  0.5433 -0.0359
 3017SOL    HW120510   0.663   0.403   2.052 -0.5564  3.1275  1.0568
 3017SOL    HW220511   0.691   0.366   2.187 -0.2966 -0.4292 -0.4575
 3018SOL     OW20512   2.704   4.066   3.423 -0.4847 -0.1353 -0.3635
 3018SOL    HW120513   2.687   4.091   3.513 -0.9697  1.5527 -0.9192
 3018SOL    HW220514   2.683   4.148   3.379  0.5893  0.4755  0.2723
 3019SOL     OW20515   4.218   3.947  11.686 -0.3196 -1.0563 -0.2907
 3019SOL    HW120516   4.157   3.956  11.613 -0.3303 -0.3524 -0.1926
 3019SOL    HW220517   4.188   4.004  11.757 -0.3956 -1.8436  0.3039
 3020SOL     OW20518   4.328   3.522   6.118  0.4699 -0.6326  0.2416
 3020SOL    HW120519   4.258   3.515   6.184 -1.0341 -0.3039 -1.3106
 3020SOL    HW220520   4.329   3.617   6.106 -0.6166 -0.3874  1.9766
 3021SOL     OW20521   1.200   2.635  16.706  0.0446 -0.5690 -0.4325
 3021SOL    HW120522   1.188   2.729  16.691  1.1985 -0.3303  0.1399
 3021SOL    HW220523   1.191   2.638  16.801 -0.2299 -1.4156 -0.4388
 3022SOL     OW20524   0.867   2.484   2.661  0.5860  0.8126  0.2689
 3022SOL    HW120525   0.846   2.567   2.618  1.1879  0.9079  0.1569
 3022SOL    HW220526   0.896   2.425   2.592  0.4060  0.3343  0.6063
 3023SOL     OW20527   3.033   4.364  16.135 -0.1456  0.5191  0.9506
 3023SOL    HW120528   3.057   4.386  16.045 -0.4514 -1.4635  0.3856
 3023SOL    HW220529   2.950   4.410  16.150 -2.1552 -2.7583 -0.0732
 3024SOL     OW20530   3.720   3.666   1.982  0.6601  0.6195  0.3153
 3024SOL    HW120531   3.682   3.710   1.906  0.7983 -1.5829 -1.0236
 3024SOL    HW220532   3.672   3.584   1.987  1.2666  0.3097  1.0875
 3025SOL     OW20533   1.027   4.231   9.164  0.0364  0.0529  0.8454
 3025SOL    HW120534   0.986   4.230   9.251 -1.7818  1.0959 -0.0226
 3025SOL    HW220535   1.098   4.293   9.183 -0.3112  0.7728 -0.2646
 3026SOL     OW20536   3.867   0.442   0.872 -0.2257 -0.0886  0.1161
 3026SOL    HW120537   3.895   0.520   0.823 -0.1907 -0.0534  0.1911
 3026SOL    HW220538   3.946   0.409   0.915 -1.1078 -1.8225  0.3655
 3027SOL     OW20539   0.488   3.561   2.099 -0.2949  0.2072  0.3979
 3027SOL    HW120540   0.415   3.539   2.041  2.0169 -0.1335 -2.4389
 3027SOL    HW220541   0.567   3.549   2.045 -0.2956 -1.4058  0.7502
 3028SOL     OW20542   3.460   0.538   6.088  0.0925 -0.1905  0.0575
 3028SOL    HW120543   3.459   0.629   6.116  1.2620  0.3906 -1.8476
 3028SOL    HW220544   3.447   0.487   6.169 -0.2381  1.1182  0.8301
 3029SOL     OW20545   4.187   1.342   2.784 -0.7906  0.0203 -0.4122
 3029SOL    HW120546   4.252   1.282   2.749 -0.3287  1.2740 -1.7128
 3029SOL    HW220547   4.172   1.413   2.722 -1.5457 -1.0520 -1.4388
 3030SOL     OW20548   0.023   4.018   6.539  0.9325  0.9782 -0.0924
 3030SOL    HW120549   4.693   3.988   6.613  1.6798 -1.2483 -0.4617
 3030SOL    HW220550   0.049   3.931   6.508 -1.5025  0.7125 -1.3147
 3031SOL     OW20551   0.030   3.852   3.878 -0.8955  0.4254  0.5769
 3031SOL    HW120552   0.075   3.781   3.833 -0.7925 -0.7397  2.5192
 3031SOL    HW220553   0.092   3.923   3.862  1.0193 -1.4832 -0.4662
 3032SOL     OW20554   0.401   4.450   1.597  0.7656  0.7311  0.0031
 3032SOL    HW120555   0.425   4.505   1.672 -0.6337  0.8466  0.3694
 3032SOL    HW220556   0.485   4.448   1.550  1.2897 -0.1496  0.9883
 3033SOL     OW20557   2.985   2.367   4.675 -0.1656 -0.2061 -0.5274
 3033SOL    HW120558   2.921   2.348   4.607  2.2113  1.4907 -3.2498
 3033SOL    HW220559   3.010   2.458   4.657  2.4486 -0.7204  0.4324
 3034SOL     OW20560   0.418   2.094   9.944 -0.3498  0.1615  0.6589
 3034SOL    HW120561   0.420   2.126  10.034  2.1758 -1.1872  1.0655
 3034SOL    HW220562   0.505   2.114   9.910 -1.4134  0.1565 -2.0331
 3035SOL     OW20563   1.819   3.353  13.026  0.3655  0.3811 -0.2757
 3035SOL    HW120564   1.906   3.345  13.066 -0.8166  0.3160  2.2979
 3035SOL    HW220565   1.795   3.433  13.073  2.4506  0.2960  0.9186
 3036SOL     OW20566   3.039   2.092   5.813  0.4188  0.0396  0.3501
 3036SOL    HW120567   3.012   2.065   5.901 -1.0566  0.1128 -0.0816
 3036SOL    HW220568   3.085   2.014   5.783 -0.5292 -0.4546  0.1902
 3037SOL     OW20569   1.123   3.636   4.726  0.4876  0.1194 -0.3270
 3037SOL    HW120570   1.124   3.557   4.780  0.3860  1.0098  0.9571
 3037SOL    HW220571   1.065   3.609   4.654  1.8182 -0.4568 -1.1894
 3038SOL     OW20572   1.601   3.910   5.981 -1.0044 -0.1216  0.4205
 3038SOL    HW120573   1.578   3.982   6.039  1.9848  1.7061 -0.6621
 3038SOL    HW220574   1.545   3.937   5.908  1.3269  3.3702 -0.0565
 3039SOL     OW20575   3.540   3.567   9.420  0.2713  0.1427 -0.4521
 3039SOL    HW120576   3.590   3.525   9.351  0.2138 -3.4055  1.6898
 3039SOL    HW220577   3.541   3.650   9.372 -1.8229  0.4352 -0.0096
 3040SOL     OW20578   1.515   1.362   1.250 -0.3025  0.4908 -0.2473
 3040SOL    HW120579   1.569   1.333   1.176  0.8218  0.7870  0.4655
 3040SOL    HW220580   1.459   1.424   1.202 -1.4004  0.4761  1.0131
 3041SOL     OW20581   0.731   0.346  11.439 -0.3338  0.5943 -0.0349
 3041SOL    HW120582   0.695   0.261  11.465  1.0503 -0.1498 -0.5610
 3041SOL    HW220583   0.816   0.333  11.483 -0.8374 -0.5296  0.6042
 3042SOL     OW20584   4.325   4.173   4.920  0.1930  0.1585 -0.3018
 3042SOL    HW120585   4.291   4.246   4.869 -1.9164  0.1345  1.0936
 3042SOL    HW220586   4.411   4.211   4.939  0.2581  1.3039 -2.9523
 3043SOL     OW20587   2.436   4.699   4.001 -0.6421 -0.0947 -0.0926
 3043SOL    HW120588   2.489   0.037   4.053  0.2916 -0.7701 -0.2519
 3043SOL    HW220589   2.386   0.036   3.946 -0.5862 -0.4981 -0.5926
 3044SOL     OW20590   2.431   1.090   5.182  0.3634 -0.0667 -0.0849
 3044SOL    HW120591   2.465   1.024   5.242  2.6781  0.4938 -0.7828
 3044SOL    HW220592   2.359   1.044   5.139  0.7125 -0.3857 -0.3245
 3045SOL     OW20593   4.173   4.403   2.859 -0.2050 -0.2895 -0.9482
 3045SOL    HW120594   4.187   4.447   2.775  0.4741  2.3474  0.5664
 3045SOL    HW220595   4.227   4.467   2.905 -1.0019 -0.1235 -0.2425
 3046SOL     OW20596   3.614   4.411   8.571 -0.1174 -0.2359  0.1974
 3046SOL    HW120597   3.582   4.497   8.600 -1.2485 -0.5143 -0.2569
 3046SOL    HW220598   3.623   4.366   8.655  0.1633 -1.0847 -0.2960
 3047SOL     OW20599   2.665   1.328   6.446 -0.6484  0.1769 -0.0192
 3047SOL    HW120600   2.595   1.306   6.385  1.0489 -0.6704 -1.6656
 3047SOL    HW220601   2.631   1.279   6.521 -1.9965 -1.1416 -1.4574
 3048SOL     OW20602   4.707   0.340  12.075  0.0470  0.2246 -0.4018
 3048SOL    HW120603   4.698   0.251  12.107  1.4924  0.6490  1.2243
 3048SOL    HW220604   4.631   0.382  12.116  0.8570  0.9747  0.3332
 3049SOL     OW20605   3.864   4.688   8.891  0.1390  0.3362 -0.4099
 3049SOL    HW120606   3.777   0.006   8.898  1.4096  3.1762 -1.0948
 3049SOL    HW220607   3.898   4.721   8.808  0.3036  0.9590 -0.0929
 3050SOL     OW20608   0.032   2.257   0.686  0.6572 -0.3996  0.2123
 3050SOL    HW120609   0.082   2.213   0.617  0.5237 -0.1544 -0.0434
 3050SOL    HW220610   4.679   2.294   0.640  0.0537 -0.2139  1.3749
 3051SOL     OW20611   2.110   3.113  13.478 -0.1899  0.6386 -0.2986
 3051SOL    HW120612   2.133   3.205  13.491 -1.8441  1.3075 -1.9658
 3051SOL    HW220613   2.187   3.060  13.499 -2.3112 -1.7118  1.5055
 3052SOL     OW20614   3.876   1.945   3.740  0.3687  0.0738  0.0625
 3052SOL    HW120615   3.866   2.029   3.696  0.6853  0.7801  1.3610
 3052SOL    HW220616   3.971   1.938   3.742  0.3773 -0.5730 -1.8811
 3053SOL     OW20617   1.783   2.373   6.943  0.5603  0.6169  0.6576
 3053SOL    HW120618   1.704   2.359   6.996  1.0972 -2.0033  0.7997
 3053SOL    HW220619   1.745   2.368   6.856  0.5393 -0.7379  0.7377
 3054SOL     OW20620   0.639   3.060   2.277 -0.3304 -0.9001  0.1140
 3054SOL    HW120621   0.728   3.072   2.310 -0.1247 -1.0950 -0.3599
 3054SOL    HW220622   0.631   3.134   2.216  1.0919 -0.4362  0.5040
 3055SOL     OW20623   2.313   2.524  17.388  0.4943  0.2296 -0.0109
 3055SOL    HW120624   2.315   2.619  17.398  3.5119  0.1188  0.3913
 3055SOL    HW220625   2.256   2.508  17.312 -0.1506  2.5760 -0.0114
 3056SOL     OW20626   3.787   0.390  15.330  0.1791  0.1555 -0.0126
 3056SOL    HW120627   3.865   0.426  15.374 -0.4531  1.8417 -0.2745
 3056SOL    HW220628   3.781   0.446  15.253 -3.2575 -0.1969 -0.0028
 3057SOL     OW20629   4.562   0.500   5.508  0.3642 -0.5269 -0.0503
 3057SOL    HW120630   4.529   0.436   5.571 -1.7985 -1.3699 -2.0326
 3057SOL    HW220631   4.562   0.459   5.422 -2.7578 -0.5141 -0.0577
 3058SOL     OW20632   3.495   2.327   8.170 -0.2806  0.7683  0.3335
 3058SOL    HW120633   3.562   2.357   8.232  0.7354 -0.3074 -0.2454
 3058SOL    HW220634   3.413   2.329   8.219 -2.2540  0.0480 -3.0078
 3059SOL     OW20635   2.902   0.503   1.482  0.2755  0.4458 -0.7029
 3059SOL    HW120636   2.854   0.575   1.441 -1.0232 -0.6609 -1.1728
 3059SOL    HW220637   2.987   0.545   1.495  1.3021 -1.3383 -1.7084
 3060SOL     OW20638   2.727   3.217   1.152 -0.5027 -0.0559 -0.4823
 3060SOL    HW120639   2.676   3.139   1.132 -0.9228  0.5160 -1.6957
 3060SOL    HW220640   2.656   3.282   1.150  0.1924  0.7268 -0.0193
 3061SOL     OW20641   0.457   4.231   4.467 -0.6712 -0.1645 -0.5904
 3061SOL    HW120642   0.464   4.264   4.556  1.7631  1.0707 -1.2363
 3061SOL    HW220643   0.548   4.226   4.437 -0.4020  0.8212  0.0337
 3062SOL     OW20644   1.124   4.376   1.213 -0.0409  0.8356  0.2488
 3062SOL    HW120645   1.135   4.365   1.118  0.6034  0.5897  0.3545
 3062SOL    HW220646   1.125   4.471   1.228  0.0614  0.5448  2.0413
 3063SOL     OW20647   4.179   0.679   2.900  0.2251 -0.6481  0.0764
 3063SOL    HW120648   4.200   0.602   2.848 -1.1346  0.6057 -2.3618
 3063SOL    HW220649   4.268   0.712   2.915  0.0084  0.5353 -1.2005
 3064SOL     OW20650   2.993   2.706  13.526  0.1857  0.1387 -0.1738
 3064SOL    HW120651   3.073   2.661  13.501  0.8861  0.2511  1.8208
 3064SOL    HW220652   2.937   2.628  13.523  0.1049  0.1911 -0.0688
 3065SOL     OW20653   0.252   2.165   5.511  0.2074  0.3978 -0.1837
 3065SOL    HW120654   0.233   2.238   5.570 -1.3873 -2.0846  2.3945
 3065SOL    HW220655   0.295   2.107   5.574  0.0856 -0.7070 -1.1244
 3066SOL     OW20656   3.087   0.814   6.024 -0.1973  0.2467  0.4681
 3066SOL    HW120657   3.009   0.796   5.971 -0.8343 -2.4248  2.3528
 3066SOL    HW220658   3.066   0.903   6.053  2.1274  1.1207 -0.5771
 3067SOL     OW20659   3.688   0.282   0.744 -0.2588  0.1376 -0.6985
 3067SOL    HW120660   3.744   0.257   0.670  0.8939 -0.7494  0.4850
 3067SOL    HW220661   3.748   0.340   0.790  1.1343 -0.4308 -1.7839
 3068SOL     OW20662   0.610   3.428   1.621  0.1984 -0.0132  0.6556
 3068SOL    HW120663   0.547   3.489   1.658  0.5450  1.7369 -1.6449
 3068SOL    HW220664   0.572   3.424   1.533 -0.9615 -1.9196  1.2397
 3069SOL     OW20665   0.380   4.451   5.959 -0.1074 -0.0942  0.1971
 3069SOL    HW120666   0.378   4.522   6.024  2.8070 -0.3021  0.5286
 3069SOL    HW220667   0.315   4.390   5.993 -1.2666  1.2969  0.4684
 3070SOL     OW20668   0.473   2.860   0.636 -0.2090 -0.4665 -0.0480
 3070SOL    HW120669   0.566   2.857   0.616  0.0843 -0.8469  1.3950
 3070SOL    HW220670   0.477   2.886   0.728  0.6408 -0.7507 -0.0050
 3071SOL     OW20671   0.259   2.157  12.549 -0.5246  0.6209 -0.4485
 3071SOL    HW120672   0.207   2.175  12.628  2.2611  0.2521  1.4480
 3071SOL    HW220673   0.199   2.199  12.487  0.4760  1.2325 -1.0107
 3072SOL     OW20674   3.720   0.443   2.149  0.4104 -0.5112  0.0591
 3072SOL    HW120675   3.711   0.445   2.244 -0.0961  0.1278 -0.0050
 3072SOL    HW220676   3.672   0.520   2.119  0.9175 -0.0702  0.3787
 3073SOL     OW20677   4.403   2.039   8.635  0.4324 -0.0325 -0.5584
 3073SOL    HW120678   4.393   2.112   8.696 -1.5448  0.4404 -1.4464
 3073SOL    HW220679   4.473   2.065   8.575 -0.5446  2.8367 -0.4490
 3074SOL     OW20680   0.187   0.733   1.930  0.4184 -0.1463 -0.0149
 3074SOL    HW120681   0.190   0.637   1.923 -1.8573 -0.3411  1.4000
 3074SOL    HW220682   0.136   0.754   1.852  3.2790  0.7246 -1.6378
 3075SOL     OW20683   4.535   2.278  16.865 -0.3566 -0.2382  0.7496
 3075SOL    HW120684   4.498   2.340  16.928  0.0090  1.0388 -0.2826
 3075SOL    HW220685   4.472   2.283  16.793 -0.5428 -1.5701  0.8341
 3076SOL     OW20686   4.382   2.008   5.335 -0.2712  0.3118 -0.1735
 3076SOL    HW120687   4.409   2.071   5.402 -1.4573  0.1073  0.4845
 3076SOL    HW220688   4.457   1.950   5.349 -0.2794  0.8290  2.0017
 3077SOL     OW20689   3.359   4.583  17.414  0.1871 -0.1955  0.6401
 3077SOL    HW120690   3.358   4.679  17.417 -0.4400 -0.1477 -0.9479
 3077SOL    HW220691   3.399   4.571  17.327 -0.9624  0.0999  0.0652
 3078SOL     OW20692   2.604   3.749   3.273 -0.2009 -0.2316  0.6157
 3078SOL    HW120693   2.688   3.789   3.250 -1.1975  1.4374 -0.0723
 3078SOL    HW220694   2.584   3.694   3.197  2.1586 -1.7621  1.1038
 3079SOL     OW20695   1.823   4.228   5.680 -0.1287  0.1253 -0.2619
 3079SOL    HW120696   1.785   4.142   5.662  0.9809  0.2670 -3.2836
 3079SOL    HW220697   1.917   4.215   5.674 -0.5663 -2.2064 -1.8083
 3080SOL     OW20698   1.583   3.481   2.573  0.1952  0.4720 -0.8328
 3080SOL    HW120699   1.621   3.564   2.544 -1.1799  2.0920  1.9363
 3080SOL    HW220700   1.650   3.416   2.551  1.6275  2.9679 -3.8029
 3081SOL     OW20701   0.241   0.704  13.603  0.5130 -0.4340  0.6157
 3081SOL    HW120702   0.178   0.775  13.597 -0.0498 -0.9869  0.0237
 3081SOL    HW220703   0.182   0.630  13.588  1.5734 -1.0527 -0.5595
 3082SOL     OW20704   0.407   3.740  15.057  0.3209 -0.7355 -0.2793
 3082SOL    HW120705   0.363   3.783  15.130 -1.3848 -1.1740 -1.0427
 3082SOL    HW220706   0.415   3.647  15.080 -0.0465 -1.2846 -2.3232
 3083SOL     OW20707   1.137   1.316   5.913  0.1497 -0.5424 -0.0254
 3083SOL    HW120708   1.180   1.271   5.840  0.5779 -0.0955 -0.0477
 3083SOL    HW220709   1.116   1.239   5.966  0.6718 -0.5256  0.2015
 3084SOL     OW20710   2.158   1.742   2.044 -0.2609 -0.3697 -0.4766
 3084SOL    HW120711   2.157   1.773   1.953 -1.6515  0.1529 -0.2899
 3084SOL    HW220712   2.248   1.761   2.072 -0.6247 -0.2862  0.6143
 3085SOL     OW20713   1.094   3.969   7.472  0.1566 -0.1376 -0.2103
 3085SOL    HW120714   1.013   3.946   7.519  0.2463  1.0118  0.5222
 3085SOL    HW220715   1.141   4.014   7.543  0.9666 -0.4019 -0.5760
 3086SOL     OW20716   4.320   0.703   2.409  0.1237  0.7479 -0.0188
 3086SOL    HW120717   4.400   0.651   2.403 -0.7746 -0.7056  0.6869
 3086SOL    HW220718   4.278   0.679   2.326 -1.5786  0.4766  0.9022
 3087SOL     OW20719   0.106   4.503   7.771 -0.7904 -0.7805 -0.2123
 3087SOL    HW120720   0.156   4.422   7.774 -0.3050 -0.4647  0.1948
 3087SOL    HW220721   0.082   4.498   7.864  0.8395  0.3871  0.2646
 3088SOL     OW20722   2.907   2.332   8.514 -0.0064  0.0896 -0.5021
 3088SOL    HW120723   2.912   2.365   8.425 -1.7032  1.6921  0.0045
 3088SOL    HW220724   2.828   2.381   8.538 -0.1413 -0.0663 -0.6283
 3089SOL     OW20725   3.285   3.716  16.406  0.0035  0.0035 -0.1207
 3089SOL    HW120726   3.328   3.761  16.333 -2.9074  0.5180 -1.5284
 3089SOL    HW220727   3.204   3.768  16.404  1.7395  2.6940 -1.4576
 3090SOL     OW20728   0.926   0.547   7.401 -0.0418 -0.3217  0.0399
 3090SOL    HW120729   0.980   0.470   7.383  2.3963  1.7695 -1.6100
 3090SOL    HW220730   0.976   0.588   7.471  0.0276  1.3581 -1.0073
 3091SOL     OW20731   2.025   0.890   6.738 -0.3455 -0.3406 -0.3278
 3091SOL    HW120732   1.997   0.963   6.682 -2.3262 -1.3764 -0.7098
 3091SOL    HW220733   1.941   0.847   6.755 -0.6424  1.0484  1.7275
 3092SOL     OW20734   1.265   4.323   9.573 -0.0399  0.6751  0.0502
 3092SOL    HW120735   1.244   4.230   9.564  1.1907  0.4252 -0.2214
 3092SOL    HW220736   1.181   4.353   9.537 -0.2279 -0.9710 -0.8730
 3093SOL     OW20737   3.440   4.084   6.781 -0.7889 -0.4937  0.6046
 3093SOL    HW120738   3.509   4.022   6.758  0.6292  1.6047 -0.8617
 3093SOL    HW220739   3.367   4.022   6.785  0.0482 -1.4214  1.4539
 3094SOL     OW20740   1.436   3.457   5.984 -0.0198 -0.4355 -0.2390
 3094SOL    HW120741   1.372   3.520   5.950  1.6539  0.5730 -1.5169
 3094SOL    HW220742   1.500   3.517   6.022 -1.9965  1.7151 -0.2311
 3095SOL     OW20743   2.993   4.007  11.262  0.1769 -0.3157  0.0850
 3095SOL    HW120744   2.982   4.080  11.201 -0.1328 -0.8464 -0.4893
 3095SOL    HW220745   2.912   3.995  11.310  0.1397  0.4636  0.2168
 3096SOL     OW20746   3.730   4.063   8.772 -0.2458 -0.4412 -0.0966
 3096SOL    HW120747   3.676   3.984   8.766 -1.2593  0.4890 -3.2258
 3096SOL    HW220748   3.806   4.041   8.826 -1.7266 -1.2633  1.6433
 3097SOL     OW20749   4.497   2.429   6.977  0.5386  0.0262 -0.0362
 3097SOL    HW120750   4.445   2.366   6.928  1.0169  1.1165 -1.9478
 3097SOL    HW220751   4.470   2.512   6.939  1.2850  0.7261  0.9544
 3098SOL     OW20752   1.566   0.150   4.811 -0.4732 -0.2965 -0.2701
 3098SOL    HW120753   1.659   0.130   4.822 -0.0583  1.3604 -0.7236
 3098SOL    HW220754   1.556   0.223   4.872  0.2534 -0.1353 -0.3339
 3099SOL     OW20755   4.477   4.545   3.806  0.1629 -0.5994 -0.2685
 3099SOL    HW120756   4.517   4.464   3.773 -1.5028 -1.8532  0.8136
 3099SOL    HW220757   4.544   4.584   3.863 -0.1139  0.2680 -0.5329
 3100SOL     OW20758   2.004   2.021   7.225  0.3339  0.2559 -0.0005
 3100SOL    HW120759   1.925   1.998   7.275  0.2550  0.4589 -0.0299
 3100SOL    HW220760   2.054   2.073   7.287  0.3799 -1.4404  1.3829
 3101SOL     OW20761   3.115   0.909   3.000  1.0021 -0.3382 -0.0460
 3101SOL    HW120762   3.139   0.891   3.091 -0.2080 -1.8592 -0.0258
 3101SOL    HW220763   3.020   0.903   2.997  1.1226 -1.4358 -1.9812
 3102SOL     OW20764   1.085   0.542   1.850  0.4683 -0.0556 -0.5630
 3102SOL    HW120765   1.028   0.563   1.924  0.6094  0.2935 -0.5523
 3102SOL    HW220766   1.049   0.588   1.774  1.2110  0.6433 -0.4890
 3103SOL     OW20767   1.602   3.803  14.457 -0.4534  0.5257  0.4136
 3103SOL    HW120768   1.649   3.746  14.396  0.3219 -0.1822  1.6742
 3103SOL    HW220769   1.665   3.875  14.464  1.8698 -1.4753 -0.1201
 3104SOL     OW20770   1.199   1.123  15.269 -0.1663  0.2143 -0.1992
 3104SOL    HW120771   1.254   1.046  15.253  3.3329  2.4897  0.9753
 3104SOL    HW220772   1.250   1.196  15.235 -0.9689  1.8846  2.1931
 3105SOL     OW20773   2.132   1.353   1.002 -0.5003  0.5426 -0.3429
 3105SOL    HW120774   2.100   1.427   0.951 -0.4488  0.6319 -0.2465
 3105SOL    HW220775   2.166   1.395   1.081 -1.5436  2.6535 -1.0310
 3106SOL     OW20776   0.774   3.033   0.541  0.5625 -0.4613 -0.4196
 3106SOL    HW120777   0.740   3.111   0.585 -0.3296 -2.3114  2.1778
 3106SOL    HW220778   0.749   3.037   0.449 -2.3767  1.8609  0.4742
 3107SOL     OW20779   0.089   3.943   5.764  0.8980 -0.1659  0.3491
 3107SOL    HW120780   0.126   3.857   5.746  2.6887  0.7722 -0.4086
 3107SOL    HW220781   4.719   3.917   5.768  0.7948  0.4830  2.3709
 3108SOL     OW20782   0.204   0.051   4.587 -0.0793  0.2446  0.2061
 3108SOL    HW120783   0.231   4.685   4.563 -0.6543  0.3044 -0.6599
 3108SOL    HW220784   0.118   0.061   4.546 -0.2637 -1.0498  0.2813
 3109SOL     OW20785   1.958   0.759   3.034 -0.3717  0.1886  0.2093
 3109SOL    HW120786   1.876   0.712   3.051 -1.0125  0.3792 -2.2610
 3109SOL    HW220787   1.959   0.816   3.111 -1.5913  1.1046 -0.4417
 3110SOL     OW20788   1.383   3.357   8.252 -0.1552  0.1502 -0.0232
 3110SOL    HW120789   1.338   3.440   8.266  1.1418  1.0393 -1.1259
 3110SOL    HW220790   1.454   3.365   8.316  0.2731 -1.4614 -0.3059
 3111SOL     OW20791   4.422   4.137   7.144  0.2280  0.3656 -0.2514
 3111SOL    HW120792   4.461   4.162   7.227  0.9421  0.2626 -0.5565
 3111SOL    HW220793   4.356   4.079   7.181  0.8101 -0.3941 -0.4148
 3112SOL     OW20794   3.001   3.610   6.542  0.2261  0.0279 -0.1812
 3112SOL    HW120795   3.048   3.551   6.484  1.7832  1.3061 -0.2285
 3112SOL    HW220796   3.026   3.588   6.631  0.4355 -1.3630 -0.5920
 3113SOL     OW20797   4.205   4.703   7.524  0.6989  0.6386  0.3724
 3113SOL    HW120798   4.252   0.057   7.558  1.1670  0.4109  0.2312
 3113SOL    HW220799   4.277   4.642   7.530  0.7903  0.6249 -0.7491
 3114SOL     OW20800   2.373   0.834   4.633 -0.0746  0.3223 -0.1062
 3114SOL    HW120801   2.308   0.811   4.566 -0.9827  0.3058  0.7846
 3114SOL    HW220802   2.396   0.744   4.655 -0.7958 -0.0578 -0.8954
 3115SOL     OW20803   0.658   0.924   6.229 -0.8747 -0.2374 -0.1982
 3115SOL    HW120804   0.621   0.970   6.305  1.0371 -2.3344  2.0086
 3115SOL    HW220805   0.733   0.887   6.274 -1.9853 -0.4441  1.4986
 3116SOL     OW20806   1.861   2.519   2.895  0.0932 -0.5283  0.6672
 3116SOL    HW120807   1.796   2.588   2.879 -0.0439 -0.4639  1.5168
 3116SOL    HW220808   1.844   2.456   2.824 -1.5429  1.0750 -0.3920
 3117SOL     OW20809   2.794   1.625   4.706 -0.3020  0.0787  0.8366
 3117SOL    HW120810   2.801   1.719   4.692  4.0112 -0.5622 -1.2728
 3117SOL    HW220811   2.887   1.609   4.693 -0.8008 -1.5550 -0.7526
 3118SOL     OW20812   4.357   4.519   4.274  0.1790 -0.3864 -0.2094
 3118SOL    HW120813   4.443   4.510   4.314  0.7852  1.5361 -1.0515
 3118SOL    HW220814   4.352   4.612   4.252 -0.7436 -0.3874  0.0005
 3119SOL     OW20815   3.579   3.106   2.825 -0.7034 -0.1177  0.1219
 3119SOL    HW120816   3.645   3.172   2.805 -0.3847 -0.1783  0.9765
 3119SOL    HW220817   3.510   3.112   2.759  0.4792  2.0405 -0.9103
 3120SOL     OW20818   3.389   1.725  15.887  0.6203  0.1722  0.1085
 3120SOL    HW120819   3.464   1.761  15.935  0.9540  0.4805 -0.6570
 3120SOL    HW220820   3.418   1.646  15.843  0.0538  0.4288 -0.7322
 3121SOL     OW20821   0.770   4.335   3.872 -0.0321  0.2261 -0.2033
 3121SOL    HW120822   0.815   4.325   3.956 -0.8779  0.2851  0.2506
 3121SOL    HW220823   0.686   4.298   3.899 -0.1864  0.3224 -0.5506
 3122SOL     OW20824   4.302   3.848   8.017 -0.2868  0.5204  0.6000
 3122SOL    HW120825   4.270   3.818   8.102  0.1234 -0.3163  0.4619
 3122SOL    HW220826   4.261   3.934   8.022  1.4937  1.3468  0.8289
 3123SOL     OW20827   0.640   3.897   3.679 -0.8572  0.3982 -0.5260
 3123SOL    HW120828   0.632   3.992   3.670 -1.1849  0.3256 -0.9641
 3123SOL    HW220829   0.636   3.891   3.775  2.8760  2.7949 -0.1936
 3124SOL     OW20830   1.608   2.147   3.047 -0.5853 -1.0261  0.1101
 3124SOL    HW120831   1.615   2.241   3.062  0.0622 -0.9992 -0.3632
 3124SOL    HW220832   1.686   2.129   2.995  0.3559 -1.2772  1.6164
 3125SOL     OW20833   2.589   0.544   4.314  0.0390 -0.3769  0.4094
 3125SOL    HW120834   2.650   0.495   4.368  1.6395 -0.7059 -1.6948
 3125SOL    HW220835   2.502   0.535   4.354  1.4749  0.4623  3.7280
 3126SOL     OW20836   2.131   1.504   3.422  0.1735 -0.4925 -0.4736
 3126SOL    HW120837   2.122   1.408   3.420  0.0479 -0.4714 -0.8952
 3126SOL    HW220838   2.107   1.521   3.513 -0.1451  0.1047 -0.6735
 3127SOL     OW20839   0.978   3.944   6.154  0.2410  0.4628 -0.0339
 3127SOL    HW120840   1.003   4.005   6.224 -0.2916 -0.0320  0.5889
 3127SOL    HW220841   0.886   3.945   6.183 -0.2311  1.8871 -1.6014
 3128SOL     OW20842   3.137   0.753   8.256 -0.4506  0.2985 -0.3580
 3128SOL    HW120843   3.184   0.835   8.269  0.2723 -0.1210 -0.3237
 3128SOL    HW220844   3.152   0.746   8.161  0.6353 -2.1945  0.0097
 3129SOL     OW20845   4.354   4.202  14.395 -0.0608  0.3704  0.3608
 3129SOL    HW120846   4.278   4.242  14.353  0.3659  0.9232  0.1027
 3129SOL    HW220847   4.336   4.109  14.388 -0.0415  0.3941  0.0133
 3130SOL     OW20848   3.444   2.617   8.838  0.1231 -0.6925  0.5785
 3130SOL    HW120849   3.381   2.684   8.811  0.7096 -0.1099  0.6650
 3130SOL    HW220850   3.402   2.578   8.915  1.7348  0.1704  1.8901
 3131SOL     OW20851   3.342   3.712   7.029  0.2336  0.1447 -0.5218
 3131SOL    HW120852   3.275   3.645   7.044  0.6327  0.1069  1.1108
 3131SOL    HW220853   3.419   3.682   7.076 -0.6310 -1.5953 -0.1914
 3132SOL     OW20854   0.658   0.556   9.483 -0.1225 -0.3135 -0.3817
 3132SOL    HW120855   0.576   0.544   9.532  0.0355 -2.6893 -0.7135
 3132SOL    HW220856   0.662   0.463   9.460  0.4464 -0.2850 -0.3771
 3133SOL     OW20857   3.576   3.484   4.358 -0.6623 -0.0619  0.3356
 3133SOL    HW120858   3.576   3.469   4.452  0.0980 -1.7849  0.0570
 3133SOL    HW220859   3.598   3.577   4.350  1.0218 -0.4485  0.5977
 3134SOL     OW20860   4.660   2.036   8.852 -0.2596  0.2718  0.4422
 3134SOL    HW120861   4.593   2.103   8.865 -1.9817 -1.5757  1.1560
 3134SOL    HW220862   4.694   2.032   8.941  0.7636 -2.6810 -0.0608
 3135SOL     OW20863   0.912   2.581   4.113  0.0953 -0.3989 -0.1949
 3135SOL    HW120864   0.974   2.511   4.134  0.9091  0.6781  1.0226
 3135SOL    HW220865   0.978   2.644   4.084  1.3161 -2.0107 -0.9367
 3136SOL     OW20866   1.316   1.263   5.212  0.3304  0.0764 -0.1715
 3136SOL    HW120867   1.293   1.355   5.225  0.4139  0.1199 -0.3317
 3136SOL    HW220868   1.240   1.218   5.250 -0.8129  2.0863 -0.0788
 3137SOL     OW20869   0.276   1.116   3.443  0.8841  0.4312 -0.2969
 3137SOL    HW120870   0.307   1.189   3.389 -0.7565 -0.0030 -1.8180
 3137SOL    HW220871   0.330   1.047   3.404  1.9604  0.3943  1.2937
 3138SOL     OW20872   0.152   1.894   7.595 -0.1011 -0.2819 -0.3044
 3138SOL    HW120873   0.222   1.960   7.597  0.3034 -0.6758 -1.3624
 3138SOL    HW220874   0.070   1.939   7.616 -0.6376 -2.3424  2.0595
 3139SOL     OW20875   0.420   2.073  11.597  0.2160 -0.2292 -0.0015
 3139SOL    HW120876   0.329   2.052  11.619  0.1036  2.0982  1.6768
 3139SOL    HW220877   0.454   1.984  11.591  1.8673  0.4062 -0.0278
 3140SOL     OW20878   3.134   1.907  11.013 -0.2045  0.3645 -0.1765
 3140SOL    HW120879   3.093   1.833  10.970 -1.6315  0.5926  0.7779
 3140SOL    HW220880   3.226   1.881  11.012 -0.6403 -1.3007  1.8062
 3141SOL     OW20881   2.143   2.159   7.703 -0.5823  0.0309  0.0046
 3141SOL    HW120882   2.051   2.184   7.696 -0.8940 -0.8515  0.9151
 3141SOL    HW220883   2.193   2.234   7.671  0.5964 -0.4804  0.6582
 3142SOL     OW20884   2.122   2.897   5.202  0.3041 -0.2739  0.2112
 3142SOL    HW120885   2.145   2.969   5.262  2.6846  1.0083 -2.2520
 3142SOL    HW220886   2.190   2.914   5.137  0.5111  1.8204  0.9662
 3143SOL     OW20887   1.945   4.058   0.736  0.0331  0.1074  0.1774
 3143SOL    HW120888   2.033   4.037   0.705 -0.0670 -1.0654  0.6706
 3143SOL    HW220889   1.932   3.982   0.794  2.8355  0.6662  1.5637
 3144SOL     OW20890   2.628   0.922   6.923  0.2911  0.0344  0.1384
 3144SOL    HW120891   2.553   0.973   6.953  0.6642  0.3281  0.5732
 3144SOL    HW220892   2.599   0.833   6.943 -0.1738  0.7053  2.4929
 3145SOL     OW20893   3.193   1.543   1.546 -1.0016  0.4153 -0.0602
 3145SOL    HW120894   3.183   1.488   1.624  0.2094  0.7647  0.3422
 3145SOL    HW220895   3.104   1.578   1.550 -0.8121  0.4977  4.0190
 3146SOL     OW20896   3.274   3.553   5.538  0.0284 -0.0088 -0.1848
 3146SOL    HW120897   3.350   3.590   5.492  0.0399 -1.3296 -1.2274
 3146SOL    HW220898   3.229   3.637   5.549 -1.1749 -0.5582 -0.9141
 3147SOL     OW20899   4.110   0.523   5.516 -0.4471  0.2027 -0.0273
 3147SOL    HW120900   4.108   0.560   5.605 -0.7302  1.2711 -0.4872
 3147SOL    HW220901   4.090   0.599   5.461  0.7477  1.9592  1.9335
 3148SOL     OW20902   4.449   3.667   9.257  0.3915  0.0262  0.5772
 3148SOL    HW120903   4.474   3.591   9.310  2.1140  0.5144  0.4524
 3148SOL    HW220904   4.354   3.659   9.272 -0.2259  1.2273 -2.7218
 3149SOL     OW20905   1.808   1.783  15.596 -0.1057 -0.7188 -0.8287
 3149SOL    HW120906   1.804   1.696  15.557  2.9826 -1.9599  1.6291
 3149SOL    HW220907   1.858   1.826  15.527  0.8808  0.1330  0.4102
 3150SOL     OW20908   1.381   1.983  13.340  0.2126  0.1368 -0.0722
 3150SOL    HW120909   1.403   2.052  13.402 -2.3304 -0.6112  1.6352
 3150SOL    HW220910   1.358   1.913  13.401  3.0761  0.0950  0.9536
 3151SOL     OW20911   3.211   1.716   6.591 -0.0080  0.0850  0.1301
 3151SOL    HW120912   3.211   1.656   6.666  0.8650  0.1054  0.1467
 3151SOL    HW220913   3.119   1.705   6.568  0.1999 -0.4452 -0.4193
 3152SOL     OW20914   1.448   0.593  10.445  0.6675 -0.3629 -0.4604
 3152SOL    HW120915   1.414   0.666  10.496 -0.2045  0.5286 -2.3247
 3152SOL    HW220916   1.533   0.622  10.414  0.9410 -0.3161  0.3314
 3153SOL     OW20917   1.824   2.548   5.361  0.0363 -0.0766  0.1663
 3153SOL    HW120918   1.811   2.580   5.451  0.0385 -1.3063  0.6031
 3153SOL    HW220919   1.846   2.625   5.309 -0.6348  0.8402  1.2401
 3154SOL     OW20920   0.289   2.689   3.037  0.3003 -0.1544 -0.9932
 3154SOL    HW120921   0.220   2.622   3.037 -1.4007  1.6217  0.1030
 3154SOL    HW220922   0.264   2.736   2.958  0.4001 -1.1534 -1.6278
 3155SOL     OW20923   0.022   4.179   9.136 -0.4724 -0.0214  0.0759
 3155SOL    HW120924   0.014   4.094   9.093 -1.0899 -0.6737  1.4671
 3155SOL    HW220925   4.664   4.195   9.186  0.1832  2.8199  0.2316
 3156SOL     OW20926   2.594   1.964   2.888  0.0582  0.2243 -0.3782
 3156SOL    HW120927   2.628   1.895   2.945 -1.0626  0.4787  0.6021
 3156SOL    HW220928   2.668   2.020   2.866  2.3072 -1.7113  2.2721
 3157SOL     OW20929   3.602   0.893  12.170 -0.1785 -0.2519  0.7494
 3157SOL    HW120930   3.698   0.884  12.169 -0.2009 -0.7099  1.9301
 3157SOL    HW220931   3.593   0.978  12.127  0.9985 -0.3369  0.3104
 3158SOL     OW20932   1.159   1.590   2.274  0.2265  0.3071 -0.2633
 3158SOL    HW120933   1.196   1.672   2.305  1.6969 -0.3944 -0.1786
 3158SOL    HW220934   1.226   1.528   2.303 -0.7688  0.0910  1.5682
 3159SOL     OW20935   1.451   3.102  16.855 -0.0677  0.1111  0.4949
 3159SOL    HW120936   1.455   3.163  16.782  0.7204  0.2979  0.7004
 3159SOL    HW220937   1.536   3.059  16.854 -1.1350 -2.0478  1.9588
 3160SOL     OW20938   2.019   4.355   3.037 -0.2995 -0.5761 -0.4754
 3160SOL    HW120939   2.056   4.336   3.124 -0.6306  0.5823 -0.0820
 3160SOL    HW220940   2.102   4.332   2.996 -0.6393  0.1567 -1.5583
 3161SOL     OW20941   4.592   2.146  15.257 -0.0406  0.1321  0.0279
 3161SOL    HW120942   4.674   2.174  15.216 -0.5564  1.3714 -0.1551
 3161SOL    HW220943   4.532   2.220  15.250  0.2771  0.4142  0.3119
 3162SOL     OW20944   3.143   1.445   4.938  0.0834 -0.0101 -0.0829
 3162SOL    HW120945   3.055   1.469   4.909 -0.5974 -1.2429  0.9448
 3162SOL    HW220946   3.187   1.530   4.936  0.1848 -0.0592  0.0674
 3163SOL     OW20947   0.132   4.623  12.331 -0.0558  0.1619  0.7279
 3163SOL    HW120948   0.147   4.607  12.424  3.2370  1.3553  0.3988
 3163SOL    HW220949   0.210   4.589  12.289 -2.1225 -2.9710 -0.5638
 3164SOL     OW20950   0.018   4.682   2.669  0.8487  0.1029  0.1086
 3164SOL    HW120951   0.023   4.702   2.575 -1.4984 -0.5649 -0.1495
 3164SOL    HW220952   0.014   0.044   2.713  2.1981  1.0094 -1.4629
 3165SOL     OW20953   4.699   0.603  13.313 -0.1252  0.7747  0.0783
 3165SOL    HW120954   4.686   0.680  13.369  2.7698 -0.2919  2.2045
 3165SOL    HW220955   4.611   0.565  13.310  0.1350  0.3844 -2.0426
 3166SOL     OW20956   4.600   2.485   8.165 -0.2908  0.0494  0.3419
 3166SOL    HW120957   4.682   2.505   8.119 -1.0685 -2.0224 -1.9374
 3166SOL    HW220958   4.638   2.491   8.252 -0.0114 -0.6925  0.2709
 3167SOL     OW20959   1.411   3.554   8.509 -0.0601 -0.2159 -0.1164
 3167SOL    HW120960   1.436   3.609   8.584  0.2284 -0.3145 -0.1409
 3167SOL    HW220961   1.439   3.609   8.436 -1.0786 -1.2570 -1.2824
 3168SOL     OW20962   3.773   3.440   8.202 -0.0346 -0.0141 -0.4452
 3168SOL    HW120963   3.787   3.505   8.270 -0.0425 -0.8392  0.3396
 3168SOL    HW220964   3.757   3.360   8.251 -1.3282  1.7005  1.9031
 3169SOL     OW20965   0.720   2.713  14.604 -0.1289 -0.0071  0.4794
 3169SOL    HW120966   0.812   2.710  14.581 -0.4652 -0.7539 -0.7751
 3169SOL    HW220967   0.732   2.802  14.638 -2.1590  0.7736 -0.8145
 3170SOL     OW20968   2.027   1.693   0.220 -0.1727 -0.1359 -0.6434
 3170SOL    HW120969   1.985   1.766   0.266 -0.6407 -0.3035 -0.8082
 3170SOL    HW220970   2.088   1.666   0.289 -0.5038 -2.7923 -1.4261
 3171SOL     OW20971   2.853   3.455   1.149  0.0941 -0.3134 -0.0742
 3171SOL    HW120972   2.864   3.434   1.057 -0.2768  1.2088 -0.4776
 3171SOL    HW220973   2.835   3.372   1.192 -2.8889 -0.6195 -1.9058
 3172SOL     OW20974   0.589   1.019   5.972 -0.5570  0.4133  0.1689
 3172SOL    HW120975   0.587   0.980   6.060 -0.2231 -1.1674 -0.5198
 3172SOL    HW220976   0.497   1.010   5.951 -0.6981 -0.4681  1.1711
 3173SOL     OW20977   4.459   3.847  17.175 -0.0508 -0.8643  0.0780
 3173SOL    HW120978   4.523   3.829  17.243 -1.8530  1.3529  2.3683
 3173SOL    HW220979   4.413   3.764  17.165  0.1292 -0.6768 -2.3279
 3174SOL     OW20980   4.283   0.665   0.931 -0.1697  0.3697 -0.1510
 3174SOL    HW120981   4.223   0.699   0.998  0.1004  1.5258 -0.5059
 3174SOL    HW220982   4.359   0.645   0.985 -0.7317  1.5733  1.1030
 3175SOL     OW20983   2.130   1.125  17.287 -0.7743 -1.0205 -0.1167
 3175SOL    HW120984   2.145   1.103  17.379  0.6936 -1.3491 -0.4246
 3175SOL    HW220985   2.054   1.181  17.299  0.1751  0.3566 -0.5059
 3176SOL     OW20986   2.676   2.575  15.347 -0.0182 -0.0510 -0.3432
 3176SOL    HW120987   2.696   2.498  15.294 -0.1251  0.6145 -1.3680
 3176SOL    HW220988   2.765   2.581  15.381 -0.0857  1.9516 -0.4964
 3177SOL     OW20989   1.393   2.350   8.502  0.0971  0.5405 -0.6842
 3177SOL    HW120990   1.449   2.275   8.521  0.4351  0.9551 -0.0446
 3177SOL    HW220991   1.313   2.328   8.549  1.0164  1.2328  1.1743
 3178SOL     OW20992   3.948   4.336   2.528 -0.3316 -0.5853  0.2435
 3178SOL    HW120993   3.920   4.427   2.522  0.3526 -0.4745 -1.3274
 3178SOL    HW220994   3.868   4.300   2.567 -0.7411 -0.6689 -0.6749
 3179SOL     OW20995   3.367   4.643   7.807 -0.2559 -0.4930  0.5763
 3179SOL    HW120996   3.392   4.577   7.872 -0.6395 -1.3760 -0.1635
 3179SOL    HW220997   3.322   4.703   7.866  0.6552 -0.6044  1.3794
 3180SOL     OW20998   0.318   4.436  12.439 -0.4077  0.6094  0.5937
 3180SOL    HW120999   0.362   4.356  12.469 -0.0905  1.2507  1.8413
 3180SOL    HW221000   0.350   4.493  12.508  0.3292  0.6455  0.2252
 3181SOL     OW21001   1.309   2.475  17.540 -0.4494 -0.0939 -0.0376
 3181SOL    HW121002   1.261   2.403  17.581  0.3065 -1.4399 -1.5337
 3181SOL    HW221003   1.239   2.540  17.535  0.4754  1.0970  2.3251
 3182SOL     OW21004   1.635   1.635   7.581  0.7025 -0.2830  0.2940
 3182SOL    HW121005   1.563   1.687   7.614 -0.1458 -1.1217 -0.2238
 3182SOL    HW221006   1.628   1.658   7.488 -0.4069 -0.2940  0.3795
 3183SOL     OW21007   2.858   1.623   5.653 -0.3490 -0.6378  0.1358
 3183SOL    HW121008   2.947   1.594   5.673 -0.1750 -1.0318 -1.1738
 3183SOL    HW221009   2.849   1.714   5.682  1.5787 -0.0362 -1.1258
 3184SOL     OW21010   1.539   0.907   4.033 -0.4724 -0.2722  0.6494
 3184SOL    HW121011   1.492   0.986   4.060  1.8461  0.9269  1.1460
 3184SOL    HW221012   1.466   0.866   3.986  1.4395 -0.7542 -1.8675
 3185SOL     OW21013   3.735   4.655   3.569 -0.2283 -0.4472 -0.4486
 3185SOL    HW121014   3.793   4.629   3.497 -0.5465  0.3994 -1.0215
 3185SOL    HW221015   3.741   4.577   3.623 -1.0005  0.9979  1.7519
 3186SOL     OW21016   2.991   0.208   6.041  0.5268  0.6660  0.0379
 3186SOL    HW121017   3.086   0.207   6.057  0.8131 -1.1002 -1.8882
 3186SOL    HW221018   2.985   0.299   6.013  2.1658  0.7266 -0.1116
 3187SOL     OW21019   0.387   2.072   3.722 -0.2559 -0.2161 -0.7956
 3187SOL    HW121020   0.318   2.022   3.765 -1.2665  1.2478 -0.7281
 3187SOL    HW221021   0.334   2.133   3.670 -0.8694 -1.1576 -1.2826
 3188SOL     OW21022   3.144   0.451   4.380  0.2041  0.9073  0.4691
 3188SOL    HW121023   3.186   0.439   4.295 -0.3969  1.3498  0.1190
 3188SOL    HW221024   3.065   0.486   4.340  0.0807  0.5282  0.3819
 3189SOL     OW21025   2.513   2.372   8.585  0.2526  0.5721  0.3064
 3189SOL    HW121026   2.549   2.284   8.574 -2.9239 -0.6771 -0.1068
 3189SOL    HW221027   2.458   2.383   8.507 -1.1047 -0.1777  1.1586
 3190SOL     OW21028   0.312   4.394  13.542  0.5748 -0.4203 -0.1864
 3190SOL    HW121029   0.236   4.346  13.573  1.3250 -1.3130  0.2487
 3190SOL    HW221030   0.340   4.330  13.477  1.0713  0.5873 -0.9793
 3191SOL     OW21031   1.544   3.183  16.398  0.4813  0.4317  0.5140
 3191SOL    HW121032   1.533   3.206  16.490 -1.6480  1.0523  0.1076
 3191SOL    HW221033   1.513   3.257  16.346 -1.8179 -1.8381 -1.3278
 3192SOL     OW21034   2.872   3.301   0.429  0.1796  0.1799 -0.5451
 3192SOL    HW121035   2.957   3.328   0.462 -0.1348  0.2591  0.2095
 3192SOL    HW221036   2.835   3.389   0.421  0.1345  0.1793 -0.3263
 3193SOL     OW21037   2.716   2.886   7.729  0.0411 -0.1719  0.1465
 3193SOL    HW121038   2.739   2.978   7.726  0.8189 -0.1769  4.8323
 3193SOL    HW221039   2.686   2.880   7.820  0.6382  1.1611  0.4150
 3194SOL     OW21040   2.088   3.354   1.885  0.1661  0.4525  0.4406
 3194SOL    HW121041   2.182   3.337   1.878  0.2052  2.0658 -3.2326
 3194SOL    HW221042   2.079   3.402   1.802  0.5084 -1.5344 -0.7521
 3195SOL     OW21043   0.637   0.043   2.881 -0.3684 -0.7627 -0.2761
 3195SOL    HW121044   0.695   0.034   2.806 -1.0839 -1.4401 -0.7512
 3195SOL    HW221045   0.675   0.118   2.927 -0.0781 -1.6054  0.8414
 3196SOL     OW21046   2.219   0.007  17.605  0.1770 -0.0327 -0.1581
 3196SOL    HW121047   2.137   0.038  17.566 -1.1310 -0.5409  2.2115
 3196SOL    HW221048   2.201   0.017   0.006  0.7242  1.8621 -0.2422
 3197SOL     OW21049   3.906   0.906   4.039  0.2484 -0.0611 -0.3570
 3197SOL    HW121050   3.835   0.842   4.044  1.0643 -0.8636  1.0493
 3197SOL    HW221051   3.851   0.984   4.051  0.7185  0.5361 -2.0830
 3198SOL     OW21052   2.001   1.350  17.647 -0.5530  0.1693 -0.6789
 3198SOL    HW121053   2.091   1.323  17.626 -0.9647 -1.9286  0.2521
 3198SOL    HW221054   2.020   1.444  17.643 -1.9566  0.4655 -0.4412
 3199SOL     OW21055   0.251   3.664   9.613  0.0198  0.0026  0.1792
 3199SOL    HW121056   0.229   3.622   9.696 -2.1494  0.0065 -0.4055
 3199SOL    HW221057   0.291   3.746   9.644 -0.0524  0.1849 -0.2085
 3200SOL     OW21058   2.443   1.988   0.668 -0.1434  0.5499 -0.1461
 3200SOL    HW121059   2.446   2.082   0.649 -0.9937  1.1091  2.4592
 3200SOL    HW221060   2.531   1.967   0.697 -0.7527  1.4469  2.3779
 3201SOL     OW21061   3.380   2.564   6.106 -0.7597  0.1230  0.1933
 3201SOL    HW121062   3.373   2.516   6.189  1.9268  0.1740  0.4292
 3201SOL    HW221063   3.354   2.498   6.042 -2.4310 -1.4205  2.4553
 3202SOL     OW21064   4.259   2.927   6.410  0.5976  0.0965  0.1039
 3202SOL    HW121065   4.200   2.941   6.336  1.7953 -2.1865 -1.2818
 3202SOL    HW221066   4.206   2.864   6.459  0.7687  0.0750  0.2602
 3203SOL     OW21067   3.816   0.334   4.032 -0.1521 -0.0774 -0.2851
 3203SOL    HW121068   3.900   0.371   4.006 -1.3338  0.6822 -3.0983
 3203SOL    HW221069   3.812   0.265   3.965 -3.1466  1.7401 -2.0188
 3204SOL     OW21070   4.065   1.780   2.107 -0.4625 -0.2716  0.1140
 3204SOL    HW121071   4.047   1.861   2.156 -0.5645  0.3665 -0.9802
 3204SOL    HW221072   4.113   1.816   2.033 -3.0596 -1.2749 -2.0486
 3205SOL     OW21073   0.156   2.111  12.972  0.0660 -0.1190 -0.0497
 3205SOL    HW121074   0.125   2.024  12.995 -0.8866 -0.6006 -3.2687
 3205SOL    HW221075   0.212   2.133  13.047  0.4768  1.7680 -0.8984
 3206SOL     OW21076   1.398   0.669  17.099 -0.6125  0.3590  0.4515
 3206SOL    HW121077   1.484   0.659  17.058 -1.3282  0.2787 -1.0410
 3206SOL    HW221078   1.423   0.748  17.148 -0.4085  0.5377  0.0558
 3207SOL     OW21079   1.187   1.623  13.815  0.1199 -0.3267 -0.3666
 3207SOL    HW121080   1.244   1.550  13.841  2.6297  1.3609 -1.1073
 3207SOL    HW221081   1.117   1.629  13.879  0.4886  0.7173 -0.0568
 3208SOL     OW21082   1.911   3.695   0.580  0.6408 -0.5999  0.0473
 3208SOL    HW121083   1.920   3.765   0.645 -0.6050 -0.2597 -0.1559
 3208SOL    HW221084   1.845   3.729   0.520  0.1436 -0.3436  0.7352
 3209SOL     OW21085   2.226   1.464   7.468 -0.1562 -0.3601  0.0446
 3209SOL    HW121086   2.182   1.379   7.461 -0.8234 -0.0181  0.1217
 3209SOL    HW221087   2.173   1.506   7.535 -1.1955  1.4323 -1.8918
 3210SOL     OW21088   2.904   2.364  17.433  0.3198 -0.0287 -0.3265
 3210SOL    HW121089   2.914   2.347  17.339 -0.1350 -0.6764 -0.2473
 3210SOL    HW221090   2.998   2.368  17.450  0.5367  2.1232 -2.0012
 3211SOL     OW21091   3.689   1.245   1.555 -0.4794  0.2677  0.8169
 3211SOL    HW121092   3.663   1.202   1.636  0.0319  2.5279  2.1719
 3211SOL    HW221093   3.619   1.310   1.555 -0.8021 -0.0787  0.1234
 3212SOL     OW21094   1.287   1.077   3.243 -0.2389  0.3567  0.2252
 3212SOL    HW121095   1.216   1.111   3.188  2.1956 -0.5085 -3.4669
 3212SOL    HW221096   1.347   1.149   3.222 -0.2279  0.2631 -0.0591
 3213SOL     OW21097   2.765   0.950   8.089  0.5589  0.5071 -0.2436
 3213SOL    HW121098   2.801   0.915   8.171 -0.9625 -0.9715 -0.2138
 3213SOL    HW221099   2.729   0.871   8.049  1.1435  0.3115 -0.3919
 3214SOL     OW21100   3.215   2.264   4.789  0.0723 -0.1378  0.2928
 3214SOL    HW121101   3.123   2.277   4.765  0.4178  0.9539 -0.4472
 3214SOL    HW221102   3.207   2.242   4.881  2.7484 -0.7105  0.4021
 3215SOL     OW21103   1.912   3.442  13.611 -0.2381  0.5480 -0.0649
 3215SOL    HW121104   1.910   3.533  13.643 -1.4994  1.2092 -2.0054
 3215SOL    HW221105   2.003   3.438  13.582 -0.1840 -2.4168  0.5294
 3216SOL     OW21106   1.498   3.538   3.674 -0.2042 -0.0230  0.1504
 3216SOL    HW121107   1.413   3.496   3.680 -0.1021  0.0281  2.0643
 3216SOL    HW221108   1.532   3.496   3.595 -1.4890 -3.0883  1.2613
 3217SOL     OW21109   4.344   4.561   5.965  0.0660 -0.1614  0.2563
 3217SOL    HW121110   4.395   4.630   6.007  0.1734  0.4754 -0.9057
 3217SOL    HW221111   4.319   4.604   5.883  2.6317 -0.3136 -0.5993
 3218SOL     OW21112   2.331   4.184   9.149 -0.8473  0.0603  0.8009
 3218SOL    HW121113   2.335   4.179   9.244  1.0963 -1.1699  0.6388
 3218SOL    HW221114   2.256   4.239   9.126 -1.9149 -2.4265 -1.6932
 3219SOL     OW21115   1.001   1.032   0.613  0.0029 -0.2026  0.3489
 3219SOL    HW121116   0.917   0.997   0.585 -1.6181  2.0507  2.4194
 3219SOL    HW221117   1.057   1.036   0.535 -0.5281 -1.2735 -0.0878
 3220SOL     OW21118   2.959   3.074   7.506  0.2451 -0.1950 -0.4384
 3220SOL    HW121119   3.000   2.989   7.523 -0.8287 -1.2063 -2.9791
 3220SOL    HW221120   2.920   3.082   7.419 -1.9894 -2.3135  0.3587
 3221SOL     OW21121   0.642   2.192   1.060  0.3793  1.2776  1.1880
 3221SOL    HW121122   0.663   2.218   1.149  0.2648  1.4351  1.1691
 3221SOL    HW221123   0.572   2.247   1.025  0.2932  0.4304  0.0157
 3222SOL     OW21124   0.617   1.522   2.403  0.2057  0.4203  0.6467
 3222SOL    HW121125   0.533   1.562   2.379 -0.1559  0.7750  2.4705
 3222SOL    HW221126   0.602   1.428   2.386  0.7566  0.6381 -1.0438
 3223SOL     OW21127   0.915   4.159   2.508  0.9642 -0.1013  0.3679
 3223SOL    HW121128   0.924   4.068   2.537 -0.7532 -0.6849 -0.9610
 3223SOL    HW221129   0.959   4.196   2.584  0.1480  0.4855  0.5556
 3224SOL     OW21130   4.153   0.592   4.454  0.4155 -0.2156 -0.4168
 3224SOL    HW121131   4.179   0.680   4.481 -1.2164  0.1113  0.0902
 3224SOL    HW221132   4.059   0.602   4.440  0.7441 -1.1861 -3.4058
 3225SOL     OW21133   1.536   0.963   1.744  0.5304 -0.4846  0.0842
 3225SOL    HW121134   1.582   0.969   1.660  0.5337  3.6091  0.3947
 3225SOL    HW221135   1.597   1.008   1.803  0.5511 -0.0054 -0.3055
 3226SOL     OW21136   1.310   4.463  15.295 -0.1037 -0.4011 -0.7791
 3226SOL    HW121137   1.380   4.528  15.290 -0.6705  0.4363  2.0736
 3226SOL    HW221138   1.356   4.386  15.260 -1.7578 -1.2130 -1.1785
 3227SOL     OW21139   4.112   4.092   2.563  0.0011 -0.1721  0.3742
 3227SOL    HW121140   4.202   4.112   2.536  0.2244  0.4863  1.6378
 3227SOL    HW221141   4.079   4.181   2.579 -0.8980 -0.5896  0.8519
 3228SOL     OW21142   4.091   2.961   1.890  0.1042  0.2778 -0.1474
 3228SOL    HW121143   4.146   3.010   1.829  2.4723 -0.1518  1.6577
 3228SOL    HW221144   4.096   3.020   1.966 -0.1273 -0.3154  0.3299
 3229SOL     OW21145   3.276   1.345   1.363 -0.1256  0.5450  0.7291
 3229SOL    HW121146   3.284   1.369   1.271  0.0336 -0.2460  0.5373
 3229SOL    HW221147   3.225   1.417   1.400 -1.4164  0.0781 -0.1648
 3230SOL     OW21148   2.442   2.216   5.705 -0.2250 -0.5117 -0.3431
 3230SOL    HW121149   2.427   2.186   5.794  0.0304  2.0997  0.5911
 3230SOL    HW221150   2.369   2.277   5.694  0.1101  0.2920  1.8761
 3231SOL     OW21151   3.735   0.801   5.735  0.0156  0.3568  0.5486
 3231SOL    HW121152   3.735   0.889   5.697 -1.0403  1.3495  2.8198
 3231SOL    HW221153   3.684   0.818   5.814  0.8410 -1.3804  1.4553
 3232SOL     OW21154   3.725   3.807   9.136 -0.1414 -0.1671  0.1235
 3232SOL    HW121155   3.684   3.881   9.181  1.0462  0.5315  0.0728
 3232SOL    HW221156   3.819   3.823   9.144  0.3993 -3.5707  0.4043
 3233SOL     OW21157   3.464   1.593   3.846  0.5445  0.2458 -0.5045
 3233SOL    HW121158   3.506   1.656   3.787 -0.2721  0.5905 -0.7215
 3233SOL    HW221159   3.372   1.596   3.820  0.6954 -0.6474 -1.1394
 3234SOL     OW21160   0.382   2.163  10.462  0.2224  0.1019 -0.1207
 3234SOL    HW121161   0.417   2.143  10.375 -0.4523 -0.3603 -0.2898
 3234SOL    HW221162   0.414   2.093  10.519  0.2394  2.1479  2.3772
 3235SOL     OW21163   4.449   4.110   3.399 -0.5801  0.5132 -0.1999
 3235SOL    HW121164   4.489   4.024   3.384  0.6520  0.8013  1.3834
 3235SOL    HW221165   4.394   4.097   3.476 -2.8000 -0.7754 -2.0139
 3236SOL     OW21166   0.589   0.820   0.544 -0.3821  0.2408  0.2145
 3236SOL    HW121167   0.631   0.785   0.622 -0.8649 -0.4700  0.1506
 3236SOL    HW221168   0.656   0.881   0.511 -0.2923 -0.6422 -1.2557
 3237SOL     OW21169   0.875   0.941   7.860  0.7123 -0.1820 -0.6277
 3237SOL    HW121170   0.858   0.937   7.954  0.7316 -0.4661 -0.6377
 3237SOL    HW221171   0.962   0.980   7.872 -0.0447  0.4694  2.9247
 3238SOL     OW21172   3.306   4.045   4.501 -0.5299  0.1202  0.6482
 3238SOL    HW121173   3.265   3.959   4.494  0.0552 -0.0567 -0.5303
 3238SOL    HW221174   3.248   4.089   4.564 -0.8701 -2.4515  2.1467
 3239SOL     OW21175   1.146   0.437   4.430  0.4468  0.5231  0.4983
 3239SOL    HW121176   1.107   0.349   4.432 -0.2539  0.8765  2.8176
 3239SOL    HW221177   1.070   0.486   4.398 -0.4178 -1.2768 -0.2073
 3240SOL     OW21178   3.748   1.875   4.910  0.1682 -0.0772  0.0458
 3240SOL    HW121179   3.815   1.807   4.900 -0.6637 -1.1618  1.7974
 3240SOL    HW221180   3.799   1.933   4.854  2.4546 -0.0687  2.1329
 3241SOL     OW21181   2.062   1.222   5.466 -0.1516 -0.2707 -0.0006
 3241SOL    HW121182   2.011   1.248   5.390 -1.1015 -0.0708  0.6974
 3241SOL    HW221183   1.998   1.158   5.497  0.5699 -1.1249 -0.2773
 3242SOL     OW21184   2.725   2.682   5.102 -0.0254  0.2125 -0.6355
 3242SOL    HW121185   2.630   2.674   5.118 -0.1792 -0.1165 -1.7639
 3242SOL    HW221186   2.729   2.760   5.047  1.3716  0.1056 -0.6670
 3243SOL     OW21187   3.003   4.369  15.341  0.2270  0.8562 -0.2485
 3243SOL    HW121188   2.963   4.286  15.316  1.6781  1.0386 -3.2046
 3243SOL    HW221189   3.054   4.324  15.409 -0.4856  1.9514  1.0192
 3244SOL     OW21190   0.557   2.528   7.607 -0.7435  0.0828  0.4607
 3244SOL    HW121191   0.550   2.606   7.552 -0.5825 -0.0619  0.2383
 3244SOL    HW221192   0.468   2.495   7.600 -0.5896 -0.0285 -0.9095
 3245SOL     OW21193   0.652   3.405  15.092  0.3447 -0.1626 -0.6002
 3245SOL    HW121194   0.688   3.317  15.098 -0.9076 -0.5943  0.5399
 3245SOL    HW221195   0.730   3.460  15.080 -0.4894  1.2926  0.5259
 3246SOL     OW21196   0.212   0.614   6.996  0.3918 -0.0884  0.1337
 3246SOL    HW121197   0.137   0.667   7.021  0.2911 -0.3819  0.4534
 3246SOL    HW221198   0.246   0.598   7.084  0.6650 -3.3847 -0.5541
 3247SOL     OW21199   3.288   4.656   5.487 -0.7622  0.0890  0.3317
 3247SOL    HW121200   3.271   0.028   5.485  1.3701  0.5093  1.8577
 3247SOL    HW221201   3.237   4.637   5.409 -1.6889  2.2532  0.4301
 3248SOL     OW21202   1.066   1.947   8.956 -0.7577  0.1237  0.0366
 3248SOL    HW121203   1.134   1.926   8.892 -1.0066 -3.3333  0.8885
 3248SOL    HW221204   1.064   1.867   9.010  0.2501  0.7587  1.0267
 3249SOL     OW21205   0.635   1.136   7.220 -0.2398  0.0385 -0.3978
 3249SOL    HW121206   0.613   1.066   7.159  1.6651 -2.0726  1.3498
 3249SOL    HW221207   0.562   1.134   7.282 -1.1793 -1.1198 -1.5421
 3250SOL     OW21208   1.704   1.550   8.043  0.0079 -0.1285  0.1283
 3250SOL    HW121209   1.728   1.505   8.124  1.4104 -0.8941 -0.6956
 3250SOL    HW221210   1.704   1.642   8.068 -1.2699 -0.1635  0.2306
 3251SOL     OW21211   2.692   2.745   0.943  0.5217  0.7526 -0.6148
 3251SOL    HW121212   2.785   2.752   0.965  0.2313  0.3500  0.7364
 3251SOL    HW221213   2.686   2.650   0.945 -1.0464  0.8698  0.8318
 3252SOL     OW21214   0.985   0.837   2.439 -0.2241  0.0054 -0.4961
 3252SOL    HW121215   0.901   0.791   2.448 -0.3582  0.4427  0.5771
 3252SOL    HW221216   1.010   0.810   2.351  0.8920  0.5127 -0.3320
 3253SOL     OW21217   2.951   3.428   7.881  0.5671  0.2847 -0.4956
 3253SOL    HW121218   2.920   3.517   7.893  0.2095  0.2600 -1.2569
 3253SOL    HW221219   2.991   3.410   7.966  1.4075  0.5011 -0.8504
 3254SOL     OW21220   2.033   4.198   0.487 -0.1478  0.3019  0.0502
 3254SOL    HW121221   2.018   4.106   0.509  0.1825  0.0671 -0.7009
 3254SOL    HW221222   1.951   4.238   0.516  0.6146  2.0215 -0.2059
 3255SOL     OW21223   0.514   2.832   3.116 -0.1272  0.1914 -0.4178
 3255SOL    HW121224   0.588   2.798   3.064  0.0827  1.2357 -0.7915
 3255SOL    HW221225   0.434   2.784   3.095 -0.5771  1.2067 -1.0253
 3256SOL     OW21226   0.512   3.368  16.342 -0.6386  0.3271 -0.1060
 3256SOL    HW121227   0.433   3.423  16.343  0.4098  1.8525 -1.3223
 3256SOL    HW221228   0.537   3.361  16.435 -1.6531 -3.1729 -0.1015
 3257SOL     OW21229   0.530   4.401   8.651  0.5364 -0.2187 -0.5916
 3257SOL    HW121230   0.555   4.310   8.668  2.6706 -0.3422 -4.4537
 3257SOL    HW221231   0.591   4.425   8.581  1.2230 -0.7844 -0.1801
 3258SOL     OW21232   2.880   3.840   9.636  0.4720 -0.4031  0.0061
 3258SOL    HW121233   2.963   3.794   9.624  1.8810  2.3391 -0.7818
 3258SOL    HW221234   2.831   3.780   9.691  1.9326  0.2742  2.0221
 3259SOL     OW21235   0.890   1.403  16.031  0.4459 -0.3085  0.2719
 3259SOL    HW121236   0.812   1.369  15.987  0.1390 -0.3307  0.8325
 3259SOL    HW221237   0.909   1.477  15.973 -2.6427  2.8961  3.3770
 3260SOL     OW21238   4.651   2.035   4.178  0.1229  0.3733 -0.1463
 3260SOL    HW121239   4.642   1.946   4.146  2.2936 -0.3080  1.1515
 3260SOL    HW221240   4.637   2.027   4.272  3.0290 -0.0216  0.2364
 3261SOL     OW21241   2.380   3.439  12.072 -0.2868 -0.6234  0.0143
 3261SOL    HW121242   2.321   3.386  12.127 -2.4131  0.4215 -1.2677
 3261SOL    HW221243   2.335   3.523  12.073  2.2753  0.7285  0.7169
 3262SOL     OW21244   2.154   0.948   7.977 -0.0060 -0.4121  0.5583
 3262SOL    HW121245   2.114   0.861   7.970 -1.0059  0.2817 -2.2376
 3262SOL    HW221246   2.087   1.015   7.991 -1.0036 -0.7207 -2.7766
 3263SOL     OW21247   3.921   4.014   9.015 -0.1561 -0.3031 -0.1047
 3263SOL    HW121248   3.871   3.934   8.998 -0.2961 -0.4282  0.8464
 3263SOL    HW221249   3.961   3.990   9.099 -1.8498 -0.8925  0.5529
 3264SOL     OW21250   2.614   2.703   6.754  0.2802 -0.2106  0.1665
 3264SOL    HW121251   2.550   2.758   6.798  0.3748  0.9133 -1.1054
 3264SOL    HW221252   2.693   2.710   6.808  0.5024 -3.2899  0.2548
 3265SOL     OW21253   0.792   3.022   3.873 -0.0812  0.6446 -0.2640
 3265SOL    HW121254   0.750   2.941   3.902  1.4570  0.0816  0.3791
 3265SOL    HW221255   0.725   3.052   3.812 -2.1455 -3.1633  0.2017
 3266SOL     OW21256   0.190   2.423   8.027  0.1549  0.0758 -0.4613
 3266SOL    HW121257   0.152   2.339   8.054 -2.8497  1.8049  0.6369
 3266SOL    HW221258   0.200   2.470   8.110 -1.0933 -4.1904  2.1328
 3267SOL     OW21259   1.470   4.356   8.613  0.1934 -0.4007 -0.3538
 3267SOL    HW121260   1.440   4.287   8.554 -1.3875 -0.0819  0.0639
 3267SOL    HW221261   1.524   4.312   8.678 -0.1504  0.7502  0.7056
 3268SOL     OW21262   3.273   0.233   6.076  0.0971  0.1689  0.1428
 3268SOL    HW121263   3.288   0.228   5.981  0.9342 -1.8302  0.3837
 3268SOL    HW221264   3.362   0.218   6.107  0.2557  1.8241  0.4830
 3269SOL     OW21265   4.020   4.304   2.246 -0.3905  0.5344  0.6270
 3269SOL    HW121266   3.927   4.301   2.224 -0.5825  1.2088  1.3547
 3269SOL    HW221267   4.020   4.328   2.339  3.2267  0.0177  0.7701
 3270SOL     OW21268   1.221   0.277  12.605  0.2129 -0.5163  1.0161
 3270SOL    HW121269   1.247   0.214  12.538 -0.8739 -0.3224  0.4221
 3270SOL    HW221270   1.158   0.224  12.653  1.4132 -1.5848  1.4127
 3271SOL     OW21271   3.838   0.507   6.558  0.1049  0.1438  0.3335
 3271SOL    HW121272   3.799   0.576   6.506 -1.1792 -0.7345  0.1398
 3271SOL    HW221273   3.926   0.542   6.573 -0.0048 -0.8878  3.5382
 3272SOL     OW21274   1.678   4.240   8.745 -0.0466  0.2142  0.6177
 3272SOL    HW121275   1.699   4.152   8.713 -0.0537  0.0849  0.9732
 3272SOL    HW221276   1.762   4.258   8.786 -0.2059  1.4393  0.4239
 3273SOL     OW21277   1.225   1.252  16.386  0.7209 -0.4550 -0.2726
 3273SOL    HW121278   1.294   1.186  16.389 -0.3234 -1.4930  0.7015
 3273SOL    HW221279   1.164   1.198  16.336 -0.8243 -0.5972  1.7600
 3274SOL     OW21280   1.125   4.531  15.816 -0.0443 -0.5938 -0.4791
 3274SOL    HW121281   1.148   4.543  15.908 -2.6200  1.4447 -0.1031
 3274SOL    HW221282   1.203   4.560  15.769 -0.8305  1.3277 -0.5724
 3275SOL     OW21283   4.123   4.410   8.295 -0.3406 -0.0483  0.0594
 3275SOL    HW121284   4.036   4.373   8.314 -0.3655  0.3188  0.6810
 3275SOL    HW221285   4.131   4.456   8.379 -0.7702 -0.3486  0.2672
 3276SOL     OW21286   2.702   0.962   3.862 -0.5567  0.3988  0.5682
 3276SOL    HW121287   2.670   0.940   3.774 -3.5620  0.6732  1.5969
 3276SOL    HW221288   2.632   1.020   3.894 -1.2353  0.7284 -1.4891
 3277SOL     OW21289   0.220   2.316   3.607 -0.5622  0.0731 -0.3021
 3277SOL    HW121290   0.236   2.410   3.606 -4.0689  0.6955 -0.7207
 3277SOL    HW221291   0.266   2.289   3.528  0.4100 -1.6417  0.8480
 3278SOL     OW21292   1.508   3.373   3.431  0.6251  0.4323  0.6302
 3278SOL    HW121293   1.500   3.330   3.345 -2.0198 -1.5487  1.8907
 3278SOL    HW221294   1.476   3.460   3.408  1.6793  0.8147  0.5733
 3279SOL     OW21295   0.269   0.590  14.136  0.0599 -0.2424 -0.1427
 3279SOL    HW121296   0.322   0.522  14.095 -1.3139 -1.5583  0.2891
 3279SOL    HW221297   0.238   0.537  14.209 -0.3361 -1.1857 -0.9998
 3280SOL     OW21298   2.632   1.870   8.445  0.0666  0.3030 -0.0838
 3280SOL    HW121299   2.691   1.854   8.518  0.5444 -0.6635 -0.6768
 3280SOL    HW221300   2.569   1.801   8.467 -2.0383  2.0878 -0.5141
 3281SOL     OW21301   3.299   4.266  14.630 -0.0716  0.4296 -0.1334
 3281SOL    HW121302   3.355   4.261  14.707 -0.0003  0.0145 -0.2123
 3281SOL    HW221303   3.335   4.349  14.598 -0.2429 -0.1143 -1.7772
 3282SOL     OW21304   0.504   1.914   2.295 -0.6686 -0.1814 -0.4041
 3282SOL    HW121305   0.433   1.979   2.299 -1.5343 -1.1919  0.6247
 3282SOL    HW221306   0.577   1.968   2.323 -1.9059  0.8535  0.8258
 3283SOL     OW21307   3.326   2.971   9.664  0.0708  0.0523  0.7951
 3283SOL    HW121308   3.367   2.889   9.635  0.8705  0.7123  0.0448
 3283SOL    HW221309   3.404   3.027   9.661  0.6144 -0.6956  0.8854
 3284SOL     OW21310   1.187   1.726   3.525  0.1062  0.1693  0.3582
 3284SOL    HW121311   1.223   1.660   3.466 -3.3372 -0.7375 -0.7482
 3284SOL    HW221312   1.258   1.788   3.543 -0.7332  1.4597 -0.7630
 3285SOL     OW21313   4.193   3.732  13.642  0.6514  0.2542  0.1627
 3285SOL    HW121314   4.253   3.768  13.707  1.5324 -0.1263 -0.4360
 3285SOL    HW221315   4.137   3.809  13.631  3.1281  1.7969 -1.4208
 3286SOL     OW21316   3.450   0.607   1.491  0.1975 -0.2797  0.0919
 3286SOL    HW121317   3.359   0.583   1.476  1.4370 -3.0053 -3.1366
 3286SOL    HW221318   3.461   0.677   1.427  0.3520  1.6450  2.2447
 3287SOL     OW21319   2.285   2.434  16.715 -0.4545 -0.0762 -0.2591
 3287SOL    HW121320   2.331   2.518  16.709 -1.2329  0.4190  0.7246
 3287SOL    HW221321   2.350   2.385  16.665 -0.8436 -1.5383  0.6739
 3288SOL     OW21322   0.080   1.936  15.793 -0.0811 -0.1187  0.5345
 3288SOL    HW121323   0.132   2.011  15.765  0.3101  0.1205  1.8885
 3288SOL    HW221324   4.721   1.985  15.791  0.9320  1.4732 -1.3277
 3289SOL     OW21325   0.032   1.189   7.453 -0.0943 -0.0874 -0.1578
 3289SOL    HW121326   0.013   1.097   7.436 -0.2022 -0.3652  1.4170
 3289SOL    HW221327   4.664   1.212   7.476  0.0835  0.0421  0.4198
 3290SOL     OW21328   0.484   2.351   6.120  0.3401  0.2777 -0.1639
 3290SOL    HW121329   0.578   2.335   6.110  0.3380  0.4567 -0.4822
 3290SOL    HW221330   0.469   2.412   6.047  0.2820  0.3191 -0.1171
 3291SOL     OW21331   1.854   1.747  13.196 -0.1851  0.5419 -0.6905
 3291SOL    HW121332   1.868   1.652  13.187 -0.7060  0.5692 -1.7537
 3291SOL    HW221333   1.889   1.776  13.112 -0.6253 -1.3134 -1.5188
 3292SOL     OW21334   3.406   0.710   3.479  0.3188  0.0645  0.3331
 3292SOL    HW121335   3.348   0.665   3.417  1.3956  0.2297 -0.7680
 3292SOL    HW221336   3.493   0.678   3.456  0.6359  0.2459  1.2542
 3293SOL     OW21337   2.935   3.281   3.230  0.4524  0.7285  0.1194
 3293SOL    HW121338   2.896   3.193   3.230 -0.2880  1.0552  1.1261
 3293SOL    HW221339   2.856   3.332   3.209 -0.0157 -1.1003 -2.7631
 3294SOL     OW21340   2.822   3.863  16.563 -0.3827 -0.0324 -0.3758
 3294SOL    HW121341   2.898   3.819  16.525  0.8814  0.7081  1.3363
 3294SOL    HW221342   2.855   3.952  16.557 -2.6732  0.8306 -0.2668
 3295SOL     OW21343   1.638   1.242  11.535 -0.1212 -0.3122  0.2816
 3295SOL    HW121344   1.622   1.332  11.507 -0.8115 -0.4298  0.3071
 3295SOL    HW221345   1.728   1.224  11.506 -0.4883 -0.6234 -0.6759
 3296SOL     OW21346   3.631   2.955  17.154  0.2069 -0.3589 -0.0516
 3296SOL    HW121347   3.552   2.981  17.108  0.4229 -0.9043 -0.7404
 3296SOL    HW221348   3.677   2.910  17.083  1.2219  0.9544 -0.2324
 3297SOL     OW21349   4.276   1.092  17.217  0.4439 -0.3315 -0.1955
 3297SOL    HW121350   4.291   1.166  17.158  0.7603 -2.1531 -2.3705
 3297SOL    HW221351   4.223   1.125  17.290  1.8911  0.8108  0.3426
 3298SOL     OW21352   2.442   0.566   4.693  0.6646 -0.5268  0.2407
 3298SOL    HW121353   2.426   0.522   4.609  0.8428  0.7427 -0.4504
 3298SOL    HW221354   2.377   0.519   4.745  0.5425  0.9632  1.3954
 3299SOL     OW21355   1.966   0.077  17.503 -0.5004 -0.3550 -0.3574
 3299SOL    HW121356   1.892   0.019  17.487 -0.4063 -0.9458  1.4115
 3299SOL    HW221357   1.925   0.159  17.478  2.5001  2.1107  2.8314
 3300SOL     OW21358   4.596   4.013   7.773 -0.2914 -0.5726 -0.1253
 3300SOL    HW121359   4.507   3.976   7.774 -0.8351  0.7462 -0.1181
 3300SOL    HW221360   4.643   3.947   7.824  0.3371  0.9517  1.2768
 3301SOL     OW21361   0.048   3.705   2.545  0.0364  0.3943  0.2433
 3301SOL    HW121362   0.050   3.610   2.556 -1.5879  0.2963 -0.3230
 3301SOL    HW221363   0.083   3.707   2.456  2.5631 -0.4401  1.2131
 3302SOL     OW21364   1.969   4.077   2.223 -0.0950 -0.0370 -0.3074
 3302SOL    HW121365   1.974   3.985   2.196  0.4851 -0.1929  0.3505
 3302SOL    HW221366   2.028   4.068   2.298  1.9148  3.1695 -1.4796
 3303SOL     OW21367   0.053   0.101   7.934  0.0301 -0.0823 -0.0213
 3303SOL    HW121368   0.113   0.087   8.008  0.2440 -3.0652 -0.7457
 3303SOL    HW221369   0.052   0.014   7.893  0.2421 -0.5627  0.9872
 3304SOL     OW21370   3.408   0.461  17.259  0.7975 -0.9432  0.2446
 3304SOL    HW121371   3.497   0.497  17.255 -0.1100  1.4942  1.7313
 3304SOL    HW221372   3.411   0.427  17.349  4.9008 -0.6561  0.2489
 3305SOL     OW21373   1.165   3.690   5.174  0.3403  0.1918  0.6364
 3305SOL    HW121374   1.114   3.631   5.118  1.3434 -0.8866  0.8658
 3305SOL    HW221375   1.175   3.762   5.112  1.4438 -0.1590  0.4096
 3306SOL     OW21376   3.207   1.607   0.810 -0.2836 -0.4317  0.4203
 3306SOL    HW121377   3.288   1.576   0.770  0.5239  1.2808  0.7301
 3306SOL    HW221378   3.147   1.626   0.738 -0.3571 -2.5220 -0.0662
 3307SOL     OW21379   4.268   0.785  17.194  0.2895 -0.7184 -0.7460
 3307SOL    HW121380   4.303   0.872  17.216 -0.7253 -0.6151  0.4494
 3307SOL    HW221381   4.183   0.786  17.238 -0.3791  1.3735 -2.1332
 3308SOL     OW21382   3.816   3.089   1.568 -0.4737  0.3804  0.2467
 3308SOL    HW121383   3.867   3.140   1.631 -1.1972  1.9929 -0.4877
 3308SOL    HW221384   3.875   3.056   1.500  0.7255  0.1013  1.4066
 3309SOL     OW21385   4.714   2.228   3.717  0.3340  0.5213  0.1689
 3309SOL    HW121386   0.070   2.276   3.693  0.0192  1.5226  1.1552
 3309SOL    HW221387   0.029   2.141   3.733  1.6691  1.0098 -0.2889
 3310SOL     OW21388   0.202   3.018  12.855 -0.3946  0.3031 -0.6758
 3310SOL    HW121389   0.211   2.965  12.934 -0.5964 -0.0160 -0.8661
 3310SOL    HW221390   0.230   3.102  12.892  0.4796  0.7830 -2.4357
 3311SOL     OW21391   0.593   1.968   3.158  0.8655  0.3578  0.3452
 3311SOL    HW121392   0.590   1.976   3.063  1.8033 -1.5767  0.1554
 3311SOL    HW221393   0.565   1.876   3.162  0.0868  0.6136  0.7290
 3312SOL     OW21394   0.640   4.422   2.659 -0.0837  0.0208 -0.2913
 3312SOL    HW121395   0.665   4.375   2.580 -1.7000 -3.4112  1.2431
 3312SOL    HW221396   0.639   4.511   2.623  0.8634  0.8157  1.6203
 3313SOL     OW21397   2.550   3.697   5.454  0.0074  0.8658  0.2281
 3313SOL    HW121398   2.594   3.770   5.411 -0.5628  0.2092 -1.4554
 3313SOL    HW221399   2.463   3.690   5.415  0.1828  0.9224 -0.1706
 3314SOL     OW21400   1.111   3.320   7.496  0.2700  0.2784  0.1262
 3314SOL    HW121401   1.147   3.304   7.409  1.4229  1.5208  0.3736
 3314SOL    HW221402   1.151   3.249   7.545  0.0457  0.5906  0.7545
 3315SOL     OW21403   1.627   4.149   7.595 -0.1264  0.4211  0.3307
 3315SOL    HW121404   1.713   4.166   7.558 -0.1518  1.1660  0.6008
 3315SOL    HW221405   1.585   4.225   7.554 -0.5622  0.5480  0.9972
 3316SOL     OW21406   0.635   3.439  15.975 -0.0575  0.0508  0.1165
 3316SOL    HW121407   0.597   3.356  16.005 -0.6614  1.3817  2.9873
 3316SOL    HW221408   0.686   3.405  15.901 -0.4259 -1.0008  0.3545
 3317SOL     OW21409   0.282   1.298   7.320 -0.2047 -0.7161  0.4552
 3317SOL    HW121410   0.324   1.238   7.382  0.9994 -0.3280  0.0235
 3317SOL    HW221411   0.192   1.267   7.317 -0.7083  0.8348 -0.4287
 3318SOL     OW21412   4.130   4.040   4.270  0.2531  0.0664 -0.5182
 3318SOL    HW121413   4.055   4.081   4.313 -0.2795 -2.2952  0.8345
 3318SOL    HW221414   4.098   4.028   4.180  1.1498  0.3678 -0.8808
 3319SOL     OW21415   1.077   1.016   1.125  0.7385 -0.0401  0.1642
 3319SOL    HW121416   1.103   1.104   1.098  0.4943  0.1706  0.6242
 3319SOL    HW221417   1.088   0.969   1.042 -0.6796  0.9870 -0.6036
 3320SOL     OW21418   0.399   0.547   2.789  0.5860  0.5976  0.2774
 3320SOL    HW121419   0.350   0.618   2.749 -0.5616  0.2470  1.0496
 3320SOL    HW221420   0.369   0.479   2.729 -1.2883  0.4968  1.3246
 3321SOL     OW21421   0.530   0.305   7.802  0.5596  0.5479  0.1049
 3321SOL    HW121422   0.566   0.221   7.831  1.8881  1.1625  0.2361
 3321SOL    HW221423   0.481   0.285   7.723  4.2293 -1.5786 -1.6076
 3322SOL     OW21424   1.706   3.922   8.908 -0.4005 -0.2341  0.2004
 3322SOL    HW121425   1.725   3.939   8.815  2.8461  0.9619  1.1255
 3322SOL    HW221426   1.611   3.911   8.900 -0.2255 -1.4267 -0.3482
 3323SOL     OW21427   1.230   1.285  12.798 -0.3784  0.4677  0.7361
 3323SOL    HW121428   1.200   1.280  12.707  1.0022  1.4975  0.2281
 3323SOL    HW221429   1.293   1.357  12.794 -0.1909  0.3400  1.5161
 3324SOL     OW21430   4.368   2.808   7.157 -0.1916  0.2968 -0.0059
 3324SOL    HW121431   4.420   2.750   7.101 -0.7445 -0.3767  0.1781
 3324SOL    HW221432   4.317   2.753   7.216  1.9453 -1.7005 -0.0041
 3325SOL     OW21433   1.562   4.468  15.496  0.4480  0.3864 -0.0032
 3325SOL    HW121434   1.560   4.541  15.558  1.0257 -1.1725  1.8654
 3325SOL    HW221435   1.525   4.510  15.419  1.2267  0.4584 -0.3410
 3326SOL     OW21436   1.585   2.491  17.542  0.2152 -0.1960  0.5648
 3326SOL    HW121437   1.499   2.448  17.547 -0.4458  0.9900 -0.7944
 3326SOL    HW221438   1.640   2.426  17.587 -0.3073 -1.0954 -0.1016
 3327SOL     OW21439   0.506   0.664   3.684 -0.4577  0.1715 -0.5840
 3327SOL    HW121440   0.526   0.639   3.774 -0.3330  3.3594  0.2674
 3327SOL    HW221441   0.429   0.607   3.678 -0.3141 -0.3565  2.5553
 3328SOL     OW21442   1.585   4.166   5.335  0.0835 -0.6611 -0.2384
 3328SOL    HW121443   1.596   4.074   5.309  1.6247 -0.0039 -1.9311
 3328SOL    HW221444   1.678   4.183   5.347  0.3581 -0.7428 -2.2393
 3329SOL     OW21445   0.441   2.798   8.355 -0.1597  0.1950  0.0819
 3329SOL    HW121446   0.410   2.849   8.430 -1.1968 -1.4687  0.7820
 3329SOL    HW221447   0.429   2.709   8.389  0.2648  0.0126 -0.2427
 3330SOL     OW21448   1.141   3.013   4.380  0.2839 -0.3617 -0.3882
 3330SOL    HW121449   1.134   3.059   4.464 -3.3043  2.4443 -2.1940
 3330SOL    HW221450   1.234   3.020   4.359 -0.1691  2.9720 -1.3813
 3331SOL     OW21451   4.085   3.643   3.830  0.0640  0.8135 -0.2546
 3331SOL    HW121452   4.061   3.648   3.923  1.2441 -1.1659  0.1474
 3331SOL    HW221453   4.074   3.548   3.821  1.2263  0.7047 -0.5283
 3332SOL     OW21454   2.668   2.578   6.521 -0.1553 -0.0608 -1.2656
 3332SOL    HW121455   2.601   2.603   6.584 -0.4067 -0.2880 -1.4427
 3332SOL    HW221456   2.699   2.507   6.577 -1.1036  0.3460 -0.2378
 3333SOL     OW21457   0.365   1.543   8.652 -0.2216 -0.5307 -0.1554
 3333SOL    HW121458   0.458   1.525   8.638 -0.3961 -1.4600 -0.0943
 3333SOL    HW221459   0.325   1.494   8.581  0.5098 -0.5101 -0.5778
 3334SOL     OW21460   3.620   2.989  14.831 -0.2543  0.4464 -0.1886
 3334SOL    HW121461   3.583   3.075  14.809 -1.5675 -0.3759 -1.1676
 3334SOL    HW221462   3.651   2.995  14.921 -2.4655  0.5989  0.5542
 3335SOL     OW21463   1.589   3.471  11.628 -0.2705  0.5950 -0.1798
 3335SOL    HW121464   1.672   3.479  11.581 -1.3194  0.7584 -2.0312
 3335SOL    HW221465   1.545   3.413  11.565 -0.4937 -0.6166  1.0961
 3336SOL     OW21466   2.629   3.343  12.018  0.0135  0.3347 -0.1602
 3336SOL    HW121467   2.535   3.357  12.025 -0.0579  1.0284 -2.4133
 3336SOL    HW221468   2.665   3.395  12.089 -0.9839  0.5491  0.1956
 3337SOL     OW21469   2.723   1.507   7.322 -0.3621 -0.0292  0.1902
 3337SOL    HW121470   2.785   1.537   7.255 -0.1666 -1.3821 -0.2320
 3337SOL    HW221471   2.689   1.588   7.361 -3.1277  0.0621 -2.3483
 3338SOL     OW21472   2.020   3.430  17.139 -0.1657  0.1627  0.2203
 3338SOL    HW121473   1.987   3.514  17.169 -0.5032  1.3272 -3.3996
 3338SOL    HW221474   1.938   3.386  17.118  1.5839 -2.8589 -0.4007
 3339SOL     OW21475   0.380   1.427   4.838  0.2238 -0.5399  0.3761
 3339SOL    HW121476   0.345   1.473   4.762  1.2292  1.3392  1.0498
 3339SOL    HW221477   0.300   1.400   4.885 -0.9194 -0.2786 -1.4290
 3340SOL     OW21478   2.686   4.127   5.837 -0.5771  0.0237 -0.3392
 3340SOL    HW121479   2.713   4.193   5.774 -0.8757 -1.5388 -2.0967
 3340SOL    HW221480   2.771   4.104   5.875  0.1527  2.3731 -0.5794
 3341SOL     OW21481   3.041   2.805   4.351  0.0593  0.1334  0.3164
 3341SOL    HW121482   3.017   2.886   4.306 -1.9310  0.2505  1.5721
 3341SOL    HW221483   3.129   2.824   4.382  0.3941 -2.3534  0.9062
 3342SOL     OW21484   2.641   2.006   9.234 -0.8257  0.3930  0.0674
 3342SOL    HW121485   2.684   1.995   9.150 -0.2215  2.9287  0.0294
 3342SOL    HW221486   2.602   1.920   9.250 -2.0814  0.8638 -0.5126
 3343SOL     OW21487   4.004   1.346   6.376  0.0038 -0.6912 -0.1994
 3343SOL    HW121488   3.973   1.397   6.302 -1.7159  0.2137  1.1548
 3343SOL    HW221489   4.098   1.350   6.356 -0.1530  1.1870 -0.4873
 3344SOL     OW21490   4.322   3.669   8.805  0.0466  0.1359 -0.1085
 3344SOL    HW121491   4.400   3.707   8.766 -0.8477 -0.2785 -2.3120
 3344SOL    HW221492   4.316   3.708   8.893  0.8988  1.6202 -0.7206
 3345SOL     OW21493   4.431   0.534  13.351  0.2629 -0.5486 -0.3009
 3345SOL    HW121494   4.379   0.551  13.273  2.6363  1.0367 -1.5381
 3345SOL    HW221495   4.403   0.451  13.390 -1.7839  1.1260  1.8119
 3346SOL     OW21496   1.896   1.739   2.072 -0.2905 -0.7842  0.7008
 3346SOL    HW121497   1.991   1.739   2.061 -0.1978 -0.2501  1.4956
 3346SOL    HW221498   1.876   1.712   2.162 -0.7476 -1.0439  0.5267
 3347SOL     OW21499   0.192   2.776  15.475 -0.1527 -0.3431 -0.6224
 3347SOL    HW121500   0.275   2.774  15.522 -1.0323 -0.3162  0.9212
 3347SOL    HW221501   0.162   2.863  15.503  1.7786  0.3456 -0.6623
 3348SOL     OW21502   0.811   1.550   2.231 -0.0345  0.1634  0.0873
 3348SOL    HW121503   0.734   1.555   2.287 -1.0812  1.5564 -1.4767
 3348SOL    HW221504   0.860   1.485   2.281 -0.9439 -0.5483  0.0499
 3349SOL     OW21505   0.278   0.612   7.261 -0.0847 -0.6139 -0.6031
 3349SOL    HW121506   0.285   0.533   7.314  0.6244 -1.3793 -1.8297
 3349SOL    HW221507   0.267   0.678   7.328  2.0796  0.4206 -1.2941
 3350SOL     OW21508   4.400   1.539   8.078  0.2199 -0.4183  0.2332
 3350SOL    HW121509   4.484   1.582   8.059 -1.0694  1.7200 -0.6447
 3350SOL    HW221510   4.351   1.605   8.128  0.2055 -1.4438  1.5520
 3351SOL     OW21511   1.834   3.066  15.056  0.2728 -0.2837  0.1629
 3351SOL    HW121512   1.786   3.057  14.974 -1.6120 -1.1984  1.3607
 3351SOL    HW221513   1.797   3.151  15.081 -1.5136 -0.6649 -1.1674
 3352SOL     OW21514   4.144   0.009  11.893 -0.2142  0.2458  0.6810
 3352SOL    HW121515   4.223   0.055  11.866  0.3414 -2.0525 -1.5991
 3352SOL    HW221516   4.173   4.643  11.874  0.9393  0.1787  2.7226
 3353SOL     OW21517   1.839   1.308  13.246 -0.5738 -0.2314  0.5311
 3353SOL    HW121518   1.924   1.342  13.272 -0.3429 -1.3224  1.1805
 3353SOL    HW221519   1.797   1.382  13.202  1.5890  1.1809  0.8621
 3354SOL     OW21520   0.719   0.076   4.663 -0.2285  0.3038  0.7761
 3354SOL    HW121521   0.672   0.154   4.634  0.0280  1.0910  2.4831
 3354SOL    HW221522   0.670   0.006   4.620  0.3669  0.4961 -0.2267
 3355SOL     OW21523   0.767   2.669   4.339 -0.2972  0.1491 -0.1643
 3355SOL    HW121524   0.810   2.604   4.283  0.1051  0.5580 -0.3313
 3355SOL    HW221525   0.846   2.711   4.372 -1.1533 -0.1349  2.2175
 3356SOL     OW21526   4.302   2.174   7.212  0.1047  0.1289 -0.7001
 3356SOL    HW121527   4.336   2.084   7.214 -0.1666  0.0181 -1.0038
 3356SOL    HW221528   4.328   2.210   7.127 -0.5227  1.6111 -0.2574
 3357SOL     OW21529   0.440   2.662   3.403  0.4219  0.7004  0.1583
 3357SOL    HW121530   0.359   2.616   3.381  0.3984  0.6002  0.4513
 3357SOL    HW221531   0.490   2.587   3.436  0.5356  1.4825  1.7689
 3358SOL     OW21532   2.033   3.876  16.281 -0.0551  0.9042  0.5017
 3358SOL    HW121533   1.939   3.890  16.292 -0.3140 -0.9924  0.7341
 3358SOL    HW221534   2.038   3.795  16.230  2.2955  1.7556 -0.6056
 3359SOL     OW21535   1.798   0.698  12.606 -0.0050 -0.4860  0.8413
 3359SOL    HW121536   1.861   0.630  12.630 -1.3566 -1.7660  0.7274
 3359SOL    HW221537   1.783   0.667  12.517  1.3929 -0.0342  0.4486
 3360SOL     OW21538   1.316   3.509   8.834  0.0523  0.2439 -0.1827
 3360SOL    HW121539   1.305   3.602   8.852  0.4289  0.3667 -0.6118
 3360SOL    HW221540   1.264   3.490   8.756  0.3920  2.9821 -1.0593
 3361SOL     OW21541   2.879   1.235   4.111  0.6931 -0.1120  0.0474
 3361SOL    HW121542   2.786   1.226   4.132  0.1207  0.8066 -2.1210
 3361SOL    HW221543   2.911   1.287   4.185 -2.4272  0.7639  0.7842
 3362SOL     OW21544   4.003   3.533   5.991  0.1833  0.6636  0.5279
 3362SOL    HW121545   4.083   3.587   5.991  0.7467 -0.1812 -0.5897
 3362SOL    HW221546   3.942   3.590   5.945  0.3230  1.1699  0.9638
 3363SOL     OW21547   4.610   1.258  11.097 -0.1556 -0.0724 -0.2324
 3363SOL    HW121548   4.558   1.325  11.142  0.7593  0.3607  0.1794
 3363SOL    HW221549   4.692   1.288  11.137  0.1516 -0.6517 -0.4242
 3364SOL     OW21550   3.326   3.036   8.818 -0.2211 -0.1870 -0.2425
 3364SOL    HW121551   3.232   3.054   8.822  0.0647  0.9335  1.2237
 3364SOL    HW221552   3.344   3.029   8.724  2.3641 -0.3037  0.2479
 3365SOL     OW21553   2.684   1.262   4.302  0.0214 -0.1900  0.0595
 3365SOL    HW121554   2.597   1.240   4.336 -1.1715  0.5259 -2.4587
 3365SOL    HW221555   2.672   1.353   4.274 -1.4740 -0.0797  1.0614
 3366SOL     OW21556   1.534   1.394   4.953 -0.2523  0.2435 -0.0846
 3366SOL    HW121557   1.554   1.394   4.860  0.7609 -0.4781  0.1383
 3366SOL    HW221558   1.609   1.441   4.989  0.4028 -0.0584 -1.0639
 3367SOL     OW21559   0.310   3.903   6.235  0.3199 -0.0376 -0.4351
 3367SOL    HW121560   0.261   3.919   6.154 -1.0457  2.0592  0.8044
 3367SOL    HW221561   0.393   3.949   6.224 -0.6423  1.8731  0.4516
 3368SOL     OW21562   3.884   0.307   8.715 -0.1173  0.4199 -0.4147
 3368SOL    HW121563   3.955   0.244   8.722 -1.4823 -1.3005 -2.1002
 3368SOL    HW221564   3.897   0.359   8.636  2.1034  1.0531  0.3746
 3369SOL     OW21565   2.082   4.551   1.891  0.1477  1.0821  0.0081
 3369SOL    HW121566   2.049   4.640   1.877 -4.3795 -0.8547 -1.7858
 3369SOL    HW221567   2.006   4.509   1.930  0.2915 -0.7368 -1.7259
 3370SOL     OW21568   1.875   0.494   4.887 -0.5152  0.5248 -0.2329
 3370SOL    HW121569   1.885   0.420   4.826 -2.7817  1.0767 -1.2832
 3370SOL    HW221570   1.782   0.515   4.877 -0.3684  0.6960 -1.2010
 3371SOL     OW21571   3.259   1.679   1.820 -0.1949 -0.7380  0.3040
 3371SOL    HW121572   3.248   1.589   1.789 -1.5478 -0.4823  0.0432
 3371SOL    HW221573   3.301   1.673   1.906 -3.1100  0.9700  1.8318
 3372SOL     OW21574   3.915   4.715  15.857 -0.0536  0.1741  0.0627
 3372SOL    HW121575   3.831   4.687  15.819 -0.5007  0.7777  0.6003
 3372SOL    HW221576   3.900   0.080  15.894  1.2801  1.0130 -1.3769
 3373SOL     OW21577   4.180   4.291   9.651  0.2284  0.2798  0.2073
 3373SOL    HW121578   4.226   4.345   9.715  0.8510  0.4462 -0.3858
 3373SOL    HW221579   4.156   4.215   9.704 -1.4597  1.8816  1.7950
 3374SOL     OW21580   3.854   0.471   9.372  0.0454 -0.4170 -0.2223
 3374SOL    HW121581   3.841   0.559   9.406 -0.3422 -0.0332 -1.3544
 3374SOL    HW221582   3.774   0.433   9.409  0.8725 -0.5212  1.4388
 3375SOL     OW21583   4.423   2.404  15.969  0.2862  0.0891 -0.6254
 3375SOL    HW121584   4.360   2.376  15.902 -0.8684  0.3365  0.3461
 3375SOL    HW221585   4.367   2.444  16.036 -0.5018 -0.3717 -1.0049
 3376SOL     OW21586   3.122   0.807  17.495  0.3236  0.4264 -0.0680
 3376SOL    HW121587   3.160   0.867  17.559  0.8827  1.1570 -1.0829
 3376SOL    HW221588   3.181   0.818  17.421 -0.2282  2.5250 -0.1871
 3377SOL     OW21589   0.096   0.841   5.305  0.2507  0.3170  0.2723
 3377SOL    HW121590   0.165   0.786   5.269  0.3278  0.9453 -0.5441
 3377SOL    HW221591   0.124   0.861   5.395  0.1690 -0.3734  0.4467
 3378SOL     OW21592   3.055   2.390   9.002  0.0176  0.2466  0.4176
 3378SOL    HW121593   3.022   2.322   9.060 -1.6874  0.1032 -0.7297
 3378SOL    HW221594   3.119   2.349   8.944  1.8297  0.8854  1.9531
 3379SOL     OW21595   2.773   3.428   2.576 -0.1787  0.3895 -0.0702
 3379SOL    HW121596   2.822   3.371   2.518  2.8781 -1.4882  4.3422
 3379SOL    HW221597   2.692   3.422   2.526  0.5098 -0.2159 -1.1079
 3380SOL     OW21598   0.308   3.308   3.712 -0.4711  0.0762  0.2912
 3380SOL    HW121599   0.238   3.356   3.757 -1.9301 -0.0873 -1.8380
 3380SOL    HW221600   0.307   3.242   3.782 -0.3071 -1.1826 -0.9117
 3381SOL     OW21601   3.972   1.556   1.580  0.0605  0.7221 -0.1926
 3381SOL    HW121602   4.042   1.595   1.529  0.3315  1.9930  1.1654
 3381SOL    HW221603   3.955   1.480   1.525  0.4717 -0.8206  1.7905
 3382SOL     OW21604   3.789   0.189   5.454 -0.7460  0.1970 -0.3298
 3382SOL    HW121605   3.793   0.270   5.505  2.8169 -0.2799  0.1298
 3382SOL    HW221606   3.796   0.123   5.523  1.9040  1.2485  0.3888
 3383SOL     OW21607   0.596   1.060   4.005 -0.1911  0.6178 -0.1665
 3383SOL    HW121608   0.631   1.069   4.094 -1.6249  1.0520  0.3430
 3383SOL    HW221609   0.610   1.150   3.975  1.3621 -0.1540 -1.7520
 3384SOL     OW21610   2.122   4.616   1.466 -0.3958  0.2745 -0.3441
 3384SOL    HW121611   2.116   4.537   1.520 -2.0728  0.9100  0.4110
 3384SOL    HW221612   2.196   4.588   1.412 -0.6078 -0.1142 -0.4389
 3385SOL     OW21613   2.879   0.540   7.618 -0.2817 -0.3498 -0.0344
 3385SOL    HW121614   2.817   0.470   7.597 -1.1809  1.2259 -2.5013
 3385SOL    HW221615   2.878   0.588   7.536  1.2231 -1.4156 -0.6875
 3386SOL     OW21616   4.485   2.456   9.513  0.6567  0.2969  0.6739
 3386SOL    HW121617   4.528   2.540   9.498  3.1311 -0.7755  1.7280
 3386SOL    HW221618   4.397   2.493   9.508  0.0719 -0.8051  3.0024
 3387SOL     OW21619   2.553   4.155   4.103  0.8445  0.1049 -0.3250
 3387SOL    HW121620   2.563   4.234   4.050 -0.4439  0.3942 -0.1410
 3387SOL    HW221621   2.594   4.087   4.050 -1.5744 -1.1507 -0.5730
 3388SOL     OW21622   3.932   2.576   2.379 -0.3565 -0.1265  0.5059
 3388SOL    HW121623   3.941   2.661   2.422  1.7894 -0.4657  0.7455
 3388SOL    HW221624   3.852   2.587   2.327  0.1797 -0.1640 -0.3260
 3389SOL     OW21625   3.579   2.944   2.392  0.0274 -0.5930  0.7759
 3389SOL    HW121626   3.554   3.036   2.400  1.5637 -0.1487  0.4823
 3389SOL    HW221627   3.499   2.893   2.397  0.5188 -1.5827 -1.4379
 3390SOL     OW21628   4.710   0.366   3.283  0.2921  0.5029 -0.3609
 3390SOL    HW121629   4.665   0.382   3.366  2.4047 -0.4063  0.9937
 3390SOL    HW221630   0.064   0.318   3.317 -0.8208 -1.2310 -0.2930
 3391SOL     OW21631   1.532   0.927   4.447 -0.6831  0.5565 -0.2609
 3391SOL    HW121632   1.509   1.019   4.461  2.7119  1.4363 -0.5209
 3391SOL    HW221633   1.477   0.885   4.513 -1.2013  2.2285  0.3658
 3392SOL     OW21634   1.235   0.559   7.224 -0.3155  0.5359 -0.2184
 3392SOL    HW121635   1.206   0.501   7.294  1.9777 -0.1351  0.1815
 3392SOL    HW221636   1.184   0.638   7.242 -2.2699 -0.5169 -1.1414
 3393SOL     OW21637   0.939   2.702   3.766 -0.1373 -0.8498  0.5946
 3393SOL    HW121638   0.995   2.748   3.704  0.3376 -0.6849  1.1519
 3393SOL    HW221639   1.001   2.691   3.838  2.0541  0.4771 -1.0968
 3394SOL     OW21640   2.905   1.058   6.375  0.4122 -0.8255  0.0200
 3394SOL    HW121641   2.888   1.024   6.287  1.7980  0.5412 -0.7503
 3394SOL    HW221642   2.920   1.149   6.352  0.9706 -0.9357 -0.0429
 3395SOL     OW21643   3.074   3.726   7.997  0.5794 -0.4541 -0.4323
 3395SOL    HW121644   3.151   3.706   8.051 -0.3590 -0.9116  0.7222
 3395SOL    HW221645   3.003   3.696   8.053 -0.5122  3.7686  0.4447
 3396SOL     OW21646   1.455   4.260  15.207  0.6483  0.3580  0.2842
 3396SOL    HW121647   1.397   4.216  15.145 -0.7239  0.4242  1.5421
 3396SOL    HW221648   1.521   4.191  15.211  0.8185  0.1591 -5.1221
 3397SOL     OW21649   3.778   0.249   7.709 -0.5188  0.1246 -0.0941
 3397SOL    HW121650   3.867   0.233   7.740 -0.4765  0.5696  0.0169
 3397SOL    HW221651   3.726   0.175   7.738 -0.2301 -0.3808 -0.8865
 3398SOL     OW21652   3.620   3.102   2.027 -0.0966  0.7775  0.1646
 3398SOL    HW121653   3.536   3.069   1.995 -0.4540  0.2339  1.6445
 3398SOL    HW221654   3.670   3.073   1.951  0.3962 -0.1932  0.8549
 3399SOL     OW21655   3.028   0.092   0.912  0.4278 -0.3299  0.9995
 3399SOL    HW121656   3.022   0.149   0.836 -2.3595 -2.1370 -0.1369
 3399SOL    HW221657   3.077   0.018   0.879  1.0448  1.1659 -1.4368
 3400SOL     OW21658   4.695   0.280   0.014 -0.1006  0.0422  0.6008
 3400SOL    HW121659   0.067   0.286  17.688  0.2043 -1.3521  1.7577
 3400SOL    HW221660   4.662   0.265  17.617  1.1950  0.8897 -0.0237
 3401SOL     OW21661   2.981   4.004   3.695  0.6026  0.1196  0.2818
 3401SOL    HW121662   2.955   3.982   3.784  0.8216  2.1438  0.8381
 3401SOL    HW221663   3.063   3.954   3.702 -0.5102 -1.9512 -1.4295
 3402SOL     OW21664   1.128   2.847   7.855  0.2452 -0.3509  0.1480
 3402SOL    HW121665   1.160   2.934   7.881 -1.2415  0.1691  0.2238
 3402SOL    HW221666   1.197   2.822   7.794 -1.2983 -0.5560 -1.5202
 3403SOL     OW21667   2.058   0.540   0.470  0.0809 -0.5019 -0.2303
 3403SOL    HW121668   2.009   0.549   0.552  0.0491 -2.9295  0.0370
 3403SOL    HW221669   2.087   0.625   0.438 -0.8336  0.3296  1.1304
 3404SOL     OW21670   2.570   4.464   5.256 -0.0793 -0.5555 -0.1347
 3404SOL    HW121671   2.597   4.475   5.347  2.5394  0.9185 -1.0900
 3404SOL    HW221672   2.602   4.546   5.218  1.0535 -0.3612  1.2239
 3405SOL     OW21673   0.907   4.095   1.761 -0.1203 -0.5462 -0.0335
 3405SOL    HW121674   0.934   4.036   1.831 -2.5226  0.3080  1.6148
 3405SOL    HW221675   0.970   4.067   1.694  0.3643  0.3930  0.0291
 3406SOL     OW21676   0.404   4.682   7.998  0.0081  0.4501 -0.4607
 3406SOL    HW121677   0.350   0.024   8.044 -0.6051 -0.1433 -0.3560
 3406SOL    HW221678   0.372   4.597   8.028  1.9941  0.0570  0.5429
 3407SOL     OW21679   1.313   3.901   4.729 -0.3990  0.5717 -0.0776
 3407SOL    HW121680   1.310   3.993   4.703  1.9593  0.4845 -0.6015
 3407SOL    HW221681   1.296   3.853   4.648  2.8432 -1.2085  0.3096
 3408SOL     OW21682   4.385   2.521   8.697 -0.2213  0.5513  1.3137
 3408SOL    HW121683   4.347   2.609   8.698 -1.7414 -0.0761 -0.1280
 3408SOL    HW221684   4.477   2.529   8.721  0.3042 -0.2543 -0.3730
 3409SOL     OW21685   2.148   3.583  12.933 -0.4997  0.4229  0.3062
 3409SOL    HW121686   2.183   3.671  12.937  1.9684 -0.5653  0.5664
 3409SOL    HW221687   2.143   3.571  12.839  2.4989 -2.5483  0.5063
 3410SOL     OW21688   0.886   0.429   0.674  0.6755  0.3588 -0.0123
 3410SOL    HW121689   0.978   0.416   0.698  0.2478  0.1646  1.5135
 3410SOL    HW221690   0.843   0.361   0.727 -0.0240 -0.5248 -1.6889
 3411SOL     OW21691   3.332   0.638   2.118  0.3672 -0.9949  0.2997
 3411SOL    HW121692   3.399   0.699   2.088 -0.2264  0.4614  1.9312
 3411SOL    HW221693   3.309   0.590   2.039 -0.8383  0.2989 -0.1225
 3412SOL     OW21694   3.465   0.828   8.617  0.0913 -0.1694  0.0691
 3412SOL    HW121695   3.553   0.841   8.651  0.2713 -0.3370 -0.3361
 3412SOL    HW221696   3.437   0.749   8.664  1.3127 -1.0836 -0.7409
 3413SOL     OW21697   2.662   0.097  17.657 -0.7129  0.8211 -0.0519
 3413SOL    HW121698   2.613   0.016  17.649 -2.0818  1.6103  0.2752
 3413SOL    HW221699   2.601   0.137   0.027 -2.1858 -1.7604  0.1387
 3414SOL     OW21700   1.010   4.010  10.637  0.6628  0.3654 -0.0095
 3414SOL    HW121701   0.956   3.941  10.599 -0.8088  1.4839  0.0232
 3414SOL    HW221702   0.994   4.088  10.584  0.7540  0.5862  0.2891
 3415SOL     OW21703   3.614   0.982   5.065 -0.3718  0.4017  0.1441
 3415SOL    HW121704   3.668   1.057   5.090 -0.2071  0.7484 -1.2723
 3415SOL    HW221705   3.665   0.924   5.009 -0.7169  0.4114 -0.1788
 3416SOL     OW21706   3.623   4.401   7.896  0.5853  0.0002  0.2155
 3416SOL    HW121707   3.656   4.440   7.977 -0.3828 -0.4294  0.8101
 3416SOL    HW221708   3.539   4.374   7.934  0.0356  3.0571  1.1271
 3417SOL     OW21709   3.607   2.847   3.065  0.1489 -0.0028  0.8174
 3417SOL    HW121710   3.538   2.913   3.063 -0.5121 -0.6908  0.9606
 3417SOL    HW221711   3.596   2.815   2.976  2.1740 -1.8174  1.1893
 3418SOL     OW21712   4.665   3.820   7.960 -0.4368  0.0939 -0.3783
 3418SOL    HW121713   4.719   3.754   8.003  0.1628  0.6741 -0.2394
 3418SOL    HW221714   4.592   3.765   7.935 -1.5813  2.3236 -1.9610
 3419SOL     OW21715   2.023   1.265   6.753  0.0284  0.2965  0.4093
 3419SOL    HW121716   2.004   1.211   6.677 -1.4088  1.1844  0.1238
 3419SOL    HW221717   2.080   1.335   6.723  0.9578 -1.2205 -1.3115
 3420SOL     OW21718   0.022   2.738   0.412 -0.1311 -1.0056  0.5295
 3420SOL    HW121719   0.097   2.782   0.451 -0.2859 -0.6588  0.4340
 3420SOL    HW221720   0.055   2.707   0.328  1.5188  2.9432 -0.2775
 3421SOL     OW21721   0.781   2.402   3.264 -0.5262  0.2390  0.1682
 3421SOL    HW121722   0.796   2.315   3.226 -1.3136  1.0379 -1.9746
 3421SOL    HW221723   0.856   2.442   3.220  0.1176 -1.5604 -0.4067
 3422SOL     OW21724   4.478   4.422  14.213  0.0543  0.4429 -0.0334
 3422SOL    HW121725   4.553   4.446  14.159 -0.7493  0.1014 -1.3059
 3422SOL    HW221726   4.488   4.327  14.216 -2.7057  0.1788  1.0643
 3423SOL     OW21727   2.040   2.142   3.928  0.2424 -0.3075 -0.0064
 3423SOL    HW121728   2.037   2.169   3.836 -1.7590  0.8228  0.3754
 3423SOL    HW221729   2.134   2.149   3.944  0.0428 -1.3387  1.6308
 3424SOL     OW21730   1.749   3.425   0.092  0.3500  0.2886 -1.1610
 3424SOL    HW121731   1.819   3.375   0.135  1.5638  2.2490 -0.8641
 3424SOL    HW221732   1.696   3.454   0.167  1.8441 -0.9125  0.3737
 3425SOL     OW21733   2.005   3.904   6.187 -0.1002 -0.2288  0.0065
 3425SOL    HW121734   1.918   3.930   6.218  0.3240  0.3267  0.7349
 3425SOL    HW221735   2.061   3.960   6.241 -3.0270  2.2936  0.4215
 3426SOL     OW21736   3.723   4.566   5.642 -0.2107  0.3200 -0.6530
 3426SOL    HW121737   3.677   4.592   5.562 -1.1609 -2.4828 -1.0111
 3426SOL    HW221738   3.810   4.596   5.617 -0.7730  1.8502 -0.7721
 3427SOL     OW21739   4.323   3.190   9.418 -0.1079 -0.4328  0.0618
 3427SOL    HW121740   4.244   3.139   9.435 -0.5504 -0.6554 -2.6680
 3427SOL    HW221741   4.349   3.227   9.503  0.4425  1.3466 -0.8868
 3428SOL     OW21742   1.271   0.143   0.913 -0.1242 -0.1463  0.2207
 3428SOL    HW121743   1.193   0.174   0.959 -1.8331  1.0247 -3.4988
 3428SOL    HW221744   1.325   0.220   0.893  2.3846 -2.4701 -2.0095
 3429SOL     OW21745   4.574   1.768   3.137 -0.5736 -0.4940  0.3978
 3429SOL    HW121746   4.598   1.718   3.216  1.1932 -1.5969 -0.8142
 3429SOL    HW221747   4.549   1.691   3.085 -2.3105 -0.3922  1.0879
 3430SOL     OW21748   2.318   4.718   8.002  0.1963  0.0277 -0.0577
 3430SOL    HW121749   2.237   0.031   7.966  1.9712  1.2316 -2.8902
 3430SOL    HW221750   2.316   0.019   8.095 -1.3008 -0.2971 -0.0203
 3431SOL     OW21751   0.332   1.376   5.467 -0.4342 -0.7941 -0.1894
 3431SOL    HW121752   0.257   1.408   5.517 -1.9758 -0.3688 -2.7905
 3431SOL    HW221753   0.379   1.315   5.523  1.3029  0.9086  0.2064
 3432SOL     OW21754   0.290   3.139   2.567 -0.0365 -0.2662 -0.4218
 3432SOL    HW121755   0.348   3.071   2.532  2.2731  1.7423 -0.5399
 3432SOL    HW221756   0.317   3.217   2.519  2.1124  0.7900  2.4810
 3433SOL     OW21757   1.362   3.599   3.370 -0.4662 -0.2104 -0.5913
 3433SOL    HW121758   1.300   3.647   3.426  2.2517  3.8393 -1.0212
 3433SOL    HW221759   1.299   3.577   3.302  0.5563 -3.6185 -0.3939
 3434SOL     OW21760   1.857   3.975   2.550 -0.6097  0.2097 -0.5266
 3434SOL    HW121761   1.938   3.986   2.499  0.0417 -2.2562  0.0003
 3434SOL    HW221762   1.809   4.055   2.528 -0.5962  0.6218  0.9376
 3435SOL     OW21763   3.052   4.068   2.159  0.2534 -0.3247  0.2182
 3435SOL    HW121764   2.973   4.019   2.140  1.0178 -1.8286  0.9336
 3435SOL    HW221765   3.063   4.032   2.247  0.5869 -0.0112  0.3098
 3436SOL     OW21766   3.637   3.320   5.812 -0.5363  0.4720 -0.4756
 3436SOL    HW121767   3.592   3.285   5.889 -0.8199 -0.0578 -0.8756
 3436SOL    HW221768   3.666   3.404   5.847  0.3256  0.5547 -1.3854
 3437SOL     OW21769   3.686   3.787   5.993 -0.6743  0.3751  0.8283
 3437SOL    HW121770   3.760   3.823   5.945 -0.4262 -0.5219  0.5346
 3437SOL    HW221771   3.646   3.865   6.032  2.2987  2.4977 -0.3965
 3438SOL     OW21772   2.949   4.063   5.981  0.4179 -0.5796 -0.4122
 3438SOL    HW121773   3.008   4.022   6.045  1.2687  0.6354 -0.4275
 3438SOL    HW221774   3.009   4.113   5.925  1.1924 -1.0889 -0.0500
 3439SOL     OW21775   3.377   0.726  13.317  0.2854  0.8480  0.0668
 3439SOL    HW121776   3.400   0.634  13.302 -2.7424  0.2271 -0.6098
 3439SOL    HW221777   3.383   0.728  13.412 -0.7136 -0.5181  0.1605
 3440SOL     OW21778   4.382   4.000   2.992  0.3180  0.0877 -0.0045
 3440SOL    HW121779   4.324   4.066   3.030  0.7499 -0.3267  1.3941
 3440SOL    HW221780   4.391   4.020   2.899  1.0323 -0.2669 -0.0126
 3441SOL     OW21781   4.250   3.756   5.979  0.5583 -0.7285  0.3567
 3441SOL    HW121782   4.326   3.812   5.993  0.7681 -0.7879 -0.5381
 3441SOL    HW221783   4.195   3.828   5.946  0.9400 -0.7330 -0.2826
 3442SOL     OW21784   4.328   0.935   7.322  0.2274  0.0157  0.0936
 3442SOL    HW121785   4.345   0.849   7.360 -0.5723 -0.5464 -0.8034
 3442SOL    HW221786   4.418   0.968   7.317  0.8673 -1.5591  1.1171
 3443SOL     OW21787   2.055   3.418   9.723  0.0774  0.5255  0.2549
 3443SOL    HW121788   2.024   3.354   9.659 -0.5108  0.5601  0.5044
 3443SOL    HW221789   1.988   3.420   9.791 -0.9134  1.7818 -0.7701
 3444SOL     OW21790   0.914   0.365   2.887  0.2129 -0.5531 -0.2968
 3444SOL    HW121791   0.864   0.431   2.936 -0.0208 -0.7350 -0.2917
 3444SOL    HW221792   0.951   0.329   2.968 -1.3311  1.8703  1.4695
 3445SOL     OW21793   3.241   0.740   2.370 -0.1912 -0.0450 -0.2519
 3445SOL    HW121794   3.330   0.759   2.399 -0.5281 -0.8638  1.3203
 3445SOL    HW221795   3.266   0.682   2.297  1.0868 -0.0269  0.1624
 3446SOL     OW21796   4.219   2.505  13.711  0.3343 -0.3648  0.2856
 3446SOL    HW121797   4.261   2.553  13.783 -1.3043  1.0623  0.2926
 3446SOL    HW221798   4.144   2.472  13.760 -0.6162 -0.4722 -1.2585
 3447SOL     OW21799   0.249   4.568   9.609  0.4096 -0.2724 -0.1020
 3447SOL    HW121800   0.260   4.572   9.704 -0.9273 -0.2034  0.0425
 3447SOL    HW221801   0.265   4.662   9.594 -0.9889 -0.0126  0.0070
 3448SOL     OW21802   4.502   1.741   8.317 -0.5580 -0.2880  0.2022
 3448SOL    HW121803   4.418   1.723   8.274 -0.4352 -0.2675 -0.0501
 3448SOL    HW221804   4.482   1.792   8.395  1.2372  0.6708  0.0501
 3449SOL     OW21805   2.782   2.695   2.668 -0.2693  0.6303 -0.4918
 3449SOL    HW121806   2.808   2.723   2.580  1.6255 -0.4672 -0.2761
 3449SOL    HW221807   2.802   2.602   2.657 -2.3105  0.1115  0.1862
 3450SOL     OW21808   1.770   3.388   7.432  0.2966  0.5771  1.2953
 3450SOL    HW121809   1.771   3.481   7.455 -1.1197  0.4565  1.8557
 3450SOL    HW221810   1.796   3.390   7.340 -0.0039 -1.5848  1.1492
 3451SOL     OW21811   2.433   4.420   0.412 -0.3831  0.0727 -0.2697
 3451SOL    HW121812   2.524   4.394   0.428 -1.5899 -3.1781  1.4360
 3451SOL    HW221813   2.440   4.515   0.405 -1.4485  0.1637 -0.1445
 3452SOL     OW21814   1.048   4.020   3.459  0.2076 -0.1753 -0.1947
 3452SOL    HW121815   1.113   4.050   3.523  1.6014  1.1436 -2.2124
 3452SOL    HW221816   1.077   4.076   3.387 -0.3616  0.0227 -0.2636
 3453SOL     OW21817   2.470   0.813   2.696 -0.0548  0.2598  0.2211
 3453SOL    HW121818   2.511   0.804   2.782  2.1757 -0.0793 -0.8869
 3453SOL    HW221819   2.553   0.823   2.650 -0.4170  0.0642 -0.4738
 3454SOL     OW21820   0.827   3.338   7.449  0.2807 -0.0987  0.6067
 3454SOL    HW121821   0.923   3.339   7.452  0.3235 -1.6289 -0.1086
 3454SOL    HW221822   0.801   3.428   7.467 -0.4033  0.1003 -1.3975
 3455SOL     OW21823   0.493   3.916  14.211  0.4059 -0.0551  0.4172
 3455SOL    HW121824   0.578   3.880  14.238  0.3541  0.1296  0.8253
 3455SOL    HW221825   0.462   3.956  14.292 -0.9248 -0.1120 -0.0586
 3456SOL     OW21826   1.859   3.019   9.811 -0.2623 -0.4087  0.6424
 3456SOL    HW121827   1.836   3.106   9.843 -3.1583 -0.9453 -0.0118
 3456SOL    HW221828   1.945   3.006   9.850  0.7606  1.7952 -0.8310
 3457SOL     OW21829   3.550   0.700   4.893  0.3398  0.1726 -0.2839
 3457SOL    HW121830   3.569   0.609   4.869  0.5435 -0.1679  1.1560
 3457SOL    HW221831   3.638   0.735   4.908  0.3134  0.4201 -0.7010
 3458SOL     OW21832   1.659   2.105   9.379  0.0319  0.2468 -0.0252
 3458SOL    HW121833   1.754   2.115   9.381  0.1553 -0.9903  0.6987
 3458SOL    HW221834   1.645   2.156   9.459  0.8689  0.8843 -0.2931
 3459SOL     OW21835   0.049   1.158   3.625 -0.8045  0.1435  0.0743
 3459SOL    HW121836   0.055   1.254   3.630  4.6049 -0.2787  1.4449
 3459SOL    HW221837   0.129   1.142   3.575 -0.4760  0.5029  0.4883
 3460SOL     OW21838   4.563   1.215   1.643  0.5077  0.1118 -0.4091
 3460SOL    HW121839   4.610   1.152   1.697 -0.6347 -1.8695 -1.7626
 3460SOL    HW221840   4.591   1.176   1.560 -0.9205 -2.3814  0.2918
 3461SOL     OW21841   3.007   0.763   2.494  0.1715  0.4915 -0.0716
 3461SOL    HW121842   3.074   0.742   2.429  1.1619 -1.4668  1.5778
 3461SOL    HW221843   3.065   0.793   2.564  0.6720  0.6511 -0.5577
 3462SOL     OW21844   1.378   3.719  10.358  0.1752  0.0383 -0.2620
 3462SOL    HW121845   1.396   3.813  10.368  1.6198  0.0922 -3.5095
 3462SOL    HW221846   1.333   3.720  10.443  1.5482 -0.1107  0.4581
 3463SOL     OW21847   0.392   0.849   3.919 -0.3356 -0.1667 -0.1055
 3463SOL    HW121848   0.403   0.866   3.825  0.1126 -1.7019 -0.3243
 3463SOL    HW221849   0.448   0.911   3.965 -1.8717  2.5680 -1.9252
 3464SOL     OW21850   2.967   2.056   0.725  0.1391 -0.2216  0.1667
 3464SOL    HW121851   3.026   1.999   0.775 -1.7402 -1.6024  0.7954
 3464SOL    HW221852   3.024   2.132   0.719  1.1133 -0.9386  0.3221
 3465SOL     OW21853   4.575   1.474   2.492 -0.0401  0.0159  0.1284
 3465SOL    HW121854   4.549   1.564   2.473 -0.3106 -0.0619  0.1297
 3465SOL    HW221855   4.662   1.473   2.451  0.0140  1.9585  0.1821
 3466SOL     OW21856   2.070   3.630   6.152 -0.0010 -0.5255  0.1071
 3466SOL    HW121857   2.095   3.598   6.238 -4.6766 -0.4352  1.5219
 3466SOL    HW221858   2.059   3.723   6.175 -1.4783 -1.3298  2.6078
 3467SOL     OW21859   0.043   3.498   1.317  0.2987  0.6909 -0.5099
 3467SOL    HW121860   4.690   3.496   1.258 -0.8074 -0.3427  0.9381
 3467SOL    HW221861   0.096   3.569   1.281  0.6008  2.0301  2.6199
 3468SOL     OW21862   1.076   3.212   8.512  0.8360 -0.3614  0.8538
 3468SOL    HW121863   1.041   3.185   8.597 -1.4542  0.3859  0.1458
 3468SOL    HW221864   1.071   3.308   8.516 -2.6279 -0.5586  1.2150
 3469SOL     OW21865   2.022   4.344  12.479 -0.2340 -0.5032 -0.0016
 3469SOL    HW121866   2.080   4.283  12.434 -0.7978  0.0353 -1.4738
 3469SOL    HW221867   1.943   4.341  12.424 -1.1109 -0.3690  1.2454
 3470SOL     OW21868   1.914   2.375   5.169  0.1518 -0.3090  0.2380
 3470SOL    HW121869   1.841   2.326   5.131 -1.0912  0.7242  1.2981
 3470SOL    HW221870   1.870   2.416   5.243  0.0678  1.9254 -1.0472
 3471SOL     OW21871   4.155   1.181   3.340 -0.1214  0.0800 -0.1675
 3471SOL    HW121872   4.105   1.262   3.353  0.7204  0.4079  1.1022
 3471SOL    HW221873   4.245   1.212   3.329 -0.5959  2.1105  1.4882
 3472SOL     OW21874   2.890   0.220   7.164  0.3314  0.4995 -0.4497
 3472SOL    HW121875   2.921   0.248   7.078 -1.8286 -0.7396 -1.6446
 3472SOL    HW221876   2.975   0.199   7.202  0.2381  0.9680  0.0234
 3473SOL     OW21877   2.747   3.150   4.928 -0.3479 -0.1367 -0.1212
 3473SOL    HW121878   2.789   3.161   4.843 -2.0185  1.6933 -0.7071
 3473SOL    HW221879   2.812   3.103   4.981 -0.3690 -0.0382 -0.0074
 3474SOL     OW21880   2.387   0.894   5.378  0.0516 -0.4279  0.5259
 3474SOL    HW121881   2.295   0.877   5.360 -0.1451  1.0514  0.1514
 3474SOL    HW221882   2.381   0.966   5.440  3.1195 -0.8809  1.3553
 3475SOL     OW21883   1.431   0.695   7.694  0.3315 -0.1730  0.0250
 3475SOL    HW121884   1.381   0.774   7.675 -0.4461  0.1968  3.6745
 3475SOL    HW221885   1.388   0.672   7.776 -0.1600 -0.8089 -0.4094
 3476SOL     OW21886   0.933   3.453   3.824 -0.1021  0.2004  0.5715
 3476SOL    HW121887   0.885   3.504   3.890  0.6011  0.4433  0.9056
 3476SOL    HW221888   0.914   3.362   3.846 -2.2934 -0.0289 -2.2163
 3477SOL     OW21889   1.917   1.686   6.284  0.1922 -0.0352 -0.3817
 3477SOL    HW121890   1.997   1.728   6.316 -1.0702  2.5483 -0.6611
 3477SOL    HW221891   1.971   1.618   6.243 -1.9353 -0.9096 -1.7234
 3478SOL     OW21892   2.597   1.866   4.755 -0.5131  0.2992  0.0379
 3478SOL    HW121893   2.554   1.938   4.710 -2.7610 -0.8007  0.3914
 3478SOL    HW221894   2.687   1.891   4.737 -0.8146  1.2792 -0.1175
 3479SOL     OW21895   4.241   2.566  16.172  0.3591 -0.3337 -0.0620
 3479SOL    HW121896   4.294   2.598  16.245 -2.2149  0.8357  1.2826
 3479SOL    HW221897   4.185   2.509  16.224 -0.3026 -0.5699 -1.0503
 3480SOL     OW21898   1.638   2.955   0.137 -0.0827 -0.0811  0.4717
 3480SOL    HW121899   1.733   2.946   0.141  0.0056  0.0228 -1.5034
 3480SOL    HW221900   1.617   2.862   0.139  0.7841 -0.2747  0.6871
 3481SOL     OW21901   4.512   3.498   5.486 -0.3852 -0.3845 -0.1112
 3481SOL    HW121902   4.511   3.466   5.576  1.1359  1.3136  0.5199
 3481SOL    HW221903   4.551   3.424   5.441  3.1380  0.2708  1.8971
 3482SOL     OW21904   3.575   2.750   8.592  0.7514 -0.1552  0.7313
 3482SOL    HW121905   3.505   2.685   8.598  0.7664  0.0403  3.1028
 3482SOL    HW221906   3.556   2.790   8.507 -1.5107 -1.8081  0.4647
 3483SOL     OW21907   3.604   2.380   2.120  0.0084 -0.2970  0.1828
 3483SOL    HW121908   3.625   2.437   2.046 -0.9262  0.4181  0.4620
 3483SOL    HW221909   3.629   2.295   2.085 -0.7828 -0.5164  0.1672
 3484SOL     OW21910   0.192   4.137   3.251  0.4498 -0.2486 -0.4815
 3484SOL    HW121911   0.232   4.065   3.202  0.3130  1.2132 -2.7549
 3484SOL    HW221912   0.175   4.197   3.178  2.3433 -0.0227 -0.7309
 3485SOL     OW21913   1.055   3.099   3.948  0.2037  0.1280  0.0500
 3485SOL    HW121914   0.971   3.059   3.924 -0.6187  1.3816  0.8399
 3485SOL    HW221915   1.031   3.104   4.040  0.3147  0.9902  0.0324
 3486SOL     OW21916   4.149   2.223   3.955 -0.9345  0.2714  0.0073
 3486SOL    HW121917   4.094   2.152   3.988  0.6401 -1.4346 -1.0695
 3486SOL    HW221918   4.229   2.171   3.947 -1.0114  0.5974 -2.9643
 3487SOL     OW21919   1.701   4.211   4.277 -0.4199 -0.3491  0.0890
 3487SOL    HW121920   1.693   4.172   4.190 -1.1833  0.2841 -0.1187
 3487SOL    HW221921   1.750   4.148   4.331  2.6160  1.3711 -0.7149
 3488SOL     OW21922   2.900   1.017   2.130 -0.1557 -0.5996  0.4231
 3488SOL    HW121923   2.945   0.934   2.115  1.8955  0.3264  1.4484
 3488SOL    HW221924   2.811   0.985   2.119  0.1559 -1.1834 -0.4287
 3489SOL     OW21925   2.009   1.573   4.789  0.0852  0.0107  0.2570
 3489SOL    HW121926   2.030   1.512   4.860 -0.4474 -2.6624 -1.8651
 3489SOL    HW221927   1.952   1.633   4.837  1.3776 -0.1230  1.9850
 3490SOL     OW21928   4.530   1.112   3.730  0.1709  0.4106  0.2736
 3490SOL    HW121929   4.624   1.107   3.713  0.1922 -1.0484  0.8037
 3490SOL    HW221930   4.491   1.135   3.646  1.4430 -4.1235 -1.5734
 3491SOL     OW21931   3.004   2.578   6.649 -0.0931  0.1715 -0.0706
 3491SOL    HW121932   3.099   2.585   6.650 -0.1985  1.2237  1.3759
 3491SOL    HW221933   2.978   2.651   6.705 -1.5808 -0.1528 -0.3414
 3492SOL     OW21934   3.652   3.824   2.551 -0.0532  0.4998 -0.0714
 3492SOL    HW121935   3.743   3.853   2.546  0.3812 -0.8218  0.1541
 3492SOL    HW221936   3.653   3.776   2.468 -0.9466 -0.0856  0.2495
 3493SOL     OW21937   3.495   2.053   8.116 -0.3348 -0.3407  0.2131
 3493SOL    HW121938   3.479   2.092   8.202 -0.2507  0.9796 -0.3676
 3493SOL    HW221939   3.529   2.131   8.071  0.4720 -1.5545 -1.2486
 3494SOL     OW21940   1.244   2.906   7.279  0.1656 -0.0412  0.1734
 3494SOL    HW121941   1.163   2.922   7.230 -0.8087  2.0542  2.4931
 3494SOL    HW221942   1.306   2.934   7.211  0.6912 -1.6002  0.0103
 3495SOL     OW21943   3.965   2.574  16.962 -0.6337 -0.0893  0.5168
 3495SOL    HW121944   4.034   2.574  16.896 -0.9879  3.2727  0.1417
 3495SOL    HW221945   3.984   2.500  17.019  0.7033  0.8502  1.2874
 3496SOL     OW21946   3.166   3.976   7.323 -0.0537 -0.3136 -0.1130
 3496SOL    HW121947   3.121   4.055   7.354 -1.3710 -1.5049  1.0650
 3496SOL    HW221948   3.134   3.961   7.234 -0.3575  0.1338 -0.0803
 3497SOL     OW21949   3.664   4.321   8.827  0.6767 -0.1053  0.7782
 3497SOL    HW121950   3.630   4.311   8.915  1.3973  0.7486  1.1566
 3497SOL    HW221951   3.684   4.229   8.809 -1.2426 -0.7073  1.7931
 3498SOL     OW21952   0.742   3.254   5.580 -0.6184  0.7992  0.3304
 3498SOL    HW121953   0.810   3.278   5.642 -0.7945 -1.0194  1.2328
 3498SOL    HW221954   0.783   3.196   5.516 -0.1164  0.1739  1.2235
 3499SOL     OW21955   0.872   3.723   7.780 -0.0976  0.4249  0.5656
 3499SOL    HW121956   0.934   3.653   7.758  1.4281  1.7230  0.7687
 3499SOL    HW221957   0.801   3.661   7.798 -1.0279  1.8375  1.7642
 3500SOL     OW21958   4.529   3.968   2.182 -0.0108  0.0127 -0.5954
 3500SOL    HW121959   4.524   4.059   2.154 -2.9703  0.0072 -0.0634
 3500SOL    HW221960   4.512   3.927   2.097 -2.1734 -0.8985  0.2782
 3501SOL     OW21961   2.637   1.510   4.508  0.1726 -0.0728  0.0441
 3501SOL    HW121962   2.656   1.421   4.537 -0.2928 -0.6375 -1.3967
 3501SOL    HW221963   2.694   1.555   4.570 -0.0756 -1.1674  1.0715
 3502SOL     OW21964   1.765   1.869   0.639 -0.0495  0.2959 -0.1485
 3502SOL    HW121965   1.696   1.823   0.591  0.0502 -1.0536  0.9955
 3502SOL    HW221966   1.723   1.955   0.638 -1.0216 -0.1790 -0.6391
 3503SOL     OW21967   2.898   4.349  17.048  0.3253 -0.2593 -0.3155
 3503SOL    HW121968   2.835   4.419  17.061  0.6934  0.0477 -0.1597
 3503SOL    HW221969   2.982   4.396  17.050 -0.2071  0.6840 -0.1408
 3504SOL     OW21970   3.137   3.675   7.653 -0.1984  0.0337  0.1263
 3504SOL    HW121971   3.094   3.734   7.715 -1.3076 -0.0190 -0.5951
 3504SOL    HW221972   3.191   3.743   7.613 -0.7254  0.0489 -0.5602
 3505SOL     OW21973   0.087   3.710   4.462 -0.0865 -0.2503  0.0518
 3505SOL    HW121974   0.034   3.630   4.466 -0.3110 -0.0353  1.2938
 3505SOL    HW221975   0.020   3.777   4.477  0.5346  0.6350 -1.1759
 3506SOL     OW21976   0.972   1.835   2.290  0.3826  0.5801 -0.4867
 3506SOL    HW121977   1.021   1.755   2.270  1.5415  0.9239  0.9948
 3506SOL    HW221978   0.902   1.794   2.341  1.7139 -2.1866 -0.8566
 3507SOL     OW21979   2.481   4.365   2.214 -0.0742  0.1191 -0.0255
 3507SOL    HW121980   2.409   4.368   2.277 -0.2713  0.5548 -0.2699
 3507SOL    HW221981   2.432   4.396   2.137 -1.5982  1.2857  1.4221
 3508SOL     OW21982   2.059   4.399   4.315 -0.3983  0.1620  0.4435
 3508SOL    HW121983   2.094   4.432   4.232 -0.5414 -1.9797 -0.4969
 3508SOL    HW221984   2.109   4.445   4.382 -0.0707 -0.3638  0.5618
 3509SOL     OW21985   3.436   3.639  14.276 -0.3189 -0.8960 -0.5753
 3509SOL    HW121986   3.399   3.706  14.334  0.3723  0.0366 -1.2232
 3509SOL    HW221987   3.395   3.666  14.194 -1.4398 -1.5878 -0.2380
 3510SOL     OW21988   1.632   4.081   4.716 -0.3145  0.0156  0.1213
 3510SOL    HW121989   1.630   4.141   4.790 -1.2275  0.7000 -0.4670
 3510SOL    HW221990   1.720   4.098   4.682 -0.1525  1.3233  1.2099
 3511SOL     OW21991   1.582   3.734  11.484 -0.3768 -0.0346  0.1583
 3511SOL    HW121992   1.663   3.713  11.530 -1.3288  0.8809  2.2552
 3511SOL    HW221993   1.560   3.813  11.535 -0.7102 -0.3084  0.4399
 3512SOL     OW21994   4.597   3.488   4.459  0.3730  0.3216  0.0156
 3512SOL    HW121995   4.508   3.517   4.441  0.4775 -0.2627 -1.4208
 3512SOL    HW221996   4.591   3.393   4.446  0.4568  0.4022 -0.5736
 3513SOL     OW21997   1.750   1.933   2.752  1.0575 -0.1017  0.0095
 3513SOL    HW121998   1.742   1.960   2.661 -1.5957 -0.1552  0.2264
 3513SOL    HW221999   1.785   2.010   2.797  0.2224  0.0452  0.4019
 3514SOL     OW22000   0.803   1.996  15.897  0.6255 -0.2169  0.2467
 3514SOL    HW122001   0.792   2.026  15.807 -0.4302  0.1154  0.4873
 3514SOL    HW222002   0.884   2.039  15.925 -0.9275  2.4565  0.6557
 3515SOL     OW22003   2.666   2.130   1.012  0.0544 -0.3072  0.3667
 3515SOL    HW122004   2.633   2.206   0.965 -0.6206 -0.4910  0.5379
 3515SOL    HW222005   2.609   2.114   1.088  0.5800 -2.2354  0.3680
 3516SOL     OW22006   0.932   1.651   6.595  0.5515 -0.2211 -0.7293
 3516SOL    HW122007   0.942   1.616   6.507 -0.5300 -1.8430 -0.2136
 3516SOL    HW222008   0.959   1.743   6.597  0.5886 -0.2693  1.0591
 3517SOL     OW22009   2.413   1.325   9.228 -0.4032  0.9405 -0.3946
 3517SOL    HW122010   2.456   1.288   9.152 -0.6918  1.0810 -0.6255
 3517SOL    HW222011   2.325   1.333   9.191 -0.6819 -3.9017 -0.7588
 3518SOL     OW22012   2.443   2.486  12.627 -0.3202  0.7668  0.2607
 3518SOL    HW122013   2.522   2.521  12.669 -0.0001  0.6042 -0.2018
 3518SOL    HW222014   2.421   2.559  12.570 -1.7878 -0.8284 -1.2050
 3519SOL     OW22015   4.663   3.337  17.465 -0.5811 -0.1423 -0.8669
 3519SOL    HW122016   4.649   3.398  17.537  1.8114  0.3971 -0.8716
 3519SOL    HW222017   0.034   3.342  17.445 -0.5191 -1.3490 -0.8772
 3520SOL     OW22018   0.067   1.257   5.447 -0.3987 -0.0221 -0.8503
 3520SOL    HW122019   0.048   1.233   5.538  0.8710  0.0254 -0.5688
 3520SOL    HW222020   0.163   1.263   5.445 -0.5711  4.1029  2.2234
 3521SOL     OW22021   0.503   4.237  12.510  0.5000 -0.3661 -0.1451
 3521SOL    HW122022   0.587   4.264  12.472  2.0123 -3.1845  1.1881
 3521SOL    HW222023   0.538   4.174  12.573  2.5339 -0.0582 -0.9680
 3522SOL     OW22024   0.822   0.991  17.298  0.1643 -0.0564 -0.3150
 3522SOL    HW122025   0.787   0.906  17.271 -1.4178  0.7148 -0.6892
 3522SOL    HW222026   0.772   1.059  17.253 -0.0596  0.8212  1.2744
 3523SOL     OW22027   2.549   1.983   1.562 -0.1664  0.3689 -0.2675
 3523SOL    HW122028   2.582   2.068   1.534 -0.3714  0.9170  1.1940
 3523SOL    HW222029   2.473   1.972   1.504  0.8517 -1.4473 -1.2654
 3524SOL     OW22030   3.483   1.455   9.494 -0.0670 -0.0387 -0.1636
 3524SOL    HW122031   3.432   1.534   9.473  0.1179  0.1465  0.0762
 3524SOL    HW222032   3.430   1.390   9.449  0.5548  0.3243 -1.4151
 3525SOL     OW22033   2.786   3.092  11.790  0.4083 -0.0969 -0.1866
 3525SOL    HW122034   2.877   3.066  11.805  1.2567  2.9881 -0.0009
 3525SOL    HW222035   2.759   3.039  11.715  3.3616  2.1345 -2.7941
 3526SOL     OW22036   1.005   2.957   7.114 -0.1825  0.3878  0.1234
 3526SOL    HW122037   1.008   2.886   7.050  2.0946  1.1782 -0.6684
 3526SOL    HW222038   0.934   3.003   7.068 -1.0380 -1.9734 -0.9387
 3527SOL     OW22039   0.338   2.615  14.794  0.2934 -0.2284 -0.0109
 3527SOL    HW122040   0.325   2.526  14.760 -1.3468 -0.2672  0.7402
 3527SOL    HW222041   0.433   2.621  14.804  0.4696 -3.3417  0.1063
 3528SOL     OW22042   4.270   3.437   7.788  0.2998  0.2553 -0.4913
 3528SOL    HW122043   4.327   3.385   7.845  0.1079  1.7668  1.0903
 3528SOL    HW222044   4.302   3.523   7.818 -1.1820 -0.1900  2.3865
 3529SOL     OW22045   4.167   3.579  14.784 -0.0829  0.2055 -0.0932
 3529SOL    HW122046   4.239   3.588  14.847  0.2965 -0.5259 -0.4113
 3529SOL    HW222047   4.166   3.483  14.776 -0.8420  0.2312 -0.2861
 3530SOL     OW22048   3.731   1.437  14.667 -0.1563  0.0615  0.5308
 3530SOL    HW122049   3.663   1.436  14.599 -0.4205  3.5597  0.7116
 3530SOL    HW222050   3.767   1.350  14.655  0.5681  0.1908  1.8414
 3531SOL     OW22051   0.308   0.773  15.311  1.0712  0.4597 -0.2322
 3531SOL    HW122052   0.226   0.823  15.307  0.1956 -0.8459  1.4702
 3531SOL    HW222053   0.371   0.833  15.270  0.0833  1.0621 -0.8930
 3532SOL     OW22054   3.212   0.219   2.730  0.1346 -0.6630  0.0624
 3532SOL    HW122055   3.208   0.124   2.724  1.7321 -0.7257  0.0543
 3532SOL    HW222056   3.176   0.233   2.818 -0.0381  0.7760 -0.2445
 3533SOL     OW22057   3.506   3.618   0.099 -0.2923  0.1565  0.3344
 3533SOL    HW122058   3.550   3.652   0.020  1.7018  0.2539  1.4991
 3533SOL    HW222059   3.433   3.681   0.097 -1.1105 -0.7712  1.9236
 3534SOL     OW22060   1.781   1.892   0.102  0.0291  0.4411 -0.0163
 3534SOL    HW122061   1.692   1.919   0.077  0.1976  1.2947  0.2858
 3534SOL    HW222062   1.756   1.807   0.138 -0.9483 -0.1185 -2.0408
 3535SOL     OW22063   3.195   0.147  16.577  0.5270  0.2190  0.2107
 3535SOL    HW122064   3.211   0.195  16.496 -2.4277  1.0917  0.1214
 3535SOL    HW222065   3.110   0.185  16.601 -0.0447  1.1183 -3.2701
 3536SOL     OW22066   1.306   4.018  17.268 -0.7696  0.0579 -0.4188
 3536SOL    HW122067   1.321   3.967  17.188 -2.6082 -0.8586 -0.1611
 3536SOL    HW222068   1.390   4.063  17.273 -0.3515 -0.5017 -2.3389
 3537SOL     OW22069   4.045   3.899   7.003  0.2581 -0.1207 -0.1535
 3537SOL    HW122070   4.104   3.877   7.074 -0.8211 -0.5985  0.6021
 3537SOL    HW222071   4.006   3.978   7.040 -0.8715 -1.5467  1.7099
 3538SOL     OW22072   3.490   0.474   2.568 -0.1972  0.0101 -0.0483
 3538SOL    HW122073   3.444   0.419   2.505 -0.3194  1.2697 -1.0672
 3538SOL    HW222074   3.514   0.411   2.636  1.8238  0.5073 -0.2918
 3539SOL     OW22075   2.072   0.799   0.376 -0.1370 -0.5790  0.0073
 3539SOL    HW122076   2.007   0.869   0.372  0.0052 -0.4692 -0.3563
 3539SOL    HW222077   2.144   0.841   0.329  0.1285 -0.9883  0.0437
 3540SOL     OW22078   4.689   0.451   4.658  0.7903  0.2043  0.1880
 3540SOL    HW122079   0.039   0.387   4.656 -0.0190 -0.6598 -1.8775
 3540SOL    HW222080   4.651   0.453   4.570 -0.8656  2.5537  0.9754
 3541SOL     OW22081   0.165   0.464   1.833  0.6229 -0.7959 -0.1787
 3541SOL    HW122082   0.248   0.463   1.786  0.4138 -1.0500 -0.5472
 3541SOL    HW222083   0.100   0.442   1.766  0.9892 -1.6438 -0.2527
 3542SOL     OW22084   2.653   3.860   5.021 -0.3951  0.4837 -0.6799
 3542SOL    HW122085   2.559   3.877   5.027 -0.3546 -0.1931  1.6966
 3542SOL    HW222086   2.652   3.799   4.946 -0.2668  2.3177 -2.1806
 3543SOL     OW22087   0.178   2.965   3.206  0.4072 -0.0814 -0.0204
 3543SOL    HW122088   0.096   3.010   3.188 -1.0121 -2.9491 -0.6257
 3543SOL    HW222089   0.189   2.908   3.130 -3.8289 -0.1564 -0.5521
 3544SOL     OW22090   2.187   3.478   2.697 -0.7216 -0.3845 -0.2146
 3544SOL    HW122091   2.124   3.508   2.763 -1.7086  1.5328 -2.0287
 3544SOL    HW222092   2.180   3.384   2.713  0.2654 -0.0828  1.9213
 3545SOL     OW22093   2.317   4.204   9.835 -0.5220  0.1592  0.1686
 3545SOL    HW122094   2.274   4.139   9.890  0.7328 -0.3733  0.4992
 3545SOL    HW222095   2.400   4.159   9.822 -0.8127  0.4801 -2.7797
 3546SOL     OW22096   2.490   3.122   5.009  0.3759  0.2326  0.6579
 3546SOL    HW122097   2.466   3.200   4.960  2.5946  1.1590  1.0769
 3546SOL    HW222098   2.576   3.099   4.973 -0.7437 -2.1993 -0.4690
 3547SOL     OW22099   0.517   3.431   5.510  0.0909  0.0472  0.0125
 3547SOL    HW122100   0.534   3.506   5.453  0.9849  0.8250  1.3007
 3547SOL    HW222101   0.594   3.377   5.493 -1.7786 -2.5707 -0.1661
 3548SOL     OW22102   2.541   4.639  14.727 -0.5473 -0.0856 -0.2325
 3548SOL    HW122103   2.549   4.564  14.667  0.6789 -1.4964  1.7170
 3548SOL    HW222104   2.630   4.668  14.708 -0.4929 -0.1838 -0.1282
 3549SOL     OW22105   4.018   1.393   2.200  0.3610  0.1865 -0.1208
 3549SOL    HW122106   3.999   1.301   2.181  2.9870 -0.3294 -0.2725
 3549SOL    HW222107   4.039   1.383   2.293 -0.7878 -2.9768 -0.1775
 3550SOL     OW22108   2.491   4.121  15.053  0.4827  0.0678 -0.1470
 3550SOL    HW122109   2.505   4.169  14.971  1.1847 -0.8180 -0.5496
 3550SOL    HW222110   2.418   4.170  15.091  0.3867  0.8988 -1.3983
 3551SOL     OW22111   1.543   3.610   4.136  0.3664  0.3320 -0.2302
 3551SOL    HW122112   1.579   3.653   4.058  0.9583 -0.9058 -0.6506
 3551SOL    HW222113   1.456   3.649   4.135 -0.6785 -1.9657  1.4585
 3552SOL     OW22114   4.609   2.442   0.216 -0.0716 -0.1292 -0.4915
 3552SOL    HW122115   4.650   2.509   0.161  0.3801 -0.1854 -0.2217
 3552SOL    HW222116   4.546   2.403   0.155 -0.2749 -0.4106 -0.1039
 3553SOL     OW22117   1.201   0.991  14.702  0.2204  0.5180 -0.0433
 3553SOL    HW122118   1.128   0.937  14.734  0.3715 -0.6279 -1.6264
 3553SOL    HW222119   1.275   0.931  14.699  0.1580  0.4244  0.2612
 3554SOL     OW22120   0.550   4.065   7.782 -0.1231  0.4848  0.6045
 3554SOL    HW122121   0.558   4.091   7.690  0.1724 -1.2983  0.1300
 3554SOL    HW222122   0.503   4.140   7.818  0.5574  2.0076 -1.6638
 3555SOL     OW22123   2.963   2.552   2.464 -0.8444 -0.0928 -0.0473
 3555SOL    HW122124   2.921   2.481   2.415  1.8520 -0.2518 -2.1549
 3555SOL    HW222125   2.908   2.627   2.440  0.1222  0.6330 -0.0193
 3556SOL     OW22126   0.892   1.208   3.545 -0.8322 -0.0491 -0.0229
 3556SOL    HW122127   0.926   1.133   3.593  1.0532  0.6566 -0.2553
 3556SOL    HW222128   0.934   1.191   3.461 -2.3727  2.2141 -1.2529
 3557SOL     OW22129   0.816   0.994  15.388  0.2326 -0.1430 -0.1172
 3557SOL    HW122130   0.732   1.024  15.423 -0.4781  0.6157 -2.4412
 3557SOL    HW222131   0.799   0.902  15.407  0.2869 -0.0828  0.2312
 3558SOL     OW22132   2.543   3.414   9.389  0.1013  0.5313 -0.3255
 3558SOL    HW122133   2.605   3.341   9.389 -1.0669 -0.4594  0.3568
 3558SOL    HW222134   2.508   3.408   9.300 -0.6945 -2.0963  0.1569
 3559SOL     OW22135   2.886   0.268   4.165  0.5421  0.6128  0.2512
 3559SOL    HW122136   2.934   0.349   4.178 -0.2193  1.4452 -2.0613
 3559SOL    HW222137   2.953   0.203   4.147 -0.1740 -0.3185  0.9196
 3560SOL     OW22138   4.041   2.699   1.884 -0.5755  0.3019 -0.0479
 3560SOL    HW122139   4.070   2.786   1.856 -0.8692  0.8552  1.3561
 3560SOL    HW222140   4.121   2.655   1.856  1.5016  4.8538 -1.3445
 3561SOL     OW22141   4.063   3.010   5.513  0.1382  0.0161  0.1071
 3561SOL    HW122142   4.114   3.077   5.469 -1.1610  1.6952  1.1570
 3561SOL    HW222143   4.028   2.957   5.441  3.9225 -0.7106 -1.2206
 3562SOL     OW22144   1.542   0.989   8.881  0.4772  0.9634  0.1518
 3562SOL    HW122145   1.553   1.084   8.888  0.8029  0.9738 -0.4765
 3562SOL    HW222146   1.621   0.964   8.833 -0.2755 -1.2348  0.0478
 3563SOL     OW22147   3.493   3.277   6.041  0.0765 -0.1406  0.0210
 3563SOL    HW122148   3.453   3.274   6.128 -0.6627  0.7852 -0.2921
 3563SOL    HW222149   3.421   3.310   5.987 -0.7938  1.3431  2.0759
 3564SOL     OW22150   2.899   1.441  12.684  0.0403 -0.3699  0.2249
 3564SOL    HW122151   2.872   1.366  12.737 -1.2907  0.3460  0.5759
 3564SOL    HW222152   2.934   1.399  12.605  0.1120  1.1637 -0.5676
 3565SOL     OW22153   3.465   1.238   5.328  0.0039  0.3155  0.4170
 3565SOL    HW122154   3.520   1.170   5.365  1.0193 -0.3009 -2.2243
 3565SOL    HW222155   3.532   1.281   5.275  2.0869 -1.5394  1.5927
 3566SOL     OW22156   4.568   2.657   6.139  0.1881 -0.2568  0.6500
 3566SOL    HW122157   4.662   2.666   6.158  0.2175  1.3769 -0.2579
 3566SOL    HW222158   4.536   2.744   6.113  0.5762 -0.1441  0.5365
 3567SOL     OW22159   1.005   4.236   2.747  0.2896 -0.0554  0.2571
 3567SOL    HW122160   1.061   4.186   2.806 -0.1008  1.8715  2.2780
 3567SOL    HW222161   0.964   4.307   2.797  1.2252  1.0738 -0.5627
 3568SOL     OW22162   1.735   4.223   6.650  0.1898  0.0349 -0.5387
 3568SOL    HW122163   1.708   4.143   6.695 -0.6339 -0.4530 -1.8941
 3568SOL    HW222164   1.788   4.185   6.579  3.0291  2.3148  0.3521
 3569SOL     OW22165   2.349   2.054  17.589  0.0818  0.0927  0.3033
 3569SOL    HW122166   2.439   2.064  17.557 -0.1952  1.6377  0.0380
 3569SOL    HW222167   2.291   2.115  17.544  0.2203 -0.9557 -1.3141
 3570SOL     OW22168   3.876   0.791   3.604  0.3562  0.1544 -0.2317
 3570SOL    HW122169   3.854   0.856   3.671 -2.2949 -1.5649  0.5741
 3570SOL    HW222170   3.812   0.812   3.535 -2.1831 -1.0763  1.7661
 3571SOL     OW22171   0.496   1.576   5.377  0.7461 -0.5511  0.0161
 3571SOL    HW122172   0.424   1.518   5.402 -0.4464  0.7712 -0.3152
 3571SOL    HW222173   0.470   1.609   5.291  0.4690 -0.8810 -0.0277
 3572SOL     OW22174   0.418   1.285   3.296 -0.1563  0.2698 -0.4643
 3572SOL    HW122175   0.457   1.295   3.210  2.0813  1.5460  0.6949
 3572SOL    HW222176   0.494   1.283   3.354  0.0341  0.7360 -0.7057
 3573SOL     OW22177   3.626   2.192   6.537 -0.0468 -0.5643 -0.0548
 3573SOL    HW122178   3.577   2.249   6.597 -0.4786 -1.1262  0.1223
 3573SOL    HW222179   3.597   2.234   6.456  1.5911  1.4249  0.4001
 3574SOL     OW22180   3.556   1.372   1.355  0.1319 -0.5552 -0.5468
 3574SOL    HW122181   3.610   1.296   1.377  0.3000 -0.2785 -0.0062
 3574SOL    HW222182   3.468   1.336   1.366 -0.0800  1.2843  3.7605
 3575SOL     OW22183   2.825   3.916   2.145 -0.2668  0.1545  0.3297
 3575SOL    HW122184   2.736   3.883   2.134  0.9548 -2.5215 -1.8872
 3575SOL    HW222185   2.857   3.864   2.219 -1.3946  1.6319  1.8283
 3576SOL     OW22186   0.629   3.828   4.697  0.1494  0.4219  0.0370
 3576SOL    HW122187   0.643   3.735   4.716 -1.4913  0.3698  0.9629
 3576SOL    HW222188   0.598   3.828   4.606  0.0857  0.9502  0.0605
 3577SOL     OW22189   0.448   3.501   9.060 -0.2874  0.2891 -0.1020
 3577SOL    HW122190   0.364   3.512   9.105  0.0423 -0.5675  0.7064
 3577SOL    HW222191   0.501   3.451   9.122 -0.3483  1.1888  0.6664
 3578SOL     OW22192   1.952   1.854  12.985  0.3212  0.3873  0.5196
 3578SOL    HW122193   1.952   1.842  12.890 -0.0618  2.6553  0.2487
 3578SOL    HW222194   2.044   1.878  12.996  0.5429 -0.3159  0.2186
 3579SOL     OW22195   2.146   4.554   5.175 -1.0194  0.4022  0.3360
 3579SOL    HW122196   2.208   4.582   5.243 -0.7191 -1.1182  0.6733
 3579SOL    HW222197   2.072   4.516   5.222 -0.5162 -0.8300  0.1240
 3580SOL     OW22198   3.535   0.167   6.105 -1.2065  0.0711  0.2964
 3580SOL    HW122199   3.561   0.079   6.078 -0.5165  0.6616 -0.9263
 3580SOL    HW222200   3.560   0.169   6.197  0.6996  0.1847 -0.2373
 3581SOL     OW22201   2.620   1.095   4.776 -0.0826 -0.2054  0.4535
 3581SOL    HW122202   2.539   1.140   4.797  0.1719  0.2534  0.4521
 3581SOL    HW222203   2.648   1.081   4.867  0.7285 -1.1326  0.0630
 3582SOL     OW22204   3.526   4.072  10.019  0.3812  0.2021 -0.6260
 3582SOL    HW122205   3.451   4.117   9.980 -0.4660 -0.0049  0.7336
 3582SOL    HW222206   3.605   4.127  10.015  0.2009  0.6274  1.4850
 3583SOL     OW22207   0.593   2.995   6.142 -0.1678 -0.3653 -0.4264
 3583SOL    HW122208   0.614   2.943   6.064 -0.0156 -1.5829  0.4371
 3583SOL    HW222209   0.584   3.079   6.097 -1.3090  1.9376  4.1201
 3584SOL     OW22210   0.951   2.242  14.955 -0.0444 -0.2823  0.9129
 3584SOL    HW122211   0.970   2.212  14.866  0.1090 -1.1384  1.2370
 3584SOL    HW222212   0.881   2.306  14.943  0.9483  0.2072 -2.2790
 3585SOL     OW22213   1.318   1.584   0.991 -0.0527  0.1326  0.0958
 3585SOL    HW122214   1.346   1.511   0.937 -0.7274 -0.7040  0.8665
 3585SOL    HW222215   1.298   1.651   0.925  0.4689 -0.8767 -1.0847
 3586SOL     OW22216   0.958   4.077   6.398  0.2445  0.3819  0.3378
 3586SOL    HW122217   0.868   4.100   6.423 -0.1220 -0.7885  0.1168
 3586SOL    HW222218   0.978   4.005   6.458 -1.6385 -1.8946 -1.7450
 3587SOL     OW22219   2.315   2.883   1.349  0.4683  0.1001 -0.4419
 3587SOL    HW122220   2.291   2.797   1.385  0.1669  0.1504 -0.5177
 3587SOL    HW222221   2.410   2.878   1.337  0.3035 -0.4133 -1.6388
 3588SOL     OW22222   2.403   4.696   0.411 -0.1406  0.6064 -0.0340
 3588SOL    HW122223   2.432   0.062   0.433  0.9984 -0.1162  1.3702
 3588SOL    HW222224   2.340   4.677   0.481 -0.1360 -1.1586 -0.5077
 3589SOL     OW22225   1.155   2.167   6.794 -0.9158 -0.3108  0.0518
 3589SOL    HW122226   1.154   2.262   6.794  1.0459 -0.3063  0.4536
 3589SOL    HW222227   1.060   2.150   6.791 -0.9143 -0.2463 -0.4246
 3590SOL     OW22228   3.268   0.739   4.402  0.7303 -0.0080  0.8152
 3590SOL    HW122229   3.325   0.803   4.362 -0.3475 -0.2057 -1.0394
 3590SOL    HW222230   3.280   0.667   4.340 -1.2548 -0.1603  0.6038
 3591SOL     OW22231   0.817   0.102   2.024  0.3036  0.2169  0.2689
 3591SOL    HW122232   0.809   0.189   2.063  4.3847  0.9370 -0.4923
 3591SOL    HW222233   0.900   0.106   1.976  1.5938 -2.7600  2.3009
 3592SOL     OW22234   1.390   2.118   5.165 -0.3142 -0.0944 -0.3171
 3592SOL    HW122235   1.397   2.213   5.175  0.0450 -0.1963  0.3963
 3592SOL    HW222236   1.382   2.109   5.070 -0.9132 -2.3573 -0.0511
 3593SOL     OW22237   3.502   3.274  12.359  0.1636  0.0490  0.1211
 3593SOL    HW122238   3.493   3.308  12.448 -3.0575 -0.0838 -0.1467
 3593SOL    HW222239   3.419   3.306  12.322  0.2535  0.9739  0.7161
 3594SOL     OW22240   3.455   3.339   2.184  0.6002 -0.1627 -0.3950
 3594SOL    HW122241   3.511   3.277   2.137  0.2979  0.2509 -1.3019
 3594SOL    HW222242   3.448   3.403   2.113  2.9062 -0.7067 -1.1026
 3595SOL     OW22243   4.704   1.632   6.779  0.0842 -0.2061  0.0131
 3595SOL    HW122244   4.662   1.581   6.848  1.4970 -1.4582 -0.0347
 3595SOL    HW222245   0.072   1.609   6.801  0.0664 -0.2904 -0.0025
 3596SOL     OW22246   2.231   0.944   5.063  0.3331 -0.1324  0.0913
 3596SOL    HW122247   2.140   0.949   5.092  0.1852  1.6793 -0.7019
 3596SOL    HW222248   2.223   0.867   5.006 -0.9106  0.1234 -0.0628
 3597SOL     OW22249   3.294   4.254  10.694 -0.3427  0.3535  0.2018
 3597SOL    HW122250   3.296   4.238  10.788  3.0145  0.5012  0.1355
 3597SOL    HW222251   3.379   4.219  10.668 -2.2960 -2.2770 -2.7056
 3598SOL     OW22252   1.937   0.339   3.564  0.3355  0.1618  0.2386
 3598SOL    HW122253   1.982   0.376   3.640 -1.6759 -1.3887  2.1792
 3598SOL    HW222254   1.895   0.421   3.538  1.1890  0.7917  0.8028
 3599SOL     OW22255   4.229   1.515  15.919  0.0416  0.1262  0.2640
 3599SOL    HW122256   4.283   1.457  15.973 -0.5908 -1.0631 -0.3810
 3599SOL    HW222257   4.200   1.470  15.840  0.9747  0.8043 -0.4642
 3600SOL     OW22258   1.796   2.480   7.484  0.3584  0.2711 -0.0026
 3600SOL    HW122259   1.877   2.470   7.435  0.6089  2.7762 -0.0684
 3600SOL    HW222260   1.803   2.550   7.549 -0.6489  2.1289 -1.8851
 3601SOL     OW22261   0.704   0.330  11.188  0.8114  0.1939  0.0942
 3601SOL    HW122262   0.737   0.341  11.277  1.1363 -0.4255  0.0542
 3601SOL    HW222263   0.637   0.264  11.207 -2.3476  2.7921 -2.1383
 3602SOL     OW22264   3.538   3.294   7.581  0.1495  0.3354 -0.2412
 3602SOL    HW122265   3.516   3.222   7.521 -1.2546 -0.9260  1.7882
 3602SOL    HW222266   3.449   3.306   7.614  0.6207 -0.8396  1.4753
 3603SOL     OW22267   1.697   0.673   3.091 -0.2623  0.1782  0.3296
 3603SOL    HW122268   1.650   0.602   3.134 -0.2671 -0.4874 -0.7675
 3603SOL    HW222269   1.692   0.735   3.163 -0.1164  0.7672 -0.1668
 3604SOL     OW22270   2.546   4.048   6.073  0.4246  0.2882 -0.4838
 3604SOL    HW122271   2.629   4.068   6.117  0.2912 -0.3481  0.0763
 3604SOL    HW222272   2.577   4.005   5.994  0.1398 -2.2154  0.7520
 3605SOL     OW22273   0.078   0.576   8.815  0.3046 -0.3128 -0.2103
 3605SOL    HW122274   0.100   0.570   8.907 -1.8403  0.3667  0.3534
 3605SOL    HW222275   0.118   0.500   8.774  0.8661 -0.1061 -0.0377
 3606SOL     OW22276   4.530   2.201   5.451 -0.3802  0.0909 -0.4834
 3606SOL    HW122277   4.576   2.261   5.392 -0.5849  1.4979  0.7629
 3606SOL    HW222278   4.599   2.137   5.465 -0.0432  0.0675 -2.3282
 3607SOL     OW22279   2.720   1.019   5.760 -0.3611  0.0298 -0.3128
 3607SOL    HW122280   2.727   0.995   5.852  1.2543 -0.5400 -0.5767
 3607SOL    HW222281   2.641   0.968   5.745 -0.9531  0.6021  0.8884
 3608SOL     OW22282   2.311   1.450   4.622  0.5991  0.4105  0.0427
 3608SOL    HW122283   2.240   1.392   4.649 -0.2766  0.4394 -2.2125
 3608SOL    HW222284   2.370   1.414   4.688  0.1810  0.2756  0.3434
 3609SOL     OW22285   1.901   4.499   5.630 -0.1861 -0.2359  0.1771
 3609SOL    HW122286   1.893   4.411   5.666  1.6548  0.5870  2.5742
 3609SOL    HW222287   1.820   4.545   5.651 -0.6752 -1.5398  1.1677
 3610SOL     OW22288   2.778   0.772   4.081 -0.5608  0.6973 -0.3108
 3610SOL    HW122289   2.701   0.722   4.055 -0.7538  1.4311 -1.1407
 3610SOL    HW222290   2.791   0.839   4.015 -1.0746 -0.9170 -2.0572
 3611SOL     OW22291   0.300   0.109   9.582  0.0754  0.2704 -0.0488
 3611SOL    HW122292   0.393   0.129   9.595 -0.1342 -0.5571  2.7055
 3611SOL    HW222293   0.281   0.202   9.584  0.7336  0.3944  0.7018
 3612SOL     OW22294   2.564   1.797   7.697  0.2293 -0.1764 -0.2177
 3612SOL    HW122295   2.546   1.706   7.718  0.3980  0.0515  0.8723
 3612SOL    HW222296   2.482   1.826   7.657 -0.1725 -0.2022  0.5898
 3613SOL     OW22297   3.528   3.136   3.093 -0.1794 -0.2686  0.3131
 3613SOL    HW122298   3.521   3.229   3.113 -0.1799 -0.2938  0.4343
 3613SOL    HW222299   3.552   3.134   3.001  1.5451 -0.5290  0.7618
 3614SOL     OW22300   3.098   4.203   3.540  0.4557  0.6084  0.8617
 3614SOL    HW122301   3.062   4.287   3.568 -3.2724 -0.3755 -1.0491
 3614SOL    HW222302   3.039   4.143   3.586 -0.8493  1.2410  0.0127
 3615SOL     OW22303   3.353   3.944   5.201 -0.0877 -0.0323  0.4069
 3615SOL    HW122304   3.273   3.893   5.192  1.6146 -2.6239  0.1001
 3615SOL    HW222305   3.357   3.957   5.295 -2.5648 -1.7744  0.7632
 3616SOL     OW22306   2.253   0.225  16.961  0.1605  0.1276 -0.3833
 3616SOL    HW122307   2.346   0.215  16.986 -0.4469  0.2430  1.9731
 3616SOL    HW222308   2.197   0.179  17.024  1.0860 -1.7505 -0.9072
 3617SOL     OW22309   3.138   2.241   5.082 -0.1124 -0.2638 -0.2193
 3617SOL    HW122310   3.204   2.172   5.073 -0.0832 -0.1436 -0.9752
 3617SOL    HW222311   3.130   2.233   5.177 -0.8922 -2.3878 -0.4733
 3618SOL     OW22312   2.884   1.686   6.098 -0.3572 -0.1423  0.3780
 3618SOL    HW122313   2.933   1.610   6.067 -1.6380 -0.8492  0.0960
 3618SOL    HW222314   2.918   1.756   6.042 -1.0561 -1.3989 -1.5978
 3619SOL     OW22315   4.558   2.936   9.419 -0.1475  0.0319 -0.1857
 3619SOL    HW122316   4.600   3.020   9.403 -0.4337  0.3121  0.5372
 3619SOL    HW222317   4.465   2.956   9.428  0.2864  1.4854  1.0899
 3620SOL     OW22318   0.359   2.985   3.395  0.3355 -0.4942  0.1452
 3620SOL    HW122319   0.369   3.077   3.420  0.8125 -1.2414  2.6936
 3620SOL    HW222320   0.292   2.990   3.327  0.9841 -0.8295 -0.5162
 3621SOL     OW22321   2.405   2.816   7.602 -0.2970  0.2692 -0.2963
 3621SOL    HW122322   2.359   2.880   7.656  0.5219 -1.1904  2.1064
 3621SOL    HW222323   2.464   2.769   7.661 -0.3943 -1.2936 -1.4224
 3622SOL     OW22324   4.691   2.650  15.734  0.8285  0.5106  0.3796
 3622SOL    HW122325   4.672   2.634  15.826  1.7159  2.7012  0.9199
 3622SOL    HW222326   4.617   2.704  15.706  0.0748  0.2556  1.9088
 3623SOL     OW22327   2.449   2.903   6.867  0.0404 -0.0365  0.1976
 3623SOL    HW122328   2.435   2.965   6.796  1.1066  1.3958  1.2358
 3623SOL    HW222329   2.358   2.888   6.892  0.2611  0.5045  1.3311
 3624SOL     OW22330   2.096   3.755   3.295  0.0346  0.3465 -0.3055
 3624SOL    HW122331   2.033   3.737   3.365 -0.6437  2.6833 -0.3145
 3624SOL    HW222332   2.157   3.683   3.310 -0.8635 -0.2021  0.7107
 3625SOL     OW22333   2.846   2.279  17.167  0.5128  0.4285 -0.1429
 3625SOL    HW122334   2.938   2.263  17.146 -0.0447 -0.1305 -2.1438
 3625SOL    HW222335   2.809   2.232  17.093 -1.9477  0.4823  1.0254
 3626SOL     OW22336   1.525   2.942   5.156  0.0441 -0.2569  0.1918
 3626SOL    HW122337   1.531   2.899   5.070  1.5973 -0.0474  0.1992
 3626SOL    HW222338   1.597   3.004   5.152  2.1396 -2.6809  0.3405
 3627SOL     OW22339   3.973   4.358  14.782 -0.2887 -0.7900  0.0597
 3627SOL    HW122340   4.014   4.444  14.790 -0.3170 -0.7831  0.1320
 3627SOL    HW222341   4.006   4.340  14.694 -3.1007  0.3685 -1.2240
 3628SOL     OW22342   1.459   1.066   8.202  0.6493  0.4734  0.1687
 3628SOL    HW122343   1.449   1.159   8.178  0.6471  0.1382 -1.1152
 3628SOL    HW222344   1.502   1.079   8.286 -1.4551  1.5779  1.1025
 3629SOL     OW22345   0.228   3.526   7.846  0.1332 -0.4698 -0.1721
 3629SOL    HW122346   0.304   3.467   7.845  0.2309 -0.3127 -1.1280
 3629SOL    HW222347   0.255   3.603   7.797  1.1836  0.0841  1.2553
 3630SOL     OW22348   3.113   2.082  13.710 -0.0588 -0.1067  0.3011
 3630SOL    HW122349   3.120   2.177  13.701  0.9770 -0.4294 -2.2638
 3630SOL    HW222350   3.038   2.082  13.651 -0.8060 -0.5451  1.2534
 3631SOL     OW22351   1.959   1.201   4.917  0.2844  0.2531 -0.4203
 3631SOL    HW122352   1.864   1.197   4.905  0.3324  1.4409 -1.1944
 3631SOL    HW222353   1.959   1.259   4.993 -0.6774 -0.9996  0.5447
 3632SOL     OW22354   2.671   3.404   7.672 -0.3043  0.2299 -0.4066
 3632SOL    HW122355   2.633   3.397   7.585 -0.1440 -0.8752 -0.3900
 3632SOL    HW222356   2.748   3.452   7.642 -0.6890  1.0594 -0.0651
 3633SOL     OW22357   1.431   3.140   2.782  0.6944 -0.6798 -0.0312
 3633SOL    HW122358   1.426   3.058   2.733 -0.4720 -0.2257 -0.6549
 3633SOL    HW222359   1.498   3.110   2.844 -0.4310 -0.9004  1.0810
 3634SOL     OW22360   4.472   3.632   2.826  0.1969  0.0102  0.0763
 3634SOL    HW122361   4.499   3.661   2.739  2.0050 -2.7919 -0.2902
 3634SOL    HW222362   4.515   3.699   2.880  2.2801  0.5207 -2.2322
 3635SOL     OW22363   0.088   0.927  10.932  0.8285 -0.4990  0.1209
 3635SOL    HW122364   0.160   0.872  10.964  1.6271  1.4559  1.7841
 3635SOL    HW222365   0.047   0.870  10.868  1.4111 -0.5222 -0.2379
 3636SOL     OW22366   2.254   3.576   5.955 -0.5481 -0.2928  0.3004
 3636SOL    HW122367   2.174   3.607   5.996  0.1200  1.1418  0.5094
 3636SOL    HW222368   2.304   3.554   6.034 -1.4690 -0.3905  0.8566
 3637SOL     OW22369   1.461   3.563  10.687 -0.1395 -0.8096 -0.2067
 3637SOL    HW122370   1.523   3.570  10.760  2.3630 -1.6517 -2.2459
 3637SOL    HW222371   1.482   3.478  10.648 -0.6949 -1.0797  0.0783
 3638SOL     OW22372   0.627   1.542  12.699 -0.2019  0.2029  0.0032
 3638SOL    HW122373   0.627   1.523  12.793  0.4810  0.1515 -0.0091
 3638SOL    HW222374   0.619   1.454  12.662 -1.4082  1.4550 -2.6406
 3639SOL     OW22375   0.717   2.992  17.548  0.2184 -0.2738 -0.0629
 3639SOL    HW122376   0.641   2.956  17.502 -0.8104  0.5169  1.0184
 3639SOL    HW222377   0.668   3.038  17.616 -0.5838 -0.1414 -0.7288
 3640SOL     OW22378   2.901   0.016   6.191  0.0505  0.5517  0.6209
 3640SOL    HW122379   2.819   4.701   6.158  0.8508 -0.8306  0.1725
 3640SOL    HW222380   2.935   0.084   6.133 -1.3239  2.5801  2.1856
 3641SOL     OW22381   2.836   3.527   4.398 -0.4010  0.2243 -0.6581
 3641SOL    HW122382   2.850   3.465   4.327  0.8339 -0.1702 -0.0704
 3641SOL    HW222383   2.917   3.514   4.448 -1.3039  0.2288  0.8037
 3642SOL     OW22384   1.426   0.066   5.779  0.1089 -0.3959  0.1431
 3642SOL    HW122385   1.365   0.016   5.725  0.7838 -0.4529 -0.5773
 3642SOL    HW222386   1.439   0.131   5.710  0.4834 -1.0429 -0.3943
 3643SOL     OW22387   1.980   4.502   5.923 -0.3410  0.2193  0.1874
 3643SOL    HW122388   1.945   4.413   5.923 -1.3994  0.6255 -0.1243
 3643SOL    HW222389   2.066   4.484   5.960 -0.6034 -0.2463  0.5693
 3644SOL     OW22390   4.477   3.255  14.377  0.3757 -0.5705  0.4431
 3644SOL    HW122391   4.383   3.272  14.364  0.7814  1.0481 -0.4141
 3644SOL    HW222392   4.480   3.165  14.345  3.2098 -0.3560  0.1426
 3645SOL     OW22393   1.134   1.894   2.650 -0.1173 -0.3589  0.1233
 3645SOL    HW122394   1.213   1.868   2.602 -0.0452  1.7223 -0.8656
 3645SOL    HW222395   1.102   1.809   2.682 -0.2859 -0.1208  0.5783
 3646SOL     OW22396   2.286   0.589   3.740  0.1163  0.1601  0.0144
 3646SOL    HW122397   2.191   0.582   3.749  0.3010 -0.6415  1.3114
 3646SOL    HW222398   2.294   0.605   3.646  0.3989 -2.1995 -0.3754
 3647SOL     OW22399   2.003   2.825  12.521  0.6712  0.0062  0.0190
 3647SOL    HW122400   2.058   2.765  12.470 -0.4433  0.1692 -1.3748
 3647SOL    HW222401   1.989   2.770  12.598  2.9758 -0.0001  0.4271
 3648SOL     OW22402   3.338   1.293   6.006 -0.1830 -0.4804 -0.1761
 3648SOL    HW122403   3.304   1.204   6.018 -1.2372 -0.1326 -0.6484
 3648SOL    HW222404   3.271   1.346   6.047  0.3047 -1.5023  1.9349
 3649SOL     OW22405   4.024   4.613  14.831 -0.2435 -0.0179  0.1016
 3649SOL    HW122406   4.040   4.669  14.907  2.8963 -2.6509  1.3618
 3649SOL    HW222407   4.046   4.670  14.758 -0.1192  0.0204  0.1697
 3650SOL     OW22408   1.349   1.755  14.592  0.2697  0.0275 -0.1252
 3650SOL    HW122409   1.403   1.683  14.626  0.4643 -0.2735 -1.0631
 3650SOL    HW222410   1.288   1.710  14.534 -0.1889 -1.0463  1.1899
 3651SOL     OW22411   2.530   4.705  12.994 -0.5105 -0.4060 -0.2732
 3651SOL    HW122412   2.525   0.014  12.904 -1.9217  1.1038  0.3393
 3651SOL    HW222413   2.606   4.647  13.000  1.5040  2.4304  1.7393
 3652SOL     OW22414   1.090   0.827   6.060 -0.3128  0.1648 -0.4363
 3652SOL    HW122415   1.148   0.785   6.124 -0.7385  1.6295  0.8959
 3652SOL    HW222416   1.019   0.763   6.054 -0.4188  0.5072 -2.7950
 3653SOL     OW22417   1.094   3.812   5.683 -0.0967 -0.1105  0.6615
 3653SOL    HW122418   1.133   3.888   5.638  2.9822 -2.1794 -0.1455
 3653SOL    HW222419   1.060   3.773   5.602  2.4185 -4.5241  1.7206
 3654SOL     OW22420   4.227   2.234   4.357  0.3677 -0.4016  0.1036
 3654SOL    HW122421   4.237   2.141   4.334 -0.8850 -0.9686  1.8184
 3654SOL    HW222422   4.142   2.241   4.401  0.0461 -0.7023 -0.4689
 3655SOL     OW22423   0.348   0.716   9.443 -0.9604 -0.3721 -0.3537
 3655SOL    HW122424   0.339   0.764   9.525  0.4113  0.1435 -0.5034
 3655SOL    HW222425   0.411   0.775   9.403 -2.3324  1.5407  0.3047
 3656SOL     OW22426   4.669   2.148   7.461  0.2350  0.1434  0.0853
 3656SOL    HW122427   4.665   2.237   7.495 -3.3430 -1.0318  2.8025
 3656SOL    HW222428   4.690   2.170   7.371 -0.8414 -1.8286 -0.6480
 3657SOL     OW22429   0.380   4.020   2.057 -0.0247  0.1374 -0.1436
 3657SOL    HW122430   0.339   4.047   1.975 -0.4345  0.5010  0.1818
 3657SOL    HW222431   0.446   4.087   2.073  0.1980 -0.6690  2.3855
 3658SOL     OW22432   2.130   3.558   6.412  0.2432 -0.5525 -0.3564
 3658SOL    HW122433   2.084   3.568   6.495 -0.0555 -0.1592 -0.5730
 3658SOL    HW222434   2.199   3.623   6.423 -3.6302  3.8056 -1.8082
 3659SOL     OW22435   4.036   2.842  15.068  0.0375 -0.1702 -0.1247
 3659SOL    HW122436   4.066   2.853  15.158 -0.4652  1.7658 -0.2084
 3659SOL    HW222437   4.002   2.927  15.044  3.3363  1.6024  1.4503
 3660SOL     OW22438   0.799   1.276   1.754 -0.0441 -0.6123 -1.0910
 3660SOL    HW122439   0.718   1.225   1.756 -0.7890  0.6983  1.3698
 3660SOL    HW222440   0.803   1.309   1.844 -1.4480 -1.4342 -0.7271
 3661SOL     OW22441   3.160   1.783   6.223  0.4662  0.1665  0.2579
 3661SOL    HW122442   3.175   1.820   6.310 -1.0748 -0.8392  0.9651
 3661SOL    HW222443   3.091   1.844   6.196  0.6593  0.1881 -0.1842
 3662SOL     OW22444   1.629   1.934   1.336  0.6286  0.2928 -0.3189
 3662SOL    HW122445   1.579   1.991   1.277  1.3826  0.0827 -1.1616
 3662SOL    HW222446   1.555   1.895   1.384  1.1758 -1.5689 -0.9844
 3663SOL     OW22447   1.085   1.696   7.660  0.0330 -0.0795 -0.0191
 3663SOL    HW122448   0.993   1.675   7.643 -0.7026  1.6837  1.6143
 3663SOL    HW222449   1.120   1.609   7.647  0.2445  0.2055 -1.2911
 3664SOL     OW22450   1.217   3.730   3.849  0.3862 -0.3335  1.0702
 3664SOL    HW122451   1.127   3.720   3.881 -0.1271 -0.0619 -0.3240
 3664SOL    HW222452   1.266   3.651   3.873  2.7470  0.4107 -1.4140
 3665SOL     OW22453   4.664   1.568  16.259 -0.0749 -0.1508  0.2459
 3665SOL    HW122454   4.600   1.539  16.193 -1.3571  3.9143 -0.2517
 3665SOL    HW222455   4.648   1.496  16.321 -0.1960 -0.2360  0.1160
 3666SOL     OW22456   2.896   2.218  11.723  0.3805 -0.4146  0.1977
 3666SOL    HW122457   2.806   2.184  11.731  0.7303 -1.0195  1.5604
 3666SOL    HW222458   2.937   2.141  11.762  2.4922  0.3354 -0.5522
 3667SOL     OW22459   4.610   3.648   4.044  0.4757  0.2617  0.4359
 3667SOL    HW122460   4.652   3.731   4.022  0.2079 -0.1412 -1.5867
 3667SOL    HW222461   4.522   3.665   4.011  0.8882 -1.6194 -1.6148
 3668SOL     OW22462   0.635   3.100  10.579 -0.0517  0.4103  0.1136
 3668SOL    HW122463   0.573   3.073  10.647 -0.4126  0.9017 -0.0179
 3668SOL    HW222464   0.631   3.195  10.573 -2.6346  0.1783 -2.1085
 3669SOL     OW22465   2.268   3.561   4.944  0.9309 -0.2522 -0.3555
 3669SOL    HW122466   2.199   3.607   4.991  0.1277 -2.5397  0.7015
 3669SOL    HW222467   2.277   3.604   4.859  1.6289 -2.6574 -1.5090
 3670SOL     OW22468   0.599   0.856   1.096 -0.3486 -0.0148 -0.2452
 3670SOL    HW122469   0.607   0.950   1.111 -2.0248 -0.1075  1.1279
 3670SOL    HW222470   0.507   0.837   1.111  0.4724 -2.9675  0.9906
 3671SOL     OW22471   1.934   1.179  14.363 -0.0245 -0.3499 -0.1984
 3671SOL    HW122472   1.965   1.225  14.284  2.5511  0.0745  1.0764
 3671SOL    HW222473   2.017   1.141  14.393 -0.5490 -0.2723  1.3396
 3672SOL     OW22474   0.573   2.414   3.422 -0.4064  0.4003  0.3204
 3672SOL    HW122475   0.621   2.437   3.502 -0.1894 -1.2854  0.6915
 3672SOL    HW222476   0.647   2.408   3.361  1.1580 -0.9984  2.3265
 3673SOL     OW22477   1.256   0.087  11.087 -0.2538  0.0221  0.4954
 3673SOL    HW122478   1.317   0.154  11.117 -1.0688 -0.3070  2.8781
 3673SOL    HW222479   1.315   0.012  11.098  0.5408  0.7266  1.0124
 3674SOL     OW22480   0.678   3.780   7.252 -1.0563 -0.2589 -0.3627
 3674SOL    HW122481   0.719   3.764   7.167  0.0899  1.6875 -0.1848
 3674SOL    HW222482   0.615   3.851   7.246  0.9115  1.3075 -2.2393
 3675SOL     OW22483   0.261   0.784   2.702  0.6656  0.5962  0.5486
 3675SOL    HW122484   0.333   0.846   2.704  0.5391  0.7425  0.5305
 3675SOL    HW222485   0.189   0.838   2.669  0.2052  1.4834  2.9685
 3676SOL     OW22486   0.667   0.666   2.762  0.3776  0.0383  0.3686
 3676SOL    HW122487   0.745   0.708   2.800  0.4521 -0.3767  0.6824
 3676SOL    HW222488   0.651   0.601   2.831  0.6125 -0.6847 -0.2700
 3677SOL     OW22489   1.653   3.885   7.640 -0.3086  0.5474 -0.1898
 3677SOL    HW122490   1.681   3.974   7.617 -1.4652  1.5006  2.0509
 3677SOL    HW222491   1.565   3.894   7.604  0.0784 -1.8888 -1.7147
 3678SOL     OW22492   3.728   0.892  11.033  0.4529 -0.3204 -0.6646
 3678SOL    HW122493   3.800   0.840  10.999  1.2499  0.6557 -0.4581
 3678SOL    HW222494   3.656   0.840  10.998  0.5345 -1.8723  1.4565
 3679SOL     OW22495   1.346   3.662   4.939  0.2216  0.5303 -0.4504
 3679SOL    HW122496   1.358   3.580   4.987 -3.2905 -0.1673 -0.7668
 3679SOL    HW222497   1.289   3.645   4.865  1.1986  2.3408 -1.6111
 3680SOL     OW22498   4.103   3.292   6.115 -0.6107  0.2517  0.8129
 3680SOL    HW122499   4.015   3.329   6.104 -0.5931 -0.1865 -0.8494
 3680SOL    HW222500   4.076   3.207   6.150 -1.6316  0.7857  1.3329
 3681SOL     OW22501   3.397   1.022   4.502  0.3070 -0.1822  0.0703
 3681SOL    HW122502   3.435   0.960   4.565 -2.5883 -1.5167  0.4897
 3681SOL    HW222503   3.315   0.982   4.474  0.8191 -1.5416  0.5289
 3682SOL     OW22504   0.746   3.135  12.315  0.2884 -0.3561  0.2990
 3682SOL    HW122505   0.699   3.191  12.377 -0.8341 -1.5820  0.5430
 3682SOL    HW222506   0.791   3.084  12.383 -1.5778 -1.5034  0.6604
 3683SOL     OW22507   3.732   2.340   6.959 -0.1635 -0.3191 -0.2954
 3683SOL    HW122508   3.659   2.348   7.020  2.0470  1.7333  2.0403
 3683SOL    HW222509   3.744   2.245   6.952 -1.1750 -0.4950  0.4272
 3684SOL     OW22510   3.463   0.523  14.391 -0.3681 -0.7272 -0.7020
 3684SOL    HW122511   3.548   0.550  14.356 -0.7957  0.9790 -0.4021
 3684SOL    HW222512   3.437   0.610  14.420  0.0398 -0.9073  0.2236
 3685SOL     OW22513   2.163   1.472   1.240 -0.5531 -0.2431 -0.5796
 3685SOL    HW122514   2.162   1.427   1.325 -0.0652 -0.5210 -0.7205
 3685SOL    HW222515   2.071   1.492   1.224 -0.9631 -1.7036 -0.0292
 3686SOL     OW22516   1.168   3.475   2.100  0.4517 -0.1642  0.0671
 3686SOL    HW122517   1.239   3.502   2.043  1.0661 -2.8826 -0.4594
 3686SOL    HW222518   1.215   3.477   2.183  0.6258  2.5474 -0.1108
 3687SOL     OW22519   1.635   3.781   2.937 -0.5638 -0.0920  0.0260
 3687SOL    HW122520   1.714   3.796   2.989 -0.1346  0.2222 -0.7249
 3687SOL    HW222521   1.652   3.699   2.890 -1.2552 -0.2549  0.0660
 3688SOL     OW22522   3.312   3.152   3.950 -0.8531 -0.5556 -0.4800
 3688SOL    HW122523   3.387   3.100   3.921 -0.5320  0.3532 -1.3051
 3688SOL    HW222524   3.247   3.092   3.915 -1.2073 -1.2019  1.3508
 3689SOL     OW22525   3.179   3.268   8.364 -0.0546 -0.6086  0.1198
 3689SOL    HW122526   3.231   3.287   8.286 -0.2187 -0.1431  0.1289
 3689SOL    HW222527   3.182   3.172   8.359 -0.4095 -0.7147  1.7764
 3690SOL     OW22528   3.496   1.840   2.826 -0.1389 -0.2684  0.1391
 3690SOL    HW122529   3.493   1.762   2.771 -0.7356 -0.8769  1.0383
 3690SOL    HW222530   3.574   1.890   2.800  0.8606 -1.6610  0.4694
 3691SOL     OW22531   2.319   1.972   3.350 -0.3347 -0.2667 -0.1781
 3691SOL    HW122532   2.291   1.917   3.276  1.7547 -0.3334 -0.9080
 3691SOL    HW222533   2.325   1.922   3.431 -0.3488 -0.1152 -0.0825
 3692SOL     OW22534   4.640   0.628   2.867 -0.2374 -0.8980  0.7911
 3692SOL    HW122535   4.570   0.616   2.804 -1.9155 -1.5206  2.7696
 3692SOL    HW222536   4.594   0.601   2.947 -2.2275  0.1469  0.0104
 3693SOL     OW22537   0.575   0.352   3.390  0.1460 -1.2070 -0.2703
 3693SOL    HW122538   0.597   0.340   3.482 -2.6643 -1.8526  0.3139
 3693SOL    HW222539   0.634   0.419   3.356  1.1518 -1.5403  0.8328
 3694SOL     OW22540   0.374   4.050  10.234 -0.0151 -0.1252  0.1698
 3694SOL    HW122541   0.295   4.011  10.196 -1.3028  2.2313  0.4645
 3694SOL    HW222542   0.349   4.142  10.230 -2.9682 -1.0430 -2.4264
 3695SOL     OW22543   0.578   1.504   1.580 -0.0403  0.1801  0.1311
 3695SOL    HW122544   0.581   1.409   1.594  1.5690  0.3788  1.1621
 3695SOL    HW222545   0.514   1.515   1.510  0.8467 -2.0510 -1.0332
 3696SOL     OW22546   4.280   1.845   5.116 -0.1820 -0.0851  0.3034
 3696SOL    HW122547   4.314   1.931   5.139  1.8779 -0.2821 -1.9949
 3696SOL    HW222548   4.231   1.821   5.194  0.3196 -0.0908  0.6146
 3697SOL     OW22549   0.365   3.791   1.910  0.2666 -0.1313 -0.3361
 3697SOL    HW122550   0.388   3.835   1.992  3.6226  0.5561 -1.6213
 3697SOL    HW222551   0.444   3.745   1.882  0.2649  0.1578 -0.8156
 3698SOL     OW22552   1.901   1.333  10.007 -0.0588  0.0534 -0.0441
 3698SOL    HW122553   1.985   1.293   9.983  0.0613  0.6590 -0.6366
 3698SOL    HW222554   1.920   1.422  10.037 -1.4214  0.4255 -0.3194
 3699SOL     OW22555   3.265   1.542   3.632 -0.0361 -0.1557  0.5270
 3699SOL    HW122556   3.260   1.585   3.546  1.2632  1.6898  1.3785
 3699SOL    HW222557   3.204   1.595   3.682  0.9734 -0.5399  2.1598
 3700SOL     OW22558   3.919   0.005  10.976  0.5695 -0.2202 -0.1184
 3700SOL    HW122559   3.977   0.082  10.977  1.4017 -0.8410 -0.9394
 3700SOL    HW222560   3.978   4.661  11.013  1.7713 -0.3175 -2.2260
 3701SOL     OW22561   2.135   3.916   6.667 -0.7047 -0.9374 -0.4638
 3701SOL    HW122562   2.136   3.850   6.598 -0.6369  0.7742 -2.1170
 3701SOL    HW222563   2.215   3.880   6.707  0.2825  0.6006 -1.0432
 3702SOL     OW22564   3.183   0.425   5.410  0.3959 -0.4355 -0.2816
 3702SOL    HW122565   3.259   0.472   5.377  1.3020 -1.3506  0.4987
 3702SOL    HW222566   3.188   0.448   5.503 -2.7483  1.3936 -0.5673
 3703SOL     OW22567   2.398   4.247   8.514 -0.3388  0.1089 -0.7216
 3703SOL    HW122568   2.314   4.226   8.473 -0.4071 -0.4909 -0.2711
 3703SOL    HW222569   2.409   4.324   8.458 -0.2693  1.5240  1.2524
 3704SOL     OW22570   0.643   2.540   8.374  0.6354  0.3193  0.2482
 3704SOL    HW122571   0.563   2.589   8.396  0.4877 -0.0916  0.6189
 3704SOL    HW222572   0.690   2.611   8.330  0.7067  0.3388  0.3581
 3705SOL     OW22573   1.267   2.598   4.785  0.0868 -0.3319  0.1239
 3705SOL    HW122574   1.288   2.559   4.700  1.6729  0.6754  0.0541
 3705SOL    HW222575   1.242   2.521   4.837 -1.3521 -1.4450 -2.2520
 3706SOL     OW22576   2.986   3.308   9.767  0.6457  0.1004  0.6386
 3706SOL    HW122577   3.014   3.374   9.704  0.2612 -0.8928 -0.5729
 3706SOL    HW222578   3.055   3.322   9.832  0.4191  0.5311  0.7825
 3707SOL     OW22579   2.459   2.200  16.292  0.2246  0.0607 -0.5364
 3707SOL    HW122580   2.402   2.133  16.253  0.2379  0.0231 -0.4909
 3707SOL    HW222581   2.487   2.244  16.212 -0.1173 -0.7093 -1.0915
 3708SOL     OW22582   1.962   2.718   6.979  0.4548 -0.0149  0.0895
 3708SOL    HW122583   1.904   2.773   7.031  1.8265  1.9048 -0.4004
 3708SOL    HW222584   1.912   2.711   6.897 -0.4073  1.2867  0.5047
 3709SOL     OW22585   2.946   3.654   8.403 -0.4939  0.1125 -0.1953
 3709SOL    HW122586   2.942   3.588   8.334  0.9342  0.0286 -0.2036
 3709SOL    HW222587   2.863   3.701   8.404 -1.5134 -1.7408  0.6060
 3710SOL     OW22588   4.059   1.849   9.153 -0.1083 -0.0596 -0.0033
 3710SOL    HW122589   4.020   1.800   9.081 -0.4147  0.5072 -0.2260
 3710SOL    HW222590   3.989   1.910   9.177  1.7326  1.9376  0.2765
 3711SOL     OW22591   0.950   3.908   2.656  0.1356 -0.9440  0.0590
 3711SOL    HW122592   1.018   3.910   2.723 -0.0002 -1.7910  0.2212
 3711SOL    HW222593   0.982   3.830   2.609 -2.7223 -2.1509  0.1234
 3712SOL     OW22594   1.473   1.469   4.427  0.0112 -0.2379 -0.0339
 3712SOL    HW122595   1.439   1.402   4.367  0.9986 -2.4101  1.8247
 3712SOL    HW222596   1.546   1.503   4.376  0.7118  0.4863  1.4445
 3713SOL     OW22597   3.911   1.302  11.106  0.3614 -0.9167  0.2602
 3713SOL    HW122598   3.959   1.330  11.184  0.7682 -0.0321 -0.2993
 3713SOL    HW222599   3.848   1.237  11.135  1.1815 -2.0995 -0.6286
 3714SOL     OW22600   2.274   1.472  12.829 -0.8793 -0.4011  0.4612
 3714SOL    HW122601   2.318   1.473  12.914  1.3678  1.0656 -0.7105
 3714SOL    HW222602   2.189   1.488  12.870 -1.6442  1.5882 -1.8706
 3715SOL     OW22603   4.003   2.975   1.434 -0.2553  0.3822 -0.0137
 3715SOL    HW122604   4.080   2.945   1.483 -0.3003 -1.1223 -0.8483
 3715SOL    HW222605   3.953   2.893   1.430 -0.3445  0.4774 -0.8296
 3716SOL     OW22606   3.162   4.116   9.017 -0.0214  0.6118 -0.6066
 3716SOL    HW122607   3.152   4.149   9.106 -1.0599 -0.3234 -0.3913
 3716SOL    HW222608   3.100   4.046   9.032 -0.8158  1.4554  0.0816
 3717SOL     OW22609   0.592   0.430  16.539  0.6762  0.1775 -0.7079
 3717SOL    HW122610   0.569   0.361  16.476  0.4181  0.8586 -1.3528
 3717SOL    HW222611   0.649   0.381  16.599  0.5475  0.7613 -0.1165
 3718SOL     OW22612   1.351   0.076  16.930 -0.0030  0.4044 -0.1950
 3718SOL    HW122613   1.279   0.106  16.986 -1.5164 -1.0865 -1.3538
 3718SOL    HW222614   1.399   0.148  16.888 -1.4555  2.4190  1.6129
 3719SOL     OW22615   0.187   2.163  15.651 -0.1624 -0.6570  0.2635
 3719SOL    HW122616   0.116   2.225  15.667  0.8781  1.3088 -2.7229
 3719SOL    HW222617   0.253   2.220  15.691 -0.0906 -1.1397  0.8384
 3720SOL     OW22618   0.758   0.080   4.284 -0.1036 -0.9871  0.2910
 3720SOL    HW122619   0.769   0.008   4.222 -0.3071 -1.9355  1.3487
 3720SOL    HW222620   0.663   0.083   4.298 -0.3001 -0.9420 -1.1088
 3721SOL     OW22621   1.845   4.274   2.512 -0.0464  0.2321 -0.5581
 3721SOL    HW122622   1.881   4.339   2.572 -0.2953  0.3890 -0.5787
 3721SOL    HW222623   1.865   4.321   2.431 -1.9159 -0.5084 -1.4378
 3722SOL     OW22624   3.639   3.372   4.603  0.0633  0.0529  0.2062
 3722SOL    HW122625   3.683   3.444   4.648 -0.7247 -0.2155  1.3953
 3722SOL    HW222626   3.706   3.306   4.584  1.9430  1.5530  1.5629
 3723SOL     OW22627   4.076   2.892  14.519  0.2099  0.5271  0.1923
 3723SOL    HW122628   4.017   2.895  14.594 -0.1781 -2.1717 -0.0233
 3723SOL    HW222629   4.065   2.977  14.476 -2.1228  0.7913  1.3375
 3724SOL     OW22630   1.291   3.362  15.270  0.2902  0.2293 -0.2618
 3724SOL    HW122631   1.229   3.311  15.218 -0.5326  0.9246  0.0363
 3724SOL    HW222632   1.240   3.439  15.296 -1.0555 -1.0630  0.9723
 3725SOL     OW22633   2.734   0.288  13.506  0.0215 -0.1210  0.2991
 3725SOL    HW122634   2.829   0.282  13.508  0.1256  2.0376  1.3094
 3725SOL    HW222635   2.731   0.379  13.534  0.7061 -0.0771  0.2253
 3726SOL     OW22636   0.719   2.623   3.936 -0.1142 -0.5036  0.7499
 3726SOL    HW122637   0.768   2.635   3.855  1.6496  0.3930  1.9596
 3726SOL    HW222638   0.784   2.579   3.991  0.8657 -1.1385 -0.9109
 3727SOL     OW22639   0.729   3.925   1.627  0.3169 -0.3108  0.1812
 3727SOL    HW122640   0.768   3.992   1.683  0.3600  0.9955 -1.4070
 3727SOL    HW222641   0.797   3.904   1.563  0.5789  2.4290 -0.4432
 3728SOL     OW22642   1.532   0.530  15.901 -0.1105  0.0468 -0.1728
 3728SOL    HW122643   1.614   0.513  15.855 -0.6994 -1.8497 -0.5372
 3728SOL    HW222644   1.486   0.447  15.895  0.6871 -0.3636 -0.7015
 3729SOL     OW22645   3.021   0.277  17.026  0.1110 -0.9062  0.0667
 3729SOL    HW122646   3.055   0.275  17.115 -1.9761  1.6308  0.9170
 3729SOL    HW222647   3.102   0.282  16.975 -0.1201 -0.8379 -0.2982
 3730SOL     OW22648   3.435   1.497   0.684 -0.9443 -0.3090  0.0027
 3730SOL    HW122649   3.529   1.485   0.671 -1.1337 -0.9355 -0.8490
 3730SOL    HW222650   3.399   1.408   0.689 -0.6780 -0.3810  0.5786
 3731SOL     OW22651   3.460   0.899   0.147  0.1725 -0.0267 -0.3456
 3731SOL    HW122652   3.464   0.943   0.231  3.0341 -1.5061  0.2944
 3731SOL    HW222653   3.372   0.864   0.135  0.5187 -0.9718 -0.1102
 3732SOL     OW22654   0.175   4.525   8.307 -0.3613 -0.0981  0.3543
 3732SOL    HW122655   0.162   4.432   8.328  2.8790 -0.7296 -0.3918
 3732SOL    HW222656   0.247   4.555   8.363 -0.2513 -2.3536  1.4099
 3733SOL     OW22657   0.192   3.393  17.351  0.7295 -0.0992  0.1960
 3733SOL    HW122658   0.262   3.424  17.409 -0.1867  0.6873  0.8786
 3733SOL    HW222659   0.128   3.464  17.353  1.2803  0.3971  0.1239
 3734SOL     OW22660   0.621   4.463   0.387  0.1774 -0.1881 -0.2186
 3734SOL    HW122661   0.625   4.481   0.481 -0.0981  1.8400 -0.5990
 3734SOL    HW222662   0.552   4.527   0.370 -0.3921 -0.7832 -0.1766
 3735SOL     OW22663   1.398   1.809   6.626  0.2510  0.2436  0.6051
 3735SOL    HW122664   1.356   1.884   6.584  1.1011  0.9495  1.0229
 3735SOL    HW222665   1.339   1.735   6.608  1.9732 -0.3760 -2.4331
 3736SOL     OW22666   1.649   1.136   8.647  0.0702  0.2278  0.2539
 3736SOL    HW122667   1.723   1.130   8.707 -1.1428 -0.4771  1.7163
 3736SOL    HW222668   1.601   1.211   8.683  1.2523  0.6844  0.8827
 3737SOL     OW22669   2.868   4.671   7.413  0.3767 -0.1874  0.1795
 3737SOL    HW122670   2.954   4.668   7.371  1.3222  2.4235  1.9338
 3737SOL    HW222671   2.894   4.640   7.500  0.3018 -1.8164 -0.3704
 3738SOL     OW22672   1.170   2.605  15.731 -0.1883 -0.7287 -0.3574
 3738SOL    HW122673   1.107   2.537  15.753 -0.0973 -1.0349 -1.0572
 3738SOL    HW222674   1.228   2.554  15.675  0.3134  1.5048 -1.8712
 3739SOL     OW22675   3.120   2.584   1.361  0.3011  0.9663  0.4274
 3739SOL    HW122676   3.050   2.525   1.332 -1.7634  2.1328  2.9623
 3739SOL    HW222677   3.110   2.588   1.456 -0.9166 -0.1716  0.3647
 3740SOL     OW22678   0.022   0.582  13.972 -0.2373  0.2230  0.4004
 3740SOL    HW122679   0.082   0.596  14.046  1.3287 -0.4109 -0.7435
 3740SOL    HW222680   0.020   0.487  13.962  1.9210  0.2014  0.0351
 3741SOL     OW22681   1.163   4.470   4.822 -0.4395  0.5407  0.1308
 3741SOL    HW122682   1.072   4.476   4.794 -1.0290 -2.3846  1.4888
 3741SOL    HW222683   1.209   4.543   4.779 -1.2776  2.3139  2.2445
 3742SOL     OW22684   3.548   3.216   2.401 -0.2119  0.5960  0.2518
 3742SOL    HW122685   3.562   3.252   2.488 -2.1010  0.6267  0.5350
 3742SOL    HW222686   3.500   3.285   2.354  1.7536  2.0605  0.3758
 3743SOL     OW22687   1.658   3.010  13.229 -0.6162 -0.3229 -0.2109
 3743SOL    HW122688   1.739   3.048  13.263 -0.2445 -0.6182 -0.7660
 3743SOL    HW222689   1.700   2.930  13.196 -0.7048 -0.9450  1.2005
 3744SOL     OW22690   2.231   1.990   5.492 -0.5488  0.8300  0.5024
 3744SOL    HW122691   2.210   1.935   5.417 -0.5118  0.6123  0.6532
 3744SOL    HW222692   2.204   2.069   5.444  0.9145  1.5373  0.8513
 3745SOL     OW22693   0.356   2.997   5.566  0.0730 -0.6814  0.3174
 3745SOL    HW122694   0.323   3.085   5.549  0.9538  0.0342  2.2527
 3745SOL    HW222695   0.271   2.964   5.594  0.7532 -1.9250  0.9284
 3746SOL     OW22696   3.907   1.056   4.350 -0.1638  0.9447  0.5382
 3746SOL    HW122697   3.952   1.088   4.271 -1.7865  1.8643 -0.0191
 3746SOL    HW222698   3.827   1.109   4.354 -0.6101  0.2449  0.9196
 3747SOL     OW22699   2.197   4.139  14.913  0.0106  0.0889 -0.3986
 3747SOL    HW122700   2.236   4.176  14.834  1.1651 -2.8288 -1.2291
 3747SOL    HW222701   2.213   4.201  14.984  1.9189 -0.0786 -0.6768
 3748SOL     OW22702   1.292   3.954   8.258  0.2551 -0.2842  0.4210
 3748SOL    HW122703   1.240   3.974   8.181  0.9297 -2.5103 -0.6202
 3748SOL    HW222704   1.343   4.035   8.260  0.3469 -0.4057  4.4282
 3749SOL     OW22705   0.070   4.632   8.924  0.0363 -0.0687 -0.2509
 3749SOL    HW122706   4.717   4.624   8.982 -0.1878  3.9200 -0.0131
 3749SOL    HW222707   0.103   4.542   8.925 -1.5081 -0.6390 -0.7558
 3750SOL     OW22708   3.917   1.408   9.652 -0.2304 -0.2301 -0.2270
 3750SOL    HW122709   3.922   1.500   9.678 -1.5088 -0.1700 -0.2074
 3750SOL    HW222710   3.901   1.411   9.558 -0.3330 -1.6490 -0.2646
 3751SOL     OW22711   4.480   3.983   3.895  0.2646  0.5066 -0.3466
 3751SOL    HW122712   4.462   3.899   3.854  0.6681  0.7759 -1.0825
 3751SOL    HW222713   4.576   3.990   3.897  0.1612  1.8886 -0.2860
 3752SOL     OW22714   1.505   2.410   7.550 -0.0836 -0.2027 -0.3709
 3752SOL    HW122715   1.591   2.438   7.517 -0.7879  0.2059 -1.8352
 3752SOL    HW222716   1.522   2.399   7.644 -2.2067  0.7418  0.1198
 3753SOL     OW22717   1.630   0.934   2.955 -0.0726 -0.5357  0.2529
 3753SOL    HW122718   1.660   0.844   2.970  1.2405 -0.1399  0.0066
 3753SOL    HW222719   1.594   0.960   3.040 -1.1809  1.1109 -0.7211
 3754SOL     OW22720   2.771   1.002   1.380 -0.2339  0.2413  0.3738
 3754SOL    HW122721   2.849   1.004   1.435  0.5473 -0.6670 -0.6870
 3754SOL    HW222722   2.714   1.060   1.430 -0.3943 -0.3965  0.9430
 3755SOL     OW22723   3.847   0.498   4.964  0.1129 -0.2887 -0.7661
 3755SOL    HW122724   3.859   0.495   4.870 -0.1510 -2.8503 -0.7161
 3755SOL    HW222725   3.793   0.420   4.982 -1.6959  1.3828  1.0817
 3756SOL     OW22726   1.529   3.489  13.583  0.1754 -0.0760 -0.6547
 3756SOL    HW122727   1.561   3.532  13.662 -2.0566 -0.7567  0.6242
 3756SOL    HW222728   1.571   3.405  13.599 -0.2730 -0.5050 -1.7217
 3757SOL     OW22729   2.134   1.512   6.619 -0.1116  0.0209 -0.2026
 3757SOL    HW122730   2.080   1.577   6.665 -1.8622 -1.6128  0.0123
 3757SOL    HW222731   2.220   1.555   6.626  0.0460  0.0700 -2.6903
 3758SOL     OW22732   1.857   3.466   3.853 -0.2207 -0.3204 -0.0921
 3758SOL    HW122733   1.920   3.532   3.826 -0.7850 -0.4689 -1.7282
 3758SOL    HW222734   1.834   3.422   3.772  0.0853  1.7714 -1.3171
 3759SOL     OW22735   1.837   0.380   4.158  0.0694 -0.3686  0.0295
 3759SOL    HW122736   1.870   0.385   4.248  2.3273 -0.6251 -0.8119
 3759SOL    HW222737   1.910   0.335   4.116  0.6956  0.2911  0.4093
 3760SOL     OW22738   2.763   1.902   7.827  0.5174 -0.6727 -0.1764
 3760SOL    HW122739   2.698   1.869   7.765 -2.1775  0.4935  2.0510
 3760SOL    HW222740   2.710   1.901   7.907 -0.8797 -0.3497 -1.1007
 3761SOL     OW22741   0.525   4.710   4.946 -0.3432 -0.1383  0.4915
 3761SOL    HW122742   0.479   4.635   4.909  0.3833 -1.2830  1.8775
 3761SOL    HW222743   0.463   0.056   4.920  0.4513  0.4755  0.2296
 3762SOL     OW22744   2.754   0.330  12.584  0.2047 -0.2443 -0.4802
 3762SOL    HW122745   2.790   0.277  12.513  1.6475  1.0406 -0.7246
 3762SOL    HW222746   2.659   0.316  12.587 -0.0102  1.3637  0.4446
 3763SOL     OW22747   1.940   4.174  12.156 -0.2741 -0.2134 -0.8867
 3763SOL    HW122748   1.894   4.223  12.224 -0.5807  0.7670 -1.7973
 3763SOL    HW222749   2.015   4.151  12.211 -1.8082 -3.0518  0.0113
 3764SOL     OW22750   0.846   3.952   4.789 -0.7403  0.3491 -0.3388
 3764SOL    HW122751   0.764   3.914   4.756 -1.9236  1.7919  0.9594
 3764SOL    HW222752   0.830   4.045   4.778  0.2588  0.3531 -1.8976
 3765SOL     OW22753   4.199   0.049   4.720 -0.7651  0.2318 -0.4507
 3765SOL    HW122754   4.224   0.132   4.681 -0.0418  0.6897  1.0128
 3765SOL    HW222755   4.245   0.064   4.802 -1.2911 -1.0887  0.1016
 3766SOL     OW22756   2.754   0.222   6.403 -0.1410 -0.1239 -0.8928
 3766SOL    HW122757   2.706   0.238   6.484 -1.0968 -2.2173 -1.0629
 3766SOL    HW222758   2.837   0.184   6.434 -0.8848 -2.0006 -1.2215
 3767SOL     OW22759   2.953   1.104   3.652 -0.2611 -0.2146 -0.5225
 3767SOL    HW122760   3.044   1.088   3.677 -0.9426 -1.2713  1.2537
 3767SOL    HW222761   2.951   1.032   3.588  0.8589  0.3259 -1.1718
 3768SOL     OW22762   3.915   0.905   8.017  0.0964  0.1661  0.7295
 3768SOL    HW122763   3.854   0.873   8.083  1.0010 -3.4644 -0.2089
 3768SOL    HW222764   3.883   0.991   7.990 -2.1729 -0.8198  0.2742
 3769SOL     OW22765   1.392   4.396   4.965 -0.1507  0.2562 -0.1453
 3769SOL    HW122766   1.422   4.396   4.874  3.0065 -1.4928  0.9064
 3769SOL    HW222767   1.298   4.413   4.954  0.1443  2.4987  0.6848
 3770SOL     OW22768   3.506   0.085   7.558  0.6180  0.0709 -0.3218
 3770SOL    HW122769   3.557   0.083   7.639 -1.2910 -0.1658  0.8856
 3770SOL    HW222770   3.577   0.101   7.496  2.6824  1.1310  2.3391
 3771SOL     OW22771   3.848   3.501   4.271 -0.1557 -0.4698 -0.2635
 3771SOL    HW122772   3.760   3.480   4.238 -0.3259 -1.3861  0.7706
 3771SOL    HW222773   3.854   3.593   4.295  1.6446 -0.3844 -1.0771
 3772SOL     OW22774   1.236   2.985   4.976 -0.4014  0.4615  0.1858
 3772SOL    HW122775   1.311   2.926   4.979 -1.0943 -0.3961  1.0411
 3772SOL    HW222776   1.270   3.060   4.928  1.6660 -0.9390 -0.5207
 3773SOL     OW22777   2.239   1.839   5.807  0.2529  0.5188 -0.1036
 3773SOL    HW122778   2.147   1.862   5.793  0.1679  1.0217  1.2591
 3773SOL    HW222779   2.232   1.753   5.848 -0.3608 -0.1766 -1.6601
 3774SOL     OW22780   1.035   0.796  14.782 -0.2989  0.5035  0.2694
 3774SOL    HW122781   1.052   0.723  14.722  0.4679  0.3337  0.6919
 3774SOL    HW222782   0.951   0.766  14.816  0.0313 -1.2008 -0.3862
 3775SOL     OW22783   1.167   3.108  13.885 -0.3077 -0.3414 -0.2381
 3775SOL    HW122784   1.180   3.194  13.924 -1.6861  0.0990 -0.7590
 3775SOL    HW222785   1.173   3.131  13.793  1.3004 -1.2402 -0.3666
 3776SOL     OW22786   0.536   2.981   0.868  0.3565 -0.2757  0.0319
 3776SOL    HW122787   0.560   3.070   0.843  1.5543  0.0921  2.4635
 3776SOL    HW222788   0.495   2.991   0.953 -3.0441 -3.4217 -1.2345
 3777SOL     OW22789   4.524   1.849   1.701  0.0210 -0.0225 -0.2219
 3777SOL    HW122790   4.461   1.782   1.728  0.6792 -0.4375  0.2700
 3777SOL    HW222791   4.569   1.812   1.625  1.1218 -2.6696  1.7384
 3778SOL     OW22792   3.453   3.105   7.395 -0.5504 -0.2702 -0.1505
 3778SOL    HW122793   3.432   3.014   7.414  0.1768 -0.1706  1.1143
 3778SOL    HW222794   3.393   3.123   7.323 -0.6986  1.8115  0.4786
 3779SOL     OW22795   0.322   0.748  10.177  0.5237  0.3081  0.9719
 3779SOL    HW122796   0.322   0.653  10.194  0.3256  0.4560  1.8188
 3779SOL    HW222797   0.344   0.740  10.085 -0.1033  0.4138  0.8098
 3780SOL     OW22798   3.336   2.923  13.171  0.1676 -0.2753 -0.5882
 3780SOL    HW122799   3.248   2.917  13.207  0.2449  2.2284  0.0041
 3780SOL    HW222800   3.335   2.858  13.100 -0.6348 -0.6799 -0.2068
 3781SOL     OW22801   0.307   1.118   7.747 -0.2854  0.4067 -0.3205
 3781SOL    HW122802   0.215   1.143   7.760  0.6574  3.0178  1.3176
 3781SOL    HW222803   0.350   1.170   7.814 -1.5052 -0.0306  0.8094
 3782SOL     OW22804   3.799   4.510  12.906 -0.4539 -1.0285  1.1814
 3782SOL    HW122805   3.870   4.535  12.965  0.5788 -1.2582  0.0308
 3782SOL    HW222806   3.831   4.435  12.856  0.4009 -0.2268  0.5204
 3783SOL     OW22807   1.273   3.085   8.347 -0.0906  0.0877 -0.3771
 3783SOL    HW122808   1.212   3.120   8.412 -0.7261  2.1716 -2.1019
 3783SOL    HW222809   1.293   3.165   8.299 -0.9098  1.7910  2.1025
 3784SOL     OW22810   1.143   2.251   5.397 -0.7322  0.3012  0.0533
 3784SOL    HW122811   1.104   2.305   5.329 -1.9505 -0.9106 -0.2006
 3784SOL    HW222812   1.190   2.325   5.435  2.6389 -1.0895 -1.4038
 3785SOL     OW22813   3.908   2.897   6.356  0.2258 -0.1046  0.2369
 3785SOL    HW122814   3.970   2.933   6.292  0.2685  0.7351  0.7599
 3785SOL    HW222815   3.873   2.976   6.397 -0.5158  0.7569 -2.0241
 3786SOL     OW22816   4.252   0.282   0.081  0.0890  0.0853  0.4979
 3786SOL    HW122817   4.273   0.227   0.005  0.1931  0.9882 -0.1247
 3786SOL    HW222818   4.324   0.344   0.090  0.5539 -0.4827  0.6429
 3787SOL     OW22819   4.011   4.490   3.083  0.2269  0.0841  0.2901
 3787SOL    HW122820   3.961   4.417   3.119  2.4946 -1.6567 -0.1459
 3787SOL    HW222821   4.063   4.436   3.023 -1.8191 -0.8839 -0.6319
 3788SOL     OW22822   3.985   0.857  10.917  0.5449 -0.0789 -0.2615
 3788SOL    HW122823   3.928   0.840  10.842  0.8749  0.2954 -0.5927
 3788SOL    HW222824   4.046   0.922  10.883 -0.0129  1.0465  0.9150
 3789SOL     OW22825   0.303   3.473  17.601  0.1420  0.1736  0.5167
 3789SOL    HW122826   0.251   3.540  17.644 -3.2204 -1.2440 -1.3721
 3789SOL    HW222827   0.386   3.497  17.643  0.3563  0.8995 -0.3350
 3790SOL     OW22828   2.497   3.247   2.646  0.0899 -0.5182 -0.5336
 3790SOL    HW122829   2.576   3.194   2.650  0.6170  0.0949 -2.7718
 3790SOL    HW222830   2.490   3.291   2.561 -1.7415  1.0779  0.4234
 3791SOL     OW22831   1.452   4.470   7.030  0.6514  0.1183  0.3703
 3791SOL    HW122832   1.413   4.520   7.102 -0.6741 -0.1475 -0.1503
 3791SOL    HW222833   1.528   4.527   7.019  0.7844 -0.3060 -0.9351
 3792SOL     OW22834   1.641   4.369   8.332 -0.3932 -0.2062  0.2597
 3792SOL    HW122835   1.547   4.374   8.315 -0.3788  1.7766  0.7119
 3792SOL    HW222836   1.677   4.357   8.244  1.4845 -1.3162  1.1681
 3793SOL     OW22837   0.949   3.026   3.470  0.4592  0.5575  0.3142
 3793SOL    HW122838   0.981   2.940   3.497  0.1109  0.2460 -0.2764
 3793SOL    HW222839   1.013   3.089   3.505 -0.1382  0.5798  1.3747
 3794SOL     OW22840   0.824   2.091   2.140 -0.4299  0.4449  0.2963
 3794SOL    HW122841   0.918   2.105   2.132 -0.3646 -0.0191  0.2648
 3794SOL    HW222842   0.805   2.070   2.231 -1.6075 -0.1952 -0.0988
 3795SOL     OW22843   3.108   1.428  10.464 -0.0249  0.7343 -0.1490
 3795SOL    HW122844   3.127   1.369  10.536 -0.7121  1.6368  0.7696
 3795SOL    HW222845   3.126   1.370  10.390  1.1697  0.5504  0.2905
 3796SOL     OW22846   4.211   0.983  15.960  0.1023 -0.3544  0.6960
 3796SOL    HW122847   4.203   0.891  15.934 -2.3517  0.2342 -0.6725
 3796SOL    HW222848   4.306   0.991  15.953  0.1966 -0.9157  1.3107
 3797SOL     OW22849   2.155   3.531   8.667  0.1804 -0.0418  0.0571
 3797SOL    HW122850   2.166   3.495   8.755 -0.4460 -1.1425 -0.3201
 3797SOL    HW222851   2.061   3.550   8.669 -0.0360 -1.1942  0.5228
 3798SOL     OW22852   1.090   0.690   3.328  0.0139  0.3320  0.6294
 3798SOL    HW122853   1.018   0.730   3.278  2.2907 -0.6120 -3.3614
 3798SOL    HW222854   1.163   0.743   3.296 -0.3491 -0.8412 -2.1696
 3799SOL     OW22855   0.239   1.014   5.811 -0.4386 -0.7081  0.1514
 3799SOL    HW122856   0.185   0.935   5.802 -0.5506 -0.5485 -0.5568
 3799SOL    HW222857   0.256   1.022   5.905  0.8763 -1.2041 -0.0443
 3800SOL     OW22858   0.782   2.340   6.071  0.2443 -0.7954 -0.3767
 3800SOL    HW122859   0.858   2.390   6.101 -0.4313  0.9704 -1.6241
 3800SOL    HW222860   0.807   2.329   5.979 -1.5761 -0.6819 -0.8858
 3801SOL     OW22861   3.647   0.542   9.076  0.0223 -0.7494 -0.5184
 3801SOL    HW122862   3.691   0.465   9.113  0.7483 -0.9955 -1.9113
 3801SOL    HW222863   3.658   0.610   9.143  1.6067 -1.2851 -0.2274
 3802SOL     OW22864   3.630   1.748   8.775  0.5242  0.0398  0.1882
 3802SOL    HW122865   3.616   1.711   8.862 -0.4759  0.4224  0.1873
 3802SOL    HW222866   3.544   1.738   8.733  0.8180  0.2213 -0.4560
 3803SOL     OW22867   2.886   2.911   6.182 -0.0856  0.5747 -0.1966
 3803SOL    HW122868   2.818   2.966   6.143 -2.0008 -1.1671  0.6342
 3803SOL    HW222869   2.876   2.827   6.138 -1.3992 -0.5115  2.1721
 3804SOL     OW22870   0.497   0.537  16.796 -0.4513 -0.1492 -0.2064
 3804SOL    HW122871   0.413   0.497  16.773 -1.3050  2.2650 -1.3155
 3804SOL    HW222872   0.552   0.505  16.724  0.8480  2.1260 -0.2427
 3805SOL     OW22873   1.685   4.366  14.768  0.2360  0.0821  0.8438
 3805SOL    HW122874   1.762   4.377  14.711 -1.1818  1.0831 -0.8825
 3805SOL    HW222875   1.653   4.283  14.733  0.6576  1.1403 -2.0960
 3806SOL     OW22876   0.137   3.481   2.397  0.2931 -0.2300 -0.2384
 3806SOL    HW122877   0.155   3.524   2.314 -0.1341 -0.7811 -0.6171
 3806SOL    HW222878   0.134   3.389   2.370 -0.3651 -0.1424 -0.4691
 3807SOL     OW22879   2.476   4.459   6.316  0.3250 -0.1190 -0.2237
 3807SOL    HW122880   2.487   4.543   6.271 -0.0342  0.0440 -0.0048
 3807SOL    HW222881   2.440   4.492   6.398 -1.2165 -1.1239 -0.4913
 3808SOL     OW22882   2.764   0.448   9.163  0.0800  0.2047  0.2024
 3808SOL    HW122883   2.835   0.494   9.208 -0.2003  0.8632 -0.0296
 3808SOL    HW222884   2.699   0.430   9.231 -1.5493  0.0042 -1.4189
 3809SOL     OW22885   3.627   3.714   7.128  0.5202 -0.3619 -0.0838
 3809SOL    HW122886   3.581   3.785   7.173 -0.1745 -1.3005  0.6989
 3809SOL    HW222887   3.657   3.665   7.205  1.2735  1.1750  0.5893
 3810SOL     OW22888   0.431   4.588   1.828 -0.1407 -0.6240  0.2211
 3810SOL    HW122889   0.382   4.623   1.902  1.4416  2.4681 -0.2273
 3810SOL    HW222890   0.496   4.654   1.806 -0.0977 -0.0868  2.0050
 3811SOL     OW22891   4.360   3.557  15.405 -0.0742  0.2255 -0.1717
 3811SOL    HW122892   4.335   3.624  15.469 -0.1919  0.0166  0.0001
 3811SOL    HW222893   4.407   3.601  15.333  1.2443  1.0351  1.1988
 3812SOL     OW22894   3.540   0.745  17.631 -0.5340 -0.3109  0.2734
 3812SOL    HW122895   3.612   0.703  17.678 -0.3955  0.9104  1.1693
 3812SOL    HW222896   3.514   0.805   0.008 -1.5568 -4.3843  3.3824
 3813SOL     OW22897   1.453   3.048   4.237  0.0316 -0.4000 -0.1608
 3813SOL    HW122898   1.438   3.125   4.292 -1.7292 -0.8209 -0.0555
 3813SOL    HW222899   1.547   3.056   4.224  0.2605 -1.4001  0.8713
 3814SOL     OW22900   4.228   2.589   4.463  0.3886  0.5506 -0.0808
 3814SOL    HW122901   4.251   2.577   4.555  0.3239 -1.6392 -0.3561
 3814SOL    HW222902   4.167   2.663   4.459 -0.6395 -0.0935  3.1441
 3815SOL     OW22903   4.186   4.561   2.640 -0.0144  0.2927  1.2443
 3815SOL    HW122904   4.100   4.524   2.619  0.8244 -0.1306 -1.4703
 3815SOL    HW222905   4.186   4.640   2.586  0.0543 -0.8948 -0.4728
 3816SOL     OW22906   1.135   3.303   2.962  0.1244  0.1635 -0.3172
 3816SOL    HW122907   1.160   3.267   2.877  3.8758  0.2284  0.7476
 3816SOL    HW222908   1.195   3.255   3.019 -0.7574 -0.4538  0.0914
 3817SOL     OW22909   1.007   3.701   8.617 -0.0863 -0.0656 -0.3118
 3817SOL    HW122910   1.021   3.749   8.535 -0.2461  0.5670  0.0320
 3817SOL    HW222911   1.038   3.771   8.674  1.6912  0.7370 -2.2511
 3818SOL     OW22912   3.517   1.067   8.378 -0.6499 -0.2496 -0.1841
 3818SOL    HW122913   3.583   1.131   8.353  2.9541 -3.0815  1.9870
 3818SOL    HW222914   3.556   0.989   8.337  1.0134  0.4774  0.0042
 3819SOL     OW22915   1.639   0.083   3.616 -0.6112  0.8785  0.0944
 3819SOL    HW122916   1.548   0.054   3.625 -0.4205 -0.1054 -1.2956
 3819SOL    HW222917   1.667   0.086   3.708 -3.1642  0.9719  0.8704
 3820SOL     OW22918   0.326   1.790   8.752 -0.0782 -0.0462  0.0373
 3820SOL    HW122919   0.352   1.704   8.718 -0.7738 -0.2869  0.1034
 3820SOL    HW222920   0.393   1.813   8.816 -1.1668  2.4161  0.2565
 3821SOL     OW22921   2.878   1.428   8.636  0.3235  0.2036  0.3434
 3821SOL    HW122922   2.814   1.371   8.593  2.4603 -2.8211  1.1459
 3821SOL    HW222923   2.843   1.517   8.638 -2.3782 -0.9125  3.7096
 3822SOL     OW22924   1.810   0.917   6.283 -0.1095  0.0651 -0.1404
 3822SOL    HW122925   1.814   1.013   6.278  1.7584  0.0456  1.0210
 3822SOL    HW222926   1.895   0.893   6.319 -1.6686 -0.1998  3.3202
 3823SOL     OW22927   3.418   2.520   7.305 -0.3543 -0.1645 -0.1095
 3823SOL    HW122928   3.495   2.517   7.248 -0.7676 -1.4263 -0.6016
 3823SOL    HW222929   3.408   2.427   7.324  0.6294 -0.3444 -0.4587
 3824SOL     OW22930   1.702   2.112   5.967  0.1363  0.4696 -0.2853
 3824SOL    HW122931   1.642   2.088   5.897  2.0407  0.3797 -1.8850
 3824SOL    HW222932   1.707   2.028   6.014  0.4282  1.5563  1.6228
 3825SOL     OW22933   0.185   1.552   4.680  0.0781 -0.0431  0.4607
 3825SOL    HW122934   0.137   1.599   4.749 -1.4316  1.1568 -1.4303
 3825SOL    HW222935   0.124   1.482   4.661 -0.2208  0.3108  0.1103
 3826SOL     OW22936   4.701   0.774   1.753  0.2022  0.2998 -0.0990
 3826SOL    HW122937   4.650   0.829   1.693  0.9737  1.4710  0.3143
 3826SOL    HW222938   4.642   0.765   1.828  0.3550 -0.7712 -0.1050
 3827SOL     OW22939   2.919   0.719   5.411  0.1075 -0.1644  0.0542
 3827SOL    HW122940   2.979   0.782   5.371 -1.4699  2.6069  2.0072
 3827SOL    HW222941   2.843   0.777   5.408 -0.4442 -0.8601  0.6209
 3828SOL     OW22942   2.006   3.002   4.648  0.6561 -0.2151 -0.2593
 3828SOL    HW122943   1.993   2.978   4.739 -0.2987 -1.4451 -0.7177
 3828SOL    HW222944   2.004   3.097   4.645 -3.5841 -0.2963  0.7438
 3829SOL     OW22945   4.322   1.607   4.173  0.0997  0.4134 -0.3719
 3829SOL    HW122946   4.288   1.518   4.175  1.0518  0.0815  0.3212
 3829SOL    HW222947   4.265   1.644   4.241 -0.1768 -0.3347 -0.2049
 3830SOL     OW22948   3.006   3.742   5.571 -0.4946  0.0871 -0.4870
 3830SOL    HW122949   3.044   3.713   5.488  0.5275 -1.4256  0.5177
 3830SOL    HW222950   2.962   3.665   5.607 -2.7122  1.2711 -0.6614
 3831SOL     OW22951   2.498   3.164  15.970 -0.0399 -0.6457 -0.4505
 3831SOL    HW122952   2.532   3.079  16.000  0.0003 -0.5055 -0.0970
 3831SOL    HW222953   2.409   3.145  15.941 -1.1155  1.4681  1.4665
 3832SOL     OW22954   0.275   4.093   9.181  0.1701  0.4685  0.2987
 3832SOL    HW122955   0.192   4.131   9.149  1.4651  2.8839 -0.2029
 3832SOL    HW222956   0.241   4.005   9.198  0.6032  0.1912 -0.3094
 3833SOL     OW22957   2.914   4.449   6.640 -0.0749 -0.2154 -0.5348
 3833SOL    HW122958   2.918   4.539   6.610  0.4718 -0.7937 -2.1860
 3833SOL    HW222959   2.820   4.431   6.652  0.4359 -0.8257  2.5267
 3834SOL     OW22960   3.680   0.862   4.444  0.1671  0.4792 -0.3009
 3834SOL    HW122961   3.650   0.923   4.376  0.5935 -0.0432 -0.9598
 3834SOL    HW222962   3.600   0.833   4.487 -0.8549 -0.5029 -2.8603
 3835SOL     OW22963   0.014   3.097   4.061  1.0292 -0.0179 -0.5183
 3835SOL    HW122964   4.705   3.063   3.977  1.3886 -2.1026  0.2080
 3835SOL    HW222965   4.720   3.192   4.061 -1.5823 -0.4521  1.1617
 3836SOL     OW22966   1.299   1.256  14.025  0.3105  0.0780 -0.8781
 3836SOL    HW122967   1.285   1.286  13.935 -1.9635 -0.5303 -0.7272
 3836SOL    HW222968   1.252   1.322  14.076  2.5920  0.7645  0.3277
 3837SOL     OW22969   2.280   1.631  12.626 -0.2327 -0.1945 -0.3765
 3837SOL    HW122970   2.304   1.714  12.669 -0.4834 -0.8952  1.1370
 3837SOL    HW222971   2.301   1.568  12.696 -2.6871 -0.0806  0.4668
 3838SOL     OW22972   4.006   0.627   5.763  0.8578 -0.1704 -0.4751
 3838SOL    HW122973   3.992   0.590   5.851 -0.2442  1.7314  0.1401
 3838SOL    HW222974   3.918   0.663   5.753  0.0770 -1.4331  1.7407
 3839SOL     OW22975   1.624   2.865   9.902  0.1515 -0.0370 -0.3386
 3839SOL    HW122976   1.698   2.854   9.842  0.6212 -0.7007  0.3655
 3839SOL    HW222977   1.628   2.961   9.905  1.1744 -0.0958  0.2283
 3840SOL     OW22978   0.580   4.584   3.091 -0.1076 -1.0001  0.7387
 3840SOL    HW122979   0.573   4.653   3.026 -1.9595 -0.6482  1.3290
 3840SOL    HW222980   0.535   4.631   3.161  2.0068  0.0039  1.4398
 3841SOL     OW22981   3.511   4.052   7.537  0.7055 -0.2884  0.5366
 3841SOL    HW122982   3.482   4.137   7.571  0.0854 -0.1844 -0.2610
 3841SOL    HW222983   3.551   4.078   7.455 -1.0072 -0.6609 -0.4325
 3842SOL     OW22984   3.123   1.316   3.240  0.3886 -0.6001  0.6193
 3842SOL    HW122985   3.120   1.274   3.154  0.2161 -0.6497  0.6489
 3842SOL    HW222986   3.095   1.403   3.211  0.2369 -0.2644  1.7874
 3843SOL     OW22987   2.418   3.585   4.506  0.0160  0.4607  0.3335
 3843SOL    HW122988   2.350   3.518   4.494  0.1778  0.7931 -2.4948
 3843SOL    HW222989   2.446   3.572   4.596 -2.8776  0.7906  1.2839
 3844SOL     OW22990   3.110   1.070   4.510  0.2083  0.2455 -0.0690
 3844SOL    HW122991   3.016   1.075   4.493 -0.1073  0.6604  1.8462
 3844SOL    HW222992   3.116   1.147   4.565  3.2457 -0.6635  0.9190
 3845SOL     OW22993   4.591   2.175   2.185  0.4460 -0.0865 -0.2132
 3845SOL    HW122994   4.564   2.230   2.258 -2.2037 -0.7127 -0.7103
 3845SOL    HW222995   4.574   2.238   2.115 -0.7893 -1.1533 -0.8782
 3846SOL     OW22996   0.490   0.403   6.918 -0.5207 -0.4314 -0.0241
 3846SOL    HW122997   0.460   0.312   6.915 -1.3498 -0.1155 -1.0206
 3846SOL    HW222998   0.492   0.412   7.014 -0.3449 -1.3556  0.0675
 3847SOL     OW22999   1.177   2.863   2.710 -0.3817  0.0188  0.3532
 3847SOL    HW123000   1.134   2.848   2.626  1.6760 -0.8015 -0.5307
 3847SOL    HW223001   1.272   2.867   2.703 -0.1380 -0.7451  3.0094
 3848SOL     OW23002   4.208   1.642   7.230  0.1253 -0.1770 -0.0843
 3848SOL    HW123003   4.182   1.638   7.322  1.0735  1.1659  0.2506
 3848SOL    HW223004   4.228   1.551   7.213  0.1678 -0.1504 -0.1793
 3849SOL     OW23005   1.591   4.180   1.432 -0.4912 -0.0229  0.5728
 3849SOL    HW123006   1.542   4.252   1.471 -2.2195 -0.9622  0.1229
 3849SOL    HW223007   1.519   4.119   1.418 -0.2225  0.0184 -0.9909
 3850SOL     OW23008   2.042   0.061  13.824  0.6218 -0.4070 -0.1313
 3850SOL    HW123009   1.999   4.709  13.781 -0.2865  0.0829 -0.0794
 3850SOL    HW223010   2.132   0.052  13.792  1.0155  0.0900  0.8294
 3851SOL     OW23011   0.233   0.419   5.276 -0.1023  0.2883  0.7788
 3851SOL    HW123012   0.258   0.504   5.239  1.2075 -1.1673 -1.7087
 3851SOL    HW223013   0.253   0.437   5.368 -2.1191  1.6442  0.9449
 3852SOL     OW23014   0.923   4.652  14.277  0.3279  0.1132 -0.3855
 3852SOL    HW123015   0.934   4.707  14.199 -1.0021 -1.4525 -1.6724
 3852SOL    HW223016   0.841   4.608  14.252 -0.5563  1.8420 -0.5693
 3853SOL     OW23017   3.565   1.761   5.391 -0.1327  0.6905  0.4629
 3853SOL    HW123018   3.637   1.824   5.386 -0.1065  0.8453  2.9343
 3853SOL    HW223019   3.607   1.684   5.354  1.9434  1.5136  1.1276
 3854SOL     OW23020   0.725   3.503  11.557  0.7279  0.3122  0.1322
 3854SOL    HW123021   0.659   3.569  11.536 -0.7736 -1.3861 -0.5312
 3854SOL    HW223022   0.688   3.421  11.524 -1.7709  0.9883  1.2437
 3855SOL     OW23023   0.737   4.114   8.938 -0.2769 -0.3500 -0.2948
 3855SOL    HW123024   0.803   4.048   8.960 -1.8239 -2.1318 -0.9873
 3855SOL    HW223025   0.661   4.074   8.981  0.1342 -1.9969 -1.0924
 3856SOL     OW23026   4.329   1.414  11.952 -0.2546 -0.3111 -0.6621
 3856SOL    HW123027   4.384   1.348  11.994  0.7457  1.5512  0.9283
 3856SOL    HW223028   4.335   1.489  12.010 -2.4596 -1.0492  0.5198
 3857SOL     OW23029   1.054   2.167  14.710  0.2538 -0.1059 -0.1231
 3857SOL    HW123030   1.013   2.130  14.632  0.6774 -0.5900 -0.1110
 3857SOL    HW223031   1.141   2.128  14.710 -0.3555 -1.5000 -2.4201
 3858SOL     OW23032   2.103   4.408   1.648 -0.7189  0.1664  0.0496
 3858SOL    HW123033   2.096   4.453   1.733  0.4396 -1.0500  0.7943
 3858SOL    HW223034   2.185   4.359   1.655  0.4366  2.1028  0.0885
 3859SOL     OW23035   1.945   4.404   9.608 -0.2958 -0.0105 -0.2162
 3859SOL    HW123036   1.926   4.406   9.515 -1.4043  0.3913  0.0093
 3859SOL    HW223037   1.964   4.313   9.629  2.0297  0.0310 -2.1976
 3860SOL     OW23038   1.495   0.585   7.251 -0.7022  0.2518  0.2852
 3860SOL    HW123039   1.408   0.554   7.224 -0.3118  0.6399 -1.3829
 3860SOL    HW223040   1.481   0.679   7.237 -3.0483 -0.4638 -2.2181
 3861SOL     OW23041   3.922   0.637  10.001  0.6075  0.1161 -0.5597
 3861SOL    HW123042   3.891   0.686   9.924 -1.8643 -0.3744  0.1327
 3861SOL    HW223043   3.996   0.587   9.967  0.6333  0.8683 -1.6162
 3862SOL     OW23044   3.559   1.446  14.456  0.2529  0.9516  0.1762
 3862SOL    HW123045   3.473   1.482  14.479 -0.8494 -1.3382 -0.4247
 3862SOL    HW223046   3.537   1.391  14.382  0.3091 -0.2559  1.0588
 3863SOL     OW23047   3.952   3.298   0.179 -0.0229  0.3862  0.1764
 3863SOL    HW123048   3.868   3.267   0.211 -1.3837  1.9904 -1.8277
 3863SOL    HW223049   3.990   3.216   0.149  2.2806  0.9578  1.5035
 3864SOL     OW23050   1.431   0.603   8.480  0.3279  0.3261  0.0909
 3864SOL    HW123051   1.363   0.593   8.413 -0.7904  1.4915  1.0477
 3864SOL    HW223052   1.431   0.693   8.512  0.6424  0.4154 -0.1743
 3865SOL     OW23053   4.551   3.876   4.519  0.1371 -0.2411 -0.0342
 3865SOL    HW123054   4.482   3.870   4.585 -0.3856 -1.0396 -0.6349
 3865SOL    HW223055   4.522   3.814   4.451  1.8787 -1.9331  0.7622
 3866SOL     OW23056   4.073   1.620   8.505 -0.0467  0.7690 -0.4164
 3866SOL    HW123057   4.108   1.666   8.581  0.7129 -0.6875  0.1157
 3866SOL    HW223058   3.979   1.622   8.527  0.8323  1.9991  3.2021
 3867SOL     OW23059   0.008   3.171   1.194 -0.1930 -0.5506 -0.5196
 3867SOL    HW123060   0.011   3.078   1.216  1.3230 -1.0961 -3.0173
 3867SOL    HW223061   4.663   3.204   1.254  1.6783  2.0339  0.1467
 3868SOL     OW23062   2.970   4.381  17.440 -0.4793  0.2550 -0.3070
 3868SOL    HW123063   3.062   4.385  17.468 -0.4124 -2.5740 -0.0813
 3868SOL    HW223064   2.940   4.310  17.497 -1.4443  0.3664 -0.6810
 3869SOL     OW23065   2.382   0.044   5.161  0.0223  0.1735 -0.3906
 3869SOL    HW123066   2.464   0.043   5.211 -0.0283 -0.0644 -0.3120
 3869SOL    HW223067   2.325   4.717   5.220  0.6950 -0.7268 -0.4811
 3870SOL     OW23068   2.620   0.060  13.512 -0.0833  0.8177 -0.0977
 3870SOL    HW123069   2.615   0.030  13.421  0.0958 -0.4858  0.3217
 3870SOL    HW223070   2.654   0.149  13.507 -2.5634  1.6884 -1.5636
 3871SOL     OW23071   3.333   4.318   7.204 -0.2498  0.3441 -0.5248
 3871SOL    HW123072   3.375   4.386   7.151 -1.1553 -0.1480 -1.8837
 3871SOL    HW223073   3.390   4.245   7.183 -0.4579  0.0081  0.0768
 3872SOL     OW23074   3.263   2.309   6.619 -0.9581  0.2103 -0.2596
 3872SOL    HW123075   3.209   2.344   6.689 -0.4203 -0.3780  0.4513
 3872SOL    HW223076   3.268   2.216   6.640  2.2577  0.3563 -0.4463
 3873SOL     OW23077   3.008   4.074  15.397  0.1292 -0.8187  0.3876
 3873SOL    HW123078   2.985   4.070  15.304 -1.9354 -2.5693  0.9865
 3873SOL    HW223079   2.949   4.012  15.439 -0.3962  1.2044  2.6341
 3874SOL     OW23080   3.571   2.215   7.152  0.2423 -0.3782 -0.2346
 3874SOL    HW123081   3.515   2.138   7.162  0.6049 -0.5950  0.1313
 3874SOL    HW223082   3.634   2.210   7.224 -0.7517  0.2239  0.6763
 3875SOL     OW23083   2.321   4.714   7.182 -0.9228  0.2165  0.4898
 3875SOL    HW123084   2.402   4.693   7.135 -1.1368  0.3596  0.0495
 3875SOL    HW223085   2.248   4.704   7.121 -0.4848  1.6613 -0.2772
 3876SOL     OW23086   2.027   2.551   6.346 -0.3063 -0.9782  0.1352
 3876SOL    HW123087   2.110   2.570   6.302  0.7687 -1.3083  1.9821
 3876SOL    HW223088   2.024   2.635   6.394  0.1436 -1.1292  0.4275
 3877SOL     OW23089   4.224   0.403   2.875 -0.2272  0.0222  0.3033
 3877SOL    HW123090   4.230   0.355   2.792  0.8303 -0.0908  0.4442
 3877SOL    HW223091   4.164   0.351   2.929 -0.1922  0.1917  0.5051
 3878SOL     OW23092   0.655   0.495   6.721 -0.1130 -0.2547 -0.1938
 3878SOL    HW123093   0.612   0.456   6.798 -1.5652 -1.0566 -1.4165
 3878SOL    HW223094   0.707   0.420   6.692  0.5344  0.1192 -0.0054
 3879SOL     OW23095   4.098   3.383   3.174  0.0671  0.5152 -0.4841
 3879SOL    HW123096   4.008   3.393   3.145 -0.6899  2.1766  2.4758
 3879SOL    HW223097   4.079   3.356   3.264  1.3114 -1.6320 -0.8401
 3880SOL     OW23098   2.674   2.895   2.796 -0.6794  0.2674  0.0821
 3880SOL    HW123099   2.675   2.967   2.733 -1.4414  1.8173  1.8444
 3880SOL    HW223100   2.726   2.832   2.745  1.8027  3.6489 -1.5461
 3881SOL     OW23101   0.294   0.030   8.639 -0.5424 -0.0282 -0.4816
 3881SOL    HW123102   0.206   0.067   8.645  0.7330  3.0256 -0.6313
 3881SOL    HW223103   0.344   0.082   8.703 -0.2634  0.8252 -1.3830
 3882SOL     OW23104   3.182   1.514   7.410  0.5818 -0.0167 -0.4171
 3882SOL    HW123105   3.270   1.546   7.389  1.0377  0.5262  2.3950
 3882SOL    HW223106   3.139   1.598   7.428  1.7185  0.3201  0.6862
 3883SOL     OW23107   0.022   1.313  12.756  0.3362  0.4061 -0.0039
 3883SOL    HW123108   0.039   1.220  12.746  0.4880  0.4280  0.0479
 3883SOL    HW223109   0.006   1.327  12.662 -0.7718 -0.0845  0.1176
 3884SOL     OW23110   4.129   1.716   2.922 -0.3472 -0.0268 -1.4488
 3884SOL    HW123111   4.212   1.732   2.967 -1.7146 -1.2859  1.5004
 3884SOL    HW223112   4.168   1.658   2.856  2.4270  1.3441 -1.0027
 3885SOL     OW23113   1.923   1.987   4.787  0.1793 -0.1302  0.2366
 3885SOL    HW123114   1.984   2.036   4.842 -1.5319  1.2943  0.8439
 3885SOL    HW223115   1.866   2.059   4.759  1.3000  0.6059 -0.1493
 3886SOL     OW23116   4.529   1.381  12.568  0.5062 -0.0641 -0.3716
 3886SOL    HW123117   4.530   1.443  12.641 -1.6795  1.9172 -2.0211
 3886SOL    HW223118   4.491   1.437  12.500  0.1629  0.7974  0.5321
 3887SOL     OW23119   3.641   2.800   4.144 -0.6717  0.6181  0.1381
 3887SOL    HW123120   3.630   2.866   4.212  1.1578  1.9989 -0.9046
 3887SOL    HW223121   3.682   2.849   4.073  0.3847 -0.8450 -0.2546
 3888SOL     OW23122   3.952   2.498  15.488  0.3250  0.0478 -0.2993
 3888SOL    HW123123   4.047   2.488  15.494  0.6081  2.6085 -0.6152
 3888SOL    HW223124   3.951   2.591  15.465 -2.4297  0.0783 -0.0906
 3889SOL     OW23125   0.173   1.226  16.410 -0.1784  0.1653  0.3272
 3889SOL    HW123126   0.128   1.159  16.359 -0.7988  3.1074 -2.9477
 3889SOL    HW223127   0.102   1.275  16.452 -0.5298  1.3622 -1.6710
 3890SOL     OW23128   2.407   1.192  10.065 -0.3909  0.5704  0.4552
 3890SOL    HW123129   2.478   1.133  10.089 -1.4051 -1.3197 -1.1414
 3890SOL    HW223130   2.461   1.270  10.078  0.3679 -0.0221  0.8599
 3891SOL     OW23131   1.774   2.182   6.425 -0.1484  0.3151  0.3169
 3891SOL    HW123132   1.802   2.138   6.345  0.0586  2.6995 -0.9395
 3891SOL    HW223133   1.857   2.214   6.460 -0.3625 -0.4721  1.5584
 3892SOL     OW23134   1.111   2.291  17.628  0.0858  0.3873 -0.3377
 3892SOL    HW123135   1.097   2.233   0.011 -1.1369  1.5019  0.2935
 3892SOL    HW223136   1.047   2.358  17.651 -0.2986  0.0871 -0.5320
 3893SOL     OW23137   0.966   2.064  14.472  0.1590  0.1258 -0.2539
 3893SOL    HW123138   1.017   2.026  14.401  1.8736  3.8531 -0.9893
 3893SOL    HW223139   0.879   2.067  14.431  0.3258  0.5164 -0.5792
 3894SOL     OW23140   1.612   3.922   5.188  0.5017 -0.2116  0.1039
 3894SOL    HW123141   1.692   3.880   5.157  0.7490 -0.6058  1.2771
 3894SOL    HW223142   1.594   3.956   5.101  1.6635  0.7978  0.2645
 3895SOL     OW23143   0.178   1.650  15.175  0.2713 -0.0850  0.1570
 3895SOL    HW123144   0.189   1.561  15.208  5.1082  0.4927  0.0186
 3895SOL    HW223145   0.266   1.688  15.179  0.9593 -1.8652  1.5123
 3896SOL     OW23146   1.276   1.215  16.925 -0.0434 -0.1267 -0.1243
 3896SOL    HW123147   1.301   1.123  16.933 -0.0981 -0.1974 -0.7885
 3896SOL    HW223148   1.313   1.251  16.845  0.9158 -0.0821  0.3383
 3897SOL     OW23149   2.899   2.042   7.374  0.1217 -0.5191  0.6316
 3897SOL    HW123150   2.906   1.982   7.300 -1.7538  0.2354 -0.1483
 3897SOL    HW223151   2.842   1.986   7.427  0.1488 -1.1614 -0.0210
 3898SOL     OW23152   3.992   2.788   9.305  0.2355 -0.5748 -0.4601
 3898SOL    HW123153   3.946   2.742   9.376  2.7460 -1.0068  0.8865
 3898SOL    HW223154   3.912   2.801   9.255  0.6170  1.6956 -0.4817
 3899SOL     OW23155   3.051   3.422  12.710  0.5374  0.4484  0.1504
 3899SOL    HW123156   3.134   3.374  12.717  1.5205  2.0035 -0.6233
 3899SOL    HW223157   3.039   3.435  12.804 -3.1493  0.4953 -0.3582
 3900SOL     OW23158   1.688   3.460   7.750  0.0295  0.0715 -0.3840
 3900SOL    HW123159   1.773   3.433   7.784 -1.9388 -1.1835  3.4950
 3900SOL    HW223160   1.655   3.524   7.813  0.2910  0.0348 -0.2116
 3901SOL     OW23161   1.710   0.362   5.235  0.5488 -0.5333 -0.7707
 3901SOL    HW123162   1.778   0.338   5.172  0.4437 -1.1225 -0.6533
 3901SOL    HW223163   1.638   0.300   5.225  1.4153 -1.5749 -0.4970
 3902SOL     OW23164   0.894   2.877   6.770 -0.1841  0.7408 -0.0827
 3902SOL    HW123165   0.958   2.939   6.805  1.0700  0.5163 -1.9510
 3902SOL    HW223166   0.936   2.830   6.697  0.4626  0.1826  0.6513
 3903SOL     OW23167   2.660   2.629   3.045  0.6996  0.2396  0.0290
 3903SOL    HW123168   2.605   2.556   3.074  0.6177  0.0644 -0.5630
 3903SOL    HW223169   2.597   2.686   3.002 -0.2005 -3.0783 -3.0898
 3904SOL     OW23170   4.627   3.525  17.657  0.5207  0.4068 -0.1311
 3904SOL    HW123171   4.569   3.562   0.032 -0.7785  0.2046 -1.1287
 3904SOL    HW223172   4.704   3.580  17.670  1.8685 -1.2034 -1.3115
 3905SOL     OW23173   1.187   3.407   4.836 -0.6666  0.0912  0.0758
 3905SOL    HW123174   1.121   3.357   4.884  2.7959 -4.2561  0.2502
 3905SOL    HW223175   1.260   3.346   4.846 -0.1978  0.5813 -0.3802
 3906SOL     OW23176   2.490   3.425  14.348  0.0236 -0.2931 -0.2985
 3906SOL    HW123177   2.475   3.395  14.258 -0.7253 -0.5715 -0.0739
 3906SOL    HW223178   2.402   3.424  14.384 -0.6182 -1.1266 -1.8963
 3907SOL     OW23179   1.825   3.203   3.343  0.2866  0.0970 -0.7592
 3907SOL    HW123180   1.831   3.265   3.270  1.5934 -1.1044 -1.6766
 3907SOL    HW223181   1.751   3.145   3.326 -1.8201  2.5075  0.1710
 3908SOL     OW23182   3.277   2.766  11.504 -0.1960 -0.1002  0.0759
 3908SOL    HW123183   3.206   2.755  11.440 -1.6117 -0.4462  1.7127
 3908SOL    HW223184   3.301   2.858  11.492  0.0652 -0.0964  0.6370
 3909SOL     OW23185   4.256   0.437  10.246  0.4861  0.1679 -0.5636
 3909SOL    HW123186   4.248   0.375  10.318  1.4955 -0.0777 -0.6562
 3909SOL    HW223187   4.314   0.507  10.277  1.1053 -1.2501  1.4954
 3910SOL     OW23188   3.617   0.569   3.955  0.8374  0.0165  0.2599
 3910SOL    HW123189   3.680   0.501   3.980  2.0253  0.6907 -0.8940
 3910SOL    HW223190   3.602   0.556   3.862  1.8994 -0.5209  0.1672
 3911SOL     OW23191   4.671   1.102  12.456  0.0707  0.4169  0.0755
 3911SOL    HW123192   0.029   1.100  12.404 -0.2125  0.8157 -0.3819
 3911SOL    HW223193   4.621   1.170  12.411  2.6083  3.1637  1.4659
 3912SOL     OW23194   1.827   0.129   3.412  0.0007 -0.0355  0.1488
 3912SOL    HW123195   1.875   0.203   3.450 -0.0116  0.7249 -1.3169
 3912SOL    HW223196   1.790   0.102   3.496 -1.1817  0.0924 -0.3409
 3913SOL     OW23197   2.307   1.895  12.343  0.6105 -0.5887  0.0341
 3913SOL    HW123198   2.378   1.932  12.395  0.2304  0.1651  0.0254
 3913SOL    HW223199   2.236   1.915  12.404  1.0704  1.3971 -0.0896
 3914SOL     OW23200   2.508   3.963   9.483 -0.3102 -0.8755  0.0617
 3914SOL    HW123201   2.463   4.043   9.459  0.4093 -0.2442  0.8073
 3914SOL    HW223202   2.435   3.902   9.494 -0.6821 -0.4282  0.0523
 3915SOL     OW23203   3.268   3.572  13.171  0.1668  0.3995  0.1509
 3915SOL    HW123204   3.256   3.658  13.132 -0.5575  0.1034 -0.2854
 3915SOL    HW223205   3.357   3.589  13.201  0.4555 -1.7915  0.5556
 3916SOL     OW23206   0.316   3.630   0.626 -0.2601 -0.3699 -0.1521
 3916SOL    HW123207   0.261   3.621   0.704 -0.0369  0.6381  0.1163
 3916SOL    HW223208   0.396   3.659   0.669 -1.3813 -0.3329  1.9075
 3917SOL     OW23209   2.992   4.339  12.588 -0.4604 -0.1816  0.1295
 3917SOL    HW123210   2.986   4.249  12.618 -0.3357 -0.2581 -0.0759
 3917SOL    HW223211   2.900   4.363  12.581 -0.8745 -1.2656  2.1397
 3918SOL     OW23212   0.954   4.224   5.667 -0.3715 -0.2054 -0.3446
 3918SOL    HW123213   0.987   4.162   5.732  0.9376  0.4866 -0.3555
 3918SOL    HW223214   0.875   4.266   5.700  0.5679  0.6815  0.7488
 3919SOL     OW23215   1.336   1.690   8.358  0.0350  0.2256 -0.1116
 3919SOL    HW123216   1.336   1.649   8.272 -1.6630  0.3168 -0.1512
 3919SOL    HW223217   1.335   1.613   8.416 -0.4989  0.9411  0.8266
 3920SOL     OW23218   0.357   1.847   9.836  0.1539  0.2404 -1.1348
 3920SOL    HW123219   0.376   1.933   9.874  1.6707 -1.0554  1.0078
 3920SOL    HW223220   0.394   1.868   9.751 -0.7631 -1.2645 -1.8988
 3921SOL     OW23221   4.167   0.310   1.949  0.1638  0.2501 -0.2761
 3921SOL    HW123222   4.159   0.267   1.864  2.9104  2.4527 -1.6741
 3921SOL    HW223223   4.107   0.383   1.934  0.4538  0.5398 -0.0350
 3922SOL     OW23224   0.803   2.274   4.098 -0.2797  0.2687  0.8259
 3922SOL    HW123225   0.735   2.208   4.104 -0.1586 -0.1421 -2.3438
 3922SOL    HW223226   0.778   2.330   4.172  0.1537 -0.5630  1.6033
 3923SOL     OW23227   1.390   0.301  15.970 -0.0589 -0.3905 -0.1781
 3923SOL    HW123228   1.391   0.220  16.022  2.9939  0.4680  1.0782
 3923SOL    HW223229   1.328   0.340  16.032 -2.5085 -1.2247 -2.1140
 3924SOL     OW23230   4.538   0.264  13.000  0.1336 -0.1188 -0.0750
 3924SOL    HW123231   4.564   0.325  12.931 -1.1447  1.2219  0.6474
 3924SOL    HW223232   4.562   0.181  12.957  1.2791 -0.8704  2.0125
 3925SOL     OW23233   3.167   0.640  11.805 -0.1054 -0.7173  0.8844
 3925SOL    HW123234   3.150   0.666  11.896  0.7701 -0.4253  0.9658
 3925SOL    HW223235   3.209   0.723  11.783 -1.1375 -0.9099 -1.7551
 3926SOL     OW23236   3.203   0.557   6.003 -0.6440 -0.3029 -0.0606
 3926SOL    HW123237   3.296   0.542   5.983 -0.3787  1.1682  0.0568
 3926SOL    HW223238   3.194   0.652   6.006 -2.0470 -0.4470  0.0603
 3927SOL     OW23239   4.011   3.997   5.421  0.1894  0.0904  0.2316
 3927SOL    HW123240   3.952   4.066   5.451 -2.0389 -0.5378 -2.6604
 3927SOL    HW223241   3.943   3.943   5.381  0.0705  0.6654 -0.3468
 3928SOL     OW23242   4.013   3.398   7.809 -0.7546 -0.7531  0.1272
 3928SOL    HW123243   3.981   3.480   7.770  1.1556  0.5810  1.3768
 3928SOL    HW223244   4.106   3.422   7.805 -1.2091  0.9997  0.0009
 3929SOL     OW23245   0.300   2.380   7.795 -0.1663 -0.5304 -0.2017
 3929SOL    HW123246   0.322   2.472   7.783  1.5339 -1.0825 -1.2748
 3929SOL    HW223247   0.254   2.383   7.879  1.2267  0.0348  0.5402
 3930SOL     OW23248   2.867   1.853   3.977 -0.1513  0.8982 -0.0788
 3930SOL    HW123249   2.860   1.937   3.932  0.7013  0.3470 -1.2427
 3930SOL    HW223250   2.956   1.859   4.014 -0.5384  0.2478  0.9556
 3931SOL     OW23251   3.940   3.171   5.241  0.1564 -0.5304 -0.2995
 3931SOL    HW123252   4.011   3.196   5.300 -2.0606  1.4290  1.5825
 3931SOL    HW223253   3.870   3.215   5.291 -1.4816 -1.0128 -2.1517
 3932SOL     OW23254   0.805   0.906   5.816 -0.1509  0.4059  0.2815
 3932SOL    HW123255   0.818   0.997   5.789 -0.0852  0.5566  0.8308
 3932SOL    HW223256   0.720   0.916   5.858 -1.2082 -2.7639 -1.0732
 3933SOL     OW23257   1.544   1.724   6.264 -0.1894  0.4187 -0.4503
 3933SOL    HW123258   1.576   1.682   6.344 -3.6674 -1.2532  0.0643
 3933SOL    HW223259   1.465   1.674   6.242  0.3760 -1.0046  0.7340
 3934SOL     OW23260   4.493   4.080   6.137 -1.1387  0.0603 -1.2785
 3934SOL    HW123261   4.577   4.112   6.170 -1.0057 -0.9977 -0.5853
 3934SOL    HW223262   4.532   4.003   6.096  0.7675  0.8616 -0.9494
 3935SOL     OW23263   0.440   0.754   2.994  0.2941 -0.3629  0.0375
 3935SOL    HW123264   0.356   0.715   3.021 -0.1381 -0.1388 -0.9769
 3935SOL    HW223265   0.474   0.682   2.941 -1.8173  1.0287 -3.1946
 3936SOL     OW23266   0.972   0.381  17.319  0.2258  0.0437 -0.4351
 3936SOL    HW123267   1.021   0.434  17.381 -2.8573  0.0651  1.9955
 3936SOL    HW223268   0.918   0.446  17.273  0.6749  0.1216 -0.8513
 3937SOL     OW23269   4.421   1.940   9.162  0.0624 -0.1806  0.0616
 3937SOL    HW123270   4.494   1.925   9.102 -0.2459 -0.3200 -0.2804
 3937SOL    HW223271   4.430   2.034   9.174 -0.3832  0.0346 -1.2188
 3938SOL     OW23272   1.568   2.416   4.865 -0.0465 -0.0578 -0.1955
 3938SOL    HW123273   1.631   2.451   4.802  0.0018  0.2800  0.0389
 3938SOL    HW223274   1.597   2.439   4.954  1.4708  1.1518 -0.9917
 3939SOL     OW23275   2.721   2.502  16.358 -0.1919 -0.0995  0.2215
 3939SOL    HW123276   2.777   2.439  16.403 -0.1028  1.5654  2.4396
 3939SOL    HW223277   2.776   2.580  16.347 -2.5068  1.4716 -0.1502
 3940SOL     OW23278   3.130   0.642  10.460  0.2577 -0.6478 -0.1287
 3940SOL    HW123279   3.087   0.556  10.459 -3.1398  1.0684 -1.3266
 3940SOL    HW223280   3.212   0.625  10.506  1.0239  1.4608 -0.7078
 3941SOL     OW23281   1.847   2.663   5.916  0.1795 -0.2077  0.3191
 3941SOL    HW123282   1.811   2.607   5.984 -0.2483  1.0195  1.0975
 3941SOL    HW223283   1.783   2.732   5.899  0.1107 -0.0939  1.0538
 3942SOL     OW23284   4.093   0.232   3.021 -0.0662 -0.2853 -0.4360
 3942SOL    HW123285   4.178   0.188   3.010  2.6557  4.9970 -0.5509
 3942SOL    HW223286   4.067   0.187   3.101 -1.9601  0.3483 -0.7041
 3943SOL     OW23287   2.560   1.958  16.693  0.3195 -0.3265  0.1199
 3943SOL    HW123288   2.582   1.972  16.601  0.5158  0.2158  0.2472
 3943SOL    HW223289   2.600   2.042  16.717 -2.5963  0.7466  1.2532
 3944SOL     OW23290   3.972   3.098   9.652  0.6906 -0.2861 -0.0169
 3944SOL    HW123291   3.885   3.090   9.691  0.8111 -0.9108  0.1170
 3944SOL    HW223292   4.020   3.138   9.724 -1.1729  0.6666  0.6958
 3945SOL     OW23293   0.232   2.619   7.326 -0.3404 -0.1374  0.1147
 3945SOL    HW123294   0.216   2.526   7.343  0.1483 -0.0319  1.1531
 3945SOL    HW223295   0.157   2.627   7.266 -1.8868  0.7556  2.1693
 3946SOL     OW23296   3.003   0.021   2.534  0.0778  0.1958 -0.0472
 3946SOL    HW123297   2.948   4.718   2.460 -1.9150  1.3081  1.0258
 3946SOL    HW223298   2.990   0.116   2.532  1.0428  0.3450  0.9142
 3947SOL     OW23299   1.168   2.965   6.796  0.4972 -0.0556 -0.3338
 3947SOL    HW123300   1.225   2.973   6.873  1.4442 -2.3021 -0.8094
 3947SOL    HW223301   1.192   2.880   6.761 -1.6159  0.0767 -2.0326
 3948SOL     OW23302   4.085   1.351   2.455  0.1624  0.2271  0.5391
 3948SOL    HW123303   4.174   1.340   2.488  0.2234 -1.8374 -0.2899
 3948SOL    HW223304   4.067   1.436   2.494  0.6573  0.6050 -0.0676
 3949SOL     OW23305   2.349   3.033   1.066  0.1352  0.0993  0.1920
 3949SOL    HW123306   2.440   3.003   1.066  0.0657 -0.1088  0.1021
 3949SOL    HW223307   2.348   3.125   1.037 -0.7241 -0.0145 -0.1210
 3950SOL     OW23308   2.281   3.497   7.865  0.6941  0.2710  0.1674
 3950SOL    HW123309   2.263   3.590   7.858 -1.1716 -0.1230 -0.2456
 3950SOL    HW223310   2.202   3.459   7.902 -0.7921  2.0211 -1.2491
 3951SOL     OW23311   3.621   0.762   7.383 -0.0341  0.1221  0.5001
 3951SOL    HW123312   3.640   0.804   7.467 -1.7843  1.2763  0.3115
 3951SOL    HW223313   3.579   0.681   7.413 -0.9235  0.6205  0.5898
 3952SOL     OW23314   4.302   2.414   7.437  0.0690 -0.0381 -0.3773
 3952SOL    HW123315   4.302   2.339   7.378  0.5704 -1.5031  1.4435
 3952SOL    HW223316   4.297   2.376   7.525 -0.5841  1.0182  0.0429
 3953SOL     OW23317   2.644   3.962   6.505  0.5388  0.1383 -0.9685
 3953SOL    HW123318   2.593   3.938   6.427 -2.6955 -0.5154  1.3275
 3953SOL    HW223319   2.643   3.874   6.542  0.4716 -0.4233 -2.2977
 3954SOL     OW23320   2.120   0.319   5.902 -0.1649  0.0206 -0.6835
 3954SOL    HW123321   2.036   0.293   5.864 -0.2065  1.3397 -1.4829
 3954SOL    HW223322   2.155   0.365   5.826 -0.2612 -0.4722 -1.0285
 3955SOL     OW23323   0.943   0.421   2.448 -0.4435 -0.2883 -0.0020
 3955SOL    HW123324   0.888   0.400   2.523 -3.4904  1.3198 -1.7560
 3955SOL    HW223325   0.888   0.492   2.414 -0.3753 -0.1035  0.2831
 3956SOL     OW23326   2.839   3.505  16.098  0.3400 -0.2411 -0.1405
 3956SOL    HW123327   2.807   3.420  16.066 -1.9468  0.1451  1.0666
 3956SOL    HW223328   2.795   3.563  16.037  0.3819  0.2995  0.3395
 3957SOL     OW23329   3.557   3.365   3.677 -0.3828  0.0275  0.2913
 3957SOL    HW123330   3.505   3.310   3.735 -2.4722  2.2098  0.4860
 3957SOL    HW223331   3.502   3.372   3.599 -1.6370  2.0297  1.3515
 3958SOL     OW23332   0.947   1.381   8.372  0.0782 -0.0548  0.6969
 3958SOL    HW123333   0.943   1.476   8.361 -1.0729  0.1525  2.8762
 3958SOL    HW223334   1.023   1.369   8.428  0.0801  2.0408  1.1246
 3959SOL     OW23335   1.792   3.265   3.661  0.0293 -0.2207 -0.2091
 3959SOL    HW123336   1.762   3.312   3.583 -0.1721 -0.7860 -0.4701
 3959SOL    HW223337   1.846   3.199   3.617  2.5320  1.7827 -0.1104
 3960SOL     OW23338   3.622   3.973   5.095  0.3517 -0.0525  0.4400
 3960SOL    HW123339   3.640   4.066   5.113  3.4147 -0.8507  1.5116
 3960SOL    HW223340   3.528   3.975   5.115 -0.0115 -0.5561 -1.2340
 3961SOL     OW23341   3.076   0.791   1.785  0.1049  0.1687  0.0129
 3961SOL    HW123342   3.032   0.773   1.868 -0.9362 -0.6549 -0.7113
 3961SOL    HW223343   3.030   0.868   1.752 -1.5156 -0.9668 -0.3859
 3962SOL     OW23344   3.720   0.296   4.303  0.1440 -0.4872 -0.0876
 3962SOL    HW123345   3.747   0.301   4.211  0.1847  0.2300 -0.0379
 3962SOL    HW223346   3.771   0.225   4.343  0.1557 -1.5975 -2.0625
 3963SOL     OW23347   0.512   0.967  16.444  0.4315  0.7988  0.6734
 3963SOL    HW123348   0.472   1.043  16.485  0.0178  0.5104  0.8145
 3963SOL    HW223349   0.434   0.938  16.396  0.6348  0.4559  0.5478
 3964SOL     OW23350   2.470   4.194   6.613 -0.1296  0.0995  0.0499
 3964SOL    HW123351   2.472   4.184   6.708 -2.8245  0.9229  0.1894
 3964SOL    HW223352   2.509   4.114   6.578  0.8365 -0.3379  2.0840
 3965SOL     OW23353   4.076   4.362   3.565  0.4732  0.4477  0.4495
 3965SOL    HW123354   4.107   4.422   3.634  2.0664  0.9765 -0.7326
 3965SOL    HW223355   3.986   4.342   3.591  0.3902  0.0882 -0.1307
 3966SOL     OW23356   4.510   1.571   2.971 -0.4510 -0.3648 -0.5134
 3966SOL    HW123357   4.460   1.583   2.890  1.5435  1.3771 -1.4857
 3966SOL    HW223358   4.554   1.491   2.942 -2.0852 -1.9242  1.3212
 3967SOL     OW23359   0.729   0.456   5.918 -0.0928  0.4722  0.1302
 3967SOL    HW123360   0.774   0.410   5.989 -2.2982 -4.0789 -1.3847
 3967SOL    HW223361   0.792   0.527   5.908 -1.9213  2.2022  0.7448
 3968SOL     OW23362   3.982   3.333   2.367  0.0579  0.2921 -0.2530
 3968SOL    HW123363   3.928   3.411   2.353 -0.4178  0.3450  1.8667
 3968SOL    HW223364   3.933   3.263   2.324 -0.2378 -0.6933  1.6954
 3969SOL     OW23365   4.553   1.322   3.112 -0.2193  0.2086 -0.1185
 3969SOL    HW123366   4.600   1.257   3.165  0.1094  1.2688  0.8809
 3969SOL    HW223367   4.496   1.370   3.172  0.2500  0.9700 -0.2822
 3970SOL     OW23368   0.383   4.015   1.206  0.5130 -0.0236  0.1679
 3970SOL    HW123369   0.361   3.946   1.143  1.0344 -2.3689  2.5566
 3970SOL    HW223370   0.462   4.044   1.160 -0.4286  1.3056 -0.5887
 3971SOL     OW23371   3.965   0.769   3.304  0.2478  0.3748  0.3837
 3971SOL    HW123372   3.971   0.675   3.291 -0.3049  0.1099  2.0199
 3971SOL    HW223373   3.925   0.793   3.220  1.0503 -0.4427 -0.2350
 3972SOL     OW23374   0.753   3.353   1.820  0.0019 -0.0824  0.0719
 3972SOL    HW123375   0.702   3.378   1.743  2.1938  1.5215 -0.8518
 3972SOL    HW223376   0.782   3.263   1.805  1.5948  0.9614 -2.9897
 3973SOL     OW23377   3.130   0.313   7.082 -0.0912  0.3282 -0.8779
 3973SOL    HW123378   3.143   0.404   7.057 -0.3981 -0.1299 -2.6857
 3973SOL    HW223379   3.221   0.282   7.082  0.1897  1.1482 -0.3822
 3974SOL     OW23380   3.845   0.375   5.826 -0.3459 -0.6139 -0.0282
 3974SOL    HW123381   3.760   0.384   5.870 -1.1590 -1.1416 -1.4535
 3974SOL    HW223382   3.901   0.341   5.895 -1.2896  0.5940  1.3112
 3975SOL     OW23383   4.587   1.799  10.007 -0.1187  0.5389 -0.0250
 3975SOL    HW123384   4.659   1.745  10.042  0.0900  1.0812  0.3735
 3975SOL    HW223385   4.553   1.828  10.091 -0.8824  1.4918 -0.6665
 3976SOL     OW23386   4.547   0.635   0.594 -0.0838  0.1056 -0.5459
 3976SOL    HW123387   4.455   0.630   0.620  0.3335 -2.3569  0.4285
 3976SOL    HW223388   4.559   0.550   0.551 -0.7026  0.0889 -0.6872
 3977SOL     OW23389   2.378   3.192  10.827 -0.0762  0.0998 -0.1114
 3977SOL    HW123390   2.367   3.244  10.906 -3.6687  1.6578 -1.6031
 3977SOL    HW223391   2.470   3.214  10.812 -0.9592  4.6276  0.9801
 3978SOL     OW23392   1.020   2.822   8.983 -0.0868  0.0826  0.4915
 3978SOL    HW123393   1.014   2.738   9.029  0.4793  0.1043  0.6021
 3978SOL    HW223394   1.092   2.869   9.024 -1.4134  0.1595  2.7490
 3979SOL     OW23395   3.838   3.467   3.641  0.1331  0.4743 -0.5635
 3979SOL    HW123396   3.744   3.450   3.646  0.5593 -1.6893  0.1392
 3979SOL    HW223397   3.885   3.385   3.659 -1.7944 -0.4438  0.2836
 3980SOL     OW23398   0.208   1.145   0.894  0.2161  0.7226  0.2154
 3980SOL    HW123399   0.143   1.161   0.826  0.1291 -1.1085 -0.1273
 3980SOL    HW223400   0.255   1.065   0.868 -1.2727 -0.6445  1.6966
 3981SOL     OW23401   2.190   0.058  14.566  0.2523 -0.4758 -0.4367
 3981SOL    HW123402   2.120   0.033  14.626 -0.8216  1.5335 -0.8607
 3981SOL    HW223403   2.155   0.015  14.488 -2.4537 -1.6892  1.4409
 3982SOL     OW23404   4.209   3.591   3.370  0.8389  0.2874 -0.2459
 3982SOL    HW123405   4.159   3.553   3.299  1.2272  0.7106 -0.7494
 3982SOL    HW223406   4.142   3.631   3.425  1.6909  0.7001  0.4957
 3983SOL     OW23407   3.590   2.790   8.294  0.1019 -0.2946  0.2147
 3983SOL    HW123408   3.595   2.863   8.231 -1.0006 -1.9603 -1.8116
 3983SOL    HW223409   3.608   2.713   8.241 -3.3255  0.1345 -1.6053
 3984SOL     OW23410   4.116   3.923   2.795 -0.1855  0.1365 -0.2813
 3984SOL    HW123411   4.120   3.958   2.706  0.3998 -1.7202 -0.9836
 3984SOL    HW223412   4.043   3.865   2.774  0.5228 -0.7132 -0.3988
 3985SOL     OW23413   4.270   2.895   7.422 -0.0477 -0.2158 -0.1442
 3985SOL    HW123414   4.365   2.906   7.418 -0.4328  3.0201 -0.4347
 3985SOL    HW223415   4.266   2.801   7.407 -3.3711 -0.2630  1.0477
 3986SOL     OW23416   4.192   4.315   6.528 -0.2042  0.0273  0.2671
 3986SOL    HW123417   4.244   4.266   6.591 -0.3498 -1.0386 -0.4399
 3986SOL    HW223418   4.233   4.300   6.443 -1.1426  1.0648 -0.3574
 3987SOL     OW23419   2.644   0.215   4.068  0.2994  0.0825 -0.3949
 3987SOL    HW123420   2.707   0.223   4.139 -1.1722  0.0379  0.9154
 3987SOL    HW223421   2.685   0.264   3.997  1.0277  1.1298  0.7624
 3988SOL     OW23422   4.595   2.575   5.009 -0.0251  0.4807  0.1253
 3988SOL    HW123423   4.660   2.508   4.989 -1.8534 -1.1720 -0.1707
 3988SOL    HW223424   4.646   2.650   4.979  0.9521  0.6038  2.0547
 3989SOL     OW23425   1.349   2.035  14.004  0.2727  0.3959  0.2810
 3989SOL    HW123426   1.329   2.111  14.058  0.7086  2.3019 -2.2429
 3989SOL    HW223427   1.293   2.060  13.930  3.5317 -2.8811 -3.2820
 3990SOL     OW23428   1.483   4.389   7.410 -0.0213 -0.0631 -0.9230
 3990SOL    HW123429   1.406   4.410   7.463  1.4524 -0.1458  1.2561
 3990SOL    HW223430   1.501   4.480   7.388 -0.2112  0.7094  2.0106
 3991SOL     OW23431   0.811   3.524   8.939 -0.3339  0.2052  0.3080
 3991SOL    HW123432   0.893   3.570   8.954 -0.0389  0.2714 -1.5764
 3991SOL    HW223433   0.796   3.480   9.023 -0.1020 -2.2632 -0.9209
 3992SOL     OW23434   1.180   3.133  16.830 -0.0037  0.0604 -0.5028
 3992SOL    HW123435   1.162   3.215  16.785  2.2333  0.4018 -0.7533
 3992SOL    HW223436   1.273   3.125  16.811  0.3738 -1.0249  1.7527
 3993SOL     OW23437   0.201   3.383   4.679  0.1895 -0.4005 -0.0411
 3993SOL    HW123438   0.210   3.292   4.708 -0.3037 -0.6077 -0.5551
 3993SOL    HW223439   0.289   3.403   4.647  0.1834  0.2893  0.3778
 3994SOL     OW23440   2.583   1.243   5.517 -0.1593 -0.2645 -0.2135
 3994SOL    HW123441   2.609   1.245   5.425  0.3479  2.6168 -0.0021
 3994SOL    HW223442   2.524   1.169   5.532 -0.6813  0.0064 -0.9235
 3995SOL     OW23443   2.874   4.151   1.296  0.3903 -0.2022 -0.2684
 3995SOL    HW123444   2.825   4.104   1.364 -1.4726  0.1363 -1.3964
 3995SOL    HW223445   2.926   4.083   1.252 -0.2859 -1.2845  0.5809
 3996SOL     OW23446   2.025   3.605   8.007  0.1641 -0.2263 -0.0836
 3996SOL    HW123447   2.086   3.627   8.076  0.1106 -0.7454  0.1260
 3996SOL    HW223448   2.046   3.677   7.946 -1.2299 -1.3186 -1.8664
 3997SOL     OW23449   2.824   0.330  11.166 -0.5120 -0.3994 -0.7196
 3997SOL    HW123450   2.740   0.347  11.210 -1.0277 -2.1173 -1.0286
 3997SOL    HW223451   2.827   0.234  11.171 -1.3722 -0.2800  2.0706
 3998SOL     OW23452   3.122   1.744   7.069  0.2598  0.0951 -0.2183
 3998SOL    HW123453   3.208   1.733   7.028  0.2754  2.0697 -0.7378
 3998SOL    HW223454   3.069   1.680   7.023  0.3878 -0.2465  0.1095
 3999SOL     OW23455   3.300   2.846   9.918  0.1379  0.2338 -0.0636
 3999SOL    HW123456   3.261   2.856   9.832 -0.3766 -0.0469  0.1364
 3999SOL    HW223457   3.388   2.852   9.881 -0.4067 -1.0008 -1.5373
 4000SOL     OW23458   0.541   1.999   2.882  0.1558 -0.4656 -0.0737
 4000SOL    HW123459   0.490   1.936   2.832 -0.5605  0.3619 -0.3857
 4000SOL    HW223460   0.474   2.065   2.905 -0.0382 -0.6643 -0.0683
 4001SOL     OW23461   3.601   0.510  11.111 -0.0942  0.7372  0.3199
 4001SOL    HW123462   3.517   0.557  11.122 -0.4467  0.0125  0.7021
 4001SOL    HW223463   3.564   0.426  11.084  0.7643  0.9138 -1.3517
 4002SOL     OW23464   3.293   1.938   3.381  0.0433 -0.6115  0.1398
 4002SOL    HW123465   3.265   1.923   3.291  2.1014  2.5208 -1.0263
 4002SOL    HW223466   3.289   1.850   3.420 -1.9463 -0.3308  0.5549
 4003SOL     OW23467   1.337   4.329   7.773  0.5311 -0.0173  0.3986
 4003SOL    HW123468   1.417   4.337   7.824  2.5241 -3.3533 -2.2895
 4003SOL    HW223469   1.335   4.415   7.730 -0.0928  0.0089  0.4689
 4004SOL     OW23470   1.709   2.177   3.319  0.0665  0.1558 -0.1159
 4004SOL    HW123471   1.759   2.124   3.258  0.7209  0.9469 -0.2693
 4004SOL    HW223472   1.769   2.252   3.319  0.4009 -0.1103  0.3500
 4005SOL     OW23473   2.278   4.250   0.627 -0.4209 -0.1141 -0.2944
 4005SOL    HW123474   2.209   4.230   0.564  0.7031 -0.5930 -1.4036
 4005SOL    HW223475   2.329   4.171   0.642  2.0241  0.9240 -2.8494
 4006SOL     OW23476   1.564   1.042   2.729 -0.4054 -0.0142 -0.0221
 4006SOL    HW123477   1.593   0.965   2.679  0.2815  0.1086  0.1805
 4006SOL    HW223478   1.574   1.002   2.815  2.2768 -0.6700 -0.6207
 4007SOL     OW23479   4.114   2.837   4.696  0.1959 -0.1209 -0.0834
 4007SOL    HW123480   4.048   2.786   4.743 -1.6203  1.1972 -1.2190
 4007SOL    HW223481   4.197   2.789   4.701  0.7530  0.9237  0.5944
 4008SOL     OW23482   0.046   4.676  14.182 -0.1187 -0.2596  0.4767
 4008SOL    HW123483   4.696   0.012  14.204  1.2080  2.0929 -1.3903
 4008SOL    HW223484   0.110   0.021  14.160 -1.3561  0.1907 -1.7522
 4009SOL     OW23485   4.438   2.850   6.741  0.7786 -0.1112  1.0503
 4009SOL    HW123486   4.479   2.867   6.657 -0.1134 -0.4802  0.5439
 4009SOL    HW223487   4.487   2.916   6.791  0.5940  0.4554  0.4747
 4010SOL     OW23488   1.506   0.562   3.283  0.1336 -0.3407 -0.2368
 4010SOL    HW123489   1.451   0.637   3.302  2.1160  0.6088  1.7602
 4010SOL    HW223490   1.455   0.519   3.214  1.7835  0.6802 -2.1076
 4011SOL     OW23491   3.477   2.379   3.994  0.2081  0.0103  0.1819
 4011SOL    HW123492   3.434   2.444   4.050 -0.1992 -0.5607  0.5383
 4011SOL    HW223493   3.425   2.390   3.915  1.2793 -0.0266 -0.5192
 4012SOL     OW23494   4.346   3.629  16.835  0.0788  0.0650 -0.5014
 4012SOL    HW123495   4.329   3.719  16.862 -0.0773  0.1116 -0.7569
 4012SOL    HW223496   4.397   3.600  16.910 -2.4251 -0.3721  1.0305
 4013SOL     OW23497   4.714   4.570   0.624 -0.0643 -0.6957 -0.3746
 4013SOL    HW123498   4.707   4.661   0.595  0.9658 -0.3591  0.4168
 4013SOL    HW223499   0.081   4.555   0.592  0.0751 -1.0822  0.2108
 4014SOL     OW23500   4.338   2.301   0.784  0.2625 -0.0695  0.4043
 4014SOL    HW123501   4.369   2.341   0.865  3.4593  1.1877 -1.4033
 4014SOL    HW223502   4.407   2.327   0.722  0.8719 -1.7664  0.3831
 4015SOL     OW23503   4.209   2.549   4.202  0.1180 -0.2377  0.2419
 4015SOL    HW123504   4.249   2.595   4.276  2.9991 -2.8112  0.2540
 4015SOL    HW223505   4.202   2.463   4.242 -0.4602  0.5137  1.7733
 4016SOL     OW23506   2.936   2.978   5.002  0.0430 -0.1843  0.4680
 4016SOL    HW123507   3.027   3.004   5.008  0.4581 -1.0952 -1.9985
 4016SOL    HW223508   2.923   2.955   5.094 -2.4065  0.7618  0.3831
 4017SOL     OW23509   3.465   2.601   1.521  0.1004 -0.2286 -0.2535
 4017SOL    HW123510   3.462   2.527   1.460  2.2424  1.0080 -1.8287
 4017SOL    HW223511   3.502   2.673   1.471 -1.2319  0.5680 -0.1151
 4018SOL     OW23512   0.887   0.715  10.214 -0.0924 -0.3189 -0.1258
 4018SOL    HW123513   0.942   0.641  10.240  0.0595 -0.9994 -2.4284
 4018SOL    HW223514   0.955   0.778  10.192  0.2242 -0.5116  0.2857
 4019SOL     OW23515   1.233   3.189  15.955 -0.1308  1.0336  0.6405
 4019SOL    HW123516   1.293   3.245  15.905 -1.3900  1.6792 -0.1328
 4019SOL    HW223517   1.155   3.243  15.967 -1.6662 -1.0211 -0.0853
 4020SOL     OW23518   3.717   4.660   6.035  0.1233 -0.4440 -0.6969
 4020SOL    HW123519   3.661   4.666   5.958 -1.7338  1.4754  0.8209
 4020SOL    HW223520   3.786   4.600   6.006  0.7976  0.0342 -0.0950
 4021SOL     OW23521   4.607   2.612   8.811  0.4711  0.1143 -0.1735
 4021SOL    HW123522   4.585   2.678   8.877  0.7109 -0.9090  0.9392
 4021SOL    HW223523   4.697   2.639   8.795  0.7774 -0.0174  1.2836
 4022SOL     OW23524   1.544   0.061   7.669 -0.1789  0.0038  0.1103
 4022SOL    HW123525   1.631   0.045   7.632 -0.9521 -1.2053 -1.1852
 4022SOL    HW223526   1.530   0.151   7.640  0.8668  0.5530  1.3084
 4023SOL     OW23527   1.973   0.418  16.954  0.1251 -0.5953  0.0858
 4023SOL    HW123528   1.968   0.514  16.955 -1.2329 -0.6790  1.1648
 4023SOL    HW223529   1.985   0.392  17.045  1.7495  3.2577  0.9907
 4024SOL     OW23530   1.357   4.471   8.334  0.2980 -0.0481 -0.4146
 4024SOL    HW123531   1.272   4.512   8.351  1.2042  0.8140  1.9311
 4024SOL    HW223532   1.416   4.538   8.367  0.4952  0.8147 -2.5152
 4025SOL     OW23533   4.301   3.456   2.943 -0.3078  0.5745  0.0107
 4025SOL    HW123534   4.370   3.506   2.900 -1.2447  1.6885 -0.2034
 4025SOL    HW223535   4.238   3.526   2.961 -0.4016  0.2330  1.0021
 4026SOL     OW23536   4.420   3.183   4.079 -0.2637  0.0488  0.4409
 4026SOL    HW123537   4.341   3.146   4.119 -0.3024 -2.6853 -2.1460
 4026SOL    HW223538   4.463   3.110   4.035  0.7355  1.0870 -0.3106
 4027SOL     OW23539   2.829   0.729   1.378 -0.0111  0.4979 -0.4130
 4027SOL    HW123540   2.779   0.811   1.376  1.5770  1.5134  1.6352
 4027SOL    HW223541   2.914   0.756   1.344 -0.0394  1.0138 -0.0767
 4028SOL     OW23542   1.085   2.013  13.507 -0.2642 -0.4268 -0.0776
 4028SOL    HW123543   1.137   2.051  13.577  2.2576 -0.0879 -2.1461
 4028SOL    HW223544   1.105   1.922  13.531 -2.4180 -1.1518 -1.0119
 4029SOL     OW23545   1.257   3.722   0.329  0.0259  0.7361 -0.0664
 4029SOL    HW123546   1.203   3.760   0.399 -1.3697  0.1266 -0.8142
 4029SOL    HW223547   1.223   3.780   0.260 -1.8492  0.6990  0.8062
 4030SOL     OW23548   0.058   2.981   2.206  0.1169 -0.0265 -0.4902
 4030SOL    HW123549   0.130   2.985   2.143  0.1914 -0.8554 -0.4616
 4030SOL    HW223550   0.062   2.886   2.220  1.7181  0.3973  1.9697
 4031SOL     OW23551   3.175   0.176   6.417  0.3985  0.1099  0.2834
 4031SOL    HW123552   3.137   0.089   6.413  0.3081  0.1118  1.1473
 4031SOL    HW223553   3.191   0.210   6.329  0.0066  0.6225  0.4108
 4032SOL     OW23554   3.709   3.280  14.131 -0.6646  0.2848  0.4242
 4032SOL    HW123555   3.673   3.263  14.044  2.8360  0.4543 -1.0572
 4032SOL    HW223556   3.710   3.375  14.136 -1.0943  0.3340 -0.5173
 4033SOL     OW23557   3.835   4.538  16.590  0.5017 -0.1940  0.4042
 4033SOL    HW123558   3.802   4.595  16.659  1.6346  1.8937 -0.7896
 4033SOL    HW223559   3.896   4.597  16.546  0.2308 -2.9010 -3.6389
 4034SOL     OW23560   0.684   1.249   5.513 -0.2850 -0.5093 -0.5690
 4034SOL    HW123561   0.600   1.218   5.547  0.6043 -3.3451 -0.9514
 4034SOL    HW223562   0.690   1.337   5.550  1.4416 -0.5837 -0.6700
 4035SOL     OW23563   2.947   4.342   9.106  0.0611 -0.5378 -0.3596
 4035SOL    HW123564   3.018   4.307   9.160  0.9434  2.2613  0.2908
 4035SOL    HW223565   2.938   4.436   9.122 -0.4335 -0.9422  1.7462
 4036SOL     OW23566   3.461   1.410   3.426  0.1686 -0.1392  0.2321
 4036SOL    HW123567   3.472   1.381   3.517 -3.4892 -1.3927  0.2743
 4036SOL    HW223568   3.416   1.493   3.442  1.9893  0.7632  0.6346
 4037SOL     OW23569   3.015   1.419   3.477  0.3130 -0.2613 -0.0971
 4037SOL    HW123570   3.080   1.403   3.409  1.0821  0.4526  0.4546
 4037SOL    HW223571   3.050   1.366   3.549 -0.0639  0.2388  0.4530
 4038SOL     OW23572   0.560   3.164   4.868  0.0806 -0.3471  0.2528
 4038SOL    HW123573   0.472   3.132   4.882 -0.3670  2.1256  3.1271
 4038SOL    HW223574   0.541   3.258   4.859 -1.7242 -0.7986 -0.6726
 4039SOL     OW23575   0.587   1.087  10.178  0.0746  0.0283  0.2517
 4039SOL    HW123576   0.646   1.063  10.249 -0.3687  0.9093  0.9225
 4039SOL    HW223577   0.501   1.079  10.219 -1.5326 -0.1782 -3.1874
 4040SOL     OW23578   1.269   1.812   8.757  0.4287  0.4164 -0.1249
 4040SOL    HW123579   1.261   1.873   8.683  1.9614 -0.9002 -1.3522
 4040SOL    HW223580   1.318   1.864   8.820  1.5616 -1.9819  0.9504
 4041SOL     OW23581   3.200   4.674  10.313  0.1569  0.0961  0.4361
 4041SOL    HW123582   3.250   4.593  10.318  0.7910  0.3602 -1.5551
 4041SOL    HW223583   3.229   4.709  10.229  0.8732  4.1795  2.3332
 4042SOL     OW23584   1.312   0.508   5.633  0.0117  0.1347 -0.4872
 4042SOL    HW123585   1.399   0.508   5.673  0.1646 -3.3416 -0.7904
 4042SOL    HW223586   1.319   0.592   5.588 -0.3298  0.7853  0.6787
 4043SOL     OW23587   3.116   4.306  14.041  0.1958 -0.0885  0.0599
 4043SOL    HW123588   3.107   4.215  14.011 -2.4708  0.9476 -2.2128
 4043SOL    HW223589   3.080   4.347  13.963 -0.5163 -1.3753 -0.3006
 4044SOL     OW23590   2.925   3.042   9.359  0.4040  0.3150  0.5134
 4044SOL    HW123591   2.996   3.055   9.296  2.8244 -1.5565  2.8473
 4044SOL    HW223592   2.983   3.062   9.432 -0.2064  0.9677  0.8204
 4045SOL     OW23593   0.856   2.696   5.935 -0.6231  0.3398  0.4601
 4045SOL    HW123594   0.878   2.658   6.020  3.6359 -1.7511 -1.5727
 4045SOL    HW223595   0.892   2.634   5.872  0.7833  2.5603 -0.8932
 4046SOL     OW23596   2.262   3.638  13.652  0.1187 -0.3165  0.0857
 4046SOL    HW123597   2.181   3.676  13.686 -0.4162  0.1791 -1.7104
 4046SOL    HW223598   2.325   3.650  13.722  0.5801 -3.9084  0.3183
 4047SOL     OW23599   4.301   2.487   1.790 -0.2922 -0.2873  1.1770
 4047SOL    HW123600   4.279   2.473   1.698  0.5522 -0.2028  0.9608
 4047SOL    HW223601   4.300   2.583   1.796  0.7726 -0.2161  0.3438
 4048SOL     OW23602   1.577   2.937  17.260 -0.2066  0.5280  0.0704
 4048SOL    HW123603   1.628   2.882  17.201 -0.4853 -0.8827  1.1606
 4048SOL    HW223604   1.517   2.980  17.199 -0.4090 -2.4856 -1.8400
 4049SOL     OW23605   2.876   1.512  16.182 -0.4576  0.3427 -0.2285
 4049SOL    HW123606   2.868   1.607  16.177  2.9852  0.7305  1.3843
 4049SOL    HW223607   2.966   1.487  16.161 -0.2353  1.4035 -0.5335
 4050SOL     OW23608   0.467   1.054  17.604 -0.4210  0.2617 -0.2529
 4050SOL    HW123609   0.415   1.033  17.526  0.8171 -0.1028 -0.9811
 4050SOL    HW223610   0.507   1.141  17.592  0.2222 -0.1599 -1.1613
 4051SOL     OW23611   0.211   0.464   8.516  0.0296  0.1916  0.3936
 4051SOL    HW123612   0.208   0.443   8.609  0.7595  1.3676  0.6794
 4051SOL    HW223613   0.228   0.558   8.523  0.4208  0.1505  0.0206
 4052SOL     OW23614   3.419   3.655   6.411  0.0955  0.3387  0.2505
 4052SOL    HW123615   3.432   3.571   6.366  1.3721  1.9862 -2.4763
 4052SOL    HW223616   3.326   3.677   6.405  0.5613  1.5391 -2.4881
 4053SOL     OW23617   1.919   3.207  15.630  0.0276  0.3701  0.1576
 4053SOL    HW123618   1.993   3.147  15.642 -0.0549  0.6213  1.8539
 4053SOL    HW223619   1.972   3.274  15.587 -0.4973 -1.4256 -3.2982
 4054SOL     OW23620   0.948   0.807   4.720  0.4422 -0.5540 -0.1439
 4054SOL    HW123621   0.953   0.861   4.642 -0.0357  0.9148  0.8457
 4054SOL    HW223622   0.859   0.772   4.712  0.0441  1.1951 -3.2549
 4055SOL     OW23623   4.068   1.508   3.153 -0.5854  0.2504 -0.1251
 4055SOL    HW123624   4.049   1.566   3.079  0.8001  0.7880 -0.0633
 4055SOL    HW223625   4.024   1.558   3.222 -3.0624  2.0465 -3.0106
 4056SOL     OW23626   0.485   3.193   8.326 -0.1076  0.4269 -0.3689
 4056SOL    HW123627   0.554   3.254   8.302  0.1054  0.8000  1.2372
 4056SOL    HW223628   0.408   3.229   8.282 -0.0779 -1.3032 -1.8645
 4057SOL     OW23629   0.453   3.743   6.881  0.3039  0.1882 -0.3400
 4057SOL    HW123630   0.395   3.676   6.846 -0.7288  1.0331 -0.2432
 4057SOL    HW223631   0.467   3.708   6.970  1.8156 -0.2335 -0.7288
 4058SOL     OW23632   2.181   3.826  17.259 -0.2615 -0.3795  0.1096
 4058SOL    HW123633   2.202   3.791  17.173  1.3134  0.5711  0.1061
 4058SOL    HW223634   2.236   3.775  17.318  1.1685  0.1418 -0.7644
 4059SOL     OW23635   2.825   2.141   9.411  0.0036  0.3165  0.2213
 4059SOL    HW123636   2.773   2.085   9.353 -0.0216 -1.5961  2.0786
 4059SOL    HW223637   2.896   2.082   9.437 -1.3299 -0.9146  1.0589
 4060SOL     OW23638   2.338   3.275   7.448 -0.3438  0.0763 -0.1843
 4060SOL    HW123639   2.403   3.341   7.425 -0.7436  1.0366  1.4737
 4060SOL    HW223640   2.388   3.193   7.448 -0.3567  0.0689 -0.5071
 4061SOL     OW23641   0.870   2.553  17.280  0.4224 -0.0325 -0.7535
 4061SOL    HW123642   0.850   2.462  17.304 -0.6562  0.3824 -0.1281
 4061SOL    HW223643   0.788   2.597  17.302  0.3006  0.5391 -2.3263
 4062SOL     OW23644   1.740   1.024   1.943  0.3711  0.4043  0.5462
 4062SOL    HW123645   1.776   0.975   2.017 -0.1086  2.1315  1.9116
 4062SOL    HW223646   1.718   1.100   1.997 -0.5985  0.8576 -0.4754
 4063SOL     OW23647   1.652   3.470   6.791 -0.2205  0.0069 -0.3505
 4063SOL    HW123648   1.678   3.503   6.705  1.4889 -0.3323  0.0257
 4063SOL    HW223649   1.601   3.395   6.761 -0.4032 -0.1257  0.3061
 4064SOL     OW23650   2.524   2.689   5.619 -0.3999  0.5707 -0.0331
 4064SOL    HW123651   2.588   2.649   5.677 -0.9261 -1.0215 -0.5710
 4064SOL    HW223652   2.445   2.657   5.661  0.5778  1.1577  2.2391
 4065SOL     OW23653   1.145   2.406   4.950 -0.3441  0.2092  0.6096
 4065SOL    HW123654   1.128   2.320   4.912 -0.4487  1.3016 -1.8187
 4065SOL    HW223655   1.054   2.434   4.951 -0.0504  1.2282 -0.9678
 4066SOL     OW23656   2.834   3.558  12.632  0.4923 -0.2608 -0.0241
 4066SOL    HW123657   2.927   3.539  12.642  0.5755 -0.0403 -0.3967
 4066SOL    HW223658   2.806   3.491  12.568 -2.5577  0.2798  0.7165
 4067SOL     OW23659   3.917   0.426   8.465 -0.2862  0.4058 -0.2678
 4067SOL    HW123660   3.999   0.396   8.426  0.5761  1.2124  0.9400
 4067SOL    HW223661   3.924   0.514   8.428 -3.0363  0.0382 -1.6773
 4068SOL     OW23662   2.669   2.889   7.357 -0.4948  0.1608 -0.1276
 4068SOL    HW123663   2.732   2.818   7.368  0.3377  0.1507 -4.6642
 4068SOL    HW223664   2.728   2.963   7.344 -0.3849 -0.0964 -1.1183
 4069SOL     OW23665   1.042   2.096   4.273  0.4380  0.1276  0.2712
 4069SOL    HW123666   1.074   2.010   4.301 -0.3625  0.9857  3.8749
 4069SOL    HW223667   0.948   2.091   4.294  0.0979  0.8657 -1.1075
 4070SOL     OW23668   3.738   4.468   4.210 -0.4490  0.8295 -0.0471
 4070SOL    HW123669   3.811   4.517   4.247  2.3894 -2.4491 -1.2359
 4070SOL    HW223670   3.783   4.431   4.133  3.1382  1.5806  1.6927
 4071SOL     OW23671   1.469   0.090   7.355  0.0171  0.3867  0.5054
 4071SOL    HW123672   1.519   0.021   7.313  0.3407  1.1890 -0.4068
 4071SOL    HW223673   1.519   0.170   7.341  3.7304 -1.4232  3.4097
 4072SOL     OW23674   1.154   2.124   4.867  0.6515  0.3473  0.6676
 4072SOL    HW123675   1.248   2.126   4.850  0.6176 -2.5342  0.2256
 4072SOL    HW223676   1.142   2.055   4.802  1.7420  2.3349 -1.6611
 4073SOL     OW23677   4.358   3.504  16.282  0.0131  0.1823  0.4520
 4073SOL    HW123678   4.346   3.524  16.375 -2.9733  1.8730 -0.2956
 4073SOL    HW223679   4.293   3.562  16.241 -0.1427  0.9334  1.7637
 4074SOL     OW23680   0.929   0.435   1.159 -0.0790  0.4997 -0.8656
 4074SOL    HW123681   0.877   0.484   1.223 -0.7361  0.0462 -1.0522
 4074SOL    HW223682   0.998   0.500   1.148 -0.3639  0.9258 -0.0965
 4075SOL     OW23683   3.177   1.014   2.389  0.1625 -0.4876  0.0555
 4075SOL    HW123684   3.152   0.922   2.380 -0.6883 -0.1108 -1.4319
 4075SOL    HW223685   3.118   1.058   2.451 -0.0799 -2.1783  1.0054
 4076SOL     OW23686   1.173   2.424   6.552  0.1071 -0.0779  0.4766
 4076SOL    HW123687   1.169   2.499   6.494  1.2856  0.1579  0.6933
 4076SOL    HW223688   1.267   2.402   6.553  0.2107  0.3521  0.1118
 4077SOL     OW23689   4.136   2.403   1.997  0.4000  0.0680 -0.3440
 4077SOL    HW123690   4.073   2.352   1.945 -2.0700  1.0903  1.6797
 4077SOL    HW223691   4.197   2.427   1.927  0.6678 -0.8350 -0.4187
 4078SOL     OW23692   4.701   1.016   4.468 -0.3000  0.3140  0.3834
 4078SOL    HW123693   4.667   0.980   4.386 -0.3007  1.8400 -0.3001
 4078SOL    HW223694   0.024   0.938   4.499 -2.0365  0.0458  2.1753
 4079SOL     OW23695   0.033   1.730  10.217  0.1515 -0.4424 -0.5323
 4079SOL    HW123696   0.005   1.650  10.261 -0.3688 -0.5363 -1.0280
 4079SOL    HW223697   0.102   1.700  10.157 -0.2934 -0.9015 -0.8135
 4080SOL     OW23698   0.204   3.278   8.580 -0.3820 -0.0031  0.7556
 4080SOL    HW123699   0.163   3.352   8.625  1.5123  0.5216  1.5889
 4080SOL    HW223700   0.136   3.210   8.576  0.3126 -0.6176 -0.5952
 4081SOL     OW23701   0.538   1.641   0.435 -0.4256 -0.0274 -0.5819
 4081SOL    HW123702   0.506   1.723   0.473  1.8264  0.4630  0.2961
 4081SOL    HW223703   0.482   1.580   0.481 -0.0633 -0.8037 -1.1694
 4082SOL     OW23704   4.006   3.435   4.732 -0.3695  0.1023  0.0697
 4082SOL    HW123705   3.949   3.496   4.686  0.0029  0.1223 -0.3724
 4082SOL    HW223706   3.950   3.357   4.737 -1.5953  0.9432 -0.8253
 4083SOL     OW23707   0.644   0.200   0.550 -0.4950 -0.0288  0.1129
 4083SOL    HW123708   0.586   0.225   0.477  0.6748  0.4128 -0.6628
 4083SOL    HW223709   0.623   0.280   0.597 -0.2573  0.7862 -1.1631
 4084SOL     OW23710   0.926   0.413   9.422  0.1937 -0.5702  0.5773
 4084SOL    HW123711   0.845   0.460   9.443  0.9104  1.2722 -0.8418
 4084SOL    HW223712   0.888   0.339   9.374 -0.5152  0.5508 -0.6095
 4085SOL     OW23713   0.879   2.183   6.740  0.0446 -0.2668  0.1337
 4085SOL    HW123714   0.870   2.228   6.656 -0.9388  0.5860  0.6934
 4085SOL    HW223715   0.838   2.241   6.804  0.3201  0.7600 -0.6215
 4086SOL     OW23716   0.530   2.001   6.318  0.0106 -0.4431  0.9687
 4086SOL    HW123717   0.518   1.991   6.224  0.0368  1.6079  0.7522
 4086SOL    HW223718   0.592   2.073   6.311 -2.8455  1.9602  0.5223
 4087SOL     OW23719   3.707   4.431  16.341 -0.3825 -0.2479  0.0155
 4087SOL    HW123720   3.723   4.452  16.433  1.5999  1.9684 -0.8348
 4087SOL    HW223721   3.619   4.463  16.320 -1.3157 -1.8421  1.4409
 4088SOL     OW23722   1.342   0.037   4.717 -0.2762 -0.0404  0.5359
 4088SOL    HW123723   1.376   4.703   4.647 -1.3340  2.1509 -1.7769
 4088SOL    HW223724   1.428   0.072   4.741 -0.6779  0.4956  1.1914
 4089SOL     OW23725   2.842   1.987   5.409 -0.6475  0.5531 -0.3630
 4089SOL    HW123726   2.830   2.006   5.316  0.2523 -1.2151 -0.8244
 4089SOL    HW223727   2.907   1.917   5.412 -1.4620 -0.1862  0.0498
 4090SOL     OW23728   2.529   1.380   3.393 -0.1049  0.4442  0.3063
 4090SOL    HW123729   2.502   1.361   3.303 -0.2318 -0.0951  0.4573
 4090SOL    HW223730   2.602   1.325   3.421  2.2465  3.6701  0.5097
 4091SOL     OW23731   4.374   0.359   6.821 -0.1087 -0.2259 -0.4683
 4091SOL    HW123732   4.379   0.263   6.822  1.6597 -0.1315 -1.4087
 4091SOL    HW223733   4.437   0.364   6.893  0.3775 -1.5801 -0.8064
 4092SOL     OW23734   4.557   4.347   8.447 -0.1803 -0.1830  0.0801
 4092SOL    HW123735   4.567   4.273   8.387  1.9608 -0.1984  0.4686
 4092SOL    HW223736   4.471   4.327   8.486 -0.7288  0.4221 -0.8257
 4093SOL     OW23737   0.825   1.158   5.750  0.3126 -0.1246 -0.1969
 4093SOL    HW123738   0.838   1.206   5.832  0.4844 -0.9329  0.2480
 4093SOL    HW223739   0.778   1.225   5.699  0.7553  0.0775 -0.3351
 4094SOL     OW23740   2.291   3.797  15.242 -0.2292 -0.0964  0.4749
 4094SOL    HW123741   2.198   3.775  15.253 -0.2870 -0.2602 -0.3401
 4094SOL    HW223742   2.282   3.892  15.237  1.7232  0.1123  1.2636
 4095SOL     OW23743   2.736   3.678   3.883 -0.3807  0.0603  0.3994
 4095SOL    HW123744   2.797   3.611   3.913 -2.4776 -2.3212 -0.6569
 4095SOL    HW223745   2.717   3.645   3.795 -0.1208  1.7759 -0.2930
 4096SOL     OW23746   0.547   1.538   4.027 -0.1915  0.1558  0.3417
 4096SOL    HW123747   0.495   1.602   3.978  0.4714 -0.1848 -0.8099
 4096SOL    HW223748   0.600   1.606   4.068 -0.3118 -0.0978  0.9134
 4097SOL     OW23749   1.227   0.115   3.014 -0.0302 -0.1790 -0.4328
 4097SOL    HW123750   1.318   0.088   3.027  0.3512  1.1569 -0.3558
 4097SOL    HW223751   1.208   0.056   2.941 -0.9993 -1.9320  1.2368
 4098SOL     OW23752   4.337   3.676  11.706 -0.3218 -0.1431 -0.6276
 4098SOL    HW123753   4.262   3.644  11.755 -0.5526 -2.4591 -2.5283
 4098SOL    HW223754   4.315   3.769  11.696 -2.1441 -0.4465  0.6353
 4099SOL     OW23755   3.402   1.510   7.943  0.1031 -0.0637 -1.2221
 4099SOL    HW123756   3.343   1.536   8.014 -0.0855  0.4109 -1.5519
 4099SOL    HW223757   3.341   1.472   7.879 -1.0816 -1.8274  0.9140
 4100SOL     OW23758   1.210   0.756   6.302 -0.1465  0.4649 -0.1371
 4100SOL    HW123759   1.187   0.729   6.392 -0.5629 -0.3557 -0.4861
 4100SOL    HW223760   1.264   0.834   6.317  1.6925 -0.5448 -1.5238
 4101SOL     OW23761   2.130   0.797   5.335  0.3409  0.3333 -0.7598
 4101SOL    HW123762   2.071   0.729   5.368 -1.9559  1.2164 -3.1026
 4101SOL    HW223763   2.061   0.850   5.296 -0.8635 -1.0908 -0.5890
 4102SOL     OW23764   1.692   2.290   9.579 -0.1063 -0.1934  0.0572
 4102SOL    HW123765   1.742   2.372   9.576 -0.8250  0.2804  1.1947
 4102SOL    HW223766   1.696   2.263   9.670  1.2800 -0.1513  0.0070
 4103SOL     OW23767   3.629   4.136   8.488  0.3735  0.0178 -0.1682
 4103SOL    HW123768   3.581   4.218   8.478  0.7057  0.1801 -0.4121
 4103SOL    HW223769   3.631   4.132   8.584  0.0174  1.3946 -0.1105
 4104SOL     OW23770   1.460   0.313   2.555 -0.0628  0.5621 -0.1530
 4104SOL    HW123771   1.513   0.392   2.550 -1.0936  1.2053 -0.9819
 4104SOL    HW223772   1.389   0.333   2.616  2.7471  0.9601  2.9183
 4105SOL     OW23773   4.583   2.457   3.041 -0.6105  0.0892  0.5283
 4105SOL    HW123774   4.548   2.544   3.057  0.6847  0.6890  0.0310
 4105SOL    HW223775   4.498   2.416   3.021 -0.4695  0.6432 -1.2105
 4106SOL     OW23776   3.161   1.420  15.918 -0.1332  0.1423 -0.1490
 4106SOL    HW123777   3.129   1.495  15.869 -0.1370 -0.3532 -0.9106
 4106SOL    HW223778   3.230   1.390  15.858 -1.0827 -1.5658 -0.3960
 4107SOL     OW23779   0.096   2.193   8.125  0.0276 -0.1774  0.1118
 4107SOL    HW123780   0.128   2.208   8.214 -1.7927 -1.5533  0.9903
 4107SOL    HW223781   0.030   2.125   8.137 -2.6063  2.2084 -0.9610
 4108SOL     OW23782   1.084   0.234   4.873  0.2382  0.4456  0.4752
 4108SOL    HW123783   1.024   0.163   4.853  0.9873  0.0160 -0.2284
 4108SOL    HW223784   1.120   0.220   4.961  2.8101 -1.2301 -0.8606
 4109SOL     OW23785   1.749   3.052   4.175  0.1054 -0.1089  0.5070
 4109SOL    HW123786   1.787   3.139   4.185  0.1926  0.1428 -1.9701
 4109SOL    HW223787   1.774   3.030   4.085 -0.1175  1.5455  0.0406
 4110SOL     OW23788   3.707   4.491  13.582 -0.1358  0.1363  0.2856
 4110SOL    HW123789   3.795   4.462  13.560 -0.8431 -0.4371 -1.7868
 4110SOL    HW223790   3.706   4.502  13.677  1.5361 -0.4122  0.3539
 4111SOL     OW23791   4.184   3.411  15.574  0.2602  0.6007 -0.3147
 4111SOL    HW123792   4.220   3.434  15.488 -0.6502  2.5701 -0.1797
 4111SOL    HW223793   4.210   3.320  15.564 -0.1175  0.5268 -0.5931
 4112SOL     OW23794   4.486   4.297   9.732 -0.6547  0.7872  0.6206
 4112SOL    HW123795   4.441   4.213   9.721 -1.2963  1.0941  0.8718
 4112SOL    HW223796   4.414   4.359   9.745  0.4911  2.3080 -0.3002
 4113SOL     OW23797   0.612   3.563   4.251  0.2512 -0.2069  0.0715
 4113SOL    HW123798   0.661   3.564   4.333 -0.2560  1.0348  0.3611
 4113SOL    HW223799   0.580   3.473   4.246  1.6194 -0.7211  0.8094
 4114SOL     OW23800   3.726   3.271   8.749  0.1688 -0.2337  0.1122
 4114SOL    HW123801   3.744   3.180   8.772 -3.1455 -1.4449 -2.0728
 4114SOL    HW223802   3.632   3.272   8.767  0.1244 -1.2914 -0.0582
 4115SOL     OW23803   0.093   3.615   8.100  0.5262  0.0884 -0.2999
 4115SOL    HW123804   0.152   3.562   8.047  1.6018  1.0697 -0.1010
 4115SOL    HW223805   0.066   3.561   8.174  2.5252 -0.0379  0.3418
 4116SOL     OW23806   3.971   1.454   3.829 -0.1733  0.3247  0.3067
 4116SOL    HW123807   3.985   1.507   3.907 -0.7188 -0.1619  0.7422
 4116SOL    HW223808   3.908   1.510   3.784 -0.5737 -1.5185 -1.4309
 4117SOL     OW23809   3.759   1.497  10.264 -0.6100 -0.2507  0.4368
 4117SOL    HW123810   3.780   1.577  10.215 -0.7789 -0.8785 -0.6596
 4117SOL    HW223811   3.715   1.447  10.195  0.3300 -0.7904  0.2412
 4118SOL     OW23812   1.184   1.478   5.327  0.4174 -0.4394  0.2038
 4118SOL    HW123813   1.188   1.508   5.417 -2.6327  0.2815  0.0799
 4118SOL    HW223814   1.175   1.562   5.283  0.9942 -1.3604 -1.7261
 4119SOL     OW23815   3.158   3.695   8.564 -0.4606 -0.8675  0.4757
 4119SOL    HW123816   3.134   3.620   8.618 -1.9332  0.0962  1.1602
 4119SOL    HW223817   3.080   3.688   8.508  0.4405 -3.2533 -0.4841
 4120SOL     OW23818   2.913   4.381   6.355 -0.1297 -0.4695  0.1152
 4120SOL    HW123819   2.856   4.378   6.431 -1.6883 -0.5343 -1.0559
 4120SOL    HW223820   2.870   4.308   6.308 -1.7079 -0.9306  2.2849
 4121SOL     OW23821   0.903   4.056   5.902 -0.2201 -0.1985 -0.0891
 4121SOL    HW123822   0.957   4.000   5.958 -1.3999  0.5080  1.7246
 4121SOL    HW223823   0.916   4.143   5.941 -0.9254  0.0576 -0.4232
 4122SOL     OW23824   3.506   0.880   1.717  0.2687 -0.3220 -0.3954
 4122SOL    HW123825   3.451   0.806   1.695 -1.4103  0.8089 -0.0150
 4122SOL    HW223826   3.593   0.849   1.691  0.2603  0.8862 -1.9033
 4123SOL     OW23827   4.690   2.471   5.638  0.1723  0.1523 -0.4976
 4123SOL    HW123828   0.059   2.462   5.664 -0.8642 -1.8613  2.4136
 4123SOL    HW223829   4.648   2.496   5.720  1.1173 -1.0576  0.3457
 4124SOL     OW23830   1.019   1.318   6.236 -0.1583  0.5482  0.9001
 4124SOL    HW123831   0.923   1.314   6.240 -0.1363 -2.8046 -1.6657
 4124SOL    HW223832   1.041   1.248   6.174 -2.3614  0.4241  0.2415
 4125SOL     OW23833   0.935   0.115   4.049  0.3920 -0.2652 -0.1313
 4125SOL    HW123834   0.957   0.137   4.139  1.4448 -2.3764  0.1200
 4125SOL    HW223835   0.986   0.035   4.033 -1.3867 -1.7559  1.6107
 4126SOL     OW23836   2.938   0.160   9.211 -0.0409 -0.5662 -0.5590
 4126SOL    HW123837   2.850   0.198   9.202  0.2218  0.2140  0.1265
 4126SOL    HW223838   2.983   0.224   9.157 -0.8547 -0.1308 -0.7277
 4127SOL     OW23839   0.193   2.388  11.192  0.1546 -0.1582 -0.1700
 4127SOL    HW123840   0.137   2.330  11.140  1.3088 -0.2991 -1.2742
 4127SOL    HW223841   0.165   2.361  11.279 -0.0905 -0.2035 -0.2637
 4128SOL     OW23842   3.281   2.940   5.396 -0.2127 -0.5298  0.4623
 4128SOL    HW123843   3.291   2.969   5.305  0.3181 -1.3928  0.2485
 4128SOL    HW223844   3.229   2.861   5.378 -0.8004  0.2568 -1.3418
 4129SOL     OW23845   0.464   4.078   6.499 -0.0894  0.2606 -0.2764
 4129SOL    HW123846   0.452   3.991   6.538  3.2995  1.2009  2.8771
 4129SOL    HW223847   0.405   4.124   6.560 -1.5972  0.8158 -2.1408
 4130SOL     OW23848   4.565   4.259   4.064 -0.3268 -0.3736 -0.4645
 4130SOL    HW123849   4.472   4.263   4.042 -0.1656 -2.0349 -1.3925
 4130SOL    HW223850   4.570   4.170   4.099  0.5936 -0.5145 -0.9452
 4131SOL     OW23851   0.200   2.987   8.265 -0.1866 -0.3660  0.2103
 4131SOL    HW123852   0.251   2.912   8.296 -0.8113 -1.0982 -0.5429
 4131SOL    HW223853   0.121   2.975   8.317 -0.8959 -1.7220 -1.1741
 4132SOL     OW23854   4.101   2.743  10.674 -0.6109 -0.3769 -0.1948
 4132SOL    HW123855   4.043   2.725  10.747 -1.0243  0.2734 -0.3663
 4132SOL    HW223856   4.155   2.812  10.712 -1.4610  0.0211  0.2833
 4133SOL     OW23857   2.681   3.895   5.292  0.1025  0.0454  0.1060
 4133SOL    HW123858   2.669   3.990   5.290  0.2859  0.0704  0.2299
 4133SOL    HW223859   2.682   3.878   5.198 -1.2267 -1.3456  0.3395
 4134SOL     OW23860   1.871   4.124   4.939 -0.0078  0.4663 -0.7531
 4134SOL    HW123861   1.810   4.170   4.997 -1.5275 -0.8616 -1.2758
 4134SOL    HW223862   1.883   4.196   4.877 -1.5157  0.0387 -1.5464
 4135SOL     OW23863   2.866   2.344   7.825 -0.1145 -0.5646  0.1351
 4135SOL    HW123864   2.839   2.426   7.867  0.9881  0.3410 -0.9016
 4135SOL    HW223865   2.855   2.368   7.733  1.1872 -2.2968 -0.4732
 4136SOL     OW23866   3.786   2.403   6.298  0.4690 -0.0179 -0.1095
 4136SOL    HW123867   3.800   2.417   6.392  0.2092 -1.0797  0.0852
 4136SOL    HW223868   3.875   2.398   6.265 -0.6285 -0.1004 -3.0157
 4137SOL     OW23869   0.554   0.824  10.009 -0.3914 -0.4931  0.5430
 4137SOL    HW123870   0.472   0.784   9.980  0.4481 -0.9573 -1.1534
 4137SOL    HW223871   0.552   0.916   9.982 -0.3477 -1.1587 -1.6462
 4138SOL     OW23872   0.460   1.818   4.632 -0.0522 -0.2683 -0.4186
 4138SOL    HW123873   0.413   1.892   4.592 -0.9468 -0.5684  0.0692
 4138SOL    HW223874   0.456   1.751   4.564  1.7720 -0.6033 -0.1772
 4139SOL     OW23875   3.717   1.248   3.523 -0.4084 -0.1111 -0.0799
 4139SOL    HW123876   3.657   1.300   3.577 -0.3698  1.5830 -1.6942
 4139SOL    HW223877   3.802   1.279   3.555 -1.4745  0.4764  2.2093
 4140SOL     OW23878   0.777   4.392   2.408  0.1230 -0.0390 -0.2508
 4140SOL    HW123879   0.827   4.313   2.431 -0.2641 -0.6620 -1.5791
 4140SOL    HW223880   0.734   4.351   2.334 -0.1682  0.9017 -0.6028
 4141SOL     OW23881   3.602   2.152   4.694  0.0521 -0.4311  0.0818
 4141SOL    HW123882   3.533   2.217   4.686  0.2633 -0.0578  1.2252
 4141SOL    HW223883   3.616   2.168   4.787  1.3018  2.1599 -0.5629
 4142SOL     OW23884   2.769   1.378   7.977 -0.1607  0.2402 -0.5269
 4142SOL    HW123885   2.824   1.429   7.917  0.5095  1.2193  0.9177
 4142SOL    HW223886   2.686   1.426   7.971 -1.1941 -1.6236 -0.9627
 4143SOL     OW23887   1.845   4.074   6.951  0.3355  0.2237  0.6223
 4143SOL    HW123888   1.811   3.997   6.996 -3.0967  2.0945  1.2892
 4143SOL    HW223889   1.773   4.135   6.969  0.9530  0.5052  2.0810
 4144SOL     OW23890   4.706   2.371   6.821 -0.3228 -0.3788  0.4703
 4144SOL    HW123891   4.641   2.387   6.889 -1.5325 -1.4999 -0.4107
 4144SOL    HW223892   4.671   2.296   6.772  2.1148 -2.4911  1.9579
 4145SOL     OW23893   0.876   0.887   9.587  0.5251  0.2658 -0.4374
 4145SOL    HW123894   0.950   0.945   9.570  0.2538  0.6641 -0.2372
 4145SOL    HW223895   0.871   0.887   9.682 -2.1342 -0.8915 -0.5780
 4146SOL     OW23896   4.506   1.052  13.087  0.4773  0.3256  0.3384
 4146SOL    HW123897   4.548   1.014  13.010 -0.2130  0.9892 -0.3758
 4146SOL    HW223898   4.479   0.978  13.142 -0.5199 -0.5186 -1.2698
 4147SOL     OW23899   3.518   3.526  13.239 -0.1876 -0.2862  0.3873
 4147SOL    HW123900   3.581   3.595  13.217  0.1205 -0.5498  0.4297
 4147SOL    HW223901   3.561   3.464  13.179  0.3577 -0.5364  1.0282
 4148SOL     OW23902   1.570   2.559   8.585 -0.2511  0.1079 -0.2496
 4148SOL    HW123903   1.552   2.470   8.556 -1.5164  0.3370 -0.1535
 4148SOL    HW223904   1.555   2.551   8.679 -0.1789  0.9325 -0.1650
 4149SOL     OW23905   3.187   4.504  13.516  0.5632  0.2586 -0.0979
 4149SOL    HW123906   3.218   4.416  13.538  0.2289 -0.2466 -1.6076
 4149SOL    HW223907   3.219   4.511  13.426  1.7589  0.7259  0.3636
 4150SOL     OW23908   1.450   3.254  13.877  0.1240 -0.0658 -0.4616
 4150SOL    HW123909   1.366   3.253  13.923 -0.2570  0.2006 -1.1555
 4150SOL    HW223910   1.480   3.167  13.903 -2.0472 -0.3480  1.0889
 4151SOL     OW23911   2.760   1.892   3.250 -0.1982 -0.5790 -0.7816
 4151SOL    HW123912   2.720   1.831   3.188  1.1426 -2.2619  0.0505
 4151SOL    HW223913   2.717   1.860   3.328 -1.5786  0.8683 -0.9553
 4152SOL     OW23914   2.762   4.007   1.586  0.3958 -0.6127 -0.0889
 4152SOL    HW123915   2.719   3.951   1.521  2.6903 -1.0492 -1.2343
 4152SOL    HW223916   2.693   4.070   1.607 -0.6097 -1.7532 -0.0313
 4153SOL     OW23917   0.172   0.684   1.547 -0.3929  0.4102 -0.1004
 4153SOL    HW123918   0.106   0.711   1.610  0.1305  1.2035  0.1132
 4153SOL    HW223919   0.198   0.603   1.592  0.4463 -0.3663 -2.0098
 4154SOL     OW23920   4.133   0.539   2.618 -0.1715 -0.6263  0.0343
 4154SOL    HW123921   4.204   0.516   2.558 -1.8397  1.9712 -2.9303
 4154SOL    HW223922   4.162   0.630   2.608 -0.4783 -0.2895  2.1739
 4155SOL     OW23923   2.039   3.555   2.899 -0.1536 -0.2674 -0.0102
 4155SOL    HW123924   2.094   3.501   2.956  1.7079 -1.3001 -2.7536
 4155SOL    HW223925   1.957   3.535   2.943 -0.0335  0.4299  0.5224
 4156SOL     OW23926   3.489   2.589  12.633  0.0531  0.1951 -0.0082
 4156SOL    HW123927   3.548   2.572  12.559  2.5963  0.9823  1.8113
 4156SOL    HW223928   3.479   2.684  12.636 -1.9346 -0.0263  0.2187
 4157SOL     OW23929   4.486   2.745  14.202  0.2942 -0.3306 -0.3034
 4157SOL    HW123930   4.562   2.712  14.250  2.2925  0.5303 -2.8553
 4157SOL    HW223931   4.410   2.711  14.249 -0.1646  0.1952 -0.6545
 4158SOL     OW23932   4.598   0.736   7.939  0.2673  0.0456 -0.0943
 4158SOL    HW123933   4.542   0.686   7.999  0.2864 -0.9591 -0.9104
 4158SOL    HW223934   4.640   0.803   7.992  1.6684 -0.4973 -0.5175
 4159SOL     OW23935   0.583   1.266   5.051  0.0154  0.1683 -0.7994
 4159SOL    HW123936   0.675   1.294   5.044 -0.1414  1.3235  1.8914
 4159SOL    HW223937   0.558   1.308   5.133 -2.5838 -0.6606 -1.1688
 4160SOL     OW23938   0.566   2.344  11.622 -0.7411  0.3004  0.2021
 4160SOL    HW123939   0.513   2.374  11.696 -1.4496  0.6323 -0.4319
 4160SOL    HW223940   0.536   2.254  11.611 -2.9946  1.5283 -3.9693
 4161SOL     OW23941   2.736   2.267   7.357  0.6181 -0.3120 -0.2250
 4161SOL    HW123942   2.790   2.189   7.370  1.2327  0.5632  2.3869
 4161SOL    HW223943   2.766   2.328   7.424 -1.9936 -0.7004  1.3054
 4162SOL     OW23944   1.007   2.123  17.407  0.2102 -0.0516 -0.4066
 4162SOL    HW123945   1.072   2.179  17.448  1.2816 -0.5251 -1.4736
 4162SOL    HW223946   0.938   2.185  17.381  0.6597  0.0782 -1.2984
 4163SOL     OW23947   4.101   2.278  12.069 -0.2188  0.1293 -0.4758
 4163SOL    HW123948   4.125   2.196  12.112  0.4616  1.1632  1.1051
 4163SOL    HW223949   4.189   2.303  12.042  0.4160 -0.9859  0.5404
 4164SOL     OW23950   1.644   3.420  13.822 -0.4675  0.3072 -0.2359
 4164SOL    HW123951   1.707   3.348  13.830  0.1694  1.0182  1.1026
 4164SOL    HW223952   1.563   3.376  13.847  0.6934 -1.6117  0.1870
 4165SOL     OW23953   2.621   3.343   6.671 -0.1038 -0.0889  0.0780
 4165SOL    HW123954   2.617   3.383   6.758  0.7605  1.1316 -0.4364
 4165SOL    HW223955   2.716   3.343   6.659 -0.1040 -1.4893  0.1088
 4166SOL     OW23956   3.585   0.532   3.686  0.5547  0.0512  0.5199
 4166SOL    HW123957   3.645   0.570   3.622 -0.2687  0.1084 -0.2129
 4166SOL    HW223958   3.532   0.465   3.643  0.5538  0.1813  0.3212
 4167SOL     OW23959   1.634   0.289  12.500  0.4242  0.5253  0.0183
 4167SOL    HW123960   1.624   0.358  12.566 -2.6473  0.1627 -0.0448
 4167SOL    HW223961   1.582   0.217  12.537  1.3916 -0.7335 -1.0515
 4168SOL     OW23962   2.419   3.814   5.746 -0.9025 -0.0420 -0.1591
 4168SOL    HW123963   2.419   3.909   5.729 -0.2899 -0.2042 -1.0771
 4168SOL    HW223964   2.482   3.788   5.679  0.2725  1.0285  0.5158
 4169SOL     OW23965   1.342   3.652   1.563  0.2101 -0.3604  0.2490
 4169SOL    HW123966   1.288   3.617   1.492 -0.3532  0.6152  0.1905
 4169SOL    HW223967   1.273   3.667   1.627 -0.3215 -1.6974 -0.0182
 4170SOL     OW23968   4.142   4.270   7.414  0.0038  0.2250  0.0363
 4170SOL    HW123969   4.147   4.364   7.400 -0.7053  0.4228  1.1438
 4170SOL    HW223970   4.226   4.237   7.380 -1.5884 -3.3425 -0.4488
 4171SOL     OW23971   3.110   0.166  11.824  0.0141  0.6369 -0.4064
 4171SOL    HW123972   3.123   0.101  11.754  0.4517 -1.9641  2.0873
 4171SOL    HW223973   3.125   0.248  11.778 -0.4569  0.2833 -1.2004
 4172SOL     OW23974   3.814   3.039   3.185  0.6357 -0.1257 -0.2131
 4172SOL    HW123975   3.820   3.117   3.239 -0.7238 -1.1326  1.3921
 4172SOL    HW223976   3.724   3.007   3.193  0.1318  1.2775 -0.4115
 4173SOL     OW23977   4.120   0.406   1.006 -0.4062  0.0786  0.1738
 4173SOL    HW123978   4.158   0.470   1.066  1.9713 -0.1829 -1.0166
 4173SOL    HW223979   4.201   0.361   0.982  1.6404  2.6304  2.2807
 4174SOL     OW23980   3.397   4.299  14.874 -0.0546 -0.0410  0.1665
 4174SOL    HW123981   3.390   4.390  14.900 -1.1465 -0.2256  0.5259
 4174SOL    HW223982   3.489   4.292  14.847 -0.8250  0.3788 -2.5681
 4175SOL     OW23983   1.310   2.044   1.596 -0.1402 -0.0354 -0.4932
 4175SOL    HW123984   1.323   1.964   1.546 -1.8840 -1.6302  1.6653
 4175SOL    HW223985   1.392   2.091   1.577 -0.7540  1.1750 -0.1886
 4176SOL     OW23986   0.836   0.441  13.940  0.2295 -0.3204 -0.5977
 4176SOL    HW123987   0.910   0.496  13.913 -0.7923  1.6400  0.5919
 4176SOL    HW223988   0.822   0.398  13.855 -0.5959  1.7979 -1.5417
 4177SOL     OW23989   3.896   2.202  13.055  0.2105  0.0509 -0.2973
 4177SOL    HW123990   3.974   2.200  13.000  0.8737 -1.9263  0.7172
 4177SOL    HW223991   3.833   2.186  12.984  0.9323  0.9864 -1.1551
 4178SOL     OW23992   2.420   3.680  10.576 -0.0561 -0.0409 -0.3074
 4178SOL    HW123993   2.412   3.655  10.484  0.8420  1.0169 -0.6701
 4178SOL    HW223994   2.385   3.601  10.617 -0.0348 -0.9356 -2.0227
 4179SOL     OW23995   1.273   4.232  12.679 -0.3161  0.5945 -0.2639
 4179SOL    HW123996   1.366   4.236  12.699 -0.4482 -2.9005  0.9564
 4179SOL    HW223997   1.234   4.198  12.760 -0.6680  2.9462  0.5732
 4180SOL     OW23998   2.538   3.468   9.099  0.5755 -0.1468 -0.2659
 4180SOL    HW123999   2.533   3.516   9.016  2.5574  0.5606  0.0087
 4180SOL    HW224000   2.634   3.461   9.098  0.6757  1.6253 -2.2032
 4181SOL     OW24001   3.151   0.612   7.039 -0.2324  0.4057 -0.1578
 4181SOL    HW124002   3.070   0.633   7.086 -0.1354 -1.1220  0.6828
 4181SOL    HW224003   3.136   0.663   6.959  3.5178  1.8487  0.0749
 4182SOL     OW24004   1.094   0.157  11.407  0.5723  0.0788  0.0625
 4182SOL    HW124005   1.178   0.126  11.375 -0.1991 -1.0368 -0.8974
 4182SOL    HW224006   1.113   0.156  11.501 -1.3717 -2.4339  0.4220
 4183SOL     OW24007   2.945   0.568  12.686 -0.2146  0.1647 -0.2200
 4183SOL    HW124008   3.025   0.560  12.633 -0.5880  2.1027 -1.0779
 4183SOL    HW224009   2.880   0.592  12.619 -0.8955 -0.2470  0.3053
 4184SOL     OW24010   3.271   0.087   6.911 -0.4882 -0.1187  0.0871
 4184SOL    HW124011   3.218   0.073   6.989  0.9626 -0.0091  1.0725
 4184SOL    HW224012   3.223   0.045   6.839  0.0026  0.9620 -0.8650
 4185SOL     OW24013   2.134   0.827  15.659 -0.1698 -0.5307  0.6907
 4185SOL    HW124014   2.165   0.913  15.690 -2.7716  1.0597 -1.0975
 4185SOL    HW224015   2.156   0.842  15.567 -2.7399 -0.3864  0.1156
 4186SOL     OW24016   3.502   4.609   2.045 -0.2367 -0.6688 -0.1750
 4186SOL    HW124017   3.515   4.548   1.972 -1.8314 -0.4785 -0.6303
 4186SOL    HW224018   3.435   4.661   1.999  0.8456 -2.0736 -3.3645
 4187SOL     OW24019   3.594   2.029   8.754  0.6451 -0.1591 -0.2417
 4187SOL    HW124020   3.498   2.034   8.751  0.6142 -1.2567 -0.8593
 4187SOL    HW224021   3.598   1.934   8.742  0.8399 -0.1773 -0.0376
 4188SOL     OW24022   2.122   0.042   8.480  0.1131  0.6977 -0.1098
 4188SOL    HW124023   2.074   4.689   8.445  0.0272  0.1148  1.2849
 4188SOL    HW224024   2.112   0.020   8.572  0.2024  0.9677 -0.0368
 4189SOL     OW24025   3.798   0.886  12.524  0.4877 -0.5209  0.9209
 4189SOL    HW124026   3.871   0.906  12.584  1.2872 -0.2707 -0.1324
 4189SOL    HW224027   3.720   0.890  12.579 -1.4997 -2.2861 -1.7859
 4190SOL     OW24028   3.645   3.922   7.975  0.1071 -0.1453 -0.4560
 4190SOL    HW124029   3.558   3.947   7.944  1.3604  3.2541 -1.2484
 4190SOL    HW224030   3.630   3.833   8.008 -1.5672  1.2059  2.3478
 4191SOL     OW24031   3.810   0.803  10.714  0.1861  0.2314 -0.3625
 4191SOL    HW124032   3.826   0.747  10.638 -1.4334 -1.1989  0.3482
 4191SOL    HW224033   3.782   0.731  10.771  0.8275 -0.4124 -0.8544
 4192SOL     OW24034   2.460   3.124   6.696  0.1201  0.1517 -1.1346
 4192SOL    HW124035   2.372   3.145   6.662 -0.6389  0.9869  1.3880
 4192SOL    HW224036   2.515   3.199   6.677  1.3727 -1.3733 -3.6040
 4193SOL     OW24037   2.085   1.105   4.221  0.4750  0.2374 -0.1144
 4193SOL    HW124038   2.083   1.017   4.184  0.1632  1.7326 -3.7002
 4193SOL    HW224039   2.007   1.112   4.276  0.4007  1.8813 -0.4266
 4194SOL     OW24040   4.337   2.267  11.924  0.5796 -0.2784  0.0637
 4194SOL    HW124041   4.326   2.336  11.858 -0.7101 -0.5198  0.0185
 4194SOL    HW224042   4.373   2.193  11.876  0.9371  0.3383 -0.6053
 4195SOL     OW24043   3.927   2.868   2.466  0.6342  0.4025  0.4853
 4195SOL    HW124044   3.903   2.900   2.379 -3.6342  1.2251  1.9362
 4195SOL    HW224045   3.983   2.939   2.497  1.0012 -0.5062  1.9059
 4196SOL     OW24046   3.569   1.507   9.759 -0.8072 -0.3477  0.6543
 4196SOL    HW124047   3.540   1.462   9.680 -1.4886  1.7897 -0.2965
 4196SOL    HW224048   3.593   1.596   9.732 -1.1114  0.2042  2.1850
 4197SOL     OW24049   4.502   1.992   2.411 -0.2766 -0.3237 -0.1728
 4197SOL    HW124050   4.543   2.033   2.488  1.1845  2.0445 -2.2235
 4197SOL    HW224051   4.409   2.014   2.423 -0.7058 -1.6761 -1.0599
 4198SOL     OW24052   2.113   3.162   8.836  0.4870 -0.0346 -0.2596
 4198SOL    HW124053   2.108   3.083   8.890  1.7953  1.1852  1.6323
 4198SOL    HW224054   2.138   3.237   8.889 -1.3581  1.0863 -0.9385
 4199SOL     OW24055   2.414   1.286   4.874  0.1552  0.4294  0.7593
 4199SOL    HW124056   2.356   1.211   4.862  2.6638 -1.5702  1.1900
 4199SOL    HW224057   2.371   1.318   4.953 -0.1040 -0.3603  0.9343
 4200SOL     OW24058   1.972   3.249   4.090  0.0628  0.2409 -0.1751
 4200SOL    HW124059   1.968   3.326   4.033  1.0784 -1.2784 -2.2989
 4200SOL    HW224060   1.953   3.185   4.021  0.6889 -0.0380 -0.0858
 4201SOL     OW24061   0.038   3.159   4.787  1.0151  0.3827  0.0286
 4201SOL    HW124062   4.689   3.211   4.825  2.2330  1.3920  0.9288
 4201SOL    HW224063   4.712   3.083   4.756  1.2185  0.3798 -0.2762
 4202SOL     OW24064   3.052   3.225   2.652 -0.6400  0.2428 -0.1431
 4202SOL    HW124065   3.063   3.130   2.660  0.7268  0.2998 -1.3684
 4202SOL    HW224066   3.009   3.251   2.734 -2.0408 -1.2179 -0.4282
 4203SOL     OW24067   4.300   1.314   1.316  0.3061  0.2394 -0.0621
 4203SOL    HW124068   4.265   1.229   1.342  1.3280 -0.5465 -1.2598
 4203SOL    HW224069   4.273   1.319   1.224  0.5617  0.0828 -0.1460
 4204SOL     OW24070   0.777   3.778  10.496  0.4986 -0.4700 -0.0104
 4204SOL    HW124071   0.719   3.854  10.490  1.9463  0.7992  1.8286
 4204SOL    HW224072   0.709   3.712  10.485  0.7252 -1.0484  2.0887
 4205SOL     OW24073   2.972   1.118   8.013 -0.3435 -0.0158 -0.0579
 4205SOL    HW124074   3.048   1.134   8.069 -0.4993  0.7619 -0.0726
 4205SOL    HW224075   2.904   1.171   8.054  0.4436  1.1111 -0.2036
 4206SOL     OW24076   1.039   4.717   1.702 -0.3695 -0.3863  0.3329
 4206SOL    HW124077   1.130   0.015   1.723  0.4749 -2.2242 -1.5385
 4206SOL    HW224078   0.987   0.058   1.752  1.2884  0.3499  1.1229
 4207SOL     OW24079   1.477   4.058  14.383  0.5369 -0.0825  0.1923
 4207SOL    HW124080   1.463   4.064  14.288  0.2846 -0.6058  0.2025
 4207SOL    HW224081   1.466   4.147  14.417 -0.3756 -0.2446  0.3095
 4208SOL     OW24082   1.626   1.969   4.349 -0.2572 -0.4252 -0.3508
 4208SOL    HW124083   1.691   2.032   4.319  1.3944 -1.1633  1.7044
 4208SOL    HW224084   1.677   1.889   4.343  1.2498  0.3427  2.0476
 4209SOL     OW24085   2.485   2.641  10.539  0.1988  0.5331  0.4600
 4209SOL    HW124086   2.513   2.610  10.453 -0.1464 -1.6962  1.1580
 4209SOL    HW224087   2.453   2.731  10.529 -0.0719  0.3033 -0.7038
 4210SOL     OW24088   0.195   2.503   3.352  0.7286  0.0577  0.3088
 4210SOL    HW124089   0.236   2.435   3.298  1.4353  0.1230  0.7676
 4210SOL    HW224090   0.113   2.521   3.307  0.4058 -0.4130  0.7193
 4211SOL     OW24091   3.982   3.656   2.730  0.0522  0.3504 -0.1035
 4211SOL    HW124092   3.950   3.684   2.644  1.4112 -1.0607 -1.0640
 4211SOL    HW224093   4.048   3.589   2.715  1.3306  1.7681 -0.8047
 4212SOL     OW24094   4.128   3.430  11.475  0.0658  0.3806 -0.4970
 4212SOL    HW124095   4.202   3.406  11.530  1.7541 -1.3418 -3.5318
 4212SOL    HW224096   4.164   3.485  11.405 -3.9220  2.7711 -0.6595
 4213SOL     OW24097   0.675   0.893   3.063  0.2332  0.6690  0.4359
 4213SOL    HW124098   0.600   0.834   3.052  0.4748  0.7685 -1.6900
 4213SOL    HW224099   0.645   0.972   3.018  0.8996  1.1617  0.8648
 4214SOL     OW24100   3.193   2.871   7.135 -0.2192 -0.1781 -0.4845
 4214SOL    HW124101   3.238   2.883   7.219  0.2741 -3.0036 -0.3368
 4214SOL    HW224102   3.152   2.957   7.129 -0.5850 -0.1198  3.1524
 4215SOL     OW24103   0.202   4.584   6.428 -0.3162  0.6408 -0.3632
 4215SOL    HW124104   0.232   4.665   6.470 -1.1645  0.2834  0.9070
 4215SOL    HW224105   0.271   4.575   6.362  0.0227  1.6997 -0.1493
 4216SOL     OW24106   3.984   1.857  10.033 -0.5746  0.2948 -0.1167
 4216SOL    HW124107   3.944   1.774  10.059  0.6887 -0.2577  0.0645
 4216SOL    HW224108   4.074   1.825  10.023  0.0607  2.1339 -0.2379
 4217SOL     OW24109   3.131   2.784  13.781  0.2502  0.2184 -0.4066
 4217SOL    HW124110   3.092   2.850  13.838 -0.8708  0.0855 -0.9995
 4217SOL    HW224111   3.064   2.780  13.712  2.5055  0.0588 -2.5734
 4218SOL     OW24112   4.517   3.870   5.699  0.0473 -0.0100  0.0743
 4218SOL    HW124113   4.449   3.803   5.705 -0.9835  1.0987  0.8363
 4218SOL    HW224114   4.518   3.883   5.793  1.5874 -2.5917  0.3988
 4219SOL     OW24115   1.906   1.029   7.245 -0.3232 -0.0205  0.0493
 4219SOL    HW124116   1.951   1.111   7.226  1.2356 -0.8932  0.0247
 4219SOL    HW224117   1.982   0.971   7.240 -1.1534 -1.2091  0.9876
 4220SOL     OW24118   4.691   1.120   3.303 -0.3349  0.3369 -0.1966
 4220SOL    HW124119   0.022   1.104   3.225 -2.5724  1.6141 -1.9954
 4220SOL    HW224120   0.036   1.118   3.371 -0.6248 -2.3638  0.0159
 4221SOL     OW24121   1.680   3.899   8.078 -0.1075 -0.0412 -0.0809
 4221SOL    HW124122   1.708   3.956   8.007  0.5798  0.4267  0.5660
 4221SOL    HW224123   1.645   3.827   8.024  0.1634 -0.8552  0.8256
 4222SOL     OW24124   0.065   0.131   8.793  0.0818 -0.1349  0.2536
 4222SOL    HW124125   4.696   0.148   8.770  0.0178 -1.3668 -0.4248
 4222SOL    HW224126   0.062   0.057   8.855  1.9183  0.3350  0.9078
 4223SOL     OW24127   3.198   4.565   8.273  0.0646  0.4926 -0.2788
 4223SOL    HW124128   3.210   4.471   8.286  0.9118  0.3443 -2.1583
 4223SOL    HW224129   3.209   4.595   8.363  3.2460 -0.4264 -0.3769
 4224SOL     OW24130   0.717   1.784   2.741  0.2955  0.2497  0.0335
 4224SOL    HW124131   0.667   1.861   2.712  0.0407  0.4855  1.1190
 4224SOL    HW224132   0.711   1.797   2.835 -1.9531 -2.2847  0.2623
 4225SOL     OW24133   0.246   3.502   6.533  0.1613 -0.3994  0.1461
 4225SOL    HW124134   0.224   3.587   6.495 -0.2893 -1.2642 -1.5477
 4225SOL    HW224135   0.331   3.488   6.490  0.2801 -0.8334  0.5274
 4226SOL     OW24136   3.341   2.333   5.972  0.6028  0.6351 -0.4218
 4226SOL    HW124137   3.394   2.341   5.893  1.2422  1.3491  0.0723
 4226SOL    HW224138   3.374   2.251   6.009 -0.9430 -0.4883 -1.5632
 4227SOL     OW24139   0.370   4.464   5.632 -0.0984 -0.1952 -0.1339
 4227SOL    HW124140   0.351   4.514   5.552 -1.9685  1.2422  1.2275
 4227SOL    HW224141   0.285   4.479   5.673 -0.2017 -1.3635  0.0845
 4228SOL     OW24142   1.874   1.056   5.573 -0.4408 -0.4692 -0.1712
 4228SOL    HW124143   1.799   1.035   5.518 -0.4249  0.2498 -0.4655
 4228SOL    HW224144   1.907   0.967   5.584 -1.4525 -1.0670 -1.9856
 4229SOL     OW24145   0.697   3.282   2.099  0.5179 -0.3398 -0.2405
 4229SOL    HW124146   0.780   3.294   2.145  0.3976 -1.6414  0.2925
 4229SOL    HW224147   0.723   3.310   2.011  0.6081 -1.2087 -0.4873
 4230SOL     OW24148   4.690   0.200  10.156  0.0151  0.4953  0.0242
 4230SOL    HW124149   4.650   0.115  10.135  1.2128  0.3551 -1.7120
 4230SOL    HW224150   0.053   0.177  10.192  0.0901  1.5206  0.4816
 4231SOL     OW24151   1.776   2.261   8.068 -0.2773 -0.1335 -0.1542
 4231SOL    HW124152   1.864   2.241   8.038 -1.7547 -1.0711 -3.8102
 4231SOL    HW224153   1.727   2.181   8.050 -0.4710  0.1031 -0.6624
 4232SOL     OW24154   3.196   1.326   2.379 -0.3745  0.3129 -0.3102
 4232SOL    HW124155   3.264   1.261   2.365  1.0687  1.5747  0.8463
 4232SOL    HW224156   3.170   1.279   2.459 -1.4952 -0.0671 -0.8990
 4233SOL     OW24157   1.532   4.336   2.129  0.0592 -0.2164 -0.8049
 4233SOL    HW124158   1.471   4.350   2.201  0.5510 -0.6571 -0.2972
 4233SOL    HW224159   1.565   4.425   2.122 -0.1706 -0.1060 -0.4883
 4234SOL     OW24160   0.839   3.622   2.778  0.7975  0.2947  0.6392
 4234SOL    HW124161   0.900   3.655   2.844  0.1040  0.7696  1.0410
 4234SOL    HW224162   0.858   3.529   2.791  2.2154  0.3150 -1.1423
 4235SOL     OW24163   4.623   4.105   1.829 -0.1206 -0.4116  0.0834
 4235SOL    HW124164   4.628   4.120   1.924 -0.5658  1.2367 -0.1443
 4235SOL    HW224165   4.531   4.089   1.807  0.0699  0.9946 -1.6934
 4236SOL     OW24166   3.707   0.485  10.092 -0.1690  0.4487 -0.2545
 4236SOL    HW124167   3.775   0.446  10.148 -1.8954 -0.1262  1.4479
 4236SOL    HW224168   3.749   0.566  10.065  1.5905 -0.1051  0.8036
 4237SOL     OW24169   0.326   1.219   2.945  0.1081 -0.4110 -0.3015
 4237SOL    HW124170   0.281   1.253   2.868  1.2868  2.1484  0.1412
 4237SOL    HW224171   0.255   1.186   3.000  0.5165  0.8179  0.9523
 4238SOL     OW24172   3.953   1.896   6.732  0.3738  0.3869  0.0654
 4238SOL    HW124173   3.904   1.946   6.798  1.0982 -1.2581  1.8708
 4238SOL    HW224174   3.935   1.809   6.768 -0.7821  0.6660  0.1833
 4239SOL     OW24175   2.002   2.328   2.250  0.1053  0.2540 -0.3799
 4239SOL    HW124176   1.927   2.387   2.254 -0.0068  0.1034 -0.2228
 4239SOL    HW224177   1.981   2.266   2.181  1.6253  1.4141 -1.8796
 4240SOL     OW24178   2.386   1.549   9.644 -0.1838 -0.1547  0.6026
 4240SOL    HW124179   2.324   1.545   9.571 -1.4112  0.9190  1.6072
 4240SOL    HW224180   2.321   1.540   9.713 -0.0783  1.7110  0.9378
 4241SOL     OW24181   0.782   1.399  15.022 -0.7208  0.2083  0.2473
 4241SOL    HW124182   0.737   1.323  14.983 -1.1469  0.8096 -0.4308
 4241SOL    HW224183   0.875   1.375  15.026 -0.6087  0.3889 -1.0277
 4242SOL     OW24184   0.206   1.711   7.424  0.1775  0.2423 -0.1109
 4242SOL    HW124185   0.125   1.665   7.447 -0.8113  0.7700 -2.5013
 4242SOL    HW224186   0.198   1.792   7.475 -3.1098  0.5266 -1.0674
 4243SOL     OW24187   4.539   4.208   2.080 -0.1319 -0.0917  0.2407
 4243SOL    HW124188   4.605   4.273   2.056 -0.7346  1.7528  3.6712
 4243SOL    HW224189   4.458   4.251   2.056 -0.0431 -0.3958 -0.6035
 4244SOL     OW24190   2.724   4.561   5.495  0.6371 -0.7362  0.5452
 4244SOL    HW124191   2.667   4.605   5.559  1.5763 -1.5674  1.9440
 4244SOL    HW224192   2.787   4.633   5.497  1.2264 -1.1992 -1.6666
 4245SOL     OW24193   0.267   0.989   7.114  0.2591  0.0748 -0.2174
 4245SOL    HW124194   0.361   0.972   7.112  0.1858 -0.2917 -0.6626
 4245SOL    HW224195   0.236   0.941   7.191  2.8686 -1.0776  0.1072
 4246SOL     OW24196   2.477   1.562  15.395 -0.1295  0.8415 -1.0657
 4246SOL    HW124197   2.405   1.585  15.336 -0.7235  0.6938 -0.4001
 4246SOL    HW224198   2.528   1.512  15.332 -0.0438 -1.7610  1.0969
 4247SOL     OW24199   3.677   0.182   3.434 -0.4572 -0.6871  0.3037
 4247SOL    HW124200   3.600   0.138   3.397 -0.6121  0.7273 -1.0271
 4247SOL    HW224201   3.702   0.116   3.498 -0.1770 -1.2219 -0.3520
 4248SOL     OW24202   3.300   0.537   4.671  0.6729 -0.1888 -0.1239
 4248SOL    HW124203   3.268   0.584   4.749 -2.2925  0.4684 -1.7569
 4248SOL    HW224204   3.222   0.514   4.622  1.9463 -0.7506 -1.8570
 4249SOL     OW24205   4.320   3.884   8.490  0.3758 -0.5921 -0.2626
 4249SOL    HW124206   4.336   3.818   8.423  1.8556 -0.5759  0.0796
 4249SOL    HW224207   4.394   3.861   8.545 -1.4151  1.2669  2.9672
 4250SOL     OW24208   3.257   2.748   6.693  0.3999  0.2250 -0.1897
 4250SOL    HW124209   3.241   2.717   6.782  2.7242 -3.0434 -0.9145
 4250SOL    HW224210   3.342   2.788   6.711  0.4274  0.9162 -1.7961
 4251SOL     OW24211   1.498   3.054  15.036  0.7269 -0.1995 -0.0575
 4251SOL    HW124212   1.493   2.960  15.022 -0.7212  0.3235 -2.9760
 4251SOL    HW224213   1.549   3.084  14.960  0.0183  0.2085 -0.3708
 4252SOL     OW24214   4.309   0.474   0.666 -0.1091 -0.2811 -0.2333
 4252SOL    HW124215   4.387   0.428   0.697  1.1762 -0.1989 -3.3213
 4252SOL    HW224216   4.268   0.497   0.749 -1.7244  1.1137 -1.4236
 4253SOL     OW24217   3.861   4.109  15.603  0.4518  0.1403  0.1961
 4253SOL    HW124218   3.841   4.188  15.553  1.4623  0.2155 -0.0941
 4253SOL    HW224219   3.941   4.140  15.645 -1.4548  2.7092  1.8617
 4254SOL     OW24220   4.244   1.610  11.036 -0.4195  0.1568 -0.6127
 4254SOL    HW124221   4.231   1.572  11.123  3.4787 -0.5271 -0.3076
 4254SOL    HW224222   4.321   1.664  11.052 -2.6589  3.4696 -1.0170
 4255SOL     OW24223   0.286   2.682   4.389  0.3409  0.2983  0.3106
 4255SOL    HW124224   0.380   2.671   4.404  0.0341 -3.2338 -0.3722
 4255SOL    HW224225   0.268   2.621   4.317  1.3192  0.4773 -0.0815
 4256SOL     OW24226   2.534   0.166   7.825  0.1925  0.1344  0.1245
 4256SOL    HW124227   2.455   0.202   7.786  0.0153 -0.0101  0.3531
 4256SOL    HW224228   2.532   0.211   7.909  1.7502 -0.1854  0.3381
 4257SOL     OW24229   3.147   2.605   8.310  0.3129  0.0100  0.2774
 4257SOL    HW124230   3.186   2.643   8.232  1.3632  2.3595  1.9479
 4257SOL    HW224231   3.133   2.683   8.363  0.7038  0.7723 -0.7482
 4258SOL     OW24232   0.177   1.472   7.009  0.0721  0.3944  0.0419
 4258SOL    HW124233   0.264   1.511   7.004 -0.8301  2.3073 -0.7892
 4258SOL    HW224234   0.197   1.395   6.957 -2.1060  0.6853 -1.2495
 4259SOL     OW24235   2.506   1.944   8.812  0.0195  0.0391 -0.4862
 4259SOL    HW124236   2.449   2.014   8.780 -0.5864 -0.7518 -1.1279
 4259SOL    HW224237   2.592   1.977   8.785  0.8545 -0.9841  0.9280
 4260SOL     OW24238   4.331   2.886   2.995 -0.4875 -0.4301  0.6001
 4260SOL    HW124239   4.305   2.816   2.935 -2.2945  0.2856  0.5261
 4260SOL    HW224240   4.417   2.863   3.029  0.4688  1.3432 -0.6572
 4261SOL     OW24241   0.850   1.330   5.961 -0.5103  0.0903  0.2423
 4261SOL    HW124242   0.937   1.370   5.959 -0.1227 -0.7732 -0.1395
 4261SOL    HW224243   0.821   1.319   6.052 -1.1904  1.0205  0.1353
 4262SOL     OW24244   1.920   1.279   5.230 -0.0718  0.2981 -0.5533
 4262SOL    HW124245   1.848   1.216   5.230  1.8888 -1.9499 -0.8137
 4262SOL    HW224246   1.876   1.362   5.214  1.8771  1.4247  0.0013
 4263SOL     OW24247   3.859   2.925  12.853 -0.3823 -0.3052  0.4640
 4263SOL    HW124248   3.778   2.901  12.807 -1.4657  4.0719  0.0428
 4263SOL    HW224249   3.821   2.968  12.930  1.0604  1.6857  0.0753
 4264SOL     OW24250   1.290   3.849   7.789 -0.2141  0.9742  0.1875
 4264SOL    HW124251   1.203   3.890   7.788  0.3285  2.0480 -1.9225
 4264SOL    HW224252   1.290   3.780   7.723  0.4972  2.3384 -1.2478
 4265SOL     OW24253   4.653   1.018   6.839  0.6127 -0.0217  0.4671
 4265SOL    HW124254   4.576   0.979   6.880 -0.7913  0.6723 -1.5007
 4265SOL    HW224255   4.716   0.946   6.833  0.4560 -0.0394 -1.1132
 4266SOL     OW24256   2.047   4.611   0.512  0.5160  0.4610  1.0644
 4266SOL    HW124257   2.130   4.563   0.517 -0.3697 -1.1104  0.3537
 4266SOL    HW224258   1.992   4.561   0.452  0.0190  0.8669  1.1840
 4267SOL     OW24259   4.580   1.807   3.778 -0.0668 -0.5184  0.0177
 4267SOL    HW124260   4.616   1.719   3.773  1.6742  0.2150 -0.1766
 4267SOL    HW224261   4.568   1.815   3.873 -3.3491  1.4906 -0.5495
 4268SOL     OW24262   1.100   3.562   4.424 -0.4809  0.0586 -0.4213
 4268SOL    HW124263   1.054   3.489   4.466 -0.9032  0.2825 -0.4988
 4268SOL    HW224264   1.097   3.544   4.330 -1.2546  0.2013 -0.4266
 4269SOL     OW24265   0.365   0.129   4.313 -0.4233  0.5991  0.1472
 4269SOL    HW124266   0.410   0.161   4.235 -1.1582 -0.4163 -0.7021
 4269SOL    HW224267   0.280   0.103   4.277  0.8255 -1.4674 -1.3595
 4270SOL     OW24268   1.130   4.197  17.157 -0.2833 -0.2110  0.2409
 4270SOL    HW124269   1.050   4.144  17.158 -0.6565  0.3687  1.8465
 4270SOL    HW224270   1.187   4.135  17.203 -1.7388 -1.6653  0.0977
 4271SOL     OW24271   1.082   0.196   8.277 -0.6840  0.0105  0.2197
 4271SOL    HW124272   1.014   0.135   8.247 -0.5726 -0.0488  0.0911
 4271SOL    HW224273   1.047   0.281   8.251  0.8551  1.0143  1.4497
 4272SOL     OW24274   0.160   2.461  11.885 -0.2523 -0.1044 -0.6295
 4272SOL    HW124275   0.203   2.543  11.861  1.5793 -0.8638  0.0554
 4272SOL    HW224276   0.234   2.403  11.903  0.0381  0.4095 -0.1917
 4273SOL     OW24277   4.486   0.708   3.870  0.1022 -0.5206  0.1927
 4273SOL    HW124278   4.549   0.780   3.869 -0.2111 -0.2315  2.2554
 4273SOL    HW224279   4.493   0.706   3.775 -1.2158 -2.2163  0.1269
 4274SOL     OW24280   3.354   1.936   6.416  0.7646  0.7955  0.1103
 4274SOL    HW124281   3.390   1.929   6.505 -1.3050 -0.7590  0.8304
 4274SOL    HW224282   3.423   1.890   6.368 -1.3794 -2.2634 -0.0160
 4275SOL     OW24283   0.885   1.435   9.808 -0.0344  0.4690 -0.2990
 4275SOL    HW124284   0.933   1.353   9.799  2.0313  1.7390 -0.7752
 4275SOL    HW224285   0.952   1.499   9.784 -0.4370  1.4646  1.2772
 4276SOL     OW24286   2.488   0.994   6.249 -0.2765  0.4324  0.3042
 4276SOL    HW124287   2.540   0.958   6.321 -1.6636  0.9984  1.6076
 4276SOL    HW224288   2.498   1.089   6.261 -1.7613  0.7151 -0.6823
 4277SOL     OW24289   3.005   4.255   8.201  0.3438 -0.0378  0.0426
 4277SOL    HW124290   2.940   4.289   8.263  1.1604  1.6940 -0.0442
 4277SOL    HW224291   2.992   4.306   8.121 -0.7125  1.6382  1.2792
 4278SOL     OW24292   1.263   4.639  15.043  0.3471 -0.4818  0.4917
 4278SOL    HW124293   1.268   4.595  15.127  1.0249  1.3032  1.3757
 4278SOL    HW224294   1.269   4.572  14.975 -1.9300  1.2541 -1.4108
 4279SOL     OW24295   3.717   0.342   7.105 -0.1349  0.8705  0.1222
 4279SOL    HW124296   3.784   0.344   7.174 -0.3182 -1.0372  0.3393
 4279SOL    HW224297   3.737   0.418   7.049 -1.7035  2.1641  1.3327
 4280SOL     OW24298   2.991   0.577   4.174  0.6367 -0.3150  0.2839
 4280SOL    HW124299   3.044   0.599   4.097  1.7179 -1.7117  0.6149
 4280SOL    HW224300   2.933   0.652   4.169 -1.2666 -1.8134 -0.1094
 4281SOL     OW24301   2.402   2.275   9.510 -0.4297 -0.0234  0.4612
 4281SOL    HW124302   2.442   2.317   9.586  1.2367 -0.0052 -0.4199
 4281SOL    HW224303   2.474   2.217   9.486 -0.4050  1.0733 -2.1109
 4282SOL     OW24304   2.327   1.552   8.161  0.2737 -0.0448  0.5086
 4282SOL    HW124305   2.322   1.526   8.253 -0.5765 -0.4809  0.3444
 4282SOL    HW224306   2.286   1.476   8.119  1.8114 -1.1862  1.0698
 4283SOL     OW24307   3.590   4.050  12.591 -0.1338  0.1538  0.0867
 4283SOL    HW124308   3.570   4.140  12.566  1.3634  0.7207  0.9027
 4283SOL    HW224309   3.640   4.050  12.673  0.2488 -3.1737 -0.1515
 4284SOL     OW24310   3.412   1.975   4.335 -0.8173  0.1474 -1.3201
 4284SOL    HW124311   3.410   1.908   4.267  2.7627 -1.0186 -0.2438
 4284SOL    HW224312   3.337   1.951   4.389  0.9445 -1.0312  0.5633
 4285SOL     OW24313   0.917   1.655   4.543  0.3064 -0.0443  0.2673
 4285SOL    HW124314   0.845   1.717   4.550  0.1731 -0.3370  1.3857
 4285SOL    HW224315   0.919   1.643   4.448  0.0275  0.9011  0.1425
 4286SOL     OW24316   1.785   4.126   2.923  0.2431 -0.4893 -0.4170
 4286SOL    HW124317   1.732   4.203   2.901  2.7235  0.9815 -1.3481
 4286SOL    HW224318   1.718   4.070   2.961 -0.1080 -0.7262 -1.3959
 4287SOL     OW24319   3.429   4.091   9.042  0.1966 -0.2919 -0.0898
 4287SOL    HW124320   3.424   4.103   8.947  0.6740  1.7460  0.1443
 4287SOL    HW224321   3.334   4.095   9.056  0.2090 -2.5998  0.7249
 4288SOL     OW24322   2.478   1.923   4.217  0.0799  0.7870  0.4089
 4288SOL    HW124323   2.520   1.876   4.145 -3.2813  0.3879 -1.3119
 4288SOL    HW224324   2.502   1.873   4.295  0.4713 -0.9052 -0.7881
 4289SOL     OW24325   3.807   4.457   7.530  0.3546 -0.5962 -0.3368
 4289SOL    HW124326   3.823   4.467   7.624 -0.7060  0.5013 -0.2808
 4289SOL    HW224327   3.717   4.489   7.531 -0.2384 -2.2573  0.3819
 4290SOL     OW24328   3.666   1.821   6.256 -0.0004  0.3545 -0.0154
 4290SOL    HW124329   3.681   1.914   6.237 -0.7357  0.4388 -0.2162
 4290SOL    HW224330   3.750   1.798   6.295 -0.6606 -0.6324  0.8187
 4291SOL     OW24331   1.905   4.229   4.000 -0.4495 -0.6246 -0.1485
 4291SOL    HW124332   1.983   4.275   4.029 -0.1154 -0.5213 -1.2431
 4291SOL    HW224333   1.939   4.208   3.913  1.0024  0.9566  0.0487
 4292SOL     OW24334   0.509   1.604   9.788 -0.1765 -0.3498 -0.2321
 4292SOL    HW124335   0.604   1.608   9.788 -0.2769  1.9750 -0.6618
 4292SOL    HW224336   0.477   1.691   9.814  0.1099  0.1967 -1.7612
 4293SOL     OW24337   3.688   3.631  11.099 -0.2317 -0.0308  0.3403
 4293SOL    HW124338   3.653   3.653  11.185  2.4751  3.5676  0.5487
 4293SOL    HW224339   3.762   3.691  11.089  2.0007 -2.7474  0.6860
 4294SOL     OW24340   1.519   2.229   2.503 -0.1950 -0.0197  0.0557
 4294SOL    HW124341   1.460   2.290   2.460 -0.1489  0.9575  1.3761
 4294SOL    HW224342   1.459   2.188   2.565  0.7902 -0.4770  0.7175
 4295SOL     OW24343   2.216   1.300   7.725  0.2772  0.1968  0.3642
 4295SOL    HW124344   2.148   1.247   7.684 -1.4135  1.8261  1.0585
 4295SOL    HW224345   2.293   1.282   7.672  0.8538  2.1707  0.5211
 4296SOL     OW24346   0.400   4.170   4.741 -0.7140 -0.1207  0.3908
 4296SOL    HW124347   0.482   4.218   4.754 -0.3791 -0.8064  0.8751
 4296SOL    HW224348   0.388   4.139   4.830 -0.2933 -0.4154  0.3489
 4297SOL     OW24349   4.702   3.784   6.409  0.0946  0.2499 -0.0243
 4297SOL    HW124350   4.675   3.693   6.425 -1.8537  0.8993  0.4363
 4297SOL    HW224351   4.712   3.778   6.314 -0.0148 -0.1106 -0.0134
 4298SOL     OW24352   1.276   3.939   6.441  0.1853 -0.8285 -0.2337
 4298SOL    HW124353   1.194   3.916   6.485  0.1129 -1.0538 -0.4882
 4298SOL    HW224354   1.274   3.878   6.367 -0.3347 -0.3578 -0.6093
 4299SOL     OW24355   3.044   3.919  16.295  0.1251 -0.2790  0.0792
 4299SOL    HW124356   3.035   3.826  16.274  2.1071  0.2171 -2.8731
 4299SOL    HW224357   2.982   3.954  16.231  0.5954  0.3003 -0.0643
 4300SOL     OW24358   3.167   4.599   0.803  0.0829 -0.1665 -1.1930
 4300SOL    HW124359   3.159   4.512   0.841 -2.5939  0.2622 -0.7518
 4300SOL    HW224360   3.098   4.610   0.738 -0.0010 -0.6855 -1.1923
 4301SOL     OW24361   3.222   4.499   6.487 -0.0180  0.1468 -0.2255
 4301SOL    HW124362   3.138   4.511   6.443 -0.0315 -0.4803 -0.3709
 4301SOL    HW224363   3.217   4.415   6.533  1.9161 -0.7293 -1.5932
 4302SOL     OW24364   3.510   2.432   6.361 -0.0216  1.0714  0.2111
 4302SOL    HW124365   3.490   2.505   6.419 -0.9675 -0.3819  1.7416
 4302SOL    HW224366   3.603   2.442   6.342 -0.4146  0.1222 -2.2264
 4303SOL     OW24367   1.962   1.494   7.779  0.3344  0.2079 -0.0252
 4303SOL    HW124368   1.926   1.435   7.713  0.1102 -0.1447  0.4077
 4303SOL    HW224369   1.888   1.545   7.812 -1.8138 -2.8448 -0.1361
 4304SOL     OW24370   0.233   2.007  14.911 -0.7003 -0.3166  0.3937
 4304SOL    HW124371   0.258   2.096  14.936  0.4868 -0.2345 -1.0526
 4304SOL    HW224372   0.166   1.986  14.976 -1.1112  2.5099  0.9015
 4305SOL     OW24373   1.571   4.214   2.500  0.4231  0.3295  0.3373
 4305SOL    HW124374   1.665   4.229   2.491  0.4475  0.7789  1.3364
 4305SOL    HW224375   1.537   4.303   2.514 -1.0172  0.3678 -3.3577
 4306SOL     OW24376   2.463   2.595  13.550 -0.4488 -0.0183  0.0328
 4306SOL    HW124377   2.478   2.668  13.610  0.5012  0.3316 -0.6196
 4306SOL    HW224378   2.550   2.554  13.558 -0.2651  0.3742  0.0491
 4307SOL     OW24379   1.273   3.483  13.743  0.1515  0.3028  0.0080
 4307SOL    HW124380   1.284   3.578  13.737 -0.6725  0.4065  0.2713
 4307SOL    HW224381   1.322   3.460  13.663 -0.3913  2.6546 -1.0099
 4308SOL     OW24382   0.785   3.836  10.126 -0.2251 -0.4748 -0.2316
 4308SOL    HW124383   0.847   3.819  10.055  0.4268  1.2966 -0.0791
 4308SOL    HW224384   0.825   3.787  10.198 -0.0595 -2.0489 -1.3696
 4309SOL     OW24385   3.487   0.127   8.357  0.1131  0.3012  0.0136
 4309SOL    HW124386   3.545   0.195   8.392  1.7004  0.0958 -2.2874
 4309SOL    HW224387   3.526   0.127   8.270  0.2427 -0.7863  0.0729
 4310SOL     OW24388   3.354   0.846   5.835 -0.1133 -0.1100 -0.4011
 4310SOL    HW124389   3.344   0.909   5.763  3.0685  1.1929  0.3224
 4310SOL    HW224390   3.313   0.773   5.789 -0.8852  1.8611 -2.8054
 4311SOL     OW24391   2.504   3.126  11.798  0.4170  0.1737 -0.1597
 4311SOL    HW124392   2.505   3.126  11.702  2.0085  1.7138 -0.1298
 4311SOL    HW224393   2.596   3.124  11.824 -0.1575  0.3575  1.9209
 4312SOL     OW24394   0.088   4.063   4.138  0.0403 -0.6983  0.0750
 4312SOL    HW124395   0.007   4.014   4.126  1.3040 -2.5922 -0.7445
 4312SOL    HW224396   0.109   4.086   4.047  2.0000 -0.0529  0.6869
 4313SOL     OW24397   0.353   1.162   9.343 -0.3499  0.0847  0.4294
 4313SOL    HW124398   0.336   1.222   9.270 -2.7049  0.0319  0.9078
 4313SOL    HW224399   0.340   1.079   9.298 -0.8647  0.4258 -0.0579
 4314SOL     OW24400   1.213   1.641   6.182 -0.0997  0.2387  0.7474
 4314SOL    HW124401   1.243   1.567   6.129 -2.8879 -2.0957  2.4305
 4314SOL    HW224402   1.282   1.703   6.155  0.9011 -0.3076  2.0876
 4315SOL     OW24403   4.023   1.835  11.261 -0.0853  0.2740  0.0516
 4315SOL    HW124404   4.108   1.813  11.300 -0.8356 -1.6140  0.6135
 4315SOL    HW224405   3.996   1.744  11.247  0.0726  0.0423  1.2402
 4316SOL     OW24406   2.989   2.705   8.554 -0.0589 -0.2822  0.0094
 4316SOL    HW124407   2.941   2.774   8.509 -0.8510 -0.7939  0.0751
 4316SOL    HW224408   2.930   2.632   8.574 -0.7500  0.3812  0.3681
 4317SOL     OW24409   3.204   3.046   6.360 -0.0907 -0.0224  0.1058
 4317SOL    HW124410   3.138   2.990   6.401 -0.1418  0.8735  1.2359
 4317SOL    HW224411   3.287   3.011   6.394 -0.1155  0.1933  0.3883
 4318SOL     OW24412   4.454   0.533   8.135 -0.5473 -0.3968 -0.3301
 4318SOL    HW124413   4.502   0.594   8.190  2.4377 -2.9733 -0.0703
 4318SOL    HW224414   4.427   0.463   8.195 -0.4715  1.1994  1.5386
 4319SOL     OW24415   4.226   0.794   0.686  0.1668 -0.1497  0.0711
 4319SOL    HW124416   4.182   0.719   0.645  0.0205  0.6038 -1.1679
 4319SOL    HW224417   4.250   0.755   0.770  1.3681  0.5589  0.0682
 4320SOL     OW24418   1.567   2.579   7.276  0.5158 -0.2047 -0.6335
 4320SOL    HW124419   1.641   2.544   7.324  1.4300  0.2452 -1.7170
 4320SOL    HW224420   1.606   2.659   7.241  1.0791 -0.9481 -1.7132
 4321SOL     OW24421   2.846   3.082   7.269  0.2446 -0.0647  0.3671
 4321SOL    HW124422   2.912   3.097   7.200 -1.4184 -0.5673 -1.3367
 4321SOL    HW224423   2.786   3.155   7.257  0.8002  0.5310  1.2238
 4322SOL     OW24424   1.241   0.567   6.498  0.1554 -0.2636  0.0541
 4322SOL    HW124425   1.267   0.489   6.448  0.1850 -1.5750  2.1008
 4322SOL    HW224426   1.320   0.588   6.549  0.6444  0.5446 -1.0354
 4323SOL     OW24427   3.976   1.733  14.293  0.2307  0.3679  0.5207
 4323SOL    HW124428   3.980   1.715  14.199 -0.2996  0.7064  0.4315
 4323SOL    HW224429   3.883   1.714  14.305  0.5373 -1.0251  0.6870
 4324SOL     OW24430   3.117   0.657   1.553 -0.0028  0.5226 -0.0151
 4324SOL    HW124431   3.107   0.720   1.482  1.1077  0.1084 -0.5476
 4324SOL    HW224432   3.090   0.713   1.626 -0.3437  0.2031  0.1040
 4325SOL     OW24433   4.291   4.205   8.494  0.6134  0.1088 -0.0263
 4325SOL    HW124434   4.311   4.112   8.481  3.7306  0.8882 -0.7367
 4325SOL    HW224435   4.223   4.199   8.561  1.2003 -0.0932  0.5485
 4326SOL     OW24436   3.588   3.563  14.502  0.3387 -0.7042  0.9039
 4326SOL    HW124437   3.520   3.578  14.436  2.7677  0.6238 -1.3363
 4326SOL    HW224438   3.614   3.472  14.483  1.5099  0.0146 -1.0241
 4327SOL     OW24439   1.484   1.640   5.136  0.0829 -0.0600  0.4737
 4327SOL    HW124440   1.569   1.628   5.092 -0.0021 -1.0196  0.5542
 4327SOL    HW224441   1.488   1.711   5.200 -0.4982  0.1817  0.2366
 4328SOL     OW24442   4.199   3.150   9.016 -0.0741 -0.0921  0.8136
 4328SOL    HW124443   4.245   3.183   9.093 -2.1673  1.3852  1.4331
 4328SOL    HW224444   4.185   3.060   9.047  2.0090 -1.5996 -2.6435
 4329SOL     OW24445   1.819   4.022   1.659 -0.4856  0.0256  0.1874
 4329SOL    HW124446   1.730   3.998   1.632  0.6873 -3.1693 -0.9000
 4329SOL    HW224447   1.844   4.100   1.610  1.0306  0.2758  1.3560
 4330SOL     OW24448   2.602   1.832   8.145  0.0380 -0.6266  0.4706
 4330SOL    HW124449   2.603   1.737   8.143 -0.5665 -0.6213 -0.0544
 4330SOL    HW224450   2.618   1.855   8.237  0.6072  0.1280  0.1811
 4331SOL     OW24451   1.128   0.445   4.074 -0.1504 -0.4866  0.0554
 4331SOL    HW124452   1.106   0.466   4.165 -0.4791  0.5351 -0.2660
 4331SOL    HW224453   1.074   0.510   4.030  0.7242 -1.1109 -1.9153
 4332SOL     OW24454   3.841   0.826   9.788  0.2211 -0.3143  0.2675
 4332SOL    HW124455   3.886   0.911   9.794 -0.7988  0.5789 -5.6028
 4332SOL    HW224456   3.910   0.770   9.751  0.1647 -0.2955  0.1365
 4333SOL     OW24457   0.605   0.654   1.921 -0.0494 -0.0873 -0.4886
 4333SOL    HW124458   0.549   0.577   1.919 -0.3873  0.1836 -1.9160
 4333SOL    HW224459   0.646   0.632   1.837 -3.8107 -0.7246 -2.1618
 4334SOL     OW24460   4.049   2.527   8.479 -0.3250  0.4524 -0.2696
 4334SOL    HW124461   4.063   2.615   8.442  0.8591 -0.2858 -1.5757
 4334SOL    HW224462   3.954   2.517   8.490 -0.6278  2.0800 -1.3101
 4335SOL     OW24463   0.362   2.862   8.645 -0.0396  0.3763 -0.3703
 4335SOL    HW124464   0.378   2.957   8.641 -1.1218  0.6606  2.0115
 4335SOL    HW224465   0.370   2.861   8.741  0.8352  1.4014 -0.4250
 4336SOL     OW24466   2.215   4.263   8.752  0.4959  0.5496 -0.2221
 4336SOL    HW124467   2.286   4.285   8.692 -0.3629 -0.7379 -1.7041
 4336SOL    HW224468   2.261   4.203   8.812  1.5103  0.6414 -0.9124
 4337SOL     OW24469   1.105   1.723   7.946 -0.0552 -0.2926  0.5043
 4337SOL    HW124470   1.045   1.650   7.964 -0.4164 -0.2337 -0.4930
 4337SOL    HW224471   1.124   1.715   7.853 -2.4804  0.8382 -0.0679
 4338SOL     OW24472   3.334   0.569   7.231 -0.5416 -0.8898 -0.0169
 4338SOL    HW124473   3.254   0.594   7.185 -1.4525 -3.4181  0.1850
 4338SOL    HW224474   3.381   0.505   7.177  1.5437  1.4617 -0.9685
 4339SOL     OW24475   0.196   3.757   4.707  0.3106  0.3837 -0.0876
 4339SOL    HW124476   0.174   3.736   4.616 -0.3022 -0.5904  0.2850
 4339SOL    HW224477   0.268   3.820   4.707 -2.4943  3.5754  0.0431
 4340SOL     OW24478   0.124   3.047  17.517 -0.1584 -0.6645 -0.2755
 4340SOL    HW124479   0.197   3.052  17.455 -0.3973 -1.4112 -0.6134
 4340SOL    HW224480   0.105   3.138  17.537  3.2169 -0.3793  1.7236
 4341SOL     OW24481   4.689   4.490  10.612  0.1943  0.4052 -0.1418
 4341SOL    HW124482   4.651   4.495  10.700 -0.3982 -0.9962 -0.3182
 4341SOL    HW224483   0.052   4.451  10.631 -0.2155 -0.1271  0.5951
 4342SOL     OW24484   4.210   3.046   5.225 -0.8685 -0.6761  0.3601
 4342SOL    HW124485   4.171   3.012   5.144 -4.5371  0.8766  1.4818
 4342SOL    HW224486   4.232   2.967   5.275  0.8039 -1.0690 -0.9696
 4343SOL     OW24487   2.738   1.518   4.156  0.1197 -0.6710 -0.6066
 4343SOL    HW124488   2.690   1.575   4.216  1.7732 -0.6005  0.6367
 4343SOL    HW224489   2.816   1.511   4.211 -1.1426  0.0370  1.2732
 4344SOL     OW24490   3.335   3.410   5.105  0.2388 -0.0896 -0.0897
 4344SOL    HW124491   3.407   3.436   5.047  1.7074 -2.5191  0.6598
 4344SOL    HW224492   3.369   3.433   5.191 -0.9668  0.5214  0.2081
 4345SOL     OW24493   0.203   3.237  17.124  0.1027  0.0243  0.4341
 4345SOL    HW124494   0.218   3.301  17.193  1.1412  3.3600 -2.8223
 4345SOL    HW224495   0.123   3.198  17.157  0.3271 -0.8785 -0.0909
 4346SOL     OW24496   0.756   1.643   7.197 -0.4379  0.3510  0.2976
 4346SOL    HW124497   0.739   1.560   7.152 -2.4557  2.1149 -2.1176
 4346SOL    HW224498   0.697   1.702   7.151 -0.8194  0.4626  0.9350
 4347SOL     OW24499   1.354   2.539  11.157  0.3313  0.0850  0.2786
 4347SOL    HW124500   1.415   2.485  11.107 -1.4142 -1.6426  0.0087
 4347SOL    HW224501   1.310   2.595  11.092  3.0159 -0.0204 -1.6494
 4348SOL     OW24502   4.177   3.150  15.023  0.2284  0.4161 -0.6037
 4348SOL    HW124503   4.121   3.203  15.080  2.4522  1.9390  0.1816
 4348SOL    HW224504   4.108   3.088  15.001  1.9724 -1.9226  0.4879
 4349SOL     OW24505   2.334   2.124   3.835  0.4068  0.3615  0.2701
 4349SOL    HW124506   2.295   2.188   3.775 -1.0146 -0.4398  0.3626
 4349SOL    HW224507   2.333   2.041   3.788  0.5323  0.5789 -0.1169
 4350SOL     OW24508   4.573   3.267   0.781  0.0242 -1.0774 -0.1489
 4350SOL    HW124509   4.513   3.338   0.804 -0.3567 -1.5408  0.2937
 4350SOL    HW224510   4.627   3.307   0.713  0.6864 -0.5081  0.7029
 4351SOL     OW24511   1.541   4.365   7.958 -0.1588 -0.1172  0.0565
 4351SOL    HW124512   1.591   4.446   7.952  0.7768 -0.8071 -1.2757
 4351SOL    HW224513   1.610   4.299   7.968 -1.4436 -1.3786  0.6852
 4352SOL     OW24514   4.651   0.053   3.789 -0.0895 -0.8389  0.1809
 4352SOL    HW124515   4.717   4.716   3.826 -0.5906 -1.9544 -0.7104
 4352SOL    HW224516   4.698   0.090   3.715 -0.6814  0.7617  0.5975
 4353SOL     OW24517   0.321   4.254   2.282  0.2341 -0.3781 -0.1802
 4353SOL    HW124518   0.369   4.324   2.326  3.6748 -1.8346 -1.6645
 4353SOL    HW224519   0.396   4.219   2.235 -1.5009 -0.9926 -2.4972
 4354SOL     OW24520   2.905   3.428   7.183  0.4180 -0.5213 -0.1958
 4354SOL    HW124521   2.899   3.509   7.233  0.7006 -1.0540  0.6915
 4354SOL    HW224522   2.816   3.427   7.149 -0.4999 -0.4051  2.1981
 4355SOL     OW24523   0.735   2.530   6.805 -0.5554  0.3330  0.3478
 4355SOL    HW124524   0.689   2.474   6.743  1.7438  0.7835 -1.7871
 4355SOL    HW224525   0.783   2.473   6.865  0.8912 -0.6007 -1.7095
 4356SOL     OW24526   3.613   2.807  13.649  0.5154 -0.2760 -0.1343
 4356SOL    HW124527   3.541   2.751  13.677  1.0580  0.3229  2.4968
 4356SOL    HW224528   3.576   2.889  13.684  2.4510 -0.1179  1.5565
 4357SOL     OW24529   4.638   3.343   4.020 -0.8401  0.3915  0.3171
 4357SOL    HW124530   4.628   3.430   4.059  0.9408 -0.2969  2.3469
 4357SOL    HW224531   4.565   3.286   4.042 -1.8669  0.9810 -1.5876
 4358SOL     OW24532   2.822   1.267   1.580  0.4847  0.1189 -0.7282
 4358SOL    HW124533   2.868   1.316   1.511  0.6293  0.7307 -0.2007
 4358SOL    HW224534   2.741   1.250   1.532  0.3277  2.6133 -1.3412
 4359SOL     OW24535   2.385   1.584   5.500  0.0997  0.6299 -0.0422
 4359SOL    HW124536   2.478   1.563   5.498 -0.4067 -1.6900  0.9605
 4359SOL    HW224537   2.382   1.609   5.593  1.6220  0.4423  0.0565
 4360SOL     OW24538   0.219   0.250   0.652 -0.2191  0.2565  0.2619
 4360SOL    HW124539   0.298   0.198   0.642 -0.4271 -0.1050  0.5161
 4360SOL    HW224540   0.219   0.264   0.747 -1.8272  2.7723 -0.0868
 4361SOL     OW24541   4.068   3.122   8.473 -0.0716 -1.0898 -0.4967
 4361SOL    HW124542   4.056   3.184   8.545 -0.3853 -1.1282 -0.5153
 4361SOL    HW224543   4.001   3.057   8.494  1.6258 -2.1590  1.5902
 4362SOL     OW24544   0.937   1.820  14.649 -0.5955 -0.0127  0.3118
 4362SOL    HW124545   0.928   1.742  14.595  0.0378 -0.8949  1.4823
 4362SOL    HW224546   0.960   1.891  14.589  1.2648 -0.2885  0.7064
 4363SOL     OW24547   0.857   3.600  15.099 -0.1397 -0.7367 -0.3935
 4363SOL    HW124548   0.857   3.655  15.021 -0.2202 -2.1012 -1.3599
 4363SOL    HW224549   0.935   3.547  15.080 -0.6430 -1.3940 -0.6277
 4364SOL     OW24550   3.182   3.560   2.315 -0.1941  0.1445 -0.4205
 4364SOL    HW124551   3.166   3.527   2.226  1.4706 -0.2584 -0.5846
 4364SOL    HW224552   3.207   3.476   2.355  2.3863  1.0157 -0.1945
 4365SOL     OW24553   4.572   3.764  17.411 -0.0940  0.0497  0.5301
 4365SOL    HW124554   4.574   3.848  17.457 -3.5617 -0.4193  1.5216
 4365SOL    HW224555   4.498   3.712  17.441  0.8179 -1.8153 -0.4485
 4366SOL     OW24556   3.824   1.123   6.145  0.0920 -0.0541  0.0098
 4366SOL    HW124557   3.742   1.102   6.191  0.4517  1.7248  1.4302
 4366SOL    HW224558   3.801   1.206   6.103  1.0077  0.8848  1.3756
 4367SOL     OW24559   3.973   1.230   5.592  0.6579 -0.4457 -0.5085
 4367SOL    HW124560   3.963   1.135   5.585 -0.4386 -0.3794  0.0796
 4367SOL    HW224561   4.041   1.236   5.526  1.5414  0.1992  0.4582
 4368SOL     OW24562   3.499   4.011   8.293  0.0166  0.4706 -0.4609
 4368SOL    HW124563   3.551   4.078   8.338 -0.5168 -0.3120  1.3084
 4368SOL    HW224564   3.465   3.964   8.369  1.1260 -2.7529 -1.9809
 4369SOL     OW24565   4.141   1.010  10.637 -0.4645 -0.4686  0.0134
 4369SOL    HW124566   4.087   1.089  10.626  0.3904  0.0658 -0.3382
 4369SOL    HW224567   4.208   1.034  10.573  0.3588 -0.7326  0.7789
 4370SOL     OW24568   2.520   3.105   6.130 -0.3624  0.8987  0.1040
 4370SOL    HW124569   2.601   3.075   6.090  0.0113  1.9909  0.0466
 4370SOL    HW224570   2.558   3.186   6.165  0.1821  0.5444  0.3125
 4371SOL     OW24571   3.908   2.458   4.179  0.2621  0.1350 -0.1426
 4371SOL    HW124572   3.913   2.415   4.264 -1.0614  2.2567  0.9866
 4371SOL    HW224573   3.852   2.395   4.132  1.3771  0.0068 -1.3199
 4372SOL     OW24574   2.227   1.606   2.350 -0.3030 -0.2533  0.4185
 4372SOL    HW124575   2.274   1.675   2.398  0.2922  1.7579 -3.0363
 4372SOL    HW224576   2.307   1.560   2.325  1.2997  3.1882 -0.8162
 4373SOL     OW24577   2.936   0.504   2.105 -0.7383 -0.1298  0.7606
 4373SOL    HW124578   2.898   0.427   2.063  1.5351 -1.0690  0.4307
 4373SOL    HW224579   2.925   0.497   2.200 -1.4323 -0.3073  0.6671
 4374SOL     OW24580   1.956   2.765  13.497 -0.3141 -0.3068  0.2339
 4374SOL    HW124581   2.044   2.747  13.462  0.0484  0.4896  0.7444
 4374SOL    HW224582   1.962   2.709  13.574 -0.0965 -1.1799 -0.4170
 4375SOL     OW24583   0.979   3.346  13.704 -0.6859 -0.5990 -0.0345
 4375SOL    HW124584   1.031   3.271  13.674  1.3945  0.1741  1.6080
 4375SOL    HW224585   0.927   3.344  13.624  0.5642 -0.0342 -0.8641
 4376SOL     OW24586   3.785   4.604   7.224 -0.4346  0.4037  0.4572
 4376SOL    HW124587   3.827   4.646   7.150 -0.2839  1.3138  1.0553
 4376SOL    HW224588   3.858   4.559   7.267  1.0950  1.1534 -1.3326
 4377SOL     OW24589   1.114   2.591   7.953  0.0937  0.2041  0.7439
 4377SOL    HW124590   1.085   2.671   7.911  0.7747 -0.0469 -0.2034
 4377SOL    HW224591   1.173   2.631   8.017 -0.6169  2.3095  0.0673
 4378SOL     OW24592   0.514   2.864  17.080  0.0452 -0.2865 -0.2638
 4378SOL    HW124593   0.556   2.909  17.152 -0.1255  0.3943 -0.5939
 4378SOL    HW224594   0.534   2.782  17.126  1.8481 -0.5254 -1.4555
 4379SOL     OW24595   0.412   1.020   0.488  0.2962 -0.5611 -0.1988
 4379SOL    HW124596   0.413   1.041   0.395 -0.4769 -1.7487 -0.4712
 4379SOL    HW224597   0.472   0.946   0.489  0.2132 -0.6237  0.2983
 4380SOL     OW24598   1.713   3.223   9.172 -0.4697 -0.5681 -0.2701
 4380SOL    HW124599   1.741   3.227   9.264  0.1458 -0.8764 -0.4484
 4380SOL    HW224600   1.710   3.315   9.146 -1.2716 -0.7932 -0.9696
 4381SOL     OW24601   0.186   4.452   1.409 -0.1539  0.0836 -0.7052
 4381SOL    HW124602   0.194   4.372   1.357 -1.1025 -0.0162 -0.6967
 4381SOL    HW224603   0.271   4.454   1.453 -0.9241  0.0441  0.7591
 4382SOL     OW24604   3.737   1.708   3.726 -0.1148  0.2576 -0.6184
 4382SOL    HW124605   3.723   1.679   3.636  2.2968 -0.2739 -0.8143
 4382SOL    HW224606   3.789   1.787   3.710 -0.8341  1.2831  2.0308
 4383SOL     OW24607   1.569   0.306  15.561  0.7357  0.2116 -0.7111
 4383SOL    HW124608   1.492   0.299  15.618  0.9358 -0.8381 -0.5754
 4383SOL    HW224609   1.523   0.282  15.480  1.0169 -3.8641  0.3069
 4384SOL     OW24610   2.296   4.218   1.914 -0.4151  0.2271 -0.1933
 4384SOL    HW124611   2.218   4.163   1.914 -2.8446  3.6386 -0.9424
 4384SOL    HW224612   2.295   4.237   1.820  3.0476  1.2452  0.0024
 4385SOL     OW24613   1.364   3.211   4.911  0.6347  0.1009 -0.5402
 4385SOL    HW124614   1.405   3.281   4.962 -0.2887 -1.3729  2.2064
 4385SOL    HW224615   1.435   3.148   4.924  0.5058  0.0827  0.1081
 4386SOL     OW24616   1.523   0.178  12.739  0.1045  0.0393  0.2731
 4386SOL    HW124617   1.572   0.212  12.814 -1.1721  1.7102  0.3387
 4386SOL    HW224618   1.444   0.163  12.790  0.5977 -2.2316  0.3951
 4387SOL     OW24619   1.534   1.774   2.370  0.1251 -0.6441 -0.2508
 4387SOL    HW124620   1.464   1.818   2.321 -0.1683 -1.8087 -0.8711
 4387SOL    HW224621   1.488   1.694   2.397  0.2801 -0.3790  0.7713
 4388SOL     OW24622   1.360   1.060   4.235  1.0384 -0.2361  0.6399
 4388SOL    HW124623   1.307   0.982   4.252  0.1241  0.4194  0.7787
 4388SOL    HW224624   1.410   1.082   4.313  1.2920 -1.4663  0.8229
 4389SOL     OW24625   0.634   3.746   1.833  0.1156  0.6233 -0.0178
 4389SOL    HW124626   0.716   3.762   1.880  1.4243 -2.7862 -1.1692
 4389SOL    HW224627   0.649   3.791   1.749  1.9920  0.2209  0.1008
 4390SOL     OW24628   1.211   0.416  11.636 -0.7739  0.0214  0.7778
 4390SOL    HW124629   1.304   0.437  11.644 -0.3652 -1.5848  0.2201
 4390SOL    HW224630   1.193   0.441  11.546 -1.3162  1.3479  1.2482
 4391SOL     OW24631   0.377   4.074  15.862 -0.7870 -0.3221  0.1353
 4391SOL    HW124632   0.462   4.067  15.907  0.1849  1.3205 -1.4632
 4391SOL    HW224633   0.389   4.164  15.833  1.5324 -0.6738 -0.0149
 4392SOL     OW24634   0.151   1.827   1.928  0.6898 -0.0407 -0.5213
 4392SOL    HW124635   0.120   1.873   2.006  0.4426  0.0898 -0.6964
 4392SOL    HW224636   0.077   1.770   1.908  0.5311  0.1204 -0.3992
 4393SOL     OW24637   1.215   2.936   5.605 -0.2631  0.0204 -0.0896
 4393SOL    HW124638   1.272   2.955   5.680 -0.5697  0.0002  0.1487
 4393SOL    HW224639   1.267   2.956   5.527 -1.7403  0.8931 -0.8396
 4394SOL     OW24640   0.618   1.576  11.525  0.0272  0.1261  0.5707
 4394SOL    HW124641   0.628   1.515  11.599  0.3125  1.2226  1.4467
 4394SOL    HW224642   0.568   1.519  11.467 -0.6418  1.2206  0.0746
 4395SOL     OW24643   1.978   3.647   4.150  0.4115  0.5076 -0.1308
 4395SOL    HW124644   2.042   3.690   4.208  0.1086  0.4434  0.2491
 4395SOL    HW224645   2.040   3.612   4.086  0.0058 -1.6618  0.6710
 4396SOL     OW24646   2.937   4.130   7.681  0.6267  0.3482  0.0634
 4396SOL    HW124647   2.953   4.045   7.721  0.7533  0.0559 -0.6027
 4396SOL    HW224648   2.972   4.111   7.594 -0.0447  1.6343 -0.4856
 4397SOL     OW24649   0.012   1.873   4.462  0.2760  0.0656 -0.5423
 4397SOL    HW124650   0.008   1.859   4.557 -0.2744 -2.4206 -0.9122
 4397SOL    HW224651   4.645   1.845   4.442 -0.5502  0.8299  2.0731
 4398SOL     OW24652   1.782   0.725   8.509 -0.3635 -0.0133 -1.0059
 4398SOL    HW124653   1.861   0.754   8.463 -1.4827  0.3574 -2.6646
 4398SOL    HW224654   1.765   0.632   8.494 -2.0342  0.3348 -1.2180
 4399SOL     OW24655   1.427   3.564   9.090 -0.2805  0.4388  0.3025
 4399SOL    HW124656   1.416   3.469   9.094  1.6958  0.0920 -2.7441
 4399SOL    HW224657   1.368   3.589   9.018  0.2273 -1.2812 -0.7114
 4400SOL     OW24658   2.028   4.062   4.640 -0.3948  0.3830  0.2784
 4400SOL    HW124659   2.102   4.087   4.585 -2.4243  3.8543 -0.9121
 4400SOL    HW224660   2.064   4.070   4.728 -0.0505  2.2560 -0.0250
 4401SOL     OW24661   1.032   1.122  14.880  0.5058  0.0854  0.7388
 4401SOL    HW124662   1.103   1.116  14.816  0.6956  0.5174  0.9060
 4401SOL    HW224663   1.045   1.208  14.920  2.8284 -0.7245  1.7037
 4402SOL     OW24664   0.631   1.179  11.363 -0.3540 -0.6111  0.2722
 4402SOL    HW124665   0.545   1.139  11.351 -0.5807 -0.2840  0.7821
 4402SOL    HW224666   0.688   1.113  11.323  0.3305 -0.1131  0.4291
 4403SOL     OW24667   2.465   1.078   0.206  0.2097 -0.2278 -0.0681
 4403SOL    HW124668   2.471   1.127   0.124 -0.6293  1.1911  0.7082
 4403SOL    HW224669   2.555   1.048   0.215  0.5755  0.2362 -2.2335
 4404SOL     OW24670   2.649   2.709   6.307 -0.8694  0.0227 -0.3792
 4404SOL    HW124671   2.734   2.752   6.294 -1.0334  1.3212  2.8996
 4404SOL    HW224672   2.662   2.653   6.384  0.6431  3.9493  2.2013
 4405SOL     OW24673   0.057   0.714   4.563 -0.0617 -0.4613  0.0016
 4405SOL    HW124674   4.705   0.654   4.564 -0.4766  0.0851  1.6721
 4405SOL    HW224675   0.093   0.709   4.651 -2.3775 -2.1851  0.8552
 4406SOL     OW24676   3.352   0.204   5.800  0.0508 -0.4568 -0.2307
 4406SOL    HW124677   3.277   0.187   5.743 -0.0605 -1.2403  0.1446
 4406SOL    HW224678   3.389   0.278   5.752  1.2142 -0.4476  0.6838
 4407SOL     OW24679   3.904   4.469   9.044 -0.2466  0.7789 -0.4765
 4407SOL    HW124680   3.878   4.529   8.974 -0.5721  1.3879  0.1655
 4407SOL    HW224681   3.990   4.501   9.068  0.2000 -1.5099  1.0054
 4408SOL     OW24682   3.066   0.131   5.109 -0.4700 -0.0259  0.3288
 4408SOL    HW124683   3.006   0.082   5.165  0.3744 -0.8077  0.5549
 4408SOL    HW224684   3.041   0.086   5.029 -0.7524 -1.7802  1.4036
 4409SOL     OW24685   1.251   0.221   7.057  0.5919 -0.2243 -0.0511
 4409SOL    HW124686   1.298   0.150   7.012  2.2817  1.6831 -1.3195
 4409SOL    HW224687   1.216   0.168   7.129 -0.2273  0.8563  0.3362
 4410SOL     OW24688   0.777   2.722   2.519  0.3131  0.1509 -0.1577
 4410SOL    HW124689   0.702   2.680   2.478  0.3972  0.4134 -0.5785
 4410SOL    HW224690   0.741   2.798   2.564 -2.2537 -1.3700  0.3686
 4411SOL     OW24691   2.267   2.343   0.134  0.0828  0.1974  0.2495
 4411SOL    HW124692   2.317   2.266   0.109 -1.6907 -1.1553  0.9031
 4411SOL    HW224693   2.283   2.405   0.062  0.7643  1.0897  1.1646
 4412SOL     OW24694   1.728   4.560   7.961  0.3062  0.0030 -0.5292
 4412SOL    HW124695   1.785   4.560   7.885  0.5928  0.7820 -0.3152
 4412SOL    HW224696   1.695   4.650   7.954  3.9842  1.4885  1.3312
 4413SOL     OW24697   0.210   3.633  16.548  0.7391  0.4712 -0.3488
 4413SOL    HW124698   0.170   3.595  16.470  0.7466 -0.5602  0.1391
 4413SOL    HW224699   0.141   3.618  16.612 -0.4279 -1.3351 -2.0254
 4414SOL     OW24700   2.514   4.071  10.174 -0.0264 -0.3299  0.3572
 4414SOL    HW124701   2.517   4.157  10.216 -2.6283 -1.0872  2.1405
 4414SOL    HW224702   2.607   4.051  10.174 -0.1099 -0.7195  0.2429
 4415SOL     OW24703   0.383   0.936   3.661 -0.3091  0.3613  0.5166
 4415SOL    HW124704   0.360   0.981   3.579  3.0458  1.4726  0.1662
 4415SOL    HW224705   0.416   0.850   3.633 -0.7643  1.1516 -2.4598
 4416SOL     OW24706   4.175   2.697   8.991  0.0861 -0.7101  0.8579
 4416SOL    HW124707   4.151   2.611   8.956  0.8134 -0.1254 -1.0974
 4416SOL    HW224708   4.202   2.738   8.908  0.2042 -0.1164  1.1870
 4417SOL     OW24709   4.233   4.591   1.822 -0.4594 -0.3183  0.2399
 4417SOL    HW124710   4.155   4.635   1.855 -0.5308 -1.1115  1.1402
 4417SOL    HW224711   4.189   4.507   1.806 -0.8840  0.2761 -1.6432
 4418SOL     OW24712   1.062   1.229   9.771 -0.6319 -0.4083  0.5261
 4418SOL    HW124713   1.056   1.173   9.694 -0.3477 -0.5948  0.6379
 4418SOL    HW224714   1.134   1.182   9.814  0.6468  0.6195 -0.4840
 4419SOL     OW24715   4.280   3.181  15.386  0.2306  0.1087 -0.9959
 4419SOL    HW124716   4.304   3.162  15.476 -1.9033 -0.7479 -0.6170
 4419SOL    HW224717   4.361   3.223  15.357 -0.2944  0.7566 -1.5244
 4420SOL     OW24718   3.031   3.017  13.951  0.8536  0.1474 -0.1033
 4420SOL    HW124719   3.033   3.100  13.998 -1.5210  0.5376 -0.6913
 4420SOL    HW224720   3.010   3.045  13.862  1.3354  2.1877  0.4208
 4421SOL     OW24721   0.299   1.013   8.102 -1.2219  0.5227  0.0889
 4421SOL    HW124722   0.383   0.995   8.060 -1.5922 -1.4602  0.1884
 4421SOL    HW224723   0.279   1.102   8.073 -1.0124  0.3305 -0.6611
 4422SOL     OW24724   4.369   0.471  17.544  0.4339 -0.1749  0.0706
 4422SOL    HW124725   4.351   0.564  17.557 -1.2170 -0.2301 -1.8203
 4422SOL    HW224726   4.313   0.456  17.468  0.1979 -0.1981  0.2507
 4423SOL     OW24727   1.572   2.148   8.414  0.2398 -0.2574  0.6669
 4423SOL    HW124728   1.582   2.060   8.450  0.7020 -0.1517  0.7979
 4423SOL    HW224729   1.491   2.141   8.364  0.9555  2.5875 -0.8905
 4424SOL     OW24730   2.113   3.950   8.637 -0.0395 -0.2879 -0.5194
 4424SOL    HW124731   2.112   3.937   8.731 -1.2278  1.1937 -0.3323
 4424SOL    HW224732   2.169   3.877   8.609 -0.1532 -0.9262  0.9636
 4425SOL     OW24733   0.621   4.351   2.907 -0.2830 -0.5142 -0.2454
 4425SOL    HW124734   0.631   4.393   2.822 -0.8449  0.7024  0.2946
 4425SOL    HW224735   0.572   4.420   2.953  3.8312  1.5169  1.0821
 4426SOL     OW24736   1.032   2.281   8.142 -0.2857  0.3019 -0.4567
 4426SOL    HW124737   0.989   2.338   8.078  0.3681  2.0414  0.6486
 4426SOL    HW224738   0.966   2.212   8.141  0.8618 -0.7188 -3.9131
 4427SOL     OW24739   1.572   0.616   5.708  0.0753  0.0718 -1.0226
 4427SOL    HW124740   1.635   0.647   5.773 -0.1384 -2.1508  0.2445
 4427SOL    HW224741   1.623   0.558   5.652 -0.9351 -1.5700 -0.2455
 4428SOL     OW24742   3.029   3.014   8.565 -0.4384  0.4646  0.3960
 4428SOL    HW124743   3.121   2.987   8.568 -0.9713 -1.2745  0.8536
 4428SOL    HW224744   3.009   2.996   8.657 -2.0547 -0.8384 -0.2267
 4429SOL     OW24745   2.334   3.944   4.933  0.1237  0.5283 -0.1113
 4429SOL    HW124746   2.302   4.004   4.866  0.4341 -0.7397 -1.4012
 4429SOL    HW224747   2.254   3.938   4.985  0.9853 -1.7074  0.9758
 4430SOL     OW24748   0.491   4.122   1.734  0.2480  0.1948 -0.1788
 4430SOL    HW124749   0.551   4.184   1.774 -2.2240  1.7247  1.1498
 4430SOL    HW224750   0.542   4.058   1.684  1.0005  1.4074 -0.9487
 4431SOL     OW24751   0.283   3.964   8.033  0.1276 -0.1295 -0.0044
 4431SOL    HW124752   0.347   3.921   8.089  0.0544  1.5769  1.4130
 4431SOL    HW224753   0.329   4.031   7.983 -0.3331  0.5184  0.4320
 4432SOL     OW24754   1.145   0.191  17.101  0.0218  0.4210 -0.1584
 4432SOL    HW124755   1.190   0.275  17.100  0.4000  0.2126 -0.8541
 4432SOL    HW224756   1.063   0.213  17.057  0.2673  0.2279 -0.7196
 4433SOL     OW24757   1.321   0.302  15.702 -0.2245  0.0962  0.1171
 4433SOL    HW124758   1.227   0.319  15.712  0.0494  2.0111 -0.7666
 4433SOL    HW224759   1.350   0.289  15.793  0.8615  3.2813  0.2046
 4434SOL     OW24760   2.431   1.944  15.646 -0.4666  0.1763 -0.0633
 4434SOL    HW124761   2.516   1.958  15.689 -0.0481 -1.4328 -0.3598
 4434SOL    HW224762   2.461   1.926  15.557  0.8356  1.1547  0.1641
 4435SOL     OW24763   0.358   3.395   0.351 -0.4799 -0.7376 -0.5077
 4435SOL    HW124764   0.363   3.317   0.406 -1.0829 -0.0985  0.4445
 4435SOL    HW224765   0.269   3.391   0.314 -0.4430  1.4006 -0.8258
 4436SOL     OW24766   3.302   0.958  14.296  0.6200 -0.3641  0.2844
 4436SOL    HW124767   3.207   0.954  14.286  0.6768 -0.2310 -0.2874
 4436SOL    HW224768   3.324   0.875  14.337  0.0423 -0.1677  1.0027
 4437SOL     OW24769   2.007   0.017   0.945 -0.2506 -0.6188 -0.7473
 4437SOL    HW124770   1.968   0.034   0.859 -1.8313 -1.4787 -0.2009
 4437SOL    HW224771   2.099   4.719   0.926  0.1443  0.1906  0.3124
 4438SOL     OW24772   1.991   3.253   9.514  0.1215 -0.1318 -0.0635
 4438SOL    HW124773   1.896   3.253   9.526  0.0611  0.6738 -0.6093
 4438SOL    HW224774   1.995   3.258   9.419 -0.2430 -4.0962 -0.3245
 4439SOL     OW24775   2.905   4.448   3.319  0.0106  0.3759 -0.2131
 4439SOL    HW124776   2.891   4.372   3.376  1.1902 -0.9725 -1.6989
 4439SOL    HW224777   2.965   4.506   3.366  0.9732 -1.8692  1.3904
 4440SOL     OW24778   4.034   0.047   4.137 -0.7739  0.4027 -1.1034
 4440SOL    HW124779   3.982   0.002   4.203 -1.0772  0.9973 -0.9307
 4440SOL    HW224780   3.973   0.062   4.065 -1.0225  4.7826 -0.0065
 4441SOL     OW24781   0.950   2.834  17.555  0.6989  0.2597  0.4419
 4441SOL    HW124782   0.867   2.874  17.529  1.8167  1.7819 -0.7313
 4441SOL    HW224783   0.986   2.889  17.624 -0.5609  0.7233  0.7322
 4442SOL     OW24784   3.175   0.931   4.765  0.2986 -0.7223 -0.6074
 4442SOL    HW124785   3.155   0.921   4.672 -1.2815  0.4717 -0.3773
 4442SOL    HW224786   3.230   0.853   4.771  0.1497 -0.7802 -0.0221
 4443SOL     OW24787   0.381   1.747   5.948 -0.8453 -0.2719  0.2023
 4443SOL    HW124788   0.427   1.688   5.888  1.9312  1.3398  0.7635
 4443SOL    HW224789   0.393   1.697   6.029  0.2175 -0.8822 -0.3290
 4444SOL     OW24790   1.071   2.214   9.059 -0.2161  0.4898 -0.0498
 4444SOL    HW124791   1.061   2.141   8.998  0.4481  0.5405 -0.2168
 4444SOL    HW224792   0.981   2.246   9.054 -0.6732 -1.2044 -2.4760
 4445SOL     OW24793   2.195   1.598   7.692  0.0101  0.0397  0.3034
 4445SOL    HW124794   2.128   1.540   7.728  1.5768 -1.4725  0.7764
 4445SOL    HW224795   2.169   1.687   7.719  2.7724  0.5528  1.2392
 4446SOL     OW24796   0.547   2.741   4.489 -0.1047 -0.1249 -0.2952
 4446SOL    HW124797   0.557   2.834   4.474  1.0379  0.1690  2.2629
 4446SOL    HW224798   0.634   2.704   4.473  0.2616  0.0753  1.1606
 4447SOL     OW24799   3.125   4.556  17.008  0.3485  0.7669  0.1386
 4447SOL    HW124800   3.127   4.600  17.092 -1.4006  0.3315  0.4201
 4447SOL    HW224801   3.166   4.474  17.032 -1.2172  0.5121  1.9411
 4448SOL     OW24802   2.833   2.135   4.789  0.0559  0.1860 -0.1767
 4448SOL    HW124803   2.861   2.226   4.798 -0.5684  0.2636  1.0823
 4448SOL    HW224804   2.742   2.145   4.761  0.8651  1.0158 -2.4556
 4449SOL     OW24805   2.794   4.091   8.658 -0.5620 -0.0512  0.0748
 4449SOL    HW124806   2.811   4.110   8.750  1.9040  2.1774 -0.8577
 4449SOL    HW224807   2.793   3.995   8.668 -0.0546  0.2968  3.5494
 4450SOL     OW24808   3.007   4.518   7.624  0.2512  0.2038 -0.8267
 4450SOL    HW124809   2.998   4.550   7.713  0.8754 -0.7753 -0.4177
 4450SOL    HW224810   3.101   4.502   7.614  0.2112 -0.5241 -0.0039
 4451SOL     OW24811   1.875   0.678   7.587  0.2280  0.1741 -0.1295
 4451SOL    HW124812   1.888   0.679   7.492  1.5777 -2.0228  0.0437
 4451SOL    HW224813   1.791   0.637   7.606  1.9258 -2.8593  0.7852
 4452SOL     OW24814   3.349   4.298  17.662  0.2342  0.0819  0.1021
 4452SOL    HW124815   3.414   4.348   0.020  1.1796 -0.4349 -0.5933
 4452SOL    HW224816   3.271   4.352  17.660  1.2803  1.6062  0.6210
 4453SOL     OW24817   0.847   3.059   4.670 -0.3150  0.3833  0.1146
 4453SOL    HW124818   0.881   3.020   4.750 -3.7224 -1.1536  0.8014
 4453SOL    HW224819   0.761   3.085   4.701 -0.8132 -1.5315  0.3742
 4454SOL     OW24820   0.668   1.607   7.456  0.2378 -0.1265  0.1242
 4454SOL    HW124821   0.575   1.616   7.438 -0.1901 -2.5359  1.0884
 4454SOL    HW224822   0.709   1.627   7.372  0.2719 -0.4402  0.0654
 4455SOL     OW24823   0.758   2.037  12.436  0.3265  0.3291 -0.3515
 4455SOL    HW124824   0.743   2.091  12.513  0.4201  0.4158 -0.3941
 4455SOL    HW224825   0.669   2.013  12.410  0.4585  1.8373 -2.2297
 4456SOL     OW24826   4.142   3.928   6.413  0.4273  0.0501  0.0415
 4456SOL    HW124827   4.145   3.966   6.500  1.7300  0.1128 -0.0342
 4456SOL    HW224828   4.171   3.999   6.356  1.7266  0.3738  1.1109
 4457SOL     OW24829   1.138   3.836   6.864  0.3774 -0.3700 -0.0287
 4457SOL    HW124830   1.099   3.749   6.860  0.4885 -0.3702 -1.1997
 4457SOL    HW224831   1.221   3.821   6.910  0.9862 -0.9702 -1.3353
 4458SOL     OW24832   1.649   0.786  10.417 -0.3252 -0.0487  0.7915
 4458SOL    HW124833   1.704   0.810  10.492  0.1372  0.6720  0.2175
 4458SOL    HW224834   1.651   0.870  10.372  1.6887 -0.9141 -0.7566
 4459SOL     OW24835   3.480   3.949   6.445 -0.3775 -0.2492  0.0147
 4459SOL    HW124836   3.506   3.933   6.536 -3.1341  0.5011  0.9342
 4459SOL    HW224837   3.417   3.877   6.448  1.8121 -2.0769  2.2318
 4460SOL     OW24838   4.495   2.779   5.695 -0.6734  0.6544 -0.5770
 4460SOL    HW124839   4.406   2.759   5.724  0.3915  0.9803  2.9585
 4460SOL    HW224840   4.500   2.874   5.704 -1.3646  0.5950  0.5501
 4461SOL     OW24841   4.564   2.199   8.460  0.0343  0.3283 -0.0181
 4461SOL    HW124842   4.653   2.217   8.490  0.1296 -1.1946  0.5778
 4461SOL    HW224843   4.518   2.282   8.449  2.2180  1.3479 -1.6365
 4462SOL     OW24844   0.920   4.653   6.127 -0.2400  0.0886  0.1529
 4462SOL    HW124845   0.998   4.685   6.082 -1.6449  0.4017 -2.0907
 4462SOL    HW224846   0.958   4.616   6.206  0.0619 -0.4983 -0.2693
 4463SOL     OW24847   1.585   0.914   1.470  0.0679 -0.4281  0.0931
 4463SOL    HW124848   1.675   0.899   1.441 -0.1510 -3.5433  1.0583
 4463SOL    HW224849   1.525   0.915   1.396  0.1046 -2.4043  0.0485
 4464SOL     OW24850   1.135   2.871  14.915  0.7924 -0.5804  0.1068
 4464SOL    HW124851   1.075   2.823  14.973 -0.2541 -0.4202 -0.8634
 4464SOL    HW224852   1.157   2.946  14.970  1.4339 -0.4308 -0.3537
 4465SOL     OW24853   3.474   4.010   3.722 -0.1300  0.1680 -0.7373
 4465SOL    HW124854   3.398   4.059   3.752  0.9546  2.1049 -1.1250
 4465SOL    HW224855   3.451   3.922   3.752 -0.6483  0.6472  0.2808
 4466SOL     OW24856   0.076   1.988   6.029  0.3561 -0.0056 -0.4558
 4466SOL    HW124857   0.145   1.922   6.035  0.1341 -0.2916 -1.0674
 4466SOL    HW224858   0.122   2.072   6.026  2.4545 -1.1354 -0.5280
 4467SOL     OW24859   0.267   3.632   8.854  0.8424 -0.2546  0.7386
 4467SOL    HW124860   0.270   3.560   8.917  0.8748  0.3997  1.4817
 4467SOL    HW224861   0.359   3.657   8.843  0.9870 -1.7243 -1.5146
 4468SOL     OW24862   1.872   1.082   3.759 -0.2412  0.4802  0.2473
 4468SOL    HW124863   1.788   1.059   3.719  0.7803 -0.3809 -1.3844
 4468SOL    HW224864   1.846   1.149   3.822  1.4906  0.1164  1.3221
 4469SOL     OW24865   2.677   0.878   5.436  0.0792  0.1198 -0.1479
 4469SOL    HW124866   2.636   0.880   5.523  1.5432 -0.1355  0.5493
 4469SOL    HW224867   2.602   0.845   5.388  2.1615 -1.4558 -2.2885
 4470SOL     OW24868   4.052   4.116   7.182  0.1815  0.3834 -0.1331
 4470SOL    HW124869   4.067   4.199   7.135 -0.5326 -0.3396 -1.6536
 4470SOL    HW224870   4.014   4.166   7.254 -0.1364 -0.8234  0.5224
 4471SOL     OW24871   3.987   0.468   6.272  0.2006  0.2261  1.0269
 4471SOL    HW124872   3.937   0.475   6.353 -2.4634 -0.3708 -0.5372
 4471SOL    HW224873   4.070   0.437   6.307  0.6245 -0.4915 -0.6097
 4472SOL     OW24874   1.235   4.177   3.036  0.4448  0.2248  0.4704
 4472SOL    HW124875   1.292   4.182   2.959  0.4893 -2.4488  0.3413
 4472SOL    HW224876   1.264   4.255   3.083 -0.6062  0.1886  1.1692
 4473SOL     OW24877   3.967   0.610   0.692 -0.3929 -0.2460 -0.2435
 4473SOL    HW124878   3.983   0.685   0.749 -0.0443  1.0444 -2.0453
 4473SOL    HW224879   3.936   0.654   0.612  0.3988  1.6978  0.5172
 4474SOL     OW24880   1.692   2.634   3.815 -0.3415 -0.4303 -0.3272
 4474SOL    HW124881   1.631   2.648   3.743  2.1607  1.4423 -2.0821
 4474SOL    HW224882   1.697   2.543   3.785  1.2371 -0.7394  0.8611
 4475SOL     OW24883   3.376   3.099   6.773  0.2492 -0.2442  0.5199
 4475SOL    HW124884   3.452   3.156   6.758 -0.9032  0.9234 -0.8326
 4475SOL    HW224885   3.407   3.025   6.721  2.3067  0.4435  0.7647
 4476SOL     OW24886   1.183   0.020   2.752  0.3944 -0.3824 -0.1144
 4476SOL    HW124887   1.145   4.659   2.725  1.1923 -0.1715 -1.8073
 4476SOL    HW224888   1.250   0.028   2.685 -1.3075  0.4657 -1.6968
 4477SOL     OW24889   0.515   1.729   6.344  0.6046 -0.1928  0.5584
 4477SOL    HW124890   0.521   1.823   6.361 -1.2669 -0.1355  0.8747
 4477SOL    HW224891   0.423   1.727   6.318  0.7010 -0.6417  0.2629
 4478SOL     OW24892   1.336   3.753   2.196  0.1435  0.0169 -0.4909
 4478SOL    HW124893   1.277   3.767   2.122  2.5105  1.2758 -2.1106
 4478SOL    HW224894   1.420   3.777   2.158 -0.1084  0.0509 -1.0311
 4479SOL     OW24895   0.035   3.561   5.912 -0.5038 -0.6486  0.2302
 4479SOL    HW124896   4.687   3.504   5.879  0.4648 -1.2131 -0.8629
 4479SOL    HW224897   0.051   3.618   5.837 -1.3402  1.4889  1.6739
 4480SOL     OW24898   1.732   4.456   8.563 -0.4070 -0.2374  0.0973
 4480SOL    HW124899   1.683   4.436   8.482 -0.1063 -1.7008  0.2708
 4480SOL    HW224900   1.700   4.383   8.616 -1.2844 -0.4217 -0.6887
 4481SOL     OW24901   0.811   2.386   2.186  0.0056  0.1384 -0.2246
 4481SOL    HW124902   0.733   2.352   2.142  0.2200  0.6349 -0.9904
 4481SOL    HW224903   0.791   2.478   2.198 -1.5627 -0.2361  0.0729
 4482SOL     OW24904   2.714   0.321   5.869  0.0630 -0.2916 -0.1773
 4482SOL    HW124905   2.701   0.282   5.955  0.8266 -1.5273 -0.6306
 4482SOL    HW224906   2.805   0.346   5.882  0.1230  0.7574 -2.5912
 4483SOL     OW24907   3.237   1.079  17.309  0.5078  0.9041  0.5402
 4483SOL    HW124908   3.229   0.985  17.291 -0.3405  1.2063 -0.6606
 4483SOL    HW224909   3.286   1.081  17.391  1.1297 -0.0131  0.2001
 4484SOL     OW24910   0.985   3.629  13.775  0.1135  0.6222  0.1846
 4484SOL    HW124911   1.002   3.620  13.869  2.1337  0.2268 -0.2163
 4484SOL    HW224912   0.997   3.536  13.754 -0.1731  1.0881 -2.0136
 4485SOL     OW24913   3.112   3.153   9.511 -0.1475 -0.0620  0.2249
 4485SOL    HW124914   3.200   3.136   9.545  0.3311 -0.0281 -1.0293
 4485SOL    HW224915   3.124   3.185   9.422  0.9758 -2.3485 -0.4376
 4486SOL     OW24916   4.653   0.854  12.596 -0.2714 -0.6515 -0.6049
 4486SOL    HW124917   4.633   0.788  12.530  1.3466 -0.9602 -0.7920
 4486SOL    HW224918   4.693   0.922  12.541 -0.6239  0.2980  0.2985
 4487SOL     OW24919   4.570   4.573  12.998 -0.0051 -0.0699 -0.3567
 4487SOL    HW124920   4.542   4.488  12.964 -2.0143  0.7902 -0.8937
 4487SOL    HW224921   4.603   4.552  13.085 -2.5992 -0.0611  0.6438
 4488SOL     OW24922   4.203   3.752   1.844  0.1714 -0.6582 -0.0209
 4488SOL    HW124923   4.126   3.733   1.898  2.4052  1.5454  3.9809
 4488SOL    HW224924   4.161   3.797   1.771 -0.5483  0.8781  1.3389
 4489SOL     OW24925   3.126   2.613   9.360 -0.0565 -0.1525 -0.2108
 4489SOL    HW124926   3.219   2.589   9.357  0.0422  0.1164  0.7240
 4489SOL    HW224927   3.128   2.687   9.299 -2.9807 -0.5939 -0.8369
 4490SOL     OW24928   3.672   2.786   4.906 -0.2206  0.2666 -0.5933
 4490SOL    HW124929   3.723   2.724   4.854 -3.9291 -1.6436 -1.8825
 4490SOL    HW224930   3.586   2.746   4.894  0.3655 -0.9410 -0.8109
 4491SOL     OW24931   3.265   0.155   9.044  0.0390  0.4676 -0.1738
 4491SOL    HW124932   3.355   0.187   9.045 -0.1387  1.0337 -1.5706
 4491SOL    HW224933   3.210   0.231   9.025  0.0560  0.3755 -0.6123
 4492SOL     OW24934   0.572   3.727   1.209 -1.1178 -0.3222  0.4575
 4492SOL    HW124935   0.658   3.750   1.171 -1.7912  2.1311  0.3977
 4492SOL    HW224936   0.512   3.781   1.158  1.2288  3.0557  1.2748
 4493SOL     OW24937   0.885   1.506   4.777  0.3325  0.6629 -0.3220
 4493SOL    HW124938   0.908   1.547   4.694  0.2852  1.2806 -0.0305
 4493SOL    HW224939   0.929   1.421   4.777  1.9995  1.5171  1.2241
 4494SOL     OW24940   2.813   0.272   2.992  0.0715 -0.1863  0.2142
 4494SOL    HW124941   2.731   0.226   3.008 -0.8213  1.2769 -0.0965
 4494SOL    HW224942   2.802   0.300   2.901  0.0692 -0.8444  0.0141
 4495SOL     OW24943   1.036   4.469   8.153 -0.4937 -0.1111  0.4073
 4495SOL    HW124944   0.982   4.420   8.090 -0.1404  0.0619 -0.0313
 4495SOL    HW224945   1.124   4.446   8.124 -0.3078  0.6247  0.4037
 4496SOL     OW24946   3.436   3.353   6.521 -0.0975  0.4666  0.1628
 4496SOL    HW124947   3.512   3.306   6.556 -2.3575 -2.3430  1.3769
 4496SOL    HW224948   3.400   3.391   6.601  0.1651  0.3634  0.3296
 4497SOL     OW24949   4.117   3.184   6.644  0.3308 -0.1172 -0.1464
 4497SOL    HW124950   4.175   3.116   6.610  1.1373  0.6345 -0.2814
 4497SOL    HW224951   4.172   3.231   6.706 -2.7811 -1.2464  3.4524
 4498SOL     OW24952   2.148   1.773   8.254  0.3164  0.2607 -0.7446
 4498SOL    HW124953   2.073   1.714   8.250 -1.2362  2.0974  1.0869
 4498SOL    HW224954   2.218   1.724   8.297  0.6737  0.0749 -1.5456
 4499SOL     OW24955   0.290   2.197  13.213 -0.7747 -0.1990  0.6041
 4499SOL    HW124956   0.273   2.212  13.306  0.4743  1.8861  0.4895
 4499SOL    HW224957   0.340   2.276  13.196 -0.5721 -0.5430 -0.3708
 4500SOL     OW24958   4.238   1.557   6.945  0.0818 -0.1535  0.3044
 4500SOL    HW124959   4.238   1.643   6.902 -1.6300 -1.1892 -1.7743
 4500SOL    HW224960   4.330   1.549   6.968  0.4483  0.2270 -1.0417
 4501SOL     OW24961   0.359   2.216  14.124  0.4619 -0.1328 -0.0519
 4501SOL    HW124962   0.300   2.279  14.084  0.1368 -0.8163 -0.6479
 4501SOL    HW224963   0.423   2.202  14.055 -0.3762  1.1020 -1.0797
 4502SOL     OW24964   3.473   4.482  14.570  0.4651  0.5960  0.0114
 4502SOL    HW124965   3.563   4.505  14.590  2.4678 -5.7847 -1.6733
 4502SOL    HW224966   3.466   4.506  14.477 -1.5872  0.0202  0.0123
 4503SOL     OW24967   4.138   1.015   4.117  0.3334 -0.3858  0.4328
 4503SOL    HW124968   4.187   1.052   4.044 -0.2259 -0.4585  0.0147
 4503SOL    HW224969   4.070   0.962   4.074 -0.4594  2.4924 -1.8367
 4504SOL     OW24970   0.912   4.159   7.784 -0.6197  0.4378  0.0077
 4504SOL    HW124971   0.875   4.137   7.869 -0.2383  0.0943  0.0815
 4504SOL    HW224972   0.854   4.231   7.760  1.0866  2.4037  1.7950
 4505SOL     OW24973   1.199   0.293   2.741  0.4396  0.2831  0.9804
 4505SOL    HW124974   1.253   0.292   2.820 -1.2657  1.0414  2.1806
 4505SOL    HW224975   1.144   0.215   2.755 -2.2660  1.7910 -1.4062
 4506SOL     OW24976   4.252   2.050   7.572 -0.5124 -0.0455 -0.5903
 4506SOL    HW124977   4.201   1.980   7.613 -0.3060  0.5341  0.6538
 4506SOL    HW224978   4.279   2.004   7.493 -1.1599 -1.5856  0.0995
 4507SOL     OW24979   3.064   4.018   6.810 -0.2700  0.2624 -0.1529
 4507SOL    HW124980   3.094   4.107   6.790  1.8252  0.1950  2.7927
 4507SOL    HW224981   2.986   4.017   6.755 -0.0278  3.3085 -0.5270
 4508SOL     OW24982   1.941   3.389   5.494  0.0687 -0.0067  0.5379
 4508SOL    HW124983   1.929   3.393   5.589  1.6115  1.0853  0.6858
 4508SOL    HW224984   2.031   3.421   5.499 -0.6215  1.9500  0.6124
 4509SOL     OW24985   2.213   2.249   4.852 -0.6282 -0.6972  0.1533
 4509SOL    HW124986   2.144   2.183   4.867 -1.4162 -0.6185 -3.0821
 4509SOL    HW224987   2.163   2.304   4.792 -0.4017 -0.3828  0.2572
 4510SOL     OW24988   4.217   1.091   1.408  0.2604 -0.3322  0.1051
 4510SOL    HW124989   4.177   1.119   1.491 -1.0357 -1.4156 -0.1590
 4510SOL    HW224990   4.181   1.002   1.415 -1.3493  0.2805 -0.6224
 4511SOL     OW24991   1.511   3.139   3.584 -0.8126  0.1965  0.2251
 4511SOL    HW124992   1.544   3.220   3.545  1.1289 -1.5462 -1.7693
 4511SOL    HW224993   1.566   3.141   3.663 -0.9174  0.9182  0.2819
 4512SOL     OW24994   2.256   4.068  17.467  0.1774 -0.0149  0.3335
 4512SOL    HW124995   2.283   4.108  17.385  1.4385  0.2119  0.8539
 4512SOL    HW224996   2.329   4.006  17.474  0.3766  0.0546 -1.1300
 4513SOL     OW24997   3.880   4.216   5.539  0.3651 -0.2873 -0.1174
 4513SOL    HW124998   3.929   4.297   5.528  0.8322 -0.6362 -0.6026
 4513SOL    HW224999   3.795   4.251   5.511  0.4577 -0.7708 -1.0026
 4514SOL     OW25000   4.140   4.657   6.349 -0.0828  0.5169 -0.5740
 4514SOL    HW125001   4.175   0.024   6.349 -1.1199  0.9157 -0.8522
 4514SOL    HW225002   4.052   4.682   6.322 -0.3339 -1.3464 -1.4460
 4515SOL     OW25003   3.143   0.624   9.002  0.0131  0.0985  0.7230
 4515SOL    HW125004   3.168   0.689   9.068  4.8058 -0.7425 -0.2459
 4515SOL    HW225005   3.124   0.687   8.932  1.4478 -1.1206 -0.7270
 4516SOL     OW25006   3.305   3.267  10.167 -0.5661  0.5831 -0.5350
 4516SOL    HW125007   3.358   3.337  10.128 -0.5036  0.2614 -1.0291
 4516SOL    HW225008   3.327   3.205  10.098 -0.8340 -0.9513  0.7571
 4517SOL     OW25009   3.933   4.203   1.962  0.3073 -0.2877  0.1645
 4517SOL    HW125010   3.928   4.125   1.908  0.4315  0.4933 -0.9776
 4517SOL    HW225011   4.014   4.236   1.923 -0.4149 -0.7841 -1.7515
 4518SOL     OW25012   1.662   2.667   6.162  0.1364 -0.0762  0.1146
 4518SOL    HW125013   1.571   2.667   6.131  0.2903 -1.6169 -0.3183
 4518SOL    HW225014   1.654   2.595   6.225 -4.4512 -1.2614 -1.7916
 4519SOL     OW25015   0.689   3.433   0.417  0.0857 -0.0635  0.0126
 4519SOL    HW125016   0.699   3.378   0.340  0.2904 -1.7840  1.2612
 4519SOL    HW225017   0.649   3.515   0.388 -0.4238 -0.2130  0.2999
 4520SOL     OW25018   3.861   0.868   6.075 -0.5682  0.4141  0.6543
 4520SOL    HW125019   3.834   0.949   6.117 -0.3918  1.3717 -1.0910
 4520SOL    HW225020   3.774   0.847   6.042 -0.1580 -0.8617  0.3656
 4521SOL     OW25021   2.337   1.646   2.746  0.2824  0.1198 -0.0696
 4521SOL    HW125022   2.421   1.618   2.780  0.6259 -0.7825 -1.6747
 4521SOL    HW225023   2.373   1.678   2.664  0.2757  0.5159  0.0832
 4522SOL     OW25024   3.659   2.493  13.022  0.2783 -0.1884  0.0572
 4522SOL    HW125025   3.621   2.578  13.042  1.9117  1.0142 -1.9064
 4522SOL    HW225026   3.731   2.518  12.964  0.4483 -1.3520 -0.2380
 4523SOL     OW25027   3.454   0.783   8.339  0.0666  0.0540  0.6788
 4523SOL    HW125028   3.408   0.700   8.347 -0.6476  0.3446 -0.4059
 4523SOL    HW225029   3.467   0.812   8.430  1.2490  1.0043  0.2123
 4524SOL     OW25030   2.065   0.572   8.716  0.2336 -1.1719  0.2617
 4524SOL    HW125031   2.099   0.555   8.804  0.8093  0.2427  0.3130
 4524SOL    HW225032   1.972   0.562   8.734  0.1304  2.6359  1.9803
 4525SOL     OW25033   0.937   1.734   1.436 -0.7553 -0.1155 -0.1621
 4525SOL    HW125034   0.927   1.653   1.485 -1.2239 -0.2431 -0.4717
 4525SOL    HW225035   0.967   1.789   1.509  0.7234  0.4538 -1.1731
 4526SOL     OW25036   0.271   4.251   5.249 -0.4500  0.0996  0.0019
 4526SOL    HW125037   0.273   4.345   5.227 -1.5759 -0.1421 -1.1737
 4526SOL    HW225038   0.328   4.237   5.324 -2.2705 -1.2610  1.1468
 4527SOL     OW25039   3.725   4.121   3.235 -0.4792 -0.1544 -0.5605
 4527SOL    HW125040   3.805   4.068   3.229  1.6103  2.8367  0.9960
 4527SOL    HW225041   3.722   4.163   3.321  0.3888 -2.5189  0.6176
 4528SOL     OW25042   1.697   4.377   3.181  0.1462 -0.4462  0.0527
 4528SOL    HW125043   1.724   4.415   3.097  2.0918 -0.9499  0.4493
 4528SOL    HW225044   1.779   4.409   3.220  0.1172 -1.1989  0.7152
 4529SOL     OW25045   0.250   4.037   5.993 -0.0413 -0.0654 -0.0696
 4529SOL    HW125046   0.204   4.017   5.911  1.7327 -2.6254 -0.4418
 4529SOL    HW225047   0.228   4.130   5.995 -2.1577 -0.5296 -1.4349
 4530SOL     OW25048   1.580   1.288   5.933  0.6126 -0.5008 -0.1115
 4530SOL    HW125049   1.561   1.262   6.023 -0.1762 -0.6571 -0.3305
 4530SOL    HW225050   1.586   1.383   5.940  0.1449 -0.4631 -0.2624
 4531SOL     OW25051   0.585   0.287   8.619 -0.3160  0.0950  0.3260
 4531SOL    HW125052   0.511   0.276   8.559 -0.9170 -0.1922  1.1163
 4531SOL    HW225053   0.565   0.219   8.684  0.9314 -1.2841 -0.7489
 4532SOL     OW25054   0.754   2.760   3.278 -0.1986 -0.3207 -0.1453
 4532SOL    HW125055   0.797   2.693   3.331 -0.5607 -0.3904  0.0585
 4532SOL    HW225056   0.823   2.793   3.221  0.7404 -0.9368  0.6469
 4533SOL     OW25057   1.127   3.911   8.746  0.0742 -0.0175  0.0898
 4533SOL    HW125058   1.186   3.985   8.763  1.4094 -0.8311 -1.0838
 4533SOL    HW225059   1.165   3.849   8.808 -0.3179 -1.8716 -1.5397
 4534SOL     OW25060   4.362   0.268  14.742 -1.0221 -0.4538  0.1659
 4534SOL    HW125061   4.405   0.201  14.689 -1.3389 -0.5107 -0.0162
 4534SOL    HW225062   4.300   0.306  14.680  1.8932  2.4102 -1.0064
 4535SOL     OW25063   4.015   4.676   6.772  0.0955  0.1982 -0.1996
 4535SOL    HW125064   3.983   4.587   6.755 -0.4737  0.4955 -0.6905
 4535SOL    HW225065   4.087   4.686   6.710  0.5694  2.6616  0.7765
 4536SOL     OW25066   2.733   4.653   4.198  0.5874  0.0113  0.1696
 4536SOL    HW125067   2.729   4.710   4.274 -0.7431  0.2489 -0.0802
 4536SOL    HW225068   2.756   4.700   4.118  3.0863 -2.5180 -0.6459
 4537SOL     OW25069   3.204   3.790   5.759 -0.6770 -0.5986  0.2770
 4537SOL    HW125070   3.267   3.856   5.731 -1.0323  0.7270  2.5783
 4537SOL    HW225071   3.129   3.798   5.700  3.2201  1.2154 -4.3931
 4538SOL     OW25072   4.603   4.164  10.552 -0.3068 -0.4306  0.3424
 4538SOL    HW125073   4.649   4.179  10.470  1.5592 -1.2376  1.2469
 4538SOL    HW225074   4.527   4.222  10.545  0.4775  0.7275  1.3634
 4539SOL     OW25075   0.394   4.138   3.650  0.1531 -0.5670  0.1828
 4539SOL    HW125076   0.376   4.047   3.628 -0.0012  0.1478 -2.6083
 4539SOL    HW225077   0.367   4.188   3.573  1.1769  0.1881  0.3100
 4540SOL     OW25078   1.704   4.505  17.108 -0.0093 -0.3943  0.2365
 4540SOL    HW125079   1.609   4.515  17.099  0.2139  0.1279 -1.5842
 4540SOL    HW225080   1.720   4.577  17.170  0.6270 -0.3629  0.0372
 4541SOL     OW25081   2.785   2.777   3.520  0.2945  0.8514  0.6647
 4541SOL    HW125082   2.702   2.823   3.504  0.3115  0.2878 -1.0481
 4541SOL    HW225083   2.844   2.851   3.531 -0.8199  1.7956  0.3438
 4542SOL     OW25084   3.938   0.680   8.812  0.2951 -0.5551  0.2436
 4542SOL    HW125085   4.032   0.676   8.830  0.5416 -1.3740 -1.2540
 4542SOL    HW225086   3.931   0.776   8.811 -0.0856 -0.5803  0.3509
 4543SOL     OW25087   1.868   0.933  16.998 -0.0125  0.2135  0.0637
 4543SOL    HW125088   1.845   0.949  17.090 -0.6811  0.3811 -0.1339
 4543SOL    HW225089   1.788   0.886  16.975 -0.0926  1.1931 -1.6619
 4544SOL     OW25090   1.291   0.663   1.984  0.1461  0.0461  0.3169
 4544SOL    HW125091   1.233   0.731   2.017  1.3919  1.0196  0.4846
 4544SOL    HW225092   1.242   0.611   1.921  2.3377  0.7099 -1.9551
 4545SOL     OW25093   0.498   2.406   4.751 -0.1281  0.0204 -0.0209
 4545SOL    HW125094   0.443   2.377   4.678 -0.5894 -0.9762  0.7142
 4545SOL    HW225095   0.462   2.493   4.768  1.2355  0.6543 -0.4129
 4546SOL     OW25096   3.195   4.137  11.659 -0.0393 -0.1648 -0.1813
 4546SOL    HW125097   3.146   4.094  11.729 -3.2244  1.1432 -1.5978
 4546SOL    HW225098   3.258   4.074  11.624  4.3654  3.5977  1.0030
 4547SOL     OW25099   3.789   1.826  12.335 -0.3268  0.3704  0.0647
 4547SOL    HW125100   3.735   1.796  12.407  1.6579 -0.4891  1.1734
 4547SOL    HW225101   3.764   1.761  12.269 -0.8519 -1.4240  2.0427
 4548SOL     OW25102   1.402   2.861  16.993  0.1535  0.0946  0.5291
 4548SOL    HW125103   1.494   2.854  16.965 -0.0514 -2.2506  0.4142
 4548SOL    HW225104   1.375   2.937  16.943 -2.9210 -0.6890  1.0053
 4549SOL     OW25105   3.295   2.545   9.067 -0.7095  0.0730  0.0692
 4549SOL    HW125106   3.279   2.579   9.154  0.8536  0.6514  0.1247
 4549SOL    HW225107   3.223   2.482   9.058 -0.8383 -0.0786  2.1889
 4550SOL     OW25108   1.115   2.028   3.720 -0.2498 -0.1839  0.0855
 4550SOL    HW125109   1.114   2.046   3.626  0.9535 -2.0645 -0.2829
 4550SOL    HW225110   1.207   2.036   3.748 -0.1048 -0.6440 -0.2643
 4551SOL     OW25111   3.917   2.635   4.766 -0.2573  0.3383 -0.4452
 4551SOL    HW125112   3.941   2.549   4.732 -0.8254 -0.3725  0.9808
 4551SOL    HW225113   3.868   2.666   4.689  0.0521  1.3960 -0.2194
 4552SOL     OW25114   1.069   0.269   7.772 -0.4571 -0.2444 -0.0720
 4552SOL    HW125115   1.128   0.217   7.718 -0.6145 -1.4067  0.8607
 4552SOL    HW225116   1.033   0.196   7.823  0.0753  0.0555  0.7312
 4553SOL     OW25117   1.892   3.795   3.540  0.1761  0.0840 -0.0541
 4553SOL    HW125118   1.872   3.867   3.480 -0.8523 -2.9112 -3.3032
 4553SOL    HW225119   1.820   3.740   3.509 -1.2102  0.4443  2.5465
 4554SOL     OW25120   0.299   1.067  15.150 -0.5420  0.0763 -0.4561
 4554SOL    HW125121   0.361   1.117  15.096 -0.3720  1.7446  1.2638
 4554SOL    HW225122   0.350   0.987  15.162 -1.6314 -0.6618 -0.8035
 4555SOL     OW25123   0.349   2.379   4.482 -0.7363 -0.1168  0.0805
 4555SOL    HW125124   0.414   2.318   4.447 -0.7267 -1.7261  2.8919
 4555SOL    HW225125   0.309   2.421   4.406 -3.9147  0.2838  1.9968
 4556SOL     OW25126   3.029   3.644   1.557  0.0567 -0.1936 -0.6012
 4556SOL    HW125127   2.953   3.608   1.510 -0.9315  0.6090  0.3792
 4556SOL    HW225128   2.985   3.675   1.636  0.3504  1.2286 -0.9916
 4557SOL     OW25129   4.362   0.406   9.986 -0.1895 -0.1692  0.0511
 4557SOL    HW125130   4.375   0.311   9.977 -0.4647 -0.2051  0.0345
 4557SOL    HW225131   4.361   0.414  10.081 -0.5580 -0.4015  0.0667
 4558SOL     OW25132   4.490   3.301   7.893  0.2110 -0.2137 -0.2645
 4558SOL    HW125133   4.580   3.308   7.861  0.6835 -0.0132  1.0795
 4558SOL    HW225134   4.481   3.371   7.958  0.5145 -1.7514  1.4176
 4559SOL     OW25135   0.129   1.427   3.297  0.1999 -0.2765  0.9122
 4559SOL    HW125136   0.086   1.417   3.212  1.6527  0.6060  0.0747
 4559SOL    HW225137   0.212   1.381   3.284  1.0202  1.8065 -1.2406
 4560SOL     OW25138   0.453   3.046  15.877  0.1792  0.0602 -0.8631
 4560SOL    HW125139   0.436   2.973  15.938 -1.9517 -0.3718 -1.9740
 4560SOL    HW225140   0.537   3.016  15.840 -0.4470  0.8087 -2.8828
 4561SOL     OW25141   0.403   1.269   8.258  0.1115 -0.2553 -0.0760
 4561SOL    HW125142   0.379   1.344   8.204  1.9755 -0.1082 -0.7214
 4561SOL    HW225143   0.493   1.290   8.283  0.2986 -0.9721 -0.1393
 4562SOL     OW25144   1.339   2.114   8.716 -0.1376 -0.3209 -0.1352
 4562SOL    HW125145   1.304   2.056   8.648  1.6868 -3.0100  1.2005
 4562SOL    HW225146   1.270   2.179   8.708  0.4967  0.3769  0.0837
 4563SOL     OW25147   2.733   2.118  16.138  0.4623 -0.6828 -0.2671
 4563SOL    HW125148   2.814   2.083  16.175  1.2714  1.1166 -0.3593
 4563SOL    HW225149   2.707   2.040  16.088  0.4738 -1.6054  1.1528
 4564SOL     OW25150   4.117   0.713   4.101  0.0682 -0.4272 -0.4168
 4564SOL    HW125151   4.049   0.761   4.055  0.4822  1.0901  0.5493
 4564SOL    HW225152   4.199   0.748   4.067  0.0646 -0.6041 -0.6077
 4565SOL     OW25153   4.511   0.999   8.498 -0.1308 -0.3232  0.0415
 4565SOL    HW125154   4.507   1.095   8.502 -0.6077 -0.3759  0.8385
 4565SOL    HW225155   4.418   0.980   8.486 -0.0131 -0.8336 -0.0561
 4566SOL     OW25156   3.502   3.392   5.340 -0.6175  0.0809 -0.0711
 4566SOL    HW125157   3.495   3.388   5.435 -0.9238 -0.4579 -0.1144
 4566SOL    HW225158   3.597   3.381   5.332 -0.6673 -0.6039  0.3029
 4567SOL     OW25159   0.381   2.218   3.420  0.1825  0.3803  0.0291
 4567SOL    HW125160   0.426   2.135   3.435  1.6663  1.2173  0.1693
 4567SOL    HW225161   0.459   2.274   3.413  0.5310 -0.0614  0.4084
 4568SOL     OW25162   3.779   1.154   8.261 -0.5606 -0.1996 -0.8161
 4568SOL    HW125163   3.758   1.122   8.174 -1.5921 -0.0971 -0.6075
 4568SOL    HW225164   3.816   1.237   8.232 -0.9074 -0.2446 -1.3861
 4569SOL     OW25165   3.443   2.426   2.755 -0.4516 -0.3376  0.5271
 4569SOL    HW125166   3.508   2.384   2.811 -1.7067 -0.2550  2.0154
 4569SOL    HW225167   3.491   2.439   2.673 -0.4635  0.9305  0.7228
 4570SOL     OW25168   4.060   0.213   7.529  0.2182 -0.1086 -0.2989
 4570SOL    HW125169   4.106   0.241   7.608  0.7983 -1.5360 -0.1261
 4570SOL    HW225170   4.098   0.126   7.516  0.5464  0.2216 -1.4911
 4571SOL     OW25171   2.377   1.794  11.750 -0.3710 -0.0067  0.2478
 4571SOL    HW125172   2.351   1.716  11.801 -1.0354 -0.0638 -0.1854
 4571SOL    HW225173   2.292   1.837  11.746 -0.5610 -0.3189  0.8431
 4572SOL     OW25174   2.364   3.586   3.397  0.5102 -0.6983 -0.2735
 4572SOL    HW125175   2.440   3.638   3.372  0.7816 -1.2170 -0.5376
 4572SOL    HW225176   2.401   3.501   3.374  0.0756 -0.5700 -1.4416
 4573SOL     OW25177   1.072   2.940  14.643  0.2167 -0.4265 -0.3762
 4573SOL    HW125178   1.080   2.854  14.601  0.1332 -0.7438  0.2512
 4573SOL    HW225179   1.068   2.913  14.735  2.3601  1.1142  0.1695
 4574SOL     OW25180   0.685   0.962  11.894 -0.1901 -0.4187 -0.0592
 4574SOL    HW125181   0.723   0.909  11.964  2.2173  2.5934  0.9204
 4574SOL    HW225182   0.744   0.948  11.821 -0.5890  1.0449 -0.6640
 4575SOL     OW25183   4.099   2.332  15.085  0.6871  0.2471  0.1351
 4575SOL    HW125184   4.097   2.397  15.015 -2.0647  1.0345  0.9326
 4575SOL    HW225185   4.157   2.375  15.148 -1.6267  0.3858  2.1554
 4576SOL     OW25186   2.897   3.281   6.887  0.4888 -0.4987  0.4102
 4576SOL    HW125187   2.932   3.247   6.969 -1.5142  0.7135  1.7731
 4576SOL    HW225188   2.823   3.225   6.863  0.3253 -0.9099  1.8732
 4577SOL     OW25189   0.102   0.033   5.066 -0.3898 -0.0650  0.1699
 4577SOL    HW125190   0.070   0.121   5.088  0.9326  0.4963 -0.1585
 4577SOL    HW225191   0.139   0.011   5.152 -0.1659 -1.0721 -0.1881
 4578SOL     OW25192   3.667   2.076   4.449 -0.0437  0.3054  0.1407
 4578SOL    HW125193   3.658   2.097   4.542 -0.3799  1.0511 -0.0571
 4578SOL    HW225194   3.603   2.009   4.427  0.3331 -0.7553  2.2730
 4579SOL     OW25195   0.673   0.149   2.262 -0.1038 -0.2300 -0.3187
 4579SOL    HW125196   0.735   0.105   2.321  0.1440  0.8522  0.2292
 4579SOL    HW225197   0.677   0.091   2.186 -0.9822  1.0214 -1.3227
 4580SOL     OW25198   2.336   3.002   5.902 -0.3123  0.1599 -0.0120
 4580SOL    HW125199   2.365   3.064   5.969 -3.0779  2.0827 -0.6199
 4580SOL    HW225200   2.410   3.000   5.842  0.2244 -1.5360  0.6825
 4581SOL     OW25201   0.399   4.656   2.776  0.1112  0.2679  0.3382
 4581SOL    HW125202   0.472   4.707   2.813  1.5170 -1.9816  0.6863
 4581SOL    HW225203   0.420   4.656   2.683  1.3595  2.2953  0.5996
 4582SOL     OW25204   4.261   0.076   0.288 -0.2130 -0.7420  0.1939
 4582SOL    HW125205   4.350   0.075   0.322 -0.5442 -1.7165  1.0225
 4582SOL    HW225206   4.264   0.146   0.223  0.0882 -1.1397 -0.2190
 4583SOL     OW25207   4.573   2.973   2.015 -0.1945 -0.6198  0.1581
 4583SOL    HW125208   4.602   3.016   1.934 -0.1696  1.1157  1.1009
 4583SOL    HW225209   4.647   2.988   2.073 -0.0321 -2.3986  0.4111
 4584SOL     OW25210   0.838   0.988   1.225 -0.2686  0.4588  0.0209
 4584SOL    HW125211   0.931   0.995   1.202  0.0400  0.2036  1.1724
 4584SOL    HW225212   0.790   1.061   1.186 -1.0687 -0.1719 -0.1751
 4585SOL     OW25213   3.689   4.519   8.158 -0.1138 -0.7654  0.0756
 4585SOL    HW125214   3.763   4.511   8.219 -1.1500  1.9913  1.7312
 4585SOL    HW225215   3.616   4.484   8.210  0.3999 -1.1751  0.5278
 4586SOL     OW25216   1.331   0.456   3.109 -0.1121 -0.2983 -0.0018
 4586SOL    HW125217   1.243   0.419   3.118  0.2099 -0.9597  0.3729
 4586SOL    HW225218   1.333   0.515   3.033 -0.8243  0.2028  0.3621
 4587SOL     OW25219   1.969   1.940   5.829  0.4924 -0.4762  0.0302
 4587SOL    HW125220   1.988   1.969   5.918  0.0607  0.9753 -0.3505
 4587SOL    HW225221   1.977   2.029   5.794  1.3770 -0.2331  0.8524
 4588SOL     OW25222   0.979   4.469   7.012  0.1550  0.4975 -0.1426
 4588SOL    HW125223   0.968   4.545   7.069 -2.6213  0.5105 -0.6858
 4588SOL    HW225224   0.893   4.427   7.011 -0.3808  1.5815  1.0678
 4589SOL     OW25225   1.293   3.066   6.263 -0.4170  0.1799  0.3492
 4589SOL    HW125226   1.319   3.157   6.246 -0.9036  0.0524 -1.0250
 4589SOL    HW225227   1.351   3.024   6.200  1.2031 -2.2066  3.4377
 4590SOL     OW25228   3.259   3.711   0.356 -0.3360  0.3136  0.1200
 4590SOL    HW125229   3.251   3.765   0.277 -0.4939 -1.4809 -1.0749
 4590SOL    HW225230   3.341   3.742   0.397  1.2478 -2.9741 -0.5903
 4591SOL     OW25231   2.546   2.263  13.241  0.4202  0.0230  0.4353
 4591SOL    HW125232   2.490   2.216  13.179 -0.5673 -0.2234  1.5262
 4591SOL    HW225233   2.480   2.309  13.292  1.3900  1.1168  0.7140
 4592SOL     OW25234   0.984   3.462   5.077  0.3378 -0.1694 -0.2440
 4592SOL    HW125235   1.006   3.375   5.045  1.3571  0.2871 -0.7920
 4592SOL    HW225236   1.036   3.472   5.157  0.7047 -0.9585 -0.3855
 4593SOL     OW25237   0.583   0.553   5.493 -0.3362 -0.1195 -0.8091
 4593SOL    HW125238   0.637   0.618   5.447 -1.8506  1.1946 -0.7433
 4593SOL    HW225239   0.575   0.477   5.435  1.4212 -1.4219  0.6704
 4594SOL     OW25240   4.037   0.266   9.314  0.5701 -0.1874 -0.7722
 4594SOL    HW125241   4.049   0.277   9.220  1.0844  3.0492 -0.3554
 4594SOL    HW225242   3.958   0.319   9.330  2.6974  2.9936 -0.7272
 4595SOL     OW25243   0.179   0.260   0.931  0.0108 -0.4118  0.1040
 4595SOL    HW125244   0.099   0.208   0.933  0.1879 -0.6611  0.5508
 4595SOL    HW225245   0.153   0.340   0.977 -0.2057 -0.5624  0.2399
 4596SOL     OW25246   2.730   4.287   7.235 -0.0232  0.2893 -0.0752
 4596SOL    HW125247   2.637   4.311   7.238 -0.5898 -1.7576 -0.8473
 4596SOL    HW225248   2.754   4.292   7.328  2.0557 -1.4400 -0.5230
 4597SOL     OW25249   2.541   2.445   0.403 -0.1937  0.0017 -0.0732
 4597SOL    HW125250   2.574   2.472   0.317 -0.0761  1.0255  0.3001
 4597SOL    HW225251   2.546   2.531   0.444 -0.3548 -0.6284  1.2399
 4598SOL     OW25252   1.118   1.459  14.135 -0.1578 -0.2980  0.3356
 4598SOL    HW125253   1.029   1.427  14.154 -0.0656 -0.4121  0.5733
 4598SOL    HW225254   1.098   1.545  14.097 -1.5314 -1.6777 -2.1089
 4599SOL     OW25255   0.525   4.706   2.511  0.2114 -0.2612  0.2124
 4599SOL    HW125256   0.617   4.708   2.483 -0.6324  0.0694 -2.5223
 4599SOL    HW225257   0.471   4.678   2.437  0.1333 -1.7550  0.8506
 4600SOL     OW25258   2.333   4.544   7.404 -0.0052 -0.1362 -0.8495
 4600SOL    HW125259   2.243   4.512   7.406 -0.5933  1.7259  3.0350
 4600SOL    HW225260   2.321   4.633   7.370 -2.8439  0.4235  1.5586
 4601SOL     OW25261   0.535   4.629  11.166  0.4015  0.0691  0.0029
 4601SOL    HW125262   0.539   4.710  11.115  1.4067 -0.5711 -0.9408
 4601SOL    HW225263   0.440   4.620  11.172  0.3509  0.5831 -0.0294
 4602SOL     OW25264   2.886   4.182   4.367 -0.1767 -0.2981 -0.6015
 4602SOL    HW125265   2.847   4.238   4.300  0.6642 -1.0209 -1.7004
 4602SOL    HW225266   2.816   4.177   4.432  1.1286 -2.2638  0.6470
 4603SOL     OW25267   0.720   2.685   0.380  0.2988 -0.5453  0.2471
 4603SOL    HW125268   0.758   2.706   0.466 -0.6397 -0.9419  0.7593
 4603SOL    HW225269   0.780   2.616   0.351  0.1534 -0.7613  0.4569
 4604SOL     OW25270   1.456   4.623   4.530  0.5512 -0.3852  0.3818
 4604SOL    HW125271   1.493   4.667   4.454 -0.3698  0.2648  0.3107
 4604SOL    HW225272   1.450   4.532   4.500  2.8881  0.0140 -1.2704
 4605SOL     OW25273   2.508   1.124   7.814 -0.1336 -0.0361 -0.7071
 4605SOL    HW125274   2.441   1.056   7.816  0.1412 -0.2714  0.6019
 4605SOL    HW225275   2.520   1.154   7.905  1.2496 -1.3618 -0.4516
 4606SOL     OW25276   0.780   4.107  14.955  0.2060 -0.3958  0.0231
 4606SOL    HW125277   0.746   4.184  15.001  0.6521 -1.1946  1.6532
 4606SOL    HW225278   0.703   4.052  14.964 -1.3594  1.4131 -2.2671
 4607SOL     OW25279   1.309   1.572   4.935  0.4962 -0.0807 -0.2206
 4607SOL    HW125280   1.384   1.517   4.913  0.0741 -1.0653  0.7965
 4607SOL    HW225281   1.348   1.597   5.019 -1.6203 -0.6024  0.9261
 4608SOL     OW25282   0.279   0.375   1.239 -0.7841  0.0330 -0.3085
 4608SOL    HW125283   0.252   0.420   1.159  0.1107 -0.1155 -0.6864
 4608SOL    HW225284   0.201   0.323   1.260 -0.7716 -0.0209 -0.3970
 4609SOL     OW25285   4.119   0.701  10.675  0.4761 -0.2535 -0.3057
 4609SOL    HW125286   4.127   0.772  10.739 -3.3125  1.3308 -1.6050
 4609SOL    HW225287   4.074   0.738  10.599  0.7778  2.4711  0.8185
 4610SOL     OW25288   0.091   3.595   0.399  0.4018 -0.6655  0.2039
 4610SOL    HW125289   0.042   3.550   0.467  0.2216  0.8493  1.0736
 4610SOL    HW225290   0.175   3.596   0.444  0.8151 -0.5027 -0.5769
 4611SOL     OW25291   2.273   4.341   3.060 -0.3393 -0.3246 -0.4861
 4611SOL    HW125292   2.349   4.306   3.106  0.3795  2.6622  0.5844
 4611SOL    HW225293   2.276   4.435   3.077  1.5526 -0.3802 -0.5296
 4612SOL     OW25294   2.196   3.707   4.703  0.1517  0.2744 -0.0859
 4612SOL    HW125295   2.144   3.639   4.660  1.5976 -0.4273 -0.7027
 4612SOL    HW225296   2.133   3.760   4.753 -1.4655 -1.0876 -0.6775
 4613SOL     OW25297   0.120   2.804   8.533 -0.4236 -0.3612 -0.2281
 4613SOL    HW125298   0.209   2.777   8.553 -0.0740  0.6182 -0.4911
 4613SOL    HW225299   0.083   2.739   8.592  2.0470  1.0073  2.8071
 4614SOL     OW25300   4.539   1.841   3.525  0.2122  0.5788  0.3291
 4614SOL    HW125301   4.551   1.831   3.619 -0.9166  0.1522  0.4218
 4614SOL    HW225302   4.604   1.783   3.485  0.8630  0.9784  0.8083
 4615SOL     OW25303   1.965   3.074  12.781 -0.2722 -0.0137  0.3853
 4615SOL    HW125304   1.871   3.088  12.769 -0.2199 -0.0536 -0.0436
 4615SOL    HW225305   2.006   3.137  12.722 -0.2987  0.4225  0.8192
 4616SOL     OW25306   0.747   2.791   5.013 -0.0265  0.2214  0.3383
 4616SOL    HW125307   0.675   2.737   4.979 -1.6779  3.7738 -1.7598
 4616SOL    HW225308   0.784   2.736   5.082 -0.2733  0.5609  0.7440
 4617SOL     OW25309   2.598   2.122  17.479  0.0373  0.1071 -0.2552
 4617SOL    HW125310   2.586   2.205  17.433 -0.9124 -0.1663 -0.4882
 4617SOL    HW225311   2.687   2.126  17.514 -0.5064 -0.1111  1.1594
 4618SOL     OW25312   1.548   2.388   7.064  0.1120 -1.3637  0.5056
 4618SOL    HW125313   1.553   2.452   7.135  1.4299  0.5178 -1.2702
 4618SOL    HW225314   1.466   2.339   7.075 -0.3305 -0.9989 -1.1591
 4619SOL     OW25315   1.170   2.646   6.416 -0.5183  0.3971 -0.4849
 4619SOL    HW125316   1.220   2.626   6.338  1.9287 -0.5548  1.3265
 4619SOL    HW225317   1.176   2.742   6.412  1.4042  0.3003  0.2097
 4620SOL     OW25318   2.869   0.378   2.760  0.4052 -0.1372 -0.1821
 4620SOL    HW125319   2.844   0.461   2.719 -0.3581  0.3434  1.2498
 4620SOL    HW225320   2.918   0.322   2.701 -0.7501  1.6081 -2.7862
 4621SOL     OW25321   3.867   2.231   1.529  0.2294  0.3300  0.1190
 4621SOL    HW125322   3.820   2.301   1.573 -2.3044 -0.1680 -1.8146
 4621SOL    HW225323   3.920   2.205   1.605 -0.2913 -0.4975  0.2046
 4622SOL     OW25324   1.453   2.675  11.948  0.0873  0.1782  0.5509
 4622SOL    HW125325   1.494   2.609  12.004 -1.0599 -1.3243 -0.3945
 4622SOL    HW225326   1.505   2.664  11.868 -0.7239 -0.7456  0.1493
 4623SOL     OW25327   2.461   3.249   7.000  1.1370  0.2202  0.5271
 4623SOL    HW125328   2.478   3.164   7.042  0.2945  0.0750  0.5616
 4623SOL    HW225329   2.368   3.254   6.979  1.5530  0.6036 -1.2287
 4624SOL     OW25330   0.737   1.613   6.199 -0.8573  0.2419  0.3602
 4624SOL    HW125331   0.788   1.587   6.276 -0.2519  0.2271 -0.0503
 4624SOL    HW225332   0.671   1.665   6.245  0.5490  4.1922 -2.1108
 4625SOL     OW25333   2.407   2.397   6.959 -0.1200  0.0624  0.5126
 4625SOL    HW125334   2.366   2.481   6.978 -1.9220 -0.4268 -1.2604
 4625SOL    HW225335   2.421   2.355   7.044  1.8876 -1.0943 -0.3719
 4626SOL     OW25336   0.071   2.768   8.118 -0.1315  0.4074  0.5897
 4626SOL    HW125337   0.100   2.858   8.103 -1.4420  0.9959  1.5940
 4626SOL    HW225338   4.706   2.787   8.152 -1.1173 -3.1741  0.0626
 4627SOL     OW25339   2.549   1.784   3.981 -0.0964  0.3172 -0.2338
 4627SOL    HW125340   2.620   1.723   3.967  0.1538  0.5224  0.1296
 4627SOL    HW225341   2.586   1.871   3.966  1.3973  0.3047  3.5268
 4628SOL     OW25342   4.087   2.759  13.663 -0.2717  0.3661  0.0586
 4628SOL    HW125343   4.176   2.794  13.664 -0.6214  1.2270  0.6925
 4628SOL    HW225344   4.102   2.667  13.641  1.2753  0.0621  2.3931
 4629SOL     OW25345   3.879   2.709   3.079  0.3672  0.0238 -0.3840
 4629SOL    HW125346   3.956   2.765   3.071 -0.9773  1.9304  0.1466
 4629SOL    HW225347   3.804   2.765   3.059 -0.1203 -0.5389 -0.1274
 4630SOL     OW25348   4.545   2.263  16.496 -0.2590  0.1716 -0.1975
 4630SOL    HW125349   4.599   2.232  16.569 -2.0936 -0.9858  0.6682
 4630SOL    HW225350   4.561   2.200  16.426 -3.4409 -0.2018 -0.6088
 4631SOL     OW25351   4.423   1.585   8.640  0.1162 -0.9492  0.1043
 4631SOL    HW125352   4.404   1.653   8.575 -2.5246 -1.4820  0.3064
 4631SOL    HW225353   4.447   1.642   8.713  1.7789 -0.1692 -1.0671
 4632SOL     OW25354   3.030   2.265   7.157 -0.3699 -0.4537 -0.1629
 4632SOL    HW125355   3.024   2.180   7.113  2.4874 -0.6364 -0.2171
 4632SOL    HW225356   3.067   2.244   7.243 -1.0205  1.2291  0.5208
 4633SOL     OW25357   4.614   1.359  16.445  0.2083  0.4159 -0.5441
 4633SOL    HW125358   4.633   1.308  16.523  0.9351  1.1030 -0.2668
 4633SOL    HW225359   4.519   1.351  16.435  0.3132 -0.0500 -1.1435
 4634SOL     OW25360   3.317   1.609   5.919 -0.0518  0.5126  0.0450
 4634SOL    HW125361   3.311   1.568   6.006  0.9980  0.4275  0.0747
 4634SOL    HW225362   3.380   1.677   5.943 -0.5138  0.3772  1.6419
 4635SOL     OW25363   1.899   2.820  15.909 -0.0541  0.3690 -0.1536
 4635SOL    HW125364   1.856   2.789  15.829  0.9162  1.0214 -0.9196
 4635SOL    HW225365   1.858   2.906  15.923  1.0752  0.5622  1.9583
 4636SOL     OW25366   0.121   0.198   7.477 -0.1446  0.0726 -0.3502
 4636SOL    HW125367   0.038   0.192   7.431 -1.1562 -1.5099  1.6589
 4636SOL    HW225368   0.121   0.108   7.510 -1.5503  0.1297 -0.1787
 4637SOL     OW25369   1.997   4.678   3.605  0.0225 -0.0759 -0.3129
 4637SOL    HW125370   2.004   0.051   3.607  2.5237 -0.2216 -1.5353
 4637SOL    HW225371   2.084   4.665   3.566  0.5404  2.1970  0.0840
 4638SOL     OW25372   4.258   3.592  13.412  0.1926 -0.9077  0.0314
 4638SOL    HW125373   4.265   3.640  13.494 -2.2845  1.2963 -1.0460
 4638SOL    HW225374   4.277   3.664  13.352 -1.9323 -1.6694 -1.5786
 4639SOL     OW25375   0.104   3.024   7.465  0.1458  0.2791  0.2581
 4639SOL    HW125376   0.164   2.950   7.479  1.2433  1.1035 -0.1120
 4639SOL    HW225377   0.141   3.055   7.383  0.1370 -0.6583 -0.1045
 4640SOL     OW25378   3.779   4.625   3.010  0.5209 -0.0026 -0.0770
 4640SOL    HW125379   3.788   4.540   3.052 -2.3863 -0.9152 -1.3156
 4640SOL    HW225380   3.852   4.671   3.052  0.2838  0.8550 -0.5872
 4641SOL     OW25381   0.374   1.786   3.455  0.1625  0.1913  0.0165
 4641SOL    HW125382   0.420   1.869   3.451 -1.1843  0.9438  0.0548
 4641SOL    HW225383   0.284   1.812   3.433  0.3189  0.8693  0.2094
 4642SOL     OW25384   4.305   2.831  11.035 -0.6352  0.0940  0.0825
 4642SOL    HW125385   4.278   2.748  11.074  2.1396 -0.6514  0.4029
 4642SOL    HW225386   4.392   2.806  11.004 -0.9177  0.6470 -1.1815
 4643SOL     OW25387   3.655   2.495  13.349 -0.2173 -0.0123 -0.1039
 4643SOL    HW125388   3.676   2.526  13.437 -0.1252 -1.3737  0.3550
 4643SOL    HW225389   3.732   2.518  13.297 -0.5818 -3.0482 -2.0337
 4644SOL     OW25390   3.291   3.326   3.582 -0.5329 -0.0683 -0.1062
 4644SOL    HW125391   3.266   3.329   3.490  0.7022  0.7741 -0.4227
 4644SOL    HW225392   3.238   3.392   3.625 -2.6588 -1.4317 -0.6623
 4645SOL     OW25393   3.988   2.058   7.153 -0.5433  0.2907  0.0491
 4645SOL    HW125394   4.035   2.134   7.120  1.3452 -1.1423 -0.5865
 4645SOL    HW225395   4.059   1.996   7.138 -1.6055 -1.1032  0.7127
 4646SOL     OW25396   1.518   0.609   5.252  0.2928 -0.0151  0.3591
 4646SOL    HW125397   1.434   0.565   5.241  0.3510  0.2084 -1.0459
 4646SOL    HW225398   1.575   0.532   5.245 -0.9322 -0.9487  0.7738
 4647SOL     OW25399   1.435   2.923  11.845 -0.3175 -0.1787  0.7301
 4647SOL    HW125400   1.526   2.920  11.816 -0.3957 -1.1274  0.5572
 4647SOL    HW225401   1.423   2.836  11.885 -0.8674 -0.1987  0.5204
 4648SOL     OW25402   0.521   4.610  12.184 -0.1953 -0.2535  0.1448
 4648SOL    HW125403   0.537   4.554  12.109 -1.5153  0.3299 -0.5720
 4648SOL    HW225404   0.446   4.569  12.228  0.4349 -0.3752  1.1268
 4649SOL     OW25405   1.181   2.467   6.898  0.1733  0.3025  0.4467
 4649SOL    HW125406   1.253   2.447   6.838  0.7300  0.5611  1.0263
 4649SOL    HW225407   1.180   2.562   6.894 -3.8484  0.1438 -1.6026
 4650SOL     OW25408   2.792   4.555   0.360  0.3501  0.1986 -0.2451
 4650SOL    HW125409   2.730   4.565   0.288 -0.9632  0.5695  0.9328
 4650SOL    HW225410   2.758   4.475   0.398 -1.3645  0.9281 -0.2480
 4651SOL     OW25411   2.880   3.026   0.430  0.0951  0.1611  0.2749
 4651SOL    HW125412   2.942   3.012   0.501 -0.5241 -1.0962  0.5486
 4651SOL    HW225413   2.864   3.120   0.440  1.9816  0.4984  0.3001
 4652SOL     OW25414   0.620   1.323  11.630 -0.0557  0.6987  0.5598
 4652SOL    HW125415   0.635   1.284  11.544  0.5766  2.2862 -0.0672
 4652SOL    HW225416   0.665   1.272  11.697 -0.7610 -1.4466 -0.6310
 4653SOL     OW25417   0.645   2.190  12.628 -0.0430 -0.5174  0.7802
 4653SOL    HW125418   0.626   2.105  12.668  0.0301  0.1678  2.2460
 4653SOL    HW225419   0.709   2.224  12.690  2.2601 -1.7210 -0.9023
 4654SOL     OW25420   1.816   4.480  16.868 -0.1144  0.3348  0.2279
 4654SOL    HW125421   1.771   4.485  16.952 -2.8719 -0.6317 -1.1977
 4654SOL    HW225422   1.785   4.395  16.837 -3.7866  2.0439 -0.9014
 4655SOL     OW25423   1.114   1.831   8.290 -0.0919 -0.3797  0.2082
 4655SOL    HW125424   1.194   1.779   8.295 -0.9555 -1.6655  0.5396
 4655SOL    HW225425   1.136   1.868   8.204 -2.5184  1.4938  0.3919
 4656SOL     OW25426   0.525   4.000   5.754  0.2245  0.3755  0.3112
 4656SOL    HW125427   0.517   4.093   5.774  0.3775  0.9290 -2.2381
 4656SOL    HW225428   0.616   3.984   5.729  0.9559  3.9840  0.7158
 4657SOL     OW25429   1.795   2.862   4.357  0.0904 -0.0940  0.1801
 4657SOL    HW125430   1.887   2.846   4.334  0.0053  0.2188 -0.3789
 4657SOL    HW225431   1.781   2.931   4.293  0.6413  0.5343  0.7445
 4658SOL     OW25432   3.963   3.617   6.508 -0.2458 -0.2530 -0.8225
 4658SOL    HW125433   3.879   3.661   6.514 -1.3860 -2.3292 -1.8338
 4658SOL    HW225434   3.995   3.638   6.596  1.5090 -1.6921 -1.1087
 4659SOL     OW25435   3.628   2.917   1.602 -0.0029 -0.3146 -0.0183
 4659SOL    HW125436   3.627   2.865   1.522 -0.2038 -0.7757  0.2867
 4659SOL    HW225437   3.687   2.986   1.572 -1.5260  0.6484 -0.8173
 4660SOL     OW25438   1.069   1.552   6.961  0.1591  0.0825  0.9252
 4660SOL    HW125439   1.042   1.480   6.903  2.5823 -0.2946  0.2737
 4660SOL    HW225440   1.044   1.634   6.920  0.0228  0.5722  1.9950
 4661SOL     OW25441   0.738   4.032   2.790  0.0618 -0.2606 -0.2941
 4661SOL    HW125442   0.809   3.979   2.755 -0.0862 -1.5475  1.3684
 4661SOL    HW225443   0.791   4.111   2.801 -2.5234  1.4771 -0.2262
 4662SOL     OW25444   3.328   3.555   4.567  0.4810  0.0960 -0.9966
 4662SOL    HW125445   3.336   3.592   4.479 -0.6622  0.9479 -0.7531
 4662SOL    HW225446   3.234   3.557   4.588  0.4511 -3.9680 -0.7384
 4663SOL     OW25447   4.293   4.162   3.913  0.1014 -0.3380 -0.1985
 4663SOL    HW125448   4.360   4.093   3.914 -0.5812 -0.9994  0.0120
 4663SOL    HW225449   4.270   4.175   3.822  2.6055  0.6157 -0.7117
 4664SOL     OW25450   2.687   2.343  11.462 -0.5083 -0.0076 -0.3177
 4664SOL    HW125451   2.705   2.275  11.398 -0.2592  1.1005 -1.4242
 4664SOL    HW225452   2.657   2.411  11.402 -2.4712  0.5819  1.3515
 4665SOL     OW25453   0.899   0.183   9.256 -0.5418  0.0452 -0.7739
 4665SOL    HW125454   0.896   0.150   9.166 -1.9981 -0.9254 -0.3637
 4665SOL    HW225455   0.827   0.139   9.299 -0.8050 -0.5509 -1.8175
 4666SOL     OW25456   0.845   4.238   1.092 -0.5430 -0.2613 -0.3286
 4666SOL    HW125457   0.932   4.199   1.088 -1.0786 -1.7632  2.5217
 4666SOL    HW225458   0.860   4.327   1.123 -0.2788  0.0160 -1.2594
 4667SOL     OW25459   2.195   2.679   8.310  0.5434  0.2510 -0.4268
 4667SOL    HW125460   2.239   2.761   8.289  1.9565 -0.9424 -2.1087
 4667SOL    HW225461   2.223   2.623   8.238 -1.0048 -0.6570 -0.3201
 4668SOL     OW25462   0.482   2.947   9.968 -0.6122 -0.8221  0.7839
 4668SOL    HW125463   0.525   3.031   9.955 -0.7182 -0.9260 -0.2043
 4668SOL    HW225464   0.407   2.982  10.016  1.0948  0.7202  2.3176
 4669SOL     OW25465   1.878   2.262   7.656 -0.0628 -0.1267 -0.1447
 4669SOL    HW125466   1.788   2.229   7.659  0.3163 -1.1901 -0.4989
 4669SOL    HW225467   1.870   2.357   7.666 -3.3355 -0.3938 -0.0985
 4670SOL     OW25468   1.910   1.265  17.272 -0.2039  0.0298  0.3046
 4670SOL    HW125469   1.882   1.335  17.332 -1.0579 -0.6454  0.7011
 4670SOL    HW225470   1.926   1.316  17.193  1.6285  1.1225  1.3692
 4671SOL     OW25471   3.052   3.171  10.218 -0.1859 -0.1399 -0.2407
 4671SOL    HW125472   3.137   3.206  10.193 -0.2509  0.0614 -0.1799
 4671SOL    HW225473   3.067   3.077  10.207 -0.5807 -0.1636 -0.5739
 4672SOL     OW25474   2.334   1.905  14.353 -0.5698  0.2524 -0.1067
 4672SOL    HW125475   2.244   1.913  14.323 -0.1036 -0.1069 -1.5909
 4672SOL    HW225476   2.356   1.997  14.363 -0.4425 -0.0934  2.7584
 4673SOL     OW25477   3.136   2.904  10.119  0.0770  0.2960 -0.2722
 4673SOL    HW125478   3.199   2.885  10.050  0.7366  0.2928  0.3260
 4673SOL    HW225479   3.068   2.846  10.087  1.0946 -0.1025 -1.6959
 4674SOL     OW25480   1.066   1.086   8.243 -0.2011 -0.4305 -0.0055
 4674SOL    HW125481   1.076   1.052   8.333 -1.5159 -3.9976 -1.1953
 4674SOL    HW225482   1.073   1.178   8.268  1.9020 -0.4851 -0.3678
 4675SOL     OW25483   0.176   3.688   5.732  0.4848  0.4682 -0.3255
 4675SOL    HW125484   0.228   3.627   5.784  2.5268  2.1391 -0.4030
 4675SOL    HW225485   0.219   3.673   5.648  0.6971 -1.4816  0.1528
 4676SOL     OW25486   0.225   3.742  11.460 -0.1366  0.8881  0.1712
 4676SOL    HW125487   0.165   3.698  11.521 -1.7496 -0.7711 -2.6290
 4676SOL    HW225488   0.292   3.784  11.514  0.9146  0.1677 -0.5704
 4677SOL     OW25489   0.061   0.712  12.176 -0.3583 -0.1044  0.4695
 4677SOL    HW125490   0.142   0.762  12.166 -0.4754  0.1908  1.0130
 4677SOL    HW225491   0.017   0.735  12.094  2.6105 -0.2124 -1.1434
 4678SOL     OW25492   0.135   1.324   4.943  0.2465 -0.1064 -0.0273
 4678SOL    HW125493   0.067   1.383   4.974  1.0342 -0.2336  1.9750
 4678SOL    HW225494   0.128   1.249   5.001 -2.7320  0.9358  0.9344
 4679SOL     OW25495   1.839   0.350   7.032  0.1144 -0.3783 -0.0448
 4679SOL    HW125496   1.835   0.324   7.124 -3.3327  1.4246  0.2797
 4679SOL    HW225497   1.773   0.298   6.986 -0.1106 -1.7262  1.8115
 4680SOL     OW25498   2.304   1.314   0.435 -0.0503 -0.3157  0.6260
 4680SOL    HW125499   2.382   1.335   0.383 -1.0023  0.1533 -0.6152
 4680SOL    HW225500   2.343   1.260   0.504 -0.4480 -0.4947  0.7096
 4681SOL     OW25501   1.665   1.471   5.470 -0.1615  0.3687 -0.0884
 4681SOL    HW125502   1.715   1.452   5.550  0.0498  0.3451 -0.2276
 4681SOL    HW225503   1.725   1.539   5.439 -0.4248 -0.1782 -1.7524
 4682SOL     OW25504   1.763   2.445  10.267  0.3394 -0.0440  0.3291
 4682SOL    HW125505   1.709   2.442  10.188 -0.4473  0.8465  0.8313
 4682SOL    HW225506   1.770   2.533  10.305  0.2359 -0.7433  1.9383
 4683SOL     OW25507   1.044   2.853   2.463 -0.4841  0.0751 -0.1787
 4683SOL    HW125508   1.070   2.779   2.409 -0.7623 -0.4325  0.3935
 4683SOL    HW225509   0.967   2.810   2.500 -0.6296  1.1289  0.7526
 4684SOL     OW25510   1.324   1.887   4.705 -0.3483 -0.1542 -0.1220
 4684SOL    HW125511   1.405   1.898   4.754  0.2306  1.5079 -1.4530
 4684SOL    HW225512   1.357   1.914   4.619  4.7762 -0.0394  1.9263
 4685SOL     OW25513   4.541   1.774  12.389  0.3267  0.2850  0.2023
 4685SOL    HW125514   4.617   1.727  12.356  1.3931  2.0289  0.1686
 4685SOL    HW225515   4.579   1.851  12.432 -1.7958  1.5653 -0.1846
 4686SOL     OW25516   2.668   1.687  15.835 -0.1496 -0.2607 -0.1586
 4686SOL    HW125517   2.623   1.645  15.763 -0.0495  0.1298 -0.4492
 4686SOL    HW225518   2.732   1.618  15.849 -0.0507 -0.0208  0.6255
 4687SOL     OW25519   3.041   1.846   8.325 -0.3826  0.1929 -0.3655
 4687SOL    HW125520   3.124   1.858   8.278  0.2196  2.3768  1.2795
 4687SOL    HW225521   3.033   1.921   8.383  2.2834 -1.7146  2.5271
 4688SOL     OW25522   1.511   4.622   3.378  0.3584 -0.1280 -0.1370
 4688SOL    HW125523   1.484   4.641   3.468 -0.4872 -0.3116 -0.3512
 4688SOL    HW225524   1.605   4.642   3.374  0.1478  1.3867  1.9602
 4689SOL     OW25525   3.104   4.348  15.872 -0.6163 -0.6074 -0.5701
 4689SOL    HW125526   3.175   4.407  15.849 -1.9850  0.7053 -1.4516
 4689SOL    HW225527   3.034   4.369  15.810 -1.1725  0.6546  0.4939
 4690SOL     OW25528   4.614   3.081   5.648  0.1222 -0.4662  0.2437
 4690SOL    HW125529   4.527   3.120   5.643  0.7561  0.9711  0.3935
 4690SOL    HW225530   4.659   3.165   5.659 -1.0265 -0.0272  1.5496
 4691SOL     OW25531   1.479   4.601   2.087 -0.7139  0.5704  0.0474
 4691SOL    HW125532   1.539   4.657   2.136 -1.0820  1.3286 -0.3704
 4691SOL    HW225533   1.504   4.602   1.994  0.0421  3.6276  0.2932
 4692SOL     OW25534   3.078   2.296   3.739  0.1414  0.9979 -0.3481
 4692SOL    HW125535   3.006   2.277   3.799 -0.8374  0.8721 -1.5471
 4692SOL    HW225536   3.024   2.341   3.674 -0.2089  0.7012 -0.2665
 4693SOL     OW25537   4.462   2.809   4.041 -0.1402  0.0264  0.4881
 4693SOL    HW125538   4.556   2.806   4.056  0.1658 -1.2550 -1.7885
 4693SOL    HW225539   4.451   2.865   3.964  0.3984  0.3086  0.6145
 4694SOL     OW25540   1.152   2.309   8.633 -0.1341  0.0960 -0.3367
 4694SOL    HW125541   1.121   2.367   8.703 -0.2857 -1.4907  0.9176
 4694SOL    HW225542   1.118   2.355   8.556  3.3998  0.4423 -1.6991
 4695SOL     OW25543   4.186   0.789   8.018  0.4576 -0.5674 -0.1085
 4695SOL    HW125544   4.260   0.837   7.981 -0.3344  0.2699 -0.6075
 4695SOL    HW225545   4.111   0.847   8.035 -0.6681 -1.8625 -0.7557
 4696SOL     OW25546   1.416   3.726   8.303  0.2747 -1.2353 -0.0273
 4696SOL    HW125547   1.388   3.815   8.281  1.1265 -0.9954 -0.1369
 4696SOL    HW225548   1.375   3.686   8.227  2.1119 -0.6565 -1.3291
 4697SOL     OW25549   0.019   2.692   6.822 -0.1770  0.3068  0.0296
 4697SOL    HW125550   0.023   2.597   6.808 -1.0356  0.3253 -0.3562
 4697SOL    HW225551   0.048   2.724   6.737 -1.0575  0.2134 -0.3125
 4698SOL     OW25552   2.607   1.405  11.371  0.1798 -0.0539 -0.0991
 4698SOL    HW125553   2.594   1.476  11.308  1.6995  0.2669 -0.0605
 4698SOL    HW225554   2.595   1.325  11.320  1.7166 -1.0228  1.0668
 4699SOL     OW25555   3.033   4.672   4.448 -1.0651  0.0706 -0.1499
 4699SOL    HW125556   3.067   0.039   4.446 -1.4600  0.2223 -0.1159
 4699SOL    HW225557   2.944   4.692   4.479  0.1560 -0.5817  3.7905
 4700SOL     OW25558   3.779   2.291   4.020 -0.3460 -0.0427  0.1850
 4700SOL    HW125559   3.795   2.198   4.003  0.5789  0.0842  0.4093
 4700SOL    HW225560   3.683   2.297   4.016 -0.1939  1.7829 -0.7848
 4701SOL     OW25561   4.317   1.546   4.537 -0.2625 -0.2496  0.2322
 4701SOL    HW125562   4.275   1.463   4.514 -2.3811  0.8501  0.2092
 4701SOL    HW225563   4.371   1.512   4.609  0.1083  0.7150  0.4043
 4702SOL     OW25564   4.357   0.344   6.004 -0.4144 -0.1957  0.2018
 4702SOL    HW125565   4.430   0.406   5.998  0.3250 -0.9902  1.0166
 4702SOL    HW225566   4.339   0.351   6.098 -2.6043  2.6291 -0.4233
 4703SOL     OW25567   2.594   3.718   7.375 -0.0247  1.4794 -0.3851
 4703SOL    HW125568   2.552   3.739   7.458  1.7771 -2.2452  1.4677
 4703SOL    HW225569   2.665   3.781   7.371  1.4331 -0.0631  1.0428
 4704SOL     OW25570   2.257   3.803   6.412  0.1696 -0.5575 -0.3711
 4704SOL    HW125571   2.220   3.890   6.400  0.8164 -0.4080 -1.2925
 4704SOL    HW225572   2.351   3.813   6.420  0.3745 -2.1763 -0.6506
 4705SOL     OW25573   0.517   0.187   4.080  0.3969  0.7719  0.3200
 4705SOL    HW125574   0.500   0.121   4.013  1.2752  2.1686 -1.2812
 4705SOL    HW225575   0.612   0.198   4.076  0.5446 -0.4280  0.3909
 4706SOL     OW25576   3.898   2.505   0.003 -0.2709 -0.5046  0.9490
 4706SOL    HW125577   3.886   2.417   0.039  1.7258  0.4375  3.8982
 4706SOL    HW225578   3.962   2.537   0.066  0.9469  1.4815 -1.2721
 4707SOL     OW25579   4.030   3.666   8.783  0.4684  0.1548 -0.7678
 4707SOL    HW125580   4.034   3.632   8.873  3.6935  1.5997 -0.3652
 4707SOL    HW225581   4.116   3.643   8.748  0.9766  1.5269 -0.4048
 4708SOL     OW25582   0.687   3.386   7.992 -0.2064  0.1152 -0.6532
 4708SOL    HW125583   0.707   3.313   8.050  0.0997 -0.0090 -0.9176
 4708SOL    HW225584   0.761   3.379   7.932 -0.4301 -2.6934 -0.5728
 4709SOL     OW25585   3.202   1.226  13.386 -0.4313  0.4271  0.1021
 4709SOL    HW125586   3.282   1.273  13.410 -0.9920  1.2173  0.4218
 4709SOL    HW225587   3.143   1.248  13.458 -0.9189  1.8420 -0.7470
 4710SOL     OW25588   3.348   2.192  17.259  0.1180  0.6108 -0.6698
 4710SOL    HW125589   3.407   2.118  17.269 -1.7987 -1.0869 -2.0527
 4710SOL    HW225590   3.384   2.250  17.326  1.7314 -2.1920  0.8769
 4711SOL     OW25591   2.039   2.038   8.233  0.9483  0.3856  1.0243
 4711SOL    HW125592   2.082   1.952   8.232 -0.1934 -0.1887  2.6523
 4711SOL    HW225593   2.013   2.050   8.141  0.7278  1.6247  1.2433
 4712SOL     OW25594   0.053   4.535  17.621 -0.3859  0.0334 -0.0964
 4712SOL    HW125595   0.097   4.619  17.609 -0.4215 -0.2430 -2.2271
 4712SOL    HW225596   4.699   4.554  17.675  1.0448  1.7227  1.3040
 4713SOL     OW25597   3.284   4.503   1.601  0.0409 -0.2178 -0.2344
 4713SOL    HW125598   3.291   4.501   1.697 -4.8562 -0.5165  0.1024
 4713SOL    HW225599   3.205   4.557   1.603  0.5058  0.5313 -2.8087
 4714SOL     OW25600   2.729   3.980   3.939  0.1057 -0.4934  0.1779
 4714SOL    HW125601   2.732   3.885   3.928  0.0592 -0.5956  1.1278
 4714SOL    HW225602   2.778   3.984   4.021 -1.0500  1.2024  0.7690
 4715SOL     OW25603   1.024   2.915   5.998  0.3537 -0.5080  0.2303
 4715SOL    HW125604   0.971   2.862   6.058 -1.1105  2.6461  1.7172
 4715SOL    HW225605   0.974   2.909   5.917  2.8150 -3.4958 -1.1025
 4716SOL     OW25606   1.314   1.749   0.715 -0.4903  0.4466 -0.5104
 4716SOL    HW125607   1.273   1.836   0.717 -1.6021 -0.0782 -0.2517
 4716SOL    HW225608   1.301   1.729   0.622  0.7402 -1.5079 -0.2723
 4717SOL     OW25609   2.017   0.189   7.384  0.1398  0.4422  0.4904
 4717SOL    HW125610   1.974   0.269   7.353  0.6265  1.1578  1.6497
 4717SOL    HW225611   2.104   0.229   7.382  0.7734 -1.0104 -1.0365
 4718SOL     OW25612   0.836   4.202   7.319  0.4821  0.1686 -0.2377
 4718SOL    HW125613   0.767   4.172   7.379  2.4702 -3.1138  0.4127
 4718SOL    HW225614   0.860   4.289   7.351 -0.1534  0.2684 -0.0419
 4719SOL     OW25615   2.370   1.566   5.841  0.8003 -0.0327 -0.6595
 4719SOL    HW125616   2.438   1.507   5.808  0.2568 -1.3627  0.6347
 4719SOL    HW225617   2.421   1.647   5.840  1.5731 -0.5227  0.9248
 4720SOL     OW25618   1.401   3.902  14.697  0.2391  0.0317  0.3680
 4720SOL    HW125619   1.350   3.823  14.711 -0.7936  0.9191  1.6272
 4720SOL    HW225620   1.427   3.924  14.786 -2.7926 -1.0116  1.5235
 4721SOL     OW25621   3.089   0.307   5.702  0.1893  0.2113 -0.7310
 4721SOL    HW125622   3.117   0.385   5.654 -2.1941  1.4757 -0.0793
 4721SOL    HW225623   3.072   0.344   5.789 -0.1377  0.1019 -0.7485
 4722SOL     OW25624   2.839   0.452   8.353 -0.0883  0.6248  0.5813
 4722SOL    HW125625   2.929   0.471   8.380  0.4019  0.2832 -0.7912
 4722SOL    HW225626   2.803   0.443   8.441 -0.5903  0.0540  0.3121
 4723SOL     OW25627   0.685   1.552   5.551 -0.1042 -0.0482 -0.3260
 4723SOL    HW125628   0.619   1.561   5.482  0.1297  0.2295 -0.5105
 4723SOL    HW225629   0.760   1.538   5.492 -0.3002  1.9127 -1.0476
 4724SOL     OW25630   4.697   4.357   8.697  0.2198 -0.0121 -0.4012
 4724SOL    HW125631   0.044   4.423   8.703  0.5842 -0.1671 -2.7583
 4724SOL    HW225632   4.673   4.354   8.604 -0.1213 -0.8329 -0.2810
 4725SOL     OW25633   1.299   4.264   5.696 -0.2409  0.5950 -0.1941
 4725SOL    HW125634   1.392   4.258   5.675  0.1750 -2.0438  2.4222
 4725SOL    HW225635   1.259   4.262   5.609 -0.8752 -0.5033  0.1253
 4726SOL     OW25636   4.444   3.767   6.295 -0.6359 -0.1557  0.0423
 4726SOL    HW125637   4.360   3.774   6.340 -1.2368  0.5636 -1.1923
 4726SOL    HW225638   4.510   3.777   6.363  0.8387  0.7548 -1.5089
 4727SOL     OW25639   0.556   3.759  17.477  0.4966 -0.0127  0.8233
 4727SOL    HW125640   0.617   3.690  17.503  0.7557 -0.0894  0.0230
 4727SOL    HW225641   0.567   3.743  17.383 -1.8551  1.5990  0.2633
 4728SOL     OW25642   4.641   4.688   3.443  0.7521 -0.1936  0.3033
 4728SOL    HW125643   4.671   0.056   3.444  0.8244 -0.2206  0.4480
 4728SOL    HW225644   4.715   4.639   3.406 -1.4775 -0.5974 -3.6110
 4729SOL     OW25645   0.236   3.851   1.660 -0.7566  0.1812  0.0068
 4729SOL    HW125646   0.281   3.832   1.742 -0.0171 -0.3971 -0.5335
 4729SOL    HW225647   0.313   3.860   1.603  0.8679  1.5330  2.3966
 4730SOL     OW25648   1.281   2.237   9.227  0.1678  0.1289  0.2702
 4730SOL    HW125649   1.212   2.214   9.165 -0.1175 -1.3697  1.1445
 4730SOL    HW225650   1.334   2.292   9.169 -1.2929 -0.2899 -1.4226
 4731SOL     OW25651   2.559   0.812   2.315  0.2904 -0.3324 -0.2245
 4731SOL    HW125652   2.506   0.880   2.356 -0.2256 -1.8089  1.5994
 4731SOL    HW225653   2.588   0.861   2.239 -2.3134 -0.3389 -1.2097
 4732SOL     OW25654   2.227   2.848   8.940  0.4611  0.0010  0.0744
 4732SOL    HW125655   2.200   2.867   9.030  0.2501 -0.3676  0.0881
 4732SOL    HW225656   2.260   2.759   8.957 -1.8479 -0.9953 -0.6636
 4733SOL     OW25657   1.249   2.244  14.140 -0.1141  0.3993 -0.0485
 4733SOL    HW125658   1.159   2.225  14.166  0.7599 -2.2517  1.0295
 4733SOL    HW225659   1.239   2.339  14.130  2.9139  0.9788  2.5121
 4734SOL     OW25660   4.666   2.944   7.751 -0.1844  0.0137  0.4943
 4734SOL    HW125661   0.024   2.993   7.770 -0.0266  0.4858 -1.3747
 4734SOL    HW225662   4.709   2.877   7.697  0.2035 -0.6616  1.6316
 4735SOL     OW25663   3.927   0.206  10.693  0.1713  0.2857  0.1650
 4735SOL    HW125664   3.832   0.214  10.700 -0.0255 -1.6612 -0.2388
 4735SOL    HW225665   3.966   0.241  10.774 -2.3844  1.9957  0.6440
 4736SOL     OW25666   3.993   2.112  11.714 -0.3364  0.0905 -0.1324
 4736SOL    HW125667   4.073   2.132  11.666  0.1097 -1.2366  0.0666
 4736SOL    HW225668   3.937   2.077  11.645 -1.6260  0.5552  0.6671
 4737SOL     OW25669   0.131   2.160   2.101  0.5118  0.2832  0.0674
 4737SOL    HW125670   0.088   2.200   2.026 -0.4501  2.6907  1.8898
 4737SOL    HW225671   0.062   2.130   2.161 -0.4466 -3.2266 -2.7994
 4738SOL     OW25672   2.729   1.332  12.260  0.1331  0.0056 -0.0739
 4738SOL    HW125673   2.684   1.340  12.344  1.0396 -1.2021  0.5206
 4738SOL    HW225674   2.673   1.261  12.228  2.2176 -0.2923 -3.0508
 4739SOL     OW25675   2.599   3.086   5.768  0.1036  0.1425 -0.2342
 4739SOL    HW125676   2.608   3.052   5.679  0.8400 -0.1882 -0.0312
 4739SOL    HW225677   2.604   3.181   5.758  0.7938  0.2501  1.1048
 4740SOL     OW25678   0.236   3.655   5.453  0.2306 -0.4314  0.1291
 4740SOL    HW125679   0.327   3.651   5.425  0.1287  0.7435 -0.3577
 4740SOL    HW225680   0.208   3.563   5.459  1.9322 -1.0437 -1.4351
 4741SOL     OW25681   2.878   3.848   3.483 -0.0142  0.3699  0.2437
 4741SOL    HW125682   2.854   3.925   3.430 -0.0922  0.3339  0.2260
 4741SOL    HW225683   2.914   3.891   3.560 -0.6171  0.8199  0.2810
 4742SOL     OW25684   1.489   4.234   3.287  0.7634 -0.3709  0.0381
 4742SOL    HW125685   1.538   4.214   3.367 -0.2927 -1.9685  0.2837
 4742SOL    HW225686   1.561   4.283   3.247  1.2011 -1.3958 -0.4261
 4743SOL     OW25687   0.083   3.447   3.827  0.3323 -1.0563  0.2814
 4743SOL    HW125688   4.715   3.468   3.806  0.8176 -1.1407 -1.8851
 4743SOL    HW225689   0.063   3.396   3.906 -1.1670 -0.1948  0.4623
 4744SOL     OW25690   0.196   2.710  11.394 -0.2589 -0.0880  0.6168
 4744SOL    HW125691   0.115   2.657  11.391 -1.6830  2.1189 -0.0275
 4744SOL    HW225692   0.262   2.653  11.355 -0.1688 -0.3431  1.1442
 4745SOL     OW25693   4.609   2.313  16.119  0.7195 -0.6264  0.2131
 4745SOL    HW125694   4.674   2.319  16.048 -0.0023 -0.3510 -0.4270
 4745SOL    HW225695   4.534   2.354  16.075 -0.8000 -1.1637  2.3077
 4746SOL     OW25696   0.573   1.605   8.284 -0.1542 -0.4452  0.3061
 4746SOL    HW125697   0.567   1.688   8.330 -0.3413 -0.7862  0.8920
 4746SOL    HW225698   0.490   1.609   8.237 -0.1764  0.2237  0.3997
 4747SOL     OW25699   1.198   0.268  15.096  0.2088 -0.5362 -0.3047
 4747SOL    HW125700   1.172   0.183  15.133 -3.5724  0.8208  0.1641
 4747SOL    HW225701   1.290   0.245  15.079  0.9302  1.7205  0.5883
 4748SOL     OW25702   1.089   0.785  17.640 -0.5932  0.3387  0.3074
 4748SOL    HW125703   1.141   0.781  17.560 -0.5326  0.6807  0.3301
 4748SOL    HW225704   1.032   0.858  17.615  1.2940  0.6197 -3.1536
 4749SOL     OW25705   0.050   4.427   5.644  0.2026 -0.0019 -0.5261
 4749SOL    HW125706   4.708   4.409   5.576  0.2947 -0.8951 -0.3704
 4749SOL    HW225707   0.039   4.520   5.666 -1.4756 -0.4324  0.4968
 4750SOL     OW25708   4.387   3.534   9.713 -0.9280  0.1078  0.4472
 4750SOL    HW125709   4.356   3.444   9.701  1.4866 -0.9191  1.9728
 4750SOL    HW225710   4.428   3.535   9.799 -1.1166 -0.9682  0.5553
 4751SOL     OW25711   0.400   3.179   2.075  0.2629  0.1713 -0.4347
 4751SOL    HW125712   0.355   3.168   2.159  0.2114 -1.6475 -0.6937
 4751SOL    HW225713   0.473   3.238   2.093 -2.1081  3.1392 -0.5340
 4752SOL     OW25714   1.079   2.071   2.886  0.0181 -0.3570  0.1982
 4752SOL    HW125715   1.102   2.025   2.805  4.1540 -0.5027  1.4869
 4752SOL    HW225716   0.984   2.064   2.879 -0.1463  0.6366  1.3861
 4753SOL     OW25717   3.259   1.671  10.494  0.3210  0.0166 -0.3785
 4753SOL    HW125718   3.182   1.721  10.523 -1.1087 -2.9483  1.0271
 4753SOL    HW225719   3.214   1.589  10.471  0.9079 -0.0944 -1.1151
 4754SOL     OW25720   1.746   1.614   6.064  0.2368  0.1076 -0.1050
 4754SOL    HW125721   1.672   1.652   6.111  0.8661 -2.7117  3.2069
 4754SOL    HW225722   1.806   1.625   6.138 -1.4620  1.5343  1.0374
 4755SOL     OW25723   4.509   1.185   4.198  0.3261  0.3575 -0.2535
 4755SOL    HW125724   4.601   1.195   4.221  0.2432 -0.8579  0.5542
 4755SOL    HW225725   4.514   1.211   4.105  0.8974  1.0905 -0.0162
 4756SOL     OW25726   4.299   3.692   1.240  0.0731 -0.3357 -0.6283
 4756SOL    HW125727   4.308   3.762   1.305 -1.8094 -1.1147  0.4445
 4756SOL    HW225728   4.204   3.683   1.240 -0.2314  2.7658 -2.3358
 4757SOL     OW25729   1.784   0.498  13.022  0.1517  0.1466 -0.0534
 4757SOL    HW125730   1.767   0.408  12.993  1.2425 -0.2170  0.4131
 4757SOL    HW225731   1.747   0.542  12.946 -0.5090  1.6022  1.1229
 4758SOL     OW25732   4.032   3.281   3.425  0.0009  0.3929 -0.3145
 4758SOL    HW125733   4.052   3.213   3.489  0.7955  0.9880  0.0638
 4758SOL    HW225734   3.937   3.280   3.423 -0.0054  0.0376  0.2532
 4759SOL     OW25735   3.972   1.029   9.980 -0.3623 -0.0701 -0.5672
 4759SOL    HW125736   4.030   0.956  10.000  0.2502  0.8509  1.0299
 4759SOL    HW225737   4.007   1.088  10.047  0.0143 -0.0939 -0.7489
 4760SOL     OW25738   4.556   1.808   5.413 -0.4916  0.5475  0.2876
 4760SOL    HW125739   4.622   1.874   5.436  0.5763 -0.0417 -1.0368
 4760SOL    HW225740   4.589   1.736   5.467 -1.2226 -0.7378 -0.9990
 4761SOL     OW25741   2.089   4.338   2.753  0.6282 -0.3819 -0.2474
 4761SOL    HW125742   2.011   4.387   2.727  0.4132 -1.7405 -2.2075
 4761SOL    HW225743   2.067   4.245   2.746 -0.3113 -0.1763 -0.0367
 4762SOL     OW25744   1.061   0.916  17.196 -0.4608  0.2965  0.4741
 4762SOL    HW125745   1.062   0.926  17.101  1.7175  1.8356  0.6750
 4762SOL    HW225746   0.976   0.949  17.223 -1.6177 -2.9721  0.8359
 4763SOL     OW25747   1.504   0.533   6.317 -0.1333 -0.1740 -0.6789
 4763SOL    HW125748   1.550   0.476   6.380  0.0595  0.4973 -0.2145
 4763SOL    HW225749   1.534   0.621   6.340  0.4410 -0.2482 -1.1376
 4764SOL     OW25750   4.612   4.652   6.681  0.2633 -0.4288  0.0288
 4764SOL    HW125751   4.693   4.613   6.714 -0.1276  0.1398  1.6671
 4764SOL    HW225752   4.591   4.590   6.611 -0.5233  0.3562 -0.4225
 4765SOL     OW25753   2.282   3.498   9.834 -0.5981  0.1339 -0.1259
 4765SOL    HW125754   2.334   3.454   9.767 -1.5066 -1.9357  0.5457
 4765SOL    HW225755   2.198   3.472   9.798  0.1633  0.1526 -1.9073
 4766SOL     OW25756   1.848   1.123   5.838 -0.2215 -0.3780 -0.3791
 4766SOL    HW125757   1.829   1.082   5.754  0.3379  0.4660 -0.9172
 4766SOL    HW225758   1.802   1.068   5.902 -0.9699 -0.4450 -0.9755
 4767SOL     OW25759   0.924   0.822   6.908 -0.2241 -0.3584  0.1945
 4767SOL    HW125760   0.897   0.778   6.988 -0.8538  0.5462  0.4765
 4767SOL    HW225761   0.980   0.754   6.869 -1.7681 -1.2293 -0.5076
 4768SOL     OW25762   3.508   3.599   8.542 -0.1587 -0.2144 -0.4992
 4768SOL    HW125763   3.484   3.688   8.518  2.1811  0.5309 -0.0689
 4768SOL    HW225764   3.583   3.613   8.600  0.6240 -2.6223 -0.9417
 4769SOL     OW25765   2.588   3.825  10.935  0.0075  0.9652 -0.4881
 4769SOL    HW125766   2.592   3.908  10.887 -0.1136  1.4414  0.3322
 4769SOL    HW225767   2.528   3.765  10.890 -0.9816  0.2781  1.7802
 4770SOL     OW25768   4.197   2.793   5.331 -0.1112  0.5352  0.0702
 4770SOL    HW125769   4.214   2.742   5.411 -2.1235  2.0278  1.4577
 4770SOL    HW225770   4.131   2.732   5.297 -0.1450  0.7590 -0.2638
 4771SOL     OW25771   3.634   3.635   1.022 -0.0055 -0.4998 -0.0336
 4771SOL    HW125772   3.568   3.582   1.065 -0.4797  0.6956  0.7175
 4771SOL    HW225773   3.666   3.694   1.091 -0.1251 -1.2920  0.6898
 4772SOL     OW25774   2.655   2.316   5.317  0.1537  0.0639 -0.0522
 4772SOL    HW125775   2.660   2.327   5.412  2.4682 -1.2672 -0.0392
 4772SOL    HW225776   2.746   2.316   5.289  0.2855  2.0351  0.3795
 4773SOL     OW25777   1.805   2.843   3.429  0.1755 -0.3076  0.2718
 4773SOL    HW125778   1.875   2.895   3.389  0.0495 -0.1460  0.2607
 4773SOL    HW225779   1.827   2.842   3.522  0.9724 -0.2030  0.0832
 4774SOL     OW25780   1.921   3.260   0.261  0.0523  0.0674  0.3255
 4774SOL    HW125781   2.009   3.280   0.292 -1.3353  3.0187  2.3777
 4774SOL    HW225782   1.897   3.197   0.328 -1.1126  0.3458  0.1737
 4775SOL     OW25783   1.604   2.882   7.611 -0.1340  0.4570  0.2692
 4775SOL    HW125784   1.637   2.963   7.649 -3.4732  1.4710  0.9993
 4775SOL    HW225785   1.554   2.915   7.537  1.7162  3.8389  0.5519
 4776SOL     OW25786   4.109   1.645   7.495  0.8052  0.2907  0.2347
 4776SOL    HW125787   4.029   1.611   7.535 -0.0943 -1.3242 -2.9381
 4776SOL    HW225788   4.177   1.619   7.557  1.2477 -0.8851 -0.7433
 4777SOL     OW25789   1.105   1.934   3.174 -0.5875 -0.1887 -0.0554
 4777SOL    HW125790   1.190   1.892   3.186  0.2258  0.7127 -2.7119
 4777SOL    HW225791   1.115   1.960   3.083 -1.2675  1.2427  0.2633
 4778SOL     OW25792   0.791   2.872  17.254 -0.0357  0.0205  0.0980
 4778SOL    HW125793   0.823   2.895  17.342  1.0802 -1.4464  0.0649
 4778SOL    HW225794   0.729   2.802  17.276 -1.3153  0.6433 -1.4776
 4779SOL     OW25795   0.546   3.411   8.802 -0.1825  0.2893  0.1660
 4779SOL    HW125796   0.599   3.484   8.771 -0.3763  0.9608  1.4251
 4779SOL    HW225797   0.525   3.436   8.892  2.2870 -0.0615  0.8335
 4780SOL     OW25798   3.789   2.958  15.304  0.0928 -0.2608  0.0653
 4780SOL    HW125799   3.814   3.005  15.224 -0.7660  0.5868  0.3081
 4780SOL    HW225800   3.696   2.977  15.304  0.0129 -0.6378  2.1841
 4781SOL     OW25801   4.503   4.242   4.557  0.3032 -0.0823  0.1333
 4781SOL    HW125802   4.436   4.177   4.538  1.5306 -0.7728 -1.8098
 4781SOL    HW225803   4.571   4.220   4.493 -1.2573 -0.2550 -1.4274
 4782SOL     OW25804   1.042   0.193   1.040 -0.1703 -0.3572 -0.3708
 4782SOL    HW125805   1.069   0.261   1.102 -0.1655 -0.0795 -0.6798
 4782SOL    HW225806   0.951   0.217   1.028 -0.1119 -0.7076 -1.5453
 4783SOL     OW25807   3.449   2.959   6.437 -0.3412 -0.1226  0.1729
 4783SOL    HW125808   3.521   2.938   6.377 -0.5424 -2.1007  0.6451
 4783SOL    HW225809   3.421   2.872   6.464  0.7266 -0.7283 -0.6519
 4784SOL     OW25810   0.750   0.722   0.935 -0.0273 -0.8746 -0.3636
 4784SOL    HW125811   0.711   0.764   1.011  0.6220  0.9218 -1.0388
 4784SOL    HW225812   0.831   0.772   0.932 -0.1028 -0.6721  1.5638
 4785SOL     OW25813   1.199   0.539   5.877  0.8371  0.6894  0.0525
 4785SOL    HW125814   1.284   0.579   5.896  1.0137  0.6373 -0.6343
 4785SOL    HW225815   1.206   0.532   5.782  2.8050  0.0102  0.2328
 4786SOL     OW25816   3.645   1.432  12.014  0.5675  0.1287  0.3261
 4786SOL    HW125817   3.740   1.445  12.012  0.3854  1.3018 -0.7653
 4786SOL    HW225818   3.614   1.487  12.087 -0.4008 -1.9367  1.4947
 4787SOL     OW25819   2.131   4.123  10.361  0.2638  0.8424  0.5709
 4787SOL    HW125820   2.039   4.102  10.341  0.6868 -1.2641  0.8724
 4787SOL    HW225821   2.148   4.191  10.296 -2.0884  1.1778  0.2978
 4788SOL     OW25822   2.230   1.446   3.839 -0.0146 -0.2467 -0.0517
 4788SOL    HW125823   2.215   1.358   3.873  5.0158 -0.5314  1.4412
 4788SOL    HW225824   2.315   1.466   3.880  0.7757  1.1342 -2.3817
 4789SOL     OW25825   0.798   3.349   4.224 -0.2931 -0.1264 -0.1329
 4789SOL    HW125826   0.885   3.383   4.201 -0.5182  2.3736  2.7030
 4789SOL    HW225827   0.814   3.256   4.238 -1.2657 -0.1368  0.9424
 4790SOL     OW25828   0.281   4.403   8.079  0.2383 -0.0879  0.1875
 4790SOL    HW125829   0.197   4.432   8.114  0.9851 -0.3218  2.1816
 4790SOL    HW225830   0.324   4.380   8.162 -1.1176  0.7228  1.1188
 4791SOL     OW25831   4.406   4.160   2.552 -0.1962  0.1469  0.4675
 4791SOL    HW125832   4.435   4.137   2.640 -3.6742 -1.1402  1.2599
 4791SOL    HW225833   4.485   4.143   2.500 -1.3966  1.5321 -1.8076
 4792SOL     OW25834   1.324   0.805   3.221 -0.4069  0.1268 -0.2804
 4792SOL    HW125835   1.357   0.892   3.245 -0.2040  0.1906 -0.7938
 4792SOL    HW225836   1.303   0.802   3.127  1.5815  0.7394 -0.7478
 4793SOL     OW25837   3.185   2.579  11.723  0.4050  0.7527 -0.3511
 4793SOL    HW125838   3.259   2.555  11.780  0.9936 -2.1650 -2.3188
 4793SOL    HW225839   3.226   2.632  11.655  2.9670 -4.7508 -3.1406
 4794SOL     OW25840   1.120   0.957  16.359  0.1385  0.1961  0.0805
 4794SOL    HW125841   1.038   0.961  16.310 -1.8436 -0.9070  3.3270
 4794SOL    HW225842   1.182   0.951  16.285  0.3461  1.2824  0.1610
 4795SOL     OW25843   1.979   4.408  14.952  0.1741  0.1114 -0.6810
 4795SOL    HW125844   1.921   4.380  15.023 -1.1207  0.1422 -1.7286
 4795SOL    HW225845   1.980   4.334  14.891 -0.7170  1.0526 -1.8353
 4796SOL     OW25846   0.213   4.675   7.155  0.0641  0.4588  0.1773
 4796SOL    HW125847   0.186   0.030   7.106  2.3438  0.4864 -1.0722
 4796SOL    HW225848   0.196   4.603   7.094  1.1486  1.2194 -1.0127
 4797SOL     OW25849   0.926   2.565  14.931  0.1033  0.0190  0.4763
 4797SOL    HW125850   0.838   2.537  14.906  0.1425 -0.9003  1.3493
 4797SOL    HW225851   0.972   2.581  14.848 -0.6944 -0.8400 -0.1338
 4798SOL     OW25852   3.021   1.727   9.586  0.5895 -0.5241 -0.5450
 4798SOL    HW125853   2.978   1.696   9.666  1.7194 -0.8882 -0.0921
 4798SOL    HW225854   2.955   1.699   9.522 -0.7496  0.3024  0.4523
 4799SOL     OW25855   1.865   2.998   8.802 -0.1977 -0.3524 -0.3936
 4799SOL    HW125856   1.928   3.056   8.845  0.7900 -1.7262  0.0226
 4799SOL    HW225857   1.881   3.014   8.709  0.3677 -0.5834 -0.3393
 4800SOL     OW25858   1.280   0.072   5.001  0.0504 -0.2053  0.4845
 4800SOL    HW125859   1.282   0.039   4.912  2.7169 -0.1396  0.5172
 4800SOL    HW225860   1.207   0.024   5.040 -2.3234  0.2880 -3.4078
 4801SOL     OW25861   4.392   1.134   4.577 -0.2081 -0.6947  0.1993
 4801SOL    HW125862   4.432   1.088   4.503 -1.6846 -1.8157  0.1031
 4801SOL    HW225863   4.440   1.111   4.656  2.2208 -0.4939 -1.2448
 4802SOL     OW25864   1.776   0.703   1.412  0.3245  0.0212 -0.1316
 4802SOL    HW125865   1.780   0.608   1.395 -0.2857 -0.0244 -0.0190
 4802SOL    HW225866   1.830   0.714   1.490  1.8492 -0.3260 -1.1323
 4803SOL     OW25867   3.758   1.833   0.466 -0.4927  0.1888  0.0386
 4803SOL    HW125868   3.782   1.776   0.539  1.2699 -0.0506 -0.7371
 4803SOL    HW225869   3.681   1.789   0.428  0.3521 -0.6292 -0.7252
 4804SOL     OW25870   1.756   2.474   6.363  0.2059 -0.6430 -0.7073
 4804SOL    HW125871   1.768   2.394   6.312 -3.1411 -2.1980  0.9083
 4804SOL    HW225872   1.821   2.535   6.329  1.3720 -1.5914 -0.1651
 4805SOL     OW25873   0.115   2.066  10.001 -0.1601 -0.3990  0.9042
 4805SOL    HW125874   0.206   2.093   9.988 -1.0754  1.5478 -1.4903
 4805SOL    HW225875   0.126   2.029  10.088  0.7647 -0.5103  0.7418
 4806SOL     OW25876   4.668   1.404   7.155  0.3286 -0.4881 -0.3231
 4806SOL    HW125877   0.025   1.432   7.110 -1.7857  2.4043 -2.2833
 4806SOL    HW225878   4.682   1.310   7.143  2.8386 -0.5400  3.0398
 4807SOL     OW25879   3.680   2.392   4.844  0.2320  0.0246 -0.7635
 4807SOL    HW125880   3.666   2.456   4.774 -0.5867 -1.3657 -1.8762
 4807SOL    HW225881   3.649   2.444   4.918 -0.7028 -2.8592  0.9151
 4808SOL     OW25882   3.406   0.495   0.653 -0.1826 -0.4419 -0.6627
 4808SOL    HW125883   3.322   0.540   0.661 -0.1736 -0.2885 -1.4446
 4808SOL    HW225884   3.422   0.459   0.740 -1.7733  3.1005  1.0914
 4809SOL     OW25885   0.888   2.465  12.438  0.2373  0.6465 -0.0465
 4809SOL    HW125886   0.928   2.396  12.492 -1.0025 -0.0753 -0.0556
 4809SOL    HW225887   0.831   2.504  12.504  0.4532  0.9656 -0.0525
 4810SOL     OW25888   2.575   2.628   0.609 -0.7398  0.0653 -0.7624
 4810SOL    HW125889   2.623   2.698   0.564  0.3240 -1.1214 -1.4947
 4810SOL    HW225890   2.535   2.673   0.683  0.5065 -2.7396  1.6473
 4811SOL     OW25891   2.889   2.085  17.521 -0.0276 -0.6346 -0.2693
 4811SOL    HW125892   2.943   2.034  17.461  1.0020 -0.9362  0.9097
 4811SOL    HW225893   2.914   2.176  17.506  1.2853 -1.1434 -1.0859
 4812SOL     OW25894   1.752   3.269  10.727  0.0059 -0.1232 -0.0698
 4812SOL    HW125895   1.709   3.191  10.762  0.8937 -1.0256 -0.9900
 4812SOL    HW225896   1.680   3.314  10.683 -0.7390  0.5211  1.7663
 4813SOL     OW25897   0.966   4.437   6.685  0.4896 -0.3657 -0.8788
 4813SOL    HW125898   1.031   4.372   6.659  0.5498 -1.1241  1.1052
 4813SOL    HW225899   0.889   4.401   6.640  0.6080 -0.2829 -1.1465
 4814SOL     OW25900   1.378   3.164   1.002  0.1061 -0.3631 -0.6382
 4814SOL    HW125901   1.295   3.165   0.955  0.2602  0.4051 -0.9028
 4814SOL    HW225902   1.416   3.084   0.966 -1.7673 -1.4347 -0.1981
 4815SOL     OW25903   4.652   2.199   1.501 -0.0476 -0.0087  0.2866
 4815SOL    HW125904   4.610   2.181   1.416 -2.1186  0.1218  1.2847
 4815SOL    HW225905   4.621   2.287   1.523 -0.5831 -0.3752  0.9812
 4816SOL     OW25906   2.229   2.693  12.836  0.3988 -0.0316 -0.0797
 4816SOL    HW125907   2.135   2.684  12.820  0.2233 -1.2706  1.6550
 4816SOL    HW225908   2.232   2.787  12.818  2.0273  0.1431  1.0645
 4817SOL     OW25909   1.325   1.654   8.096  0.0016 -0.1100 -0.3955
 4817SOL    HW125910   1.253   1.672   8.036 -0.2549  1.2815  0.3321
 4817SOL    HW225911   1.394   1.657   8.029  0.3859 -1.4283 -0.0602
 4818SOL     OW25912   4.408   0.098  16.970 -0.5122  0.3374  0.0964
 4818SOL    HW125913   4.418   0.161  16.898  0.9115  0.6506  0.5598
 4818SOL    HW225914   4.333   0.052  16.932 -0.7299  0.1177  0.7938
 4819SOL     OW25915   3.784   3.144   6.441  0.1683 -0.3781 -0.5197
 4819SOL    HW125916   3.704   3.152   6.492  0.6644  2.2736 -0.1696
 4819SOL    HW225917   3.823   3.229   6.463 -2.5160  1.1878 -1.7211
 4820SOL     OW25918   0.910   1.111  15.129 -0.3102  0.1525  0.2539
 4820SOL    HW125919   0.897   1.098  15.222  1.4836  0.9768  0.6187
 4820SOL    HW225920   0.990   1.165  15.130  0.0912 -0.4443  0.4255
 4821SOL     OW25921   2.312   4.500   1.999 -0.4557  0.2343  0.4467
 4821SOL    HW125922   2.294   4.418   1.952 -1.9245  0.9335 -0.2104
 4821SOL    HW225923   2.244   4.545   1.949  0.7298  1.7420  0.1838
 4822SOL     OW25924   1.282   4.181  14.994  0.3881 -0.2410  0.5832
 4822SOL    HW125925   1.293   4.250  14.929  1.9995 -1.6453 -0.5939
 4822SOL    HW225926   1.203   4.135  14.965  0.3282  0.2577 -0.0475
 4823SOL     OW25927   4.154   4.576   9.140  0.1659  0.1140 -0.0488
 4823SOL    HW125928   4.182   4.580   9.231 -1.3017 -1.8538  0.4849
 4823SOL    HW225929   4.138   4.668   9.119  0.2554 -0.1668 -1.3890
 4824SOL     OW25930   0.770   0.259   1.021 -0.2374  0.2602 -0.2994
 4824SOL    HW125931   0.819   0.323   1.073  1.3827 -0.2227 -1.2100
 4824SOL    HW225932   0.691   0.308   0.999 -0.9994 -0.6177  0.5005
 4825SOL     OW25933   2.617   0.195   6.672  0.0030 -0.0514 -0.2455
 4825SOL    HW125934   2.621   0.244   6.754  0.8173  0.0168 -0.3201
 4825SOL    HW225935   2.602   0.107   6.704  1.1297 -0.1573 -0.0203
 4826SOL     OW25936   1.501   3.450   7.544  0.0585 -0.2394  0.1213
 4826SOL    HW125937   1.550   3.469   7.624  0.7106  3.4452 -1.1790
 4826SOL    HW225938   1.568   3.443   7.476 -1.0377 -0.4593 -0.9422
 4827SOL     OW25939   3.677   4.291   2.608 -0.6030  0.1872  0.1448
 4827SOL    HW125940   3.602   4.241   2.642 -0.4991 -0.6833 -0.8860
 4827SOL    HW225941   3.628   4.356   2.557  0.4117  0.4014 -0.5630
 4828SOL     OW25942   3.326   1.642   2.126  0.0971 -0.4703  0.2965
 4828SOL    HW125943   3.266   1.714   2.102  1.2174  0.1539 -0.6237
 4828SOL    HW225944   3.312   1.638   2.220 -1.4942  2.8878  0.2125
 4829SOL     OW25945   2.956   2.763   9.931 -0.1094  0.4753  0.1502
 4829SOL    HW125946   2.898   2.742   9.857  1.2860  0.9874 -1.0770
 4829SOL    HW225947   3.007   2.827   9.881  0.4599 -0.2669 -0.2207
 4830SOL     OW25948   4.232   4.681   6.616  0.3089 -0.2446 -0.1265
 4830SOL    HW125949   4.258   0.023   6.551  0.5801 -0.2556 -0.0281
 4830SOL    HW225950   4.211   4.609   6.557 -0.1239  0.3236 -0.6726
 4831SOL     OW25951   1.106   0.156   1.374  0.4524 -0.6137  0.1557
 4831SOL    HW125952   1.089   0.248   1.394  0.3197 -0.6942  0.4040
 4831SOL    HW225953   1.199   0.152   1.394  0.2147 -0.9275  1.1608
 4832SOL     OW25954   3.848   4.118  13.195  0.7690 -0.2904  0.0004
 4832SOL    HW125955   3.776   4.055  13.186  0.2329  0.1489  1.2221
 4832SOL    HW225956   3.810   4.193  13.241 -1.3516 -0.9627 -0.6774
 4833SOL     OW25957   3.359   0.238   2.129 -0.2071 -0.4798 -0.9804
 4833SOL    HW125958   3.371   0.178   2.055  2.5201  1.9736 -2.4881
 4833SOL    HW225959   3.373   0.317   2.077  1.0058 -0.5265 -0.7143
 4834SOL     OW25960   0.717   1.355   7.580 -0.6723 -0.0981 -0.2340
 4834SOL    HW125961   0.687   1.435   7.538 -0.7081 -0.6448 -1.2641
 4834SOL    HW225962   0.665   1.356   7.660 -0.7717 -0.1946 -0.2979
 4835SOL     OW25963   3.609   1.192   4.036  0.7152 -0.2700 -0.0684
 4835SOL    HW125964   3.568   1.266   4.080 -0.9043  0.9080 -3.5122
 4835SOL    HW225965   3.537   1.172   3.975  0.8917 -2.0900  0.3015
 4836SOL     OW25966   2.869   2.650   1.769  0.1551 -0.5226 -0.3662
 4836SOL    HW125967   2.862   2.592   1.845 -1.3546  0.0715 -0.0525
 4836SOL    HW225968   2.793   2.707   1.783 -0.0903 -0.8052 -0.5682
 4837SOL     OW25969   0.637   4.060  15.954 -0.4904 -0.2045  0.2858
 4837SOL    HW125970   0.705   3.994  15.937 -2.1987 -2.1086  0.7801
 4837SOL    HW225971   0.683   4.113  16.019 -1.1190 -0.8573  1.2608
 4838SOL     OW25972   4.086   1.158   6.175  0.0257 -0.3344  0.0318
 4838SOL    HW125973   4.094   1.252   6.162  0.3233 -0.1834  1.3236
 4838SOL    HW225974   3.995   1.136   6.159  0.1864 -0.7022 -0.3727
 4839SOL     OW25975   1.952   3.497  17.517  0.0075  0.3748 -0.1842
 4839SOL    HW125976   1.916   3.480  17.605  0.4640 -0.5799 -0.1884
 4839SOL    HW225977   1.868   3.519  17.478  0.5667  0.7672 -1.1465
 4840SOL     OW25978   3.994   0.322  13.147 -0.3789  0.3135  0.2287
 4840SOL    HW125979   4.087   0.345  13.140 -0.2355 -0.2109  0.4679
 4840SOL    HW225980   3.978   0.288  13.059 -1.7314 -1.2579  1.1140
 4841SOL     OW25981   2.660   0.413   1.374  0.0763 -0.0650 -0.6706
 4841SOL    HW125982   2.750   0.406   1.407 -1.1147 -0.2968  2.5525
 4841SOL    HW225983   2.652   0.321   1.349 -1.2449  0.1826 -1.1656
 4842SOL     OW25984   4.592   0.117   7.368 -0.2001 -0.2339 -0.0349
 4842SOL    HW125985   4.609   0.068   7.448  1.3455 -0.1531 -0.3169
 4842SOL    HW225986   4.517   0.078   7.322 -0.5057  1.1845 -0.7448
 4843SOL     OW25987   3.530   1.312   7.299 -0.3620 -0.8713  0.0721
 4843SOL    HW125988   3.509   1.379   7.364  1.8298  0.3613 -0.4781
 4843SOL    HW225989   3.461   1.319   7.233  1.2467  0.1835 -1.4883
 4844SOL     OW25990   1.747   3.670   2.396 -0.2174 -0.7227 -0.1773
 4844SOL    HW125991   1.707   3.748   2.358  2.5261 -0.2526 -2.0761
 4844SOL    HW225992   1.831   3.669   2.351  0.3116 -2.0754  0.8673
 4845SOL     OW25993   1.565   2.800   6.501  0.1380 -0.3009  0.0097
 4845SOL    HW125994   1.602   2.878   6.460  2.0218 -1.6373 -0.8537
 4845SOL    HW225995   1.481   2.834   6.531  0.0475 -0.1627 -0.3934
 4846SOL     OW25996   3.351   3.265   4.568 -0.3893 -0.3684  0.2799
 4846SOL    HW125997   3.318   3.348   4.535  0.2911 -1.0303 -2.0859
 4846SOL    HW225998   3.428   3.254   4.512 -1.1892  4.7667 -1.8275
 4847SOL     OW25999   1.562   1.119   7.479 -0.0173 -0.4598  0.0374
 4847SOL    HW126000   1.521   1.200   7.451 -0.1787 -1.3526 -2.3120
 4847SOL    HW226001   1.569   1.138   7.573 -1.8518 -1.7302  0.4520
 4848SOL     OW26002   3.752   0.590  10.888  0.0647  0.4818 -0.2427
 4848SOL    HW126003   3.835   0.597  10.936  1.1010  0.9184 -2.0670
 4848SOL    HW226004   3.691   0.566  10.958  0.1061  0.4890 -0.2041
 4849SOL     OW26005   2.242   4.568   4.130 -0.1601  0.2736  0.8974
 4849SOL    HW126006   2.321   4.612   4.098 -2.5530  2.4402 -2.0879
 4849SOL    HW226007   2.217   4.518   4.053  2.8956 -0.4331  0.3950
 4850SOL     OW26008   1.857   4.176   5.296  0.6162 -0.2641 -0.0139
 4850SOL    HW126009   1.838   4.268   5.317 -1.1806 -0.9699  1.5147
 4850SOL    HW226010   1.928   4.189   5.234  0.8992 -2.9441 -0.2668
 4851SOL     OW26011   3.476   1.135  14.350  0.0682 -0.5232  0.1730
 4851SOL    HW126012   3.423   1.065  14.312 -0.8264  0.0239  0.4064
 4851SOL    HW226013   3.447   1.213  14.303 -0.5540 -0.2360  1.0229
 4852SOL     OW26014   4.549   2.977   7.441  0.2522  0.3315 -0.7565
 4852SOL    HW126015   4.641   3.004   7.436  0.4256 -0.3534 -1.2930
 4852SOL    HW226016   4.509   3.047   7.492  1.6309  0.1129  0.6275
 4853SOL     OW26017   0.581   3.112   0.051 -0.2456 -0.6037 -0.3791
 4853SOL    HW126018   0.570   3.205   0.069  2.8811 -0.7566  2.4796
 4853SOL    HW226019   0.629   3.087   0.130  0.6431  1.0350 -0.3855
 4854SOL     OW26020   3.885   0.741   1.085  0.3022 -0.0076  0.6505
 4854SOL    HW126021   3.881   0.791   1.167 -1.3011  0.6053  0.2056
 4854SOL    HW226022   3.972   0.707   1.103  0.0073 -1.5874 -0.9132
 4855SOL     OW26023   4.518   1.084   8.777 -0.3658 -0.2300  0.0440
 4855SOL    HW126024   4.572   1.080   8.699 -3.6118 -2.6219 -2.1126
 4855SOL    HW226025   4.570   1.143   8.831  0.4416 -1.9553  1.1573
 4856SOL     OW26026   0.368   3.102  17.429  0.5335 -0.1732 -0.0181
 4856SOL    HW126027   0.392   3.174  17.371  2.7832 -1.2845 -0.4765
 4856SOL    HW226028   0.421   3.026  17.404 -1.0421 -1.6955  1.2967
 4857SOL     OW26029   4.343   1.447   5.865 -0.0090 -0.4981  1.2592
 4857SOL    HW126030   4.406   1.397   5.814 -0.3427  0.7057 -0.3144
 4857SOL    HW226031   4.399   1.517   5.898 -0.1602  0.3887 -0.3534
 4858SOL     OW26032   1.288   0.007   1.844 -0.6124 -0.2581  0.7134
 4858SOL    HW126033   1.290   0.017   1.939 -0.9761  0.1004  0.6809
 4858SOL    HW226034   1.370   4.680   1.843  0.4230  1.4471  0.5557
 4859SOL     OW26035   1.490   3.295   8.000  0.0838 -0.2227 -0.2632
 4859SOL    HW126036   1.461   3.296   8.092 -0.2666 -0.1024 -0.3757
 4859SOL    HW226037   1.452   3.375   7.964  1.3279 -0.1346 -1.3623
 4860SOL     OW26038   3.811   1.000   9.164  0.4359  0.6706  1.0361
 4860SOL    HW126039   3.731   1.024   9.211  0.6888  0.6167  1.4927
 4860SOL    HW226040   3.864   1.063   9.212  1.1048  2.0464 -1.5179
 4861SOL     OW26041   3.391   1.044  11.112  0.2783 -0.3968 -0.0604
 4861SOL    HW126042   3.430   1.086  11.035  1.1526  2.2479  1.8530
 4861SOL    HW226043   3.453   1.076  11.177 -2.2372 -1.0373  2.6547
 4862SOL     OW26044   3.920   2.215   4.428 -0.0720 -0.0996 -0.2232
 4862SOL    HW126045   3.975   2.137   4.437 -0.3674 -0.2538  0.2701
 4862SOL    HW226046   3.841   2.168   4.399 -0.4033  0.2861  0.0587
 4863SOL     OW26047   3.370   3.432  12.598  0.0502  0.0361  0.2207
 4863SOL    HW126048   3.366   3.459  12.690 -0.6424  0.4977  0.0539
 4863SOL    HW226049   3.364   3.516  12.553 -1.6392 -2.1476 -3.5401
 4864SOL     OW26050   1.467   1.643  12.178  0.7966 -0.4555  0.1173
 4864SOL    HW126051   1.453   1.733  12.205 -0.6693  0.1823 -2.7675
 4864SOL    HW226052   1.392   1.604  12.223  1.4240  0.1306  1.6701
 4865SOL     OW26053   2.331   2.108   8.664  0.5092 -0.7215 -0.3654
 4865SOL    HW126054   2.249   2.077   8.625 -0.3339 -0.6415  1.3368
 4865SOL    HW226055   2.290   2.179   8.714 -1.4128 -2.4962  0.6052
 4866SOL     OW26056   2.881   3.253   6.594  0.2436  0.2016  0.8216
 4866SOL    HW126057   2.879   3.257   6.690  1.0519  0.5846  0.8278
 4866SOL    HW226058   2.971   3.221   6.587 -0.1325 -0.0725 -2.4492
 4867SOL     OW26059   0.023   3.347   7.818  0.3713  0.2409  0.4614
 4867SOL    HW126060   0.087   3.401   7.866 -0.3993 -0.4818  2.3206
 4867SOL    HW226061   0.076   3.267   7.814  0.4158  0.3428 -0.9009
 4868SOL     OW26062   2.746   3.758   4.696  0.3593 -0.3964  0.5167
 4868SOL    HW126063   2.803   3.775   4.771  0.1551  0.7680  0.3962
 4868SOL    HW226064   2.662   3.802   4.710  0.6662  0.4049 -0.1771
 4869SOL     OW26065   4.142   1.059  11.245  0.4840  0.4120 -0.1754
 4869SOL    HW126066   4.174   1.065  11.155 -2.2415  1.8072 -1.0334
 4869SOL    HW226067   4.087   1.137  11.251 -3.8464 -2.6202 -0.2506
 4870SOL     OW26068   1.192   3.074   7.620  0.5042  0.0117  0.3355
 4870SOL    HW126069   1.202   3.111   7.708 -2.0706 -0.0444  0.6638
 4870SOL    HW226070   1.102   3.042   7.619 -0.1154  1.7935 -0.0847
 4871SOL     OW26071   0.477   3.147  13.523  0.2122  0.2261 -0.1526
 4871SOL    HW126072   0.436   3.065  13.550  1.5988 -0.1980  0.6792
 4871SOL    HW226073   0.541   3.156  13.594  1.6631  0.8888 -1.5415
 4872SOL     OW26074   1.866   3.538   6.001  0.1802  0.3283 -0.3883
 4872SOL    HW126075   1.853   3.457   6.051  2.1589  0.8471  0.9567
 4872SOL    HW226076   1.941   3.577   6.044  1.1393 -1.7146 -0.2107
 4873SOL     OW26077   4.708   4.536   3.193 -0.0186  0.3655 -0.5181
 4873SOL    HW126078   0.035   4.582   3.126 -0.4949  1.0007 -0.4313
 4873SOL    HW226079   0.054   4.483   3.234  0.3982  0.5660 -0.9618
 4874SOL     OW26080   3.414   2.341   4.582  1.0542  0.7111 -0.0854
 4874SOL    HW126081   3.330   2.329   4.626  0.3493  1.1625 -1.3391
 4874SOL    HW226082   3.397   2.327   4.489 -2.5505 -1.1611  0.8514
 4875SOL     OW26083   1.215   2.558   4.358 -0.3386 -0.1570  0.2771
 4875SOL    HW126084   1.277   2.605   4.301  0.5329 -1.0443  0.4829
 4875SOL    HW226085   1.274   2.540   4.431 -0.1896 -3.0603 -0.5762
 4876SOL     OW26086   0.998   0.593   6.254  0.0285  0.3189 -0.2361
 4876SOL    HW126087   0.949   0.640   6.322  1.7511  1.6087  0.1254
 4876SOL    HW226088   1.079   0.643   6.260  2.5625 -4.0614  1.5295
 4877SOL     OW26089   4.519   0.384   0.824  0.6667 -0.3206  0.2326
 4877SOL    HW126090   4.547   0.309   0.877  1.8215  0.3209  0.5191
 4877SOL    HW226091   4.606   0.420   0.808 -0.5993  1.6075 -2.3624
 4878SOL     OW26092   2.894   3.828   8.702 -0.3682 -0.1222 -0.1917
 4878SOL    HW126093   2.967   3.765   8.702 -1.7654 -1.7395 -0.8555
 4878SOL    HW226094   2.863   3.811   8.613 -0.7411  0.5932 -0.1965
 4879SOL     OW26095   4.536   2.888   8.193  0.2244 -0.3799 -0.5091
 4879SOL    HW126096   4.507   2.932   8.113  2.1519  1.9331  0.0546
 4879SOL    HW226097   4.458   2.839   8.215 -1.5599  1.3037 -3.0347
 4880SOL     OW26098   0.974   4.209   1.379  0.4997 -0.1985  0.5891
 4880SOL    HW126099   1.021   4.280   1.336 -1.6821  2.1995  2.1760
 4880SOL    HW226100   1.021   4.214   1.463 -1.1572 -0.5785  1.5414
 4881SOL     OW26101   0.772   1.417  11.277 -0.6843 -0.5627 -0.0768
 4881SOL    HW126102   0.853   1.390  11.320 -0.6057  1.8389  1.2591
 4881SOL    HW226103   0.727   1.332  11.272  1.0505 -1.3475 -2.1768
 4882SOL     OW26104   2.113   3.610  16.215 -0.0398  0.1904  0.3324
 4882SOL    HW126105   2.181   3.596  16.280 -0.2855 -0.6979  0.4020
 4882SOL    HW226106   2.169   3.627  16.139 -0.2045  1.7128  0.5515
 4883SOL     OW26107   2.226   3.200   1.332  0.4502 -0.0768  0.3083
 4883SOL    HW126108   2.252   3.207   1.423  2.5894  1.9952 -0.4722
 4883SOL    HW226109   2.131   3.214   1.340  0.0885 -1.3488 -1.7614
 4884SOL     OW26110   0.748   4.406   6.503  0.4039  0.1919 -0.2826
 4884SOL    HW126111   0.726   4.314   6.516 -2.9837  1.1873  0.8646
 4884SOL    HW226112   0.732   4.431   6.412 -2.3602 -1.6120 -0.2873
 4885SOL     OW26113   2.403   4.051   4.616  0.6636  0.4798  0.1080
 4885SOL    HW126114   2.358   4.104   4.551  0.6599 -0.7077 -0.8777
 4885SOL    HW226115   2.379   3.963   4.587  1.0952 -0.4937  2.6721
 4886SOL     OW26116   4.132   3.278   7.394 -0.0655 -0.6047  0.7209
 4886SOL    HW126117   4.069   3.255   7.463 -0.3166  4.6277  2.2354
 4886SOL    HW226118   4.198   3.332   7.439 -0.8907 -0.0096  1.2280
 4887SOL     OW26119   2.891   1.801  16.098 -0.3821  0.6375  0.2066
 4887SOL    HW126120   2.915   1.888  16.131  1.1104  0.4277 -0.3015
 4887SOL    HW226121   2.969   1.797  16.042 -1.0651 -2.0505 -0.5323
 4888SOL     OW26122   1.324   4.058   6.920 -0.1743 -0.0240  0.3402
 4888SOL    HW126123   1.237   4.080   6.887 -0.1005 -1.7637 -1.0451
 4888SOL    HW226124   1.368   4.051   6.835  1.6636  0.4970  1.2436
 4889SOL     OW26125   1.321   0.004  15.625  0.4225 -0.0661  0.2974
 4889SOL    HW126126   1.417   4.717  15.626  0.3387 -0.9132  0.0973
 4889SOL    HW226127   1.306   0.096  15.645 -2.5130 -0.4193 -0.2780
 4890SOL     OW26128   3.532   4.639   8.687 -0.1624  0.0950 -0.4890
 4890SOL    HW126129   3.595   4.656   8.757  0.2950 -2.3658 -0.3074
 4890SOL    HW226130   3.454   4.684   8.722  0.6656 -0.6456  2.3017
 4891SOL     OW26131   2.856   1.547   3.892  0.3190  0.4555  0.1932
 4891SOL    HW126132   2.819   1.602   3.962  0.3335  3.5336 -2.2159
 4891SOL    HW226133   2.789   1.480   3.888 -0.3953  1.2777 -1.5106
 4892SOL     OW26134   4.287   0.174   6.425 -0.0902  0.5039  0.1986
 4892SOL    HW126135   4.382   0.178   6.434 -0.0495  1.3440 -0.6319
 4892SOL    HW226136   4.276   0.268   6.441 -0.2747 -0.0071  3.0758
 4893SOL     OW26137   4.536   0.474   5.122  0.7959 -0.3072 -0.3313
 4893SOL    HW126138   4.489   0.526   5.057 -1.9527 -1.7812  0.4565
 4893SOL    HW226139   4.472   0.411   5.156  0.9171 -0.4216 -0.3159
 4894SOL     OW26140   4.305   3.587  11.295 -0.5183 -0.1787 -0.3881
 4894SOL    HW126141   4.354   3.516  11.339  1.9788  2.3374  0.8773
 4894SOL    HW226142   4.332   3.584  11.204 -1.9781  1.3514 -0.8582
 4895SOL     OW26143   3.581   1.605   0.966 -0.5059  0.1743 -0.1493
 4895SOL    HW126144   3.592   1.582   0.874 -0.5741  0.9606 -0.3530
 4895SOL    HW226145   3.656   1.567   1.013 -1.9038 -1.8773  0.4023
 4896SOL     OW26146   4.545   4.243   1.525 -0.2957  0.5198  0.3496
 4896SOL    HW126147   4.519   4.292   1.603  0.3842  1.9970 -0.3689
 4896SOL    HW226148   4.561   4.158   1.567 -0.7067  0.4945  0.4582
 4897SOL     OW26149   4.096   3.363   3.872  0.4615 -0.4297 -0.0898
 4897SOL    HW126150   4.025   3.349   3.934 -0.0621  0.9422 -0.3631
 4897SOL    HW226151   4.076   3.294   3.809  0.5192 -2.1387  1.7688
 4898SOL     OW26152   4.564   1.869   9.413 -0.3291  0.0549  0.4139
 4898SOL    HW126153   4.611   1.914   9.342  1.5027 -1.1522  0.8600
 4898SOL    HW226154   4.491   1.825   9.370  0.3266  0.2535 -0.9173
 4899SOL     OW26155   4.426   1.150   7.942 -0.1102  0.1462 -0.4472
 4899SOL    HW126156   4.377   1.102   7.875  2.5459 -2.6073 -0.3922
 4899SOL    HW226157   4.408   1.105   8.025  0.6063  0.3951 -0.1592
 4900SOL     OW26158   1.534   3.325  11.068 -0.1976  0.1335 -0.0833
 4900SOL    HW126159   1.553   3.412  11.103 -3.7073  0.5304  0.8377
 4900SOL    HW226160   1.495   3.274  11.138 -0.4787  2.5478  1.5178
 4901SOL     OW26161   4.412   3.623   7.936 -0.5069  0.2252 -0.2270
 4901SOL    HW126162   4.380   3.711   7.953 -1.1985 -0.6046  2.7164
 4901SOL    HW226163   4.356   3.581   8.002 -2.2855  1.1504 -1.1442
 4902SOL     OW26164   3.274   4.671   8.495  0.2020  0.2554  0.0620
 4902SOL    HW126165   3.324   4.622   8.560  1.5608  1.6172  0.0530
 4902SOL    HW226166   3.354   4.691   8.445 -0.4827 -1.0727 -1.5820
 4903SOL     OW26167   2.333   2.782  15.155 -0.2021  0.0846 -0.0105
 4903SOL    HW126168   2.353   2.869  15.122 -0.6122  1.1706  2.6737
 4903SOL    HW226169   2.415   2.768  15.202  1.2248 -1.6217 -2.9829
 4904SOL     OW26170   1.050   3.687   2.534  0.2842  0.7691 -0.2317
 4904SOL    HW126171   1.018   3.606   2.494 -0.2416  1.2637 -0.8304
 4904SOL    HW226172   1.125   3.648   2.579 -1.4271 -1.6709  0.5061
 4905SOL     OW26173   1.897   4.549  14.050 -0.4649 -0.5819  0.0768
 4905SOL    HW126174   1.909   4.473  13.992 -0.6140 -0.5637  0.0222
 4905SOL    HW226175   1.934   4.621  13.999 -0.3442 -1.0821 -0.5465
 4906SOL     OW26176   1.175   4.333  12.436 -0.0114  0.1090  0.0359
 4906SOL    HW126177   1.225   4.292  12.365 -0.4053  1.9248 -1.2603
 4906SOL    HW226178   1.207   4.274  12.505  0.6134  1.7254  1.1399
 4907SOL     OW26179   2.501   1.155   9.057  0.5016  0.1684  0.3308
 4907SOL    HW126180   2.586   1.118   9.033 -0.1031 -1.8816  1.3061
 4907SOL    HW226181   2.449   1.140   8.978  0.4158 -0.3822  0.4916
 4908SOL     OW26182   4.376   3.249   6.199  0.4800 -0.0324  0.7516
 4908SOL    HW126183   4.352   3.323   6.254 -0.7922  0.0992  0.0079
 4908SOL    HW226184   4.319   3.279   6.128 -1.3997 -1.6402  1.6033
 4909SOL     OW26185   4.572   0.595   1.023  0.3417 -0.2820  0.3672
 4909SOL    HW126186   4.581   0.621   1.115 -0.6844  0.1570  0.3444
 4909SOL    HW226187   4.602   0.673   0.975  0.3899  0.3912  1.4921
 4910SOL     OW26188   2.442   1.458   3.113 -0.1490 -0.4582  0.1118
 4910SOL    HW126189   2.379   1.443   3.043  0.6197  0.6936 -0.8244
 4910SOL    HW226190   2.394   1.521   3.167  0.8375 -0.0825  0.5489
 4911SOL     OW26191   3.660   0.910  17.139  0.1073 -0.2734  0.2311
 4911SOL    HW126192   3.619   0.992  17.113 -3.5937 -2.4523 -0.6906
 4911SOL    HW226193   3.635   0.904  17.232  3.2315  0.4699  1.1286
 4912SOL     OW26194   3.263   2.533   4.748  0.3048  0.4411 -0.2359
 4912SOL    HW126195   3.191   2.542   4.686  1.3956 -2.2173 -1.8833
 4912SOL    HW226196   3.246   2.440   4.764  1.2192  0.4518  0.8514
 4913SOL     OW26197   1.314   0.324   6.307 -0.4152 -0.0298 -0.1313
 4913SOL    HW126198   1.365   0.405   6.312  0.8687 -0.7703 -1.2130
 4913SOL    HW226199   1.263   0.336   6.227  1.4631  0.5519 -1.2424
 4914SOL     OW26200   0.807   0.833   0.224 -0.2236 -0.1025 -0.2723
 4914SOL    HW126201   0.837   0.798   0.308  0.8237 -0.3635 -0.7541
 4914SOL    HW226202   0.828   0.760   0.166 -0.5915  0.4436 -1.0984
 4915SOL     OW26203   1.183   1.355   2.608 -0.0127  0.4127  0.0128
 4915SOL    HW126204   1.144   1.287   2.661 -0.6330 -0.0952 -1.0899
 4915SOL    HW226205   1.239   1.297   2.555 -0.7923 -0.2325 -0.1010
 4916SOL     OW26206   1.268   2.744  17.296  0.2582 -0.4074 -0.1610
 4916SOL    HW126207   1.215   2.682  17.347 -0.5525 -0.9232 -1.6198
 4916SOL    HW226208   1.335   2.762  17.363 -1.6419 -0.0381  1.6472
 4917SOL     OW26209   0.679   1.045   2.398  0.3069 -0.1929 -0.1578
 4917SOL    HW126210   0.662   1.054   2.492 -0.0479 -0.4018 -0.2058
 4917SOL    HW226211   0.627   0.967   2.382  0.4540 -0.3736  0.2477
 4918SOL     OW26212   0.510   0.826   4.937 -0.2817  0.1037  0.5426
 4918SOL    HW126213   0.470   0.821   4.850 -1.3438 -0.2299  1.0463
 4918SOL    HW226214   0.491   0.739   4.973  1.2860  0.5975  2.5332
 4919SOL     OW26215   1.729   1.332   3.102  0.0536 -0.0622  0.8976
 4919SOL    HW126216   1.767   1.405   3.151  1.6395 -1.1395  1.2594
 4919SOL    HW226217   1.683   1.295   3.178  0.3318  0.1074  1.1485
 4920SOL     OW26218   2.109   2.857   7.802  0.1078  0.2024  0.1656
 4920SOL    HW126219   2.055   2.919   7.853  0.1741 -1.5505  2.4000
 4920SOL    HW226220   2.057   2.856   7.722 -1.6514 -1.0167  1.2919
 4921SOL     OW26221   2.635   3.975   7.102 -0.2894  0.1855 -0.3890
 4921SOL    HW126222   2.545   3.987   7.132  0.3866  0.9599  1.3521
 4921SOL    HW226223   2.673   4.062   7.120  1.0593 -0.0259 -2.2097
 4922SOL     OW26224   0.373   3.704   2.316  0.8710  0.6075 -0.2826
 4922SOL    HW126225   0.297   3.678   2.264 -0.6095 -1.2210  2.7846
 4922SOL    HW226226   0.431   3.638   2.278  0.2684 -0.5931  0.8433
 4923SOL     OW26227   4.646   2.331  11.807  0.7244  0.0901  0.2836
 4923SOL    HW126228   4.636   2.352  11.715 -1.8652 -0.2580  0.4779
 4923SOL    HW226229   4.720   2.388  11.827 -1.2188  1.4264  3.7474
 4924SOL     OW26230   4.531   3.437   5.812  0.4737 -0.7956 -0.4566
 4924SOL    HW126231   4.478   3.507   5.773  0.0797 -0.7702  0.1144
 4924SOL    HW226232   4.469   3.400   5.875 -0.5533 -0.3793 -1.2229
 4925SOL     OW26233   2.596   2.027   6.302 -0.1810 -0.3833 -0.4946
 4925SOL    HW126234   2.687   2.057   6.305 -0.1344 -0.5830 -0.0184
 4925SOL    HW226235   2.596   1.952   6.360 -3.3161  0.7451  0.9835
 4926SOL     OW26236   4.217   1.180   5.084 -0.4688  0.2056 -0.7812
 4926SOL    HW126237   4.187   1.267   5.109  1.1405  0.1657  1.2884
 4926SOL    HW226238   4.139   1.139   5.048 -0.5103  0.0787 -0.5428
 4927SOL     OW26239   3.536   3.126   9.764 -0.1158  0.2877 -0.4961
 4927SOL    HW126240   3.524   3.188   9.692 -1.9470  1.9555  1.2461
 4927SOL    HW226241   3.467   3.163   9.819 -0.6390  1.2108 -1.7655
 4928SOL     OW26242   0.742   2.274   4.688 -0.6625 -0.2671  0.4360
 4928SOL    HW126243   0.660   2.312   4.718 -1.1356 -1.2470  0.4105
 4928SOL    HW226244   0.798   2.283   4.765 -1.6857 -0.4722  1.1911
 4929SOL     OW26245   1.686   2.931  10.681  0.4053  0.4647 -0.0158
 4929SOL    HW126246   1.617   2.901  10.622  1.8463  1.7094 -2.3330
 4929SOL    HW226247   1.653   2.908  10.768  0.8509  0.0948  0.0571
 4930SOL     OW26248   3.839   2.481  11.283 -0.1553 -0.1465 -0.2021
 4930SOL    HW126249   3.890   2.403  11.302  1.0302  1.0771  1.6905
 4930SOL    HW226250   3.771   2.466  11.349 -1.6716 -0.2656 -1.7733
 4931SOL     OW26251   4.081   3.600  11.699 -0.0091  0.1469 -0.4755
 4931SOL    HW126252   4.097   3.564  11.612 -0.7213  2.1806 -1.4321
 4931SOL    HW226253   4.004   3.655  11.686 -0.3690 -0.2560 -0.0632
 4932SOL     OW26254   0.103   4.670   3.979 -0.5379 -0.0304 -0.8565
 4932SOL    HW126255   0.199   4.666   3.976 -0.5188  0.1360 -0.5156
 4932SOL    HW226256   0.084   4.585   4.020  0.2114 -1.0117 -2.5347
 4933SOL     OW26257   2.797   4.394   4.189  0.5996  0.2655 -0.1528
 4933SOL    HW126258   2.823   4.401   4.097  0.5134  0.6719 -0.1483
 4933SOL    HW226259   2.774   4.484   4.212 -0.3139  0.5288 -2.1222
 4934SOL     OW26260   1.017   1.807   6.863  0.1474  0.0280  0.6102
 4934SOL    HW126261   0.972   1.844   6.940  0.0817 -2.7545  1.9122
 4934SOL    HW226262   1.006   1.870   6.792  0.7729 -2.0497 -1.3253
 4935SOL     OW26263   4.624   2.159  15.803  0.0822 -0.1762  0.0770
 4935SOL    HW126264   4.578   2.209  15.870 -2.4192 -0.6422 -1.3003
 4935SOL    HW226265   4.665   2.234  15.759  1.8441 -1.9711 -1.3414
 4936SOL     OW26266   3.085   0.518   8.398 -0.3215  0.1143  0.0675
 4936SOL    HW126267   3.114   0.604   8.370 -2.0812  0.4639 -0.6805
 4936SOL    HW226268   3.166   0.466   8.397 -0.5051 -0.2266  1.9507
 4937SOL     OW26269   1.034   3.448   9.188  0.3049  0.0276  0.3084
 4937SOL    HW126270   1.043   3.521   9.126 -3.4543  0.3474  0.1677
 4937SOL    HW226271   0.940   3.445   9.205 -0.0260  0.7323 -1.3869
 4938SOL     OW26272   3.410   3.711   7.967 -0.1811  0.0622  0.3496
 4938SOL    HW126273   3.501   3.693   7.993 -0.0737  0.8493  0.5107
 4938SOL    HW226274   3.359   3.677   8.041 -0.1527 -0.8309 -0.0386
 4939SOL     OW26275   2.303   0.508  14.593  0.3627  0.0633 -0.4436
 4939SOL    HW126276   2.255   0.459  14.526 -1.3710  0.7444  0.3097
 4939SOL    HW226277   2.244   0.583  14.598  1.9191  1.0636  2.9198
 4940SOL     OW26278   3.303   3.101   7.824  0.4946  0.2557  0.0077
 4940SOL    HW126279   3.224   3.052   7.801  1.4980 -1.2731 -0.1838
 4940SOL    HW226280   3.279   3.185   7.784 -0.5007 -1.6584 -3.4256
 4941SOL     OW26281   1.847   4.269   4.671 -0.0689  0.8110  0.3340
 4941SOL    HW126282   1.918   4.211   4.643 -2.0774 -1.7857  0.6648
 4941SOL    HW226283   1.813   4.306   4.589  1.3810 -0.0795 -0.6593
 4942SOL     OW26284   3.400   2.251   4.302  0.4697 -0.4681  0.4009
 4942SOL    HW126285   3.401   2.209   4.216  1.9776 -0.8023  0.5764
 4942SOL    HW226286   3.409   2.173   4.357 -0.1562 -1.4086 -0.8680
 4943SOL     OW26287   1.354   2.780   3.244  0.8396 -0.3311 -0.3949
 4943SOL    HW126288   1.386   2.739   3.164 -0.7826 -0.5972 -0.9011
 4943SOL    HW226289   1.284   2.718   3.262 -0.1798  0.7178 -0.7249
 4944SOL     OW26290   0.249   2.391   5.690  0.4885 -0.2249 -0.2713
 4944SOL    HW126291   0.324   2.365   5.744  1.3506  0.2256 -1.2402
 4944SOL    HW226292   0.295   2.442   5.624 -0.8045 -0.6956 -1.5365
 4945SOL     OW26293   1.757   3.902   8.633  0.3426 -0.3049  0.2365
 4945SOL    HW126294   1.850   3.924   8.625  0.5205 -0.2399  2.4555
 4945SOL    HW226295   1.717   3.938   8.554 -0.4256  0.6481  1.0506
 4946SOL     OW26296   2.364   2.351   4.011 -0.0505  0.0119 -0.2066
 4946SOL    HW126297   2.338   2.262   3.985 -0.4972  0.2955 -0.7377
 4946SOL    HW226298   2.434   2.372   3.950 -1.6319  2.9564 -1.0213
 4947SOL     OW26299   2.828   4.667  17.207  0.1113 -0.4963 -0.2816
 4947SOL    HW126300   2.804   4.659  17.299  1.1715 -1.8220 -0.1226
 4947SOL    HW226301   2.758   4.621  17.161 -1.2551  1.9428 -0.6761
 4948SOL     OW26302   4.630   0.662  12.383 -0.5482  0.1805 -0.5216
 4948SOL    HW126303   4.562   0.624  12.327  0.8770 -1.0045 -1.4852
 4948SOL    HW226304   4.689   0.699  12.317 -1.1302  0.8344 -0.6785
 4949SOL     OW26305   2.232   0.767   4.392 -0.5295  0.6168  0.7703
 4949SOL    HW126306   2.286   0.816   4.329 -1.1540  1.8726  1.1964
 4949SOL    HW226307   2.157   0.737   4.341 -0.3615  0.3936  0.6563
 4950SOL     OW26308   2.135   3.952   7.442 -0.3084 -0.3540 -0.1669
 4950SOL    HW126309   2.063   3.926   7.385 -0.2099 -2.2194  0.5568
 4950SOL    HW226310   2.103   3.929   7.529 -1.3542  1.2381 -0.1392
 4951SOL     OW26311   3.449   3.602   4.795 -0.2801  0.4583 -0.0363
 4951SOL    HW126312   3.477   3.690   4.768  0.3311 -0.3926 -2.2457
 4951SOL    HW226313   3.422   3.566   4.710  1.4491 -1.9672  0.4235
 4952SOL     OW26314   1.044   2.609   2.346 -0.1773 -0.1469 -0.8179
 4952SOL    HW126315   1.034   2.534   2.405 -0.2731  0.0782 -0.5471
 4952SOL    HW226316   1.105   2.571   2.284  0.3996  0.1562 -0.4306
 4953SOL     OW26317   4.485   4.671   6.330 -0.2062 -0.1058 -1.0722
 4953SOL    HW126318   4.502   0.012   6.399  0.6891 -0.2922 -1.1160
 4953SOL    HW226319   4.419   4.722   6.283 -2.6515 -1.7432  0.5951
 4954SOL     OW26320   3.930   3.944  14.092  0.1033  1.1331  0.3865
 4954SOL    HW126321   3.854   3.954  14.034 -0.2505  1.4587  0.9094
 4954SOL    HW226322   3.882   3.894  14.159  0.6604  1.6402  1.1519
 4955SOL     OW26323   1.740   3.071   2.908 -0.3989 -0.8601  0.4070
 4955SOL    HW126324   1.791   3.152   2.905 -0.2589 -1.0856 -3.2921
 4955SOL    HW226325   1.794   3.012   2.855 -1.8643 -0.0550 -1.9852
 4956SOL     OW26326   1.855   3.775   3.075  0.4410 -0.3208  0.3097
 4956SOL    HW126327   1.854   3.705   3.140  0.6870  0.6721  1.3736
 4956SOL    HW226328   1.948   3.800   3.071  0.4530 -0.5376 -0.9278
 4957SOL     OW26329   2.665   3.951   9.233 -0.7042  0.0110 -0.3533
 4957SOL    HW126330   2.633   3.945   9.143 -1.8440  0.5716  0.0036
 4957SOL    HW226331   2.651   4.044   9.252 -1.0099 -0.0649 -0.2052
 4958SOL     OW26332   1.678   2.952  16.926  0.0051 -0.5555 -0.1747
 4958SOL    HW126333   1.700   2.859  16.929  3.1761  0.2166  0.2886
 4958SOL    HW226334   1.764   2.990  16.945 -0.0295 -0.9738  0.7739
 4959SOL     OW26335   1.081   2.649  11.652  0.0276  0.0730  0.2269
 4959SOL    HW126336   1.078   2.573  11.594  1.7081  0.3999 -0.2832
 4959SOL    HW226337   1.067   2.617  11.741 -0.6050  0.7822  0.3853
 4960SOL     OW26338   3.967   1.893   7.421 -0.3170  0.1243  0.1880
 4960SOL    HW126339   4.044   1.897   7.364 -0.1738  1.9852  0.5168
 4960SOL    HW226340   4.000   1.813   7.463  0.3514  0.7414  0.8424
 4961SOL     OW26341   0.395   0.996   2.408 -0.5966 -0.2764 -0.0419
 4961SOL    HW126342   0.373   0.910   2.374  1.6827 -1.4297  1.3965
 4961SOL    HW226343   0.415   0.968   2.498  2.5038  0.0658 -0.6305
 4962SOL     OW26344   2.380   3.245   0.821  0.7563 -0.3254 -0.1640
 4962SOL    HW126345   2.300   3.252   0.768  1.2776 -1.3834 -1.1055
 4962SOL    HW226346   2.424   3.324   0.791 -2.1954  0.9352 -1.2321
 4963SOL     OW26347   2.241   0.078   9.817 -0.3189 -0.2217  0.0698
 4963SOL    HW126348   2.188   0.011   9.774  0.7001 -0.9262 -0.0704
 4963SOL    HW226349   2.330   0.063   9.785 -1.1070  0.2704 -2.3532
 4964SOL     OW26350   0.329   2.271  14.375 -0.3488 -0.2135  0.4335
 4964SOL    HW126351   0.315   2.285  14.281 -1.1108 -0.8654  0.4529
 4964SOL    HW226352   0.385   2.193  14.375  1.1769  0.8816 -0.1808
 4965SOL     OW26353   0.437   1.786   4.263  0.1114 -0.0007 -0.0129
 4965SOL    HW126354   0.420   1.722   4.332  0.5659 -0.4115 -0.2814
 4965SOL    HW226355   0.347   1.816   4.247  0.2021  0.8559  1.1121
 4966SOL     OW26356   1.665   0.421   1.614 -0.2865 -0.1964 -0.3799
 4966SOL    HW126357   1.729   0.428   1.543 -0.0531 -0.8827 -0.2377
 4966SOL    HW226358   1.702   0.487   1.672  0.8240 -0.2354 -1.0327
 4967SOL     OW26359   1.171   2.884  13.623 -0.1076 -0.4340 -0.6562
 4967SOL    HW126360   1.092   2.875  13.677 -0.8164  3.1233 -1.0458
 4967SOL    HW226361   1.187   2.796  13.590  2.7961 -1.1112  2.5587
 4968SOL     OW26362   2.005   0.381  12.249  0.1008 -0.2543  0.4666
 4968SOL    HW126363   2.020   0.315  12.318 -1.3492  0.3665  1.3912
 4968SOL    HW226364   2.095   0.403  12.226  0.5517  1.6756  4.0203
 4969SOL     OW26365   1.621   0.426   2.113 -0.7238 -0.5343 -0.1794
 4969SOL    HW126366   1.539   0.377   2.124 -0.7646  0.1317  2.4514
 4969SOL    HW226367   1.582   0.513   2.110 -0.6151 -0.4679  0.4262
 4970SOL     OW26368   1.232   4.393   6.884 -0.1385  0.2198 -0.2201
 4970SOL    HW126369   1.301   4.413   6.947  0.7934 -0.5084 -1.0323
 4970SOL    HW226370   1.159   4.442   6.923  0.0410  0.7418 -0.5478
 4971SOL     OW26371   2.436   3.556   2.710  0.4564 -0.0162  0.0060
 4971SOL    HW126372   2.452   3.462   2.716 -0.0763 -0.1187 -0.1003
 4971SOL    HW226373   2.340   3.554   2.708  0.3326  3.4343  2.0721
 4972SOL     OW26374   1.304   2.555   7.243 -0.9546  0.1603 -0.0086
 4972SOL    HW126375   1.394   2.557   7.274 -1.1231 -0.5597  0.5302
 4972SOL    HW226376   1.268   2.638   7.274  1.6978  1.5068 -0.5597
 4973SOL     OW26377   1.030   0.693  16.107 -0.1374  0.0558  0.4797
 4973SOL    HW126378   1.018   0.642  16.187  0.4502 -0.8475 -0.0069
 4973SOL    HW226379   0.977   0.768  16.133 -1.2745 -0.1284 -1.3394
 4974SOL     OW26380   1.534   1.469   7.868  0.0170  0.3373 -0.0069
 4974SOL    HW126381   1.600   1.489   7.935 -0.1752  2.7406 -0.5206
 4974SOL    HW226382   1.499   1.557   7.854  0.9043  0.5256 -1.0446
 4975SOL     OW26383   0.283   2.070   6.475  0.0826  0.1038 -0.0948
 4975SOL    HW126384   0.335   2.007   6.425 -0.3307  0.8060 -1.4202
 4975SOL    HW226385   0.253   2.125   6.403 -0.6417  0.2406  0.3101
 4976SOL     OW26386   3.964   3.621   2.084  0.5095  0.3331 -0.1443
 4976SOL    HW126387   3.977   3.694   2.144  0.6042  1.2164 -1.2429
 4976SOL    HW226388   3.878   3.635   2.043 -0.2420  1.5765  1.8689
 4977SOL     OW26389   4.033   2.110   3.229 -0.1163  0.4531 -0.1080
 4977SOL    HW126390   3.991   2.128   3.145 -0.3309  0.3208 -0.0290
 4977SOL    HW226391   4.004   2.188   3.276  1.4588 -0.3913  2.2100
 4978SOL     OW26392   3.235   2.152   3.530 -0.2498 -0.1442 -1.0097
 4978SOL    HW126393   3.142   2.137   3.547  0.2728  1.2926  3.1476
 4978SOL    HW226394   3.261   2.075   3.479  1.7076 -0.3514  0.2787
 4979SOL     OW26395   4.391   0.369   1.101 -1.0539 -0.1825 -0.1791
 4979SOL    HW126396   4.451   0.295   1.110  1.8110  2.4302  2.2673
 4979SOL    HW226397   4.444   0.435   1.056 -0.1460 -1.6404 -1.2278
 4980SOL     OW26398   3.278   3.951   7.879 -0.7809 -0.3335  0.3526
 4980SOL    HW126399   3.336   3.875   7.887  0.6549  0.5238 -1.9442
 4980SOL    HW226400   3.278   3.978   7.971 -3.0888  1.7561 -0.2715
 4981SOL     OW26401   3.774   2.866   6.842 -0.1190  0.2851  0.4514
 4981SOL    HW126402   3.803   2.792   6.789 -0.9081  1.1403 -1.1655
 4981SOL    HW226403   3.820   2.943   6.809  0.9721 -0.9914 -0.9991
 4982SOL     OW26404   2.255   3.969  10.950  0.6964 -0.3949 -0.4905
 4982SOL    HW126405   2.221   3.913  10.879  0.8044 -1.5788  0.3958
 4982SOL    HW226406   2.291   3.906  11.012 -3.0157  0.2599  2.3347
 4983SOL     OW26407   2.122   4.325   7.706  0.1495 -0.0642  0.1126
 4983SOL    HW126408   2.182   4.399   7.704  0.7335 -0.5182  0.5294
 4983SOL    HW226409   2.126   4.315   7.611 -0.2002  0.2009  0.0720
 4984SOL     OW26410   0.285   0.380   5.871  0.4427  0.2920 -0.3305
 4984SOL    HW126411   0.275   0.427   5.789 -0.7670  0.1274 -0.2726
 4984SOL    HW226412   0.368   0.428   5.881  0.8323 -0.3188 -0.6108
 4985SOL     OW26413   2.265   4.063  10.065 -0.3402 -0.0448  0.2903
 4985SOL    HW126414   2.207   4.109  10.127 -0.0967 -0.9385  1.1793
 4985SOL    HW226415   2.349   4.087  10.104 -0.4124  1.3126 -0.3985
 4986SOL     OW26416   1.006   3.376   3.489 -0.0386  0.3640 -0.4097
 4986SOL    HW126417   1.027   3.452   3.543  0.8329  0.2805 -0.6365
 4986SOL    HW226418   1.088   3.327   3.495  0.0692  0.7985  1.4364
 4987SOL     OW26419   3.259   0.036   8.029 -0.2034 -0.4622  0.6481
 4987SOL    HW126420   3.181   0.077   8.066 -0.2834  0.2497 -0.2839
 4987SOL    HW226421   3.243   4.671   8.065 -2.5381 -0.5058 -0.4679
 4988SOL     OW26422   3.860   1.244   6.921  0.3242  0.5417 -1.0744
 4988SOL    HW126423   3.929   1.311   6.927 -2.2726  3.0826  0.5176
 4988SOL    HW226424   3.829   1.256   6.831  0.1587 -1.2558 -1.2549
 4989SOL     OW26425   1.057   3.881   6.605 -0.6303 -0.5245 -0.2392
 4989SOL    HW126426   0.967   3.886   6.638 -0.5880 -1.1612 -0.0167
 4989SOL    HW226427   1.097   3.877   6.692 -1.7507 -1.3054  0.2426
 4990SOL     OW26428   2.618   1.389   8.814  0.2015  0.1133  0.0738
 4990SOL    HW126429   2.633   1.355   8.726  0.3391 -0.2883  0.2512
 4990SOL    HW226430   2.676   1.332   8.865  0.7781  1.5824  1.0553
 4991SOL     OW26431   2.397   0.559   3.484  0.2691 -0.1589 -0.3484
 4991SOL    HW126432   2.369   0.468   3.479 -0.9126  0.2219 -0.6480
 4991SOL    HW226433   2.382   0.588   3.394 -0.9774  2.0800  0.5741
 4992SOL     OW26434   4.338   0.994   8.134  0.0275 -0.0189  0.3491
 4992SOL    HW126435   4.344   1.068   8.195 -1.1017  0.1064  0.3099
 4992SOL    HW226436   4.321   0.919   8.191 -0.4818  0.0345  0.2615
 4993SOL     OW26437   2.647   0.365   4.740  0.1040  0.5768 -0.4537
 4993SOL    HW126438   2.588   0.440   4.746  1.0090  1.3525 -1.4533
 4993SOL    HW226439   2.582   0.294   4.740 -0.2567  0.9107  3.2970
 4994SOL     OW26440   1.773   3.953   5.727 -0.1126  0.1740 -0.3463
 4994SOL    HW126441   1.740   3.939   5.815  0.4559  2.5752  0.2426
 4994SOL    HW226442   1.829   3.876   5.729  1.3309  1.3406  2.8267
 4995SOL     OW26443   0.770   0.855   3.925  0.4776 -0.7568 -0.1943
 4995SOL    HW126444   0.717   0.800   3.983  1.3452 -0.7601  0.6042
 4995SOL    HW226445   0.731   0.941   3.935 -0.5763 -1.4632  1.9011
 4996SOL     OW26446   4.589   0.728  17.299  0.1116  0.6106  0.3047
 4996SOL    HW126447   4.523   0.753  17.363 -0.9670 -3.5662  0.8473
 4996SOL    HW226448   4.544   0.772  17.227 -1.1671 -2.1252 -0.5592
 4997SOL     OW26449   1.379   4.305   6.234  0.0926 -0.2760 -0.7145
 4997SOL    HW126450   1.297   4.314   6.281  0.2857 -0.8048 -0.2771
 4997SOL    HW226451   1.435   4.266   6.301  1.7914  2.5249 -0.5229
 4998SOL     OW26452   1.282   1.283   1.678  0.4351  0.7122 -0.1955
 4998SOL    HW126453   1.242   1.226   1.613  0.8938 -1.0715  1.0871
 4998SOL    HW226454   1.343   1.335   1.626  0.1918 -1.0165 -2.1884
 4999SOL     OW26455   2.548   0.846   8.299  0.4768 -0.0250  0.4555
 4999SOL    HW126456   2.638   0.814   8.303  0.2605 -0.8436 -1.1167
 4999SOL    HW226457   2.494   0.767   8.305 -0.1126  0.1514 -2.2429
 5000SOL     OW26458   2.323   1.639  15.158 -0.0737 -0.8085 -0.0424
 5000SOL    HW126459   2.413   1.642  15.125 -0.5280 -1.1626 -1.3288
 5000SOL    HW226460   2.280   1.610  15.077  0.9163  0.1475 -0.9162
 5001SOL     OW26461   1.358   0.743  13.462 -0.1437  0.0628  0.5235
 5001SOL    HW126462   1.418   0.804  13.420  0.8619 -0.4410  1.2156
 5001SOL    HW226463   1.362   0.682  13.389 -1.6675  1.2530 -0.5527
 5002SOL     OW26464   3.546   1.776   5.962  0.6692 -0.3843 -0.1929
 5002SOL    HW126465   3.592   1.777   6.046 -0.7256 -0.5350  0.5699
 5002SOL    HW226466   3.614   1.743   5.903  0.0767 -0.7445 -0.6784
 5003SOL     OW26467   2.234   3.125  17.353 -0.0285 -0.2599  0.5168
 5003SOL    HW126468   2.163   3.187  17.370 -1.1297 -1.7476  1.3359
 5003SOL    HW226469   2.315   3.173  17.371 -0.7331  1.2091 -0.3062
 5004SOL     OW26470   1.499   2.845   9.463 -0.0967  0.0463  0.3203
 5004SOL    HW126471   1.562   2.851   9.392 -0.1800  1.2237  0.3585
 5004SOL    HW226472   1.558   2.839   9.539  0.4309 -1.0921 -0.1767
 5005SOL     OW26473   3.997   2.065  10.483  0.3801  0.3361 -0.1572
 5005SOL    HW126474   3.987   2.044  10.391 -1.1658 -0.1840  0.1321
 5005SOL    HW226475   4.091   2.059  10.497  0.1486  1.0776  1.7971
 5006SOL     OW26476   2.890   3.927  15.599 -0.0603 -0.5842  0.0411
 5006SOL    HW126477   2.869   3.877  15.678  0.5752 -1.3459 -0.2730
 5006SOL    HW226478   2.972   3.963  15.634  0.1056 -1.9071  1.0168
 5007SOL     OW26479   2.508   2.848   2.989  0.0498 -0.2102 -0.0953
 5007SOL    HW126480   2.580   2.869   2.929  1.7728  0.0337  2.0531
 5007SOL    HW226481   2.461   2.931   2.980 -1.0944 -0.7880  0.6452
 5008SOL     OW26482   2.663   0.064   5.614 -0.0125  0.1019  0.2808
 5008SOL    HW126483   2.742   0.112   5.640 -1.6637  2.0983  1.6727
 5008SOL    HW226484   2.600   0.124   5.653  1.0784  0.5662  1.3458
 5009SOL     OW26485   4.087   4.095   9.833 -0.0275 -0.0823  0.1721
 5009SOL    HW126486   4.133   4.096   9.917  0.5874 -1.7619 -0.1487
 5009SOL    HW226487   4.006   4.056   9.865  0.2482  1.4050  2.6741
 5010SOL     OW26488   4.342   0.619   9.673  0.0186 -0.0613 -0.1178
 5010SOL    HW126489   4.363   0.630   9.581  2.2018 -1.9303  0.1744
 5010SOL    HW226490   4.429   0.605   9.709  0.1919 -0.1966 -0.6024
 5011SOL     OW26491   3.208   0.823   9.163 -0.0882  0.0738 -0.0974
 5011SOL    HW126492   3.276   0.806   9.229 -0.0340  0.0304 -0.1646
 5011SOL    HW226493   3.163   0.895   9.208  0.2807 -0.0604  0.4883
 5012SOL     OW26494   2.622   0.616  12.071 -0.4823 -0.2324 -0.5770
 5012SOL    HW126495   2.645   0.595  12.161  1.9053  0.5732 -0.9839
 5012SOL    HW226496   2.703   0.590  12.027 -0.9020 -0.5186 -1.1903
 5013SOL     OW26497   0.853   4.337   3.449 -0.6081 -0.1306  0.8849
 5013SOL    HW126498   0.832   4.409   3.390 -0.8899 -0.7287  0.2570
 5013SOL    HW226499   0.842   4.382   3.533 -0.8673  1.5317 -0.0259
 5014SOL     OW26500   3.231   0.541   3.326  0.2043  0.1940 -0.1306
 5014SOL    HW126501   3.285   0.478   3.279 -0.0424  1.8440 -2.6333
 5014SOL    HW226502   3.164   0.565   3.262 -1.8227 -0.8824  1.5776
 5015SOL     OW26503   0.303   0.475   4.417 -0.4322  0.2559  0.8734
 5015SOL    HW126504   0.275   0.564   4.398  0.7582  1.2540  3.6902
 5015SOL    HW226505   0.314   0.435   4.331 -0.4596  0.1248  0.9306
 5016SOL     OW26506   2.340   0.386   9.217  0.4193 -0.0862  0.6133
 5016SOL    HW126507   2.388   0.413   9.296  2.3991  1.1268 -0.9961
 5016SOL    HW226508   2.248   0.404   9.236  0.3299  0.2964 -0.1749
 5017SOL     OW26509   3.567   3.404  17.467 -0.3691 -0.1111  0.6639
 5017SOL    HW126510   3.650   3.382  17.425  0.5163  1.4744  1.5634
 5017SOL    HW226511   3.598   3.480  17.517  0.9691  0.2390 -0.6815
 5018SOL     OW26512   2.664   0.612   0.597  0.2844  0.3998  0.0596
 5018SOL    HW126513   2.597   0.554   0.632  0.5266 -0.4339 -0.8824
 5018SOL    HW226514   2.608   0.655   0.533 -0.3704 -1.0332 -0.3025
 5019SOL     OW26515   2.404   2.499  13.025 -0.0035  0.1457 -0.5454
 5019SOL    HW126516   2.355   2.556  13.084  0.4121  1.1356 -1.1649
 5019SOL    HW226517   2.483   2.553  13.022 -1.0356  1.8031  2.2132
 5020SOL     OW26518   2.870   1.304  11.503  0.0794  0.0563 -0.4594
 5020SOL    HW126519   2.779   1.329  11.485  0.0497 -0.8956 -1.6670
 5020SOL    HW226520   2.907   1.286  11.416  0.2874  0.0798 -0.3751
 5021SOL     OW26521   4.195   0.083   3.884  0.1589 -0.6259  0.3144
 5021SOL    HW126522   4.127   0.137   3.924  2.6048  1.3845  1.7515
 5021SOL    HW226523   4.269   0.080   3.945 -1.6095 -3.6643  2.3178
 5022SOL     OW26524   3.454   0.307   2.813  0.8358 -0.1696 -0.3972
 5022SOL    HW126525   3.474   0.258   2.893 -0.0658  1.6104  0.9130
 5022SOL    HW226526   3.371   0.277   2.774  0.0223  1.2765  0.2399
 5023SOL     OW26527   4.476   2.063   4.431  0.0613  0.0240 -0.5747
 5023SOL    HW126528   4.387   2.096   4.424  0.4892  1.0768 -1.0862
 5023SOL    HW226529   4.475   2.038   4.523  0.5527 -1.2799 -0.9212
 5024SOL     OW26530   3.838   1.307   7.219 -0.4523  0.3793 -0.4115
 5024SOL    HW126531   3.899   1.322   7.147 -0.2327  0.5700 -0.1850
 5024SOL    HW226532   3.846   1.391   7.265 -0.6854  0.6517 -0.8671
 5025SOL     OW26533   3.512   2.480  17.128 -0.2618  0.1658 -0.2284
 5025SOL    HW126534   3.563   2.562  17.124 -2.4727  1.7618  4.4288
 5025SOL    HW226535   3.422   2.510  17.123  0.0962  1.4995  1.2041
 5026SOL     OW26536   4.107   0.482   9.534 -0.4215  0.3879 -0.0689
 5026SOL    HW126537   4.071   0.446   9.452 -2.4345  0.0539  0.9600
 5026SOL    HW226538   4.198   0.500   9.511  0.4220 -1.9423  1.4406
 5027SOL     OW26539   4.225   2.556   9.518  0.1097 -0.4996 -0.1495
 5027SOL    HW126540   4.220   2.645   9.481  0.9716  0.0834  1.1603
 5027SOL    HW226541   4.162   2.506   9.465 -0.1228 -0.9039  0.5072
 5028SOL     OW26542   2.710   0.703   6.148 -0.2411 -0.5258  0.3361
 5028SOL    HW126543   2.620   0.677   6.170  0.1000 -2.0794 -0.1130
 5028SOL    HW226544   2.768   0.681   6.221 -1.4207  1.0546  1.7772
 5029SOL     OW26545   3.692   4.516   6.262 -0.0446  0.1241 -0.2821
 5029SOL    HW126546   3.597   4.512   6.278 -0.4156  2.2611 -1.8440
 5029SOL    HW226547   3.698   4.557   6.176  1.9830 -0.5725 -0.4633
 5030SOL     OW26548   0.437   3.497   3.358  0.4582  0.0981 -0.9447
 5030SOL    HW126549   0.397   3.542   3.284 -3.0451 -0.2579  0.7393
 5030SOL    HW226550   0.485   3.570   3.397 -1.9460  0.5001  1.2952
 5031SOL     OW26551   0.988   3.761   8.051 -0.5692  0.0071 -0.2155
 5031SOL    HW126552   1.009   3.852   8.070  0.8641 -0.7479  1.8168
 5031SOL    HW226553   0.924   3.773   7.981 -0.6724  0.0428 -0.1144
 5032SOL     OW26554   2.382   4.008   7.181  0.4707 -0.0983  0.5723
 5032SOL    HW126555   2.401   4.067   7.254  2.6063  0.3730 -0.3674
 5032SOL    HW226556   2.317   3.953   7.226  0.0724  0.8127  1.1103
 5033SOL     OW26557   2.379   1.196   2.753  0.0538 -0.6550 -0.2099
 5033SOL    HW126558   2.458   1.185   2.700  0.6828  0.5716  0.4579
 5033SOL    HW226559   2.325   1.125   2.720 -0.2928  0.4819 -2.0575
 5034SOL     OW26560   3.946   1.174   7.686  0.5422  0.3343  0.5519
 5034SOL    HW126561   3.953   1.158   7.592 -3.0239  0.4489  0.2624
 5034SOL    HW226562   3.937   1.082   7.711  0.3189  0.5301  1.1875
 5035SOL     OW26563   1.542   0.344   6.994  0.4236  0.5337 -0.7006
 5035SOL    HW126564   1.464   0.318   7.043  0.8530 -0.9899 -0.8200
 5035SOL    HW226565   1.507   0.340   6.905  0.6745  1.1083 -0.8239
 5036SOL     OW26566   3.603   0.887   6.618  0.7051  0.3942 -0.3855
 5036SOL    HW126567   3.647   0.878   6.703 -1.9842 -1.1512  0.8487
 5036SOL    HW226568   3.528   0.829   6.632  0.5163  0.4682 -1.1021
 5037SOL     OW26569   2.766   0.047  16.195  0.3149  0.0878 -0.2413
 5037SOL    HW126570   2.819   0.095  16.259 -0.2802  1.9731 -1.1982
 5037SOL    HW226571   2.777   4.677  16.220 -1.0226  0.5081  1.8901
 5038SOL     OW26572   2.669   2.977  16.076  0.0834  0.2529 -0.3175
 5038SOL    HW126573   2.653   2.885  16.097  0.9402  1.0808  3.8629
 5038SOL    HW226574   2.711   2.999  16.159  1.3062 -2.5806 -0.1701
 5039SOL     OW26575   1.440   2.169   7.493  0.0116 -0.6403  0.3937
 5039SOL    HW126576   1.459   2.263   7.498 -1.4037 -0.4139  1.3882
 5039SOL    HW226577   1.349   2.173   7.465 -0.1501 -0.8024  0.9050
 5040SOL     OW26578   3.655   2.224   1.894 -0.3397 -0.2241  1.0409
 5040SOL    HW126579   3.644   2.137   1.857 -0.6137  0.1180  0.3186
 5040SOL    HW226580   3.630   2.276   1.818 -0.9534 -3.7692 -1.1911
 5041SOL     OW26581   3.440   3.805   4.131 -0.0499 -0.0610 -0.1765
 5041SOL    HW126582   3.416   3.757   4.210 -0.3017  0.7404  0.2259
 5041SOL    HW226583   3.459   3.888   4.174  0.2644  0.3766 -1.1479
 5042SOL     OW26584   2.941   4.630   8.201  0.2995  0.1685 -0.0224
 5042SOL    HW126585   2.973   4.720   8.204  0.5594  0.0812 -0.1434
 5042SOL    HW226586   3.020   4.594   8.241  1.0121  0.6022 -1.0222
 5043SOL     OW26587   4.271   1.330   4.236 -0.2394 -0.0846  0.0845
 5043SOL    HW126588   4.355   1.284   4.240  1.2641  2.4501 -2.2241
 5043SOL    HW226589   4.227   1.299   4.315 -0.5699  0.9250  0.2965
 5044SOL     OW26590   1.372   3.934   1.537  0.4412 -0.1238 -0.2541
 5044SOL    HW126591   1.370   3.838   1.530  2.3993 -0.0492 -1.5733
 5044SOL    HW226592   1.323   3.965   1.461 -0.0329  2.3607  1.0740
 5045SOL     OW26593   1.919   0.589   3.429 -0.3338  0.6543 -0.2165
 5045SOL    HW126594   1.954   0.677   3.417  0.6182  0.0030 -2.1973
 5045SOL    HW226595   1.953   0.532   3.360  1.1999  0.8742  0.3558
 5046SOL     OW26596   3.883   1.115   2.305 -0.2294 -0.3733 -0.3353
 5046SOL    HW126597   3.889   1.033   2.354 -1.8402  0.2417  0.9182
 5046SOL    HW226598   3.947   1.107   2.235  0.6116 -0.1300  0.3925
 5047SOL     OW26599   0.252   0.234   6.408 -0.7402  0.9242  0.1507
 5047SOL    HW126600   0.312   0.308   6.418 -0.0603  0.0810  2.3007
 5047SOL    HW226601   0.269   0.171   6.478 -0.7433  0.6074 -0.1323
 5048SOL     OW26602   0.637   3.270   2.606 -0.0438 -0.1140  0.8197
 5048SOL    HW126603   0.732   3.266   2.596  0.1622 -0.2716  2.9384
 5048SOL    HW226604   0.615   3.363   2.610  1.8718  0.3225  1.0852
 5049SOL     OW26605   4.707   2.673  15.311  0.3314 -0.1743 -0.2513
 5049SOL    HW126606   4.680   2.764  15.319 -0.7945 -0.5351  0.0988
 5049SOL    HW226607   0.062   2.679  15.368  0.3240 -0.3419 -0.2216
 5050SOL     OW26608   1.122   3.647  15.234  0.5157  0.6481  0.0870
 5050SOL    HW126609   1.103   3.587  15.162 -0.7056 -2.4539  3.0067
 5050SOL    HW226610   1.118   3.731  15.188  0.0092  0.4577 -0.2162
 5051SOL     OW26611   1.565   2.287   8.725  0.6695 -0.0976  0.0535
 5051SOL    HW126612   1.625   2.213   8.727  1.6719  0.7180  0.1224
 5051SOL    HW226613   1.478   2.249   8.739  0.3572 -0.4169 -2.5819
 5052SOL     OW26614   2.474   0.439  11.900  0.1342  0.0120  0.2259
 5052SOL    HW126615   2.516   0.507  11.952 -0.4326  0.1985  0.4415
 5052SOL    HW226616   2.384   0.457  11.927 -0.5041  0.2367 -2.0379
 5053SOL     OW26617   1.392   0.018   0.617  0.4047  0.1559  0.0902
 5053SOL    HW126618   1.299   0.024   0.593  0.1556 -0.4842  0.9046
 5053SOL    HW226619   1.390   0.056   0.705 -1.7505  0.5398 -0.1248
 5054SOL     OW26620   4.656   2.609   7.294  0.0737  1.3617  0.1238
 5054SOL    HW126621   4.652   2.642   7.204  1.7478  2.0201  0.3045
 5054SOL    HW226622   4.613   2.524   7.292  1.4897  0.6389  0.5545
 5055SOL     OW26623   1.617   0.005   4.318  0.3277  0.2355 -0.0738
 5055SOL    HW126624   1.701   4.711   4.360 -1.3092  0.3504  3.2467
 5055SOL    HW226625   1.614   0.101   4.314  0.5695  0.3491  2.2373
 5056SOL     OW26626   2.454   3.809   4.196  0.1383  0.5399 -0.4140
 5056SOL    HW126627   2.401   3.824   4.274  1.0443  0.5264  0.2029
 5056SOL    HW226628   2.511   3.747   4.241  2.6988  0.9642 -3.0445
 5057SOL     OW26629   2.372   2.767  12.517 -0.0251  0.1640 -0.1577
 5057SOL    HW126630   2.307   2.807  12.576 -0.0841 -1.2278  0.7103
 5057SOL    HW226631   2.435   2.834  12.491 -0.3788  0.9127  0.8889
 5058SOL     OW26632   3.690   1.660   2.270 -0.3547  0.0039 -0.4659
 5058SOL    HW126633   3.638   1.710   2.333 -0.3652  1.1077 -1.3624
 5058SOL    HW226634   3.673   1.568   2.291 -1.3370 -0.2729 -2.4669
 5059SOL     OW26635   2.060   2.593   3.080  0.5467  0.0176 -0.0019
 5059SOL    HW126636   2.066   2.674   3.030  0.3397 -0.5322 -0.9058
 5059SOL    HW226637   1.997   2.545   3.026  0.8827 -2.0425  1.4498
 5060SOL     OW26638   1.461   2.094   1.159  0.7480 -0.3212  0.3530
 5060SOL    HW126639   1.428   2.180   1.183 -1.2478 -1.4607  1.7616
 5060SOL    HW226640   1.407   2.060   1.088  1.8911 -2.8340  0.6723
 5061SOL     OW26641   2.459   4.656  14.418  0.2616  0.2486  0.6963
 5061SOL    HW126642   2.471   4.562  14.432  0.8179  0.5664  2.3420
 5061SOL    HW226643   2.365   4.664  14.437  0.1463  0.9477 -0.1599
 5062SOL     OW26644   4.402   1.722   5.911 -0.1338 -0.8675  0.1569
 5062SOL    HW126645   4.339   1.749   5.844  0.9214  1.3110  0.0471
 5062SOL    HW226646   4.467   1.791   5.901  1.2802 -2.4573 -1.5415
 5063SOL     OW26647   2.127   3.376   5.142  0.0848 -0.1864 -0.4191
 5063SOL    HW126648   2.195   3.385   5.208 -1.3825  1.6888  0.8370
 5063SOL    HW226649   2.102   3.465   5.119  3.3149  1.2416  1.6209
 5064SOL     OW26650   2.702   3.097   5.529 -0.6649  1.0554 -0.2223
 5064SOL    HW126651   2.735   3.187   5.531  0.1908  0.6832  2.5484
 5064SOL    HW226652   2.777   3.041   5.509 -1.0869  0.6480 -0.6539
 5065SOL     OW26653   4.488   3.777   2.595  0.4518  0.2484  0.3948
 5065SOL    HW126654   4.579   3.776   2.565 -0.2055  2.0645 -1.6776
 5065SOL    HW226655   4.443   3.826   2.527 -0.7472 -0.7834  0.4535
 5066SOL     OW26656   3.680   2.474   5.583 -0.1541 -0.6828  0.0622
 5066SOL    HW126657   3.651   2.526   5.508 -2.0290 -0.5948  0.8430
 5066SOL    HW226658   3.768   2.449   5.558  0.9779  0.8639  2.5093
 5067SOL     OW26659   4.581   0.353   7.005 -0.0581 -0.5507  0.3391
 5067SOL    HW126660   4.652   0.404   6.965  0.3226 -2.5873 -1.5569
 5067SOL    HW226661   4.595   0.363   7.099 -2.1448 -0.7107  0.6575
 5068SOL     OW26662   1.434   2.716  10.055 -0.5779  0.4122 -0.1877
 5068SOL    HW126663   1.481   2.791  10.019 -0.9641 -0.2420 -2.0474
 5068SOL    HW226664   1.443   2.735  10.148  0.2121 -1.0086  0.0188
 5069SOL     OW26665   3.686   1.525   1.678  0.1217 -0.0563  0.8281
 5069SOL    HW126666   3.694   1.545   1.771 -1.1281  1.8584  0.5278
 5069SOL    HW226667   3.757   1.461   1.668  0.3111  0.2097  0.4522
 5070SOL     OW26668   3.118   3.869   2.590  0.8380 -0.7138 -0.2261
 5070SOL    HW126669   3.157   3.826   2.666 -0.1321  0.3657  0.8733
 5070SOL    HW226670   3.121   3.958   2.623 -1.1401 -0.9646  0.5951
 5071SOL     OW26671   4.358   1.849  13.000  0.3093 -0.4084  0.6953
 5071SOL    HW126672   4.301   1.802  12.939  1.6937 -0.1026 -0.8406
 5071SOL    HW226673   4.414   1.779  13.032  1.1635  0.1312  0.3884
 5072SOL     OW26674   4.397   3.095   4.630 -0.1815  0.1177  0.0554
 5072SOL    HW126675   4.456   3.020   4.639 -2.7010 -1.9257 -0.7297
 5072SOL    HW226676   4.408   3.122   4.721  0.9624  1.2854 -0.4197
 5073SOL     OW26677   4.683   0.692  13.712  0.1106  0.4542  0.1204
 5073SOL    HW126678   4.718   0.687  13.801 -0.6496 -1.0613  0.3320
 5073SOL    HW226679   4.720   0.775  13.680  0.9820 -0.4279 -1.1227
 5074SOL     OW26680   3.838   3.936   8.420 -0.5052 -0.7724  0.5915
 5074SOL    HW126681   3.896   3.919   8.493  0.6381  1.8268  0.2839
 5074SOL    HW226682   3.776   4.002   8.451  1.2640 -0.3334  3.1612
 5075SOL     OW26683   4.342   0.962   4.256 -0.2864  0.4068  0.5719
 5075SOL    HW126684   4.268   0.980   4.198  0.7764  3.1421  0.1165
 5075SOL    HW226685   4.395   1.027   4.210  0.1040 -0.2091  0.1495
 5076SOL     OW26686   1.323   4.519   6.071  0.3121 -0.8512  0.2082
 5076SOL    HW126687   1.271   4.491   5.997  1.5455  0.7029 -1.2435
 5076SOL    HW226688   1.350   4.442   6.121  0.6506 -2.2530 -2.1348
 5077SOL     OW26689   4.163   1.209   4.785 -0.0774 -0.5324 -0.3299
 5077SOL    HW126690   4.258   1.204   4.794 -0.1542  2.6548  2.3558
 5077SOL    HW226691   4.150   1.123   4.747  1.0869 -0.7452 -0.2350
 5078SOL     OW26692   2.040   1.801  12.207  0.1493 -0.8822 -0.6288
 5078SOL    HW126693   1.975   1.847  12.260  0.8222 -0.9728  0.2785
 5078SOL    HW226694   2.112   1.863  12.217 -0.6576  0.3704 -2.5201
 5079SOL     OW26695   4.279   1.376   7.247 -0.1108 -0.1881 -0.0946
 5079SOL    HW126696   4.261   1.298   7.299  0.0246  0.4745  0.9461
 5079SOL    HW226697   4.307   1.335   7.165  0.5470  1.0164 -0.4740
 5080SOL     OW26698   0.840   3.203  10.744 -0.1741 -0.4291  0.1614
 5080SOL    HW126699   0.768   3.150  10.711 -0.9474  0.8848 -0.2707
 5080SOL    HW226700   0.833   3.187  10.838  0.1170  0.8787  0.4064
 5081SOL     OW26701   2.786   1.924   4.346  0.0364  1.0297 -0.5656
 5081SOL    HW126702   2.787   1.874   4.264 -3.1207  0.6602 -0.3832
 5081SOL    HW226703   2.768   2.011   4.309 -0.0045  1.2164 -0.1038
 5082SOL     OW26704   1.650   4.151   3.531 -0.1643  0.6319 -0.1826
 5082SOL    HW126705   1.598   4.147   3.611  0.3789 -0.6297  0.0952
 5082SOL    HW226706   1.701   4.231   3.541 -1.6987  1.5324  0.5016
 5083SOL     OW26707   2.659   4.559   8.218  0.2370  0.1396  0.1671
 5083SOL    HW126708   2.631   4.645   8.251 -1.2341 -0.1344 -0.3885
 5083SOL    HW226709   2.754   4.570   8.217  0.3095 -0.5758 -0.7559
 5084SOL     OW26710   0.534   3.249  15.718 -0.4521  0.2235 -0.1020
 5084SOL    HW126711   0.458   3.267  15.662 -0.5953  0.9453  0.3230
 5084SOL    HW226712   0.497   3.189  15.782 -0.2818 -1.2681 -1.4033
 5085SOL     OW26713   4.012   3.626  10.245  0.1454 -0.7180 -0.3012
 5085SOL    HW126714   4.093   3.588  10.279 -0.7507  0.2767  2.8648
 5085SOL    HW226715   4.011   3.594  10.154 -0.3155  0.0398 -0.5539
 5086SOL     OW26716   0.446   0.426   6.416 -0.1854 -0.6196  0.1954
 5086SOL    HW126717   0.485   0.372   6.347 -0.6435 -1.2384  0.4258
 5086SOL    HW226718   0.475   0.513   6.389 -0.3565 -1.4692 -2.8014
 5087SOL     OW26719   0.996   1.915   6.239 -0.0924  0.4385  0.1493
 5087SOL    HW126720   0.943   1.908   6.160  0.3645 -1.6785  0.0061
 5087SOL    HW226721   0.934   1.942   6.306 -0.3470 -0.4382  0.2701
 5088SOL     OW26722   3.300   3.675   4.319  0.2351 -0.1184 -0.3374
 5088SOL    HW126723   3.231   3.742   4.317 -0.8146 -1.2497 -2.3548
 5088SOL    HW226724   3.265   3.609   4.260 -0.4663  0.6855 -0.8319
 5089SOL     OW26725   1.775   4.323  12.327 -0.7818 -0.2103  0.2598
 5089SOL    HW126726   1.797   4.402  12.277 -4.0144  1.2958  1.2201
 5089SOL    HW226727   1.680   4.332  12.331 -0.7998 -0.7433  1.0001
 5090SOL     OW26728   3.131   2.488   7.697 -0.2744  0.3721  0.0409
 5090SOL    HW126729   3.136   2.584   7.692 -0.6965  0.3353 -1.0971
 5090SOL    HW226730   3.221   2.459   7.710 -0.2082  0.0463 -1.1791
 5091SOL     OW26731   3.863   2.731  12.098  0.1656 -0.1265 -0.0201
 5091SOL    HW126732   3.774   2.702  12.083 -0.2019  1.2874 -0.5722
 5091SOL    HW226733   3.866   2.813  12.048 -3.3862 -1.2338 -2.0465
 5092SOL     OW26734   3.589   2.979   4.328  0.1485 -0.0316  0.0199
 5092SOL    HW126735   3.643   3.058   4.332 -0.8950  0.8029 -2.7015
 5092SOL    HW226736   3.517   3.010   4.274  1.1100 -2.0471 -2.4464
 5093SOL     OW26737   3.749   0.172   5.128  0.4062  0.3145  0.3907
 5093SOL    HW126738   3.705   0.206   5.050 -1.2786 -0.2434  1.0932
 5093SOL    HW226739   3.681   0.180   5.195  0.3596 -0.9788  0.4986
 5094SOL     OW26740   2.153   1.234   3.494 -0.5247 -0.1821 -0.0711
 5094SOL    HW126741   2.212   1.218   3.567 -0.1192 -1.0686 -0.5992
 5094SOL    HW226742   2.195   1.173   3.434 -0.7173 -1.4512  1.0959
 5095SOL     OW26743   4.329   4.423   5.626 -0.5559 -0.0602 -0.5232
 5095SOL    HW126744   4.264   4.354   5.613 -0.9082  0.0261  0.8201
 5095SOL    HW226745   4.371   4.396   5.708  0.5422 -2.4598 -1.8653
 5096SOL     OW26746   2.312   4.449  12.132 -0.1245  0.6036  0.5577
 5096SOL    HW126747   2.300   4.474  12.224 -1.0887  1.5354  0.1845
 5096SOL    HW226748   2.304   4.355  12.148  0.3555  0.0951 -2.2754
 5097SOL     OW26749   2.335   3.392  11.796 -0.0599  0.2891  0.1795
 5097SOL    HW126750   2.379   3.307  11.796  0.0341  0.3416 -0.4169
 5097SOL    HW226751   2.338   3.423  11.886 -1.5377 -0.0748  0.3530
 5098SOL     OW26752   0.457   2.688   1.315 -0.1222  0.4793  0.5546
 5098SOL    HW126753   0.545   2.711   1.285 -0.4033 -0.3768 -0.9680
 5098SOL    HW226754   0.464   2.594   1.299  2.0245  1.0579 -2.0009
 5099SOL     OW26755   4.474   0.431   0.160 -0.5581 -0.7531 -0.2503
 5099SOL    HW126756   4.534   0.393   0.096 -1.0721 -1.5464 -0.2652
 5099SOL    HW226757   4.496   0.524   0.162 -1.9399 -0.4801  1.8468
 5100SOL     OW26758   3.426   0.327  14.075  0.4405  0.0212 -0.2579
 5100SOL    HW126759   3.338   0.319  14.039  0.6725  0.9025 -1.0208
 5100SOL    HW226760   3.451   0.417  14.054  1.6063  0.5533  3.2629
 5101SOL     OW26761   2.433   4.471  12.761  0.2302  0.1097  0.0510
 5101SOL    HW126762   2.442   4.565  12.777 -1.5101  0.0833  1.1616
 5101SOL    HW226763   2.338   4.466  12.750  0.2630 -1.7384  0.6482
 5102SOL     OW26764   4.277   2.076   3.565 -0.3371 -0.2209  0.0113
 5102SOL    HW126765   4.214   2.146   3.549 -0.2052  0.2725  1.6071
 5102SOL    HW226766   4.338   2.121   3.624 -0.9386 -0.0741  0.5263
 5103SOL     OW26767   1.071   3.906   8.446 -0.0905 -0.3763 -0.2112
 5103SOL    HW126768   1.106   3.941   8.528  1.4231  1.5123 -1.6882
 5103SOL    HW226769   1.140   3.920   8.381 -0.4761 -0.9617 -0.7560
 5104SOL     OW26770   4.205   1.097   6.468 -0.0010 -0.1188 -0.0614
 5104SOL    HW126771   4.294   1.113   6.437  0.0083 -0.4936 -0.2339
 5104SOL    HW226772   4.161   1.134   6.391 -0.0847 -0.9436 -0.4196
 5105SOL     OW26773   1.288   0.350   3.674  0.1097 -0.2792  0.3857
 5105SOL    HW126774   1.258   0.417   3.613 -0.3830 -1.0041 -0.1667
 5105SOL    HW226775   1.367   0.323   3.627  0.4890  2.6610 -0.6336
 5106SOL     OW26776   0.850   1.281  12.307  0.9067  0.4003 -0.2222
 5106SOL    HW126777   0.909   1.328  12.248  1.0946  0.0424 -0.3235
 5106SOL    HW226778   0.843   1.341  12.381  0.3322  0.0562  0.0025
 5107SOL     OW26779   2.491   0.432   5.312 -0.4068  0.6615  0.5450
 5107SOL    HW126780   2.396   0.417   5.310 -0.0604 -1.4630  0.0118
 5107SOL    HW226781   2.503   0.514   5.263  0.2648  1.2930  1.7726
 5108SOL     OW26782   2.718   4.008   0.269  0.0993  0.0683 -0.0603
 5108SOL    HW126783   2.808   3.993   0.237 -1.5336 -3.0231 -3.2288
 5108SOL    HW226784   2.731   4.084   0.325 -2.7050  0.5798 -0.1111
 5109SOL     OW26785   4.466   0.097   5.983  0.3264 -0.3339 -0.0185
 5109SOL    HW126786   4.437   0.188   5.986  0.4929 -0.3365  1.4946
 5109SOL    HW226787   4.469   0.081   5.888  0.9473 -0.7904  0.0776
 5110SOL     OW26788   3.810   3.034   4.889  0.8338 -0.6950 -0.0880
 5110SOL    HW126789   3.761   2.953   4.909  1.8507 -1.2122  0.2876
 5110SOL    HW226790   3.739   3.098   4.902  1.8833  0.2633  0.8894
 5111SOL     OW26791   4.363   3.642   5.732 -0.0305 -0.2160  0.2378
 5111SOL    HW126792   4.295   3.674   5.673  0.1027 -1.0698 -0.3811
 5111SOL    HW226793   4.333   3.693   5.808  1.8202 -2.3349  2.4044
 5112SOL     OW26794   2.671   4.018   2.609 -0.2209  0.0442  0.8633
 5112SOL    HW126795   2.619   3.972   2.675  0.4987  0.8377  1.9859
 5112SOL    HW226796   2.710   3.942   2.565  1.9906  0.7875  1.5275
 5113SOL     OW26797   2.781   2.666   3.777 -0.1714 -0.2251 -0.2219
 5113SOL    HW126798   2.763   2.717   3.699 -0.8776  1.3454  0.9683
 5113SOL    HW226799   2.704   2.692   3.828 -1.2185 -0.3517 -1.7605
 5114SOL     OW26800   3.926   0.702   7.461 -0.0017  0.2501 -0.1193
 5114SOL    HW126801   3.973   0.637   7.408  0.9287  2.3652 -1.8768
 5114SOL    HW226802   3.843   0.656   7.477  0.5239 -1.1696 -1.4791
 5115SOL     OW26803   1.293   2.828   3.889  0.4333 -0.4637  0.8618
 5115SOL    HW126804   1.275   2.919   3.862  0.3029 -0.7338  0.0463
 5115SOL    HW226805   1.387   2.828   3.872  0.6449  0.6297  1.9572
 5116SOL     OW26806   0.742   0.733  10.488 -0.2330 -0.3300 -0.0861
 5116SOL    HW126807   0.807   0.747  10.420 -0.7096 -0.3886 -0.5523
 5116SOL    HW226808   0.775   0.649  10.520  0.8470 -1.1440 -3.4315
 5117SOL     OW26809   3.216   4.001   4.061 -0.1789 -0.1775  0.7018
 5117SOL    HW126810   3.216   4.062   4.135 -1.5640 -0.0031  0.5659
 5117SOL    HW226811   3.261   3.919   4.084 -2.1002 -0.7325  2.5458
 5118SOL     OW26812   4.660   2.315   7.829  0.1373  0.1219 -0.0602
 5118SOL    HW126813   4.619   2.330   7.744 -1.5399  0.9011  0.8807
 5118SOL    HW226814   4.717   2.392   7.834 -1.2615  1.3086 -2.1794
 5119SOL     OW26815   4.427   3.460   8.931 -0.6733 -0.2084  0.5134
 5119SOL    HW126816   4.363   3.417   8.988 -1.0276  1.3490  1.2997
 5119SOL    HW226817   4.373   3.509   8.870  0.0800 -0.1034 -0.0743
 5120SOL     OW26818   3.168   2.685   5.375  0.0238 -0.6953 -0.1742
 5120SOL    HW126819   3.217   2.639   5.443 -0.3872 -0.0556  0.5644
 5120SOL    HW226820   3.164   2.620   5.305  1.8564 -0.0371 -0.8748
 5121SOL     OW26821   1.317   1.412   2.990  0.0175  0.6563  0.0898
 5121SOL    HW126822   1.405   1.389   2.959  2.0368  3.4722  3.6853
 5121SOL    HW226823   1.289   1.322   3.002 -1.8592  1.4801  1.9834
 5122SOL     OW26824   3.978   0.374  10.208  0.1479 -0.0016  0.2442
 5122SOL    HW126825   3.944   0.366  10.297 -1.5882  1.5764 -0.2900
 5122SOL    HW226826   4.065   0.408  10.226 -0.1775 -0.2286  2.2683
 5123SOL     OW26827   2.806   1.879   0.152 -0.0268  0.6527  0.0619
 5123SOL    HW126828   2.741   1.922   0.209  0.6167  0.0097  1.2893
 5123SOL    HW226829   2.782   1.902   0.063  2.3211 -3.8607 -1.7011
 5124SOL     OW26830   0.770   3.244   8.967 -0.4789 -0.1875  0.0305
 5124SOL    HW126831   0.792   3.328   8.927 -0.6011 -1.2790 -2.3315
 5124SOL    HW226832   0.728   3.271   9.049  0.6776 -1.2722  0.9791
 5125SOL     OW26833   1.842   1.432   6.407 -0.0741 -0.3835 -0.0023
 5125SOL    HW126834   1.848   1.527   6.398  0.6959 -0.4687 -0.4392
 5125SOL    HW226835   1.813   1.430   6.498  0.6329 -0.2377  0.2297
 5126SOL     OW26836   0.503   4.610   4.262 -0.5229 -0.4495  0.9737
 5126SOL    HW126837   0.430   4.656   4.220 -1.2325 -2.7155 -0.2448
 5126SOL    HW226838   0.509   4.535   4.203  1.2514  0.2319  0.3021
 5127SOL     OW26839   1.914   1.362   3.622  1.1957  0.3462 -0.9577
 5127SOL    HW126840   1.909   1.331   3.712  3.6141  1.6901 -0.3532
 5127SOL    HW226841   1.985   1.310   3.584  0.7388 -0.1595 -1.1083
 5128SOL     OW26842   4.578   4.508   9.299 -0.8816  0.4641 -0.0178
 5128SOL    HW126843   4.594   4.537   9.210  0.6762  0.2581  0.1848
 5128SOL    HW226844   4.589   4.414   9.286 -0.1066  0.5593 -0.0573
 5129SOL     OW26845   4.301   2.947  10.723 -0.4990  0.4842  0.4561
 5129SOL    HW126846   4.251   3.016  10.766 -1.4970  0.9621 -1.4957
 5129SOL    HW226847   4.380   2.947  10.778 -0.3879  1.5510  0.2873
 5130SOL     OW26848   2.038   1.849   8.745  0.0749 -0.3068  0.0396
 5130SOL    HW126849   2.044   1.889   8.659  1.8189 -0.9172 -0.1282
 5130SOL    HW226850   2.034   1.923   8.806  0.9651  0.1363 -0.4413
 5131SOL     OW26851   1.351   0.618   4.843 -0.3393 -0.1369  0.5730
 5131SOL    HW126852   1.307   0.541   4.808  0.6910 -0.3608 -0.2196
 5131SOL    HW226853   1.275   0.671   4.868 -1.3652 -1.1471 -0.3914
 5132SOL     OW26854   0.709   0.111   5.725 -0.1117 -0.1614  0.1150
 5132SOL    HW126855   0.760   0.104   5.805  0.3371 -0.7506 -0.2221
 5132SOL    HW226856   0.633   0.160   5.754 -0.6086 -1.2249  0.6204
 5133SOL     OW26857   1.607   1.918   5.212  0.2845  1.2438  0.3628
 5133SOL    HW126858   1.562   1.881   5.288 -0.1193  1.7709  0.3814
 5133SOL    HW226859   1.572   2.007   5.206 -0.3608  0.8273 -2.0744
 5134SOL     OW26860   4.343   0.280   5.213  0.0245  1.1123  0.0771
 5134SOL    HW126861   4.279   0.297   5.144  0.7244 -0.0733 -0.8606
 5134SOL    HW226862   4.286   0.288   5.289 -1.2856 -1.4659 -0.6539
 5135SOL     OW26863   1.893   1.486   0.474  0.4829  0.2192  0.1121
 5135SOL    HW126864   1.808   1.506   0.514  1.0483  1.2289  0.8039
 5135SOL    HW226865   1.958   1.540   0.519  2.7275 -0.9130 -1.7862
 5136SOL     OW26866   1.816   2.865  13.952 -0.4264 -0.3518  0.7981
 5136SOL    HW126867   1.863   2.817  14.020 -0.6976  0.2424  1.3983
 5136SOL    HW226868   1.884   2.931  13.937  0.7204 -1.5745  0.5845
 5137SOL     OW26869   3.090   1.366   4.558  0.0503  0.4851 -0.6053
 5137SOL    HW126870   3.052   1.436   4.611 -0.7793  0.1244 -0.7217
 5137SOL    HW226871   3.183   1.382   4.547  0.5512 -0.5089  2.1345
 5138SOL     OW26872   0.464   1.753   3.888  0.5426 -0.4759  0.1321
 5138SOL    HW126873   0.493   1.793   3.806 -1.6175  2.1446  0.6276
 5138SOL    HW226874   0.408   1.823   3.923 -1.5787 -2.0380 -0.1742
 5139SOL     OW26875   3.626   3.410   3.115  0.2662 -0.0701  0.4303
 5139SOL    HW126876   3.622   3.505   3.107  0.8301  0.1233  2.4009
 5139SOL    HW226877   3.607   3.399   3.208  1.0265  0.6509  0.6682
 5140SOL     OW26878   2.344   0.653   5.194 -0.0883  0.3459 -0.3694
 5140SOL    HW126879   2.279   0.721   5.208 -0.5168 -0.5094  1.7754
 5140SOL    HW226880   2.427   0.700   5.190  1.9384 -3.1721 -0.3512
 5141SOL     OW26881   0.785   4.600  12.037  0.0190  0.3990 -0.3901
 5141SOL    HW126882   0.750   4.607  12.125  0.4919 -0.6403 -0.1207
 5141SOL    HW226883   0.723   4.531  12.010 -0.3396  1.0217 -1.1617
 5142SOL     OW26884   2.262   4.320  10.189 -0.3396 -0.1225  0.2058
 5142SOL    HW126885   2.327   4.385  10.215  0.6498 -0.8664 -0.3829
 5142SOL    HW226886   2.243   4.360  10.104 -0.9168 -0.1699  0.3179
 5143SOL     OW26887   3.596   0.667   9.751  0.8906 -0.1979  0.6345
 5143SOL    HW126888   3.628   0.578   9.736  0.9397  0.1177 -1.1624
 5143SOL    HW226889   3.676   0.706   9.784  2.0051  0.9056 -3.3504
 5144SOL     OW26890   1.448   2.813   4.903  0.6603 -0.4972  0.1558
 5144SOL    HW126891   1.395   2.736   4.882 -1.3623  0.9907 -0.1825
 5144SOL    HW226892   1.491   2.838   4.821 -1.4705  1.0593 -0.4787
 5145SOL     OW26893   0.314   2.482   6.530 -0.1241 -0.3065 -0.1725
 5145SOL    HW126894   0.319   2.575   6.509 -2.0881 -0.0016  0.6920
 5145SOL    HW226895   0.228   2.469   6.570 -0.7153  1.2036 -0.9734
 5146SOL     OW26896   1.392   2.223   5.980 -0.4204  0.6523  0.1702
 5146SOL    HW126897   1.320   2.210   5.919 -0.3460  0.3129  0.1560
 5146SOL    HW226898   1.472   2.197   5.935 -0.3447  0.0138  0.6678
 5147SOL     OW26899   1.137   0.173   4.588 -0.1133 -0.0572 -0.5783
 5147SOL    HW126900   1.096   0.125   4.660 -0.2441 -1.6612 -1.7180
 5147SOL    HW226901   1.228   0.143   4.596  0.5611  1.9913 -0.4946
 5148SOL     OW26902   0.130   1.990  10.527  0.6386 -0.0790 -0.3509
 5148SOL    HW126903   0.105   2.072  10.570 -0.3052 -1.7483  2.2623
 5148SOL    HW226904   0.124   2.022  10.436 -0.0598 -1.6141 -0.8425
 5149SOL     OW26905   2.844   4.037   4.743 -0.1641 -0.0192  0.1080
 5149SOL    HW126906   2.829   3.951   4.705 -1.7198 -0.3731  1.5332
 5149SOL    HW226907   2.915   4.029   4.806 -1.8898  0.0036  2.0871
 5150SOL     OW26908   1.494   1.915  16.570 -0.1221 -0.0958 -0.4304
 5150SOL    HW126909   1.412   1.958  16.594 -0.4586 -1.8529  1.6132
 5150SOL    HW226910   1.463   1.858  16.499 -0.0441 -1.1524  0.3836
 5151SOL     OW26911   3.260   1.396   1.776  0.5631 -0.1521 -0.1902
 5151SOL    HW126912   3.258   1.324   1.712 -0.4395 -1.3668  1.2233
 5151SOL    HW226913   3.171   1.394   1.810  0.7003 -2.1573  0.0268
 5152SOL     OW26914   0.080   3.460   7.190 -0.3489 -0.5637  0.1199
 5152SOL    HW126915   0.159   3.421   7.152 -0.7864 -1.8858  0.5766
 5152SOL    HW226916   0.089   3.431   7.281  1.2522  1.2913  0.5469
 5153SOL     OW26917   4.330   1.468   3.211 -0.6220  0.1400 -0.0630
 5153SOL    HW126918   4.355   1.518   3.134  1.2503 -1.1770 -0.3140
 5153SOL    HW226919   4.234   1.469   3.209 -0.6373  1.0989  1.1840
 5154SOL     OW26920   4.268   3.871   9.144 -0.2484  0.0650 -0.0293
 5154SOL    HW126921   4.333   3.826   9.198  0.0031 -0.4508 -0.7744
 5154SOL    HW226922   4.326   3.908   9.078 -0.3691  1.0360  0.3962
 5155SOL     OW26923   1.383   2.711   7.020 -0.1156  0.3115  0.0107
 5155SOL    HW126924   1.342   2.652   7.083  1.0129  0.0502  0.5055
 5155SOL    HW226925   1.473   2.710   7.052 -0.6913 -2.2411  1.5276
 5156SOL     OW26926   1.730   4.719   8.623  0.3657  0.1148 -0.3904
 5156SOL    HW126927   1.638   4.694   8.631 -0.0106  1.3913 -0.6779
 5156SOL    HW226928   1.765   4.643   8.576 -0.6782 -0.5062 -0.1807
 5157SOL     OW26929   2.095   0.647   8.264  0.1868  0.2470  0.6230
 5157SOL    HW126930   2.139   0.666   8.347 -0.0767  2.0581  0.3515
 5157SOL    HW226931   2.038   0.724   8.257 -0.0323  0.0694  0.4829
 5158SOL     OW26932   2.920   3.518   5.701 -0.7381 -0.5708  0.4464
 5158SOL    HW126933   2.959   3.433   5.684 -0.3949 -0.1939 -0.6687
 5158SOL    HW226934   2.989   3.560   5.753 -1.4517  0.4519  0.5609
 5159SOL     OW26935   2.317   1.434  13.610 -0.1272  0.3362  0.0515
 5159SOL    HW126936   2.292   1.526  13.613 -0.9184  0.1032  0.7910
 5159SOL    HW226937   2.263   1.385  13.673 -0.5469  1.1902  0.3543
 5160SOL     OW26938   0.499   0.734   7.717 -0.0660 -0.7290  0.8255
 5160SOL    HW126939   0.552   0.804   7.679 -0.8862 -0.1952  0.6543
 5160SOL    HW226940   0.531   0.657   7.672 -1.9181 -0.5055 -0.8408
 5161SOL     OW26941   2.957   1.793   6.515 -0.6277  0.0393 -0.8223
 5161SOL    HW126942   2.902   1.738   6.459  0.2842 -2.3820  0.6439
 5161SOL    HW226943   2.893   1.858   6.544 -1.7149 -2.5594  2.6616
 5162SOL     OW26944   4.341   2.854   4.276  0.0358  0.0277  0.2986
 5162SOL    HW126945   4.410   2.833   4.338  0.2798 -0.6032 -0.1783
 5162SOL    HW226946   4.386   2.846   4.192  0.4673  0.3913  0.4948
 5163SOL     OW26947   0.331   3.061   4.310  0.3347 -0.0358  0.2175
 5163SOL    HW126948   0.386   3.071   4.232  1.9158  0.7095  1.4364
 5163SOL    HW226949   0.245   3.036   4.275 -0.0211  1.9282 -0.3186
 5164SOL     OW26950   1.317   1.111   7.847  0.5184  0.0575 -0.2970
 5164SOL    HW126951   1.313   1.204   7.868  1.2011  0.1095 -0.4145
 5164SOL    HW226952   1.247   1.076   7.903 -0.9846  1.5627 -1.2497
 5165SOL     OW26953   0.492   2.507   7.238 -0.5223  0.4379 -0.0733
 5165SOL    HW126954   0.476   2.421   7.276  2.0305  0.5434  1.2374
 5165SOL    HW226955   0.439   2.565   7.294 -0.6880  1.4457 -1.2827
 5166SOL     OW26956   2.624   0.112   5.309 -0.8106 -0.0598 -0.8530
 5166SOL    HW126957   2.630   0.207   5.296  0.3663  0.5853  4.5067
 5166SOL    HW226958   2.633   0.101   5.404 -0.6813  0.3788 -0.8160
 5167SOL     OW26959   3.309   4.066   8.120 -0.2418 -0.1163 -0.3123
 5167SOL    HW126960   3.318   4.160   8.102 -1.1386  0.4199  1.9861
 5167SOL    HW226961   3.385   4.049   8.176 -0.5412  0.2613  0.2117
 5168SOL     OW26962   4.613   3.383   2.070  0.2449 -1.0328  0.4983
 5168SOL    HW126963   4.592   3.475   2.090  1.1265 -0.2177 -2.3123
 5168SOL    HW226964   4.640   3.341   2.151 -0.6549  0.5342  1.6167
 5169SOL     OW26965   0.885   2.241   7.208 -0.7174  0.2095 -0.0023
 5169SOL    HW126966   0.805   2.275   7.249 -0.1812  0.0995  1.1523
 5169SOL    HW226967   0.932   2.194   7.277  4.2840  0.9926 -2.9184
 5170SOL     OW26968   1.007   4.095   6.901  0.4368  0.4205  0.7230
 5170SOL    HW126969   1.012   4.110   6.996 -0.8699  0.4608  0.7764
 5170SOL    HW226970   0.990   4.001   6.898 -0.6872  0.7176 -1.9939
 5171SOL     OW26971   1.099   1.395   5.057 -0.6977 -0.7199 -0.1870
 5171SOL    HW126972   1.139   1.456   4.995  1.8547 -1.2574  0.9201
 5171SOL    HW226973   1.113   1.433   5.144 -1.2619  1.0329 -0.8502
 5172SOL     OW26974   0.019   0.437   2.653 -0.6270  0.0909 -0.2413
 5172SOL    HW126975   4.716   0.513   2.704  0.5028 -0.5220  1.2443
 5172SOL    HW226976   4.718   0.374   2.721 -1.0748  1.6707  1.0540
 5173SOL     OW26977   2.807   1.782   8.651 -0.3886 -0.9620 -0.2159
 5173SOL    HW126978   2.849   1.783   8.737  2.1674  0.8911 -1.4964
 5173SOL    HW226979   2.886   1.795   8.599 -0.7455  0.0307 -0.5099
 5174SOL     OW26980   2.116   1.596   6.930 -0.0946  0.0465 -0.6826
 5174SOL    HW126981   2.058   1.668   6.957  1.6375  1.2606 -0.2101
 5174SOL    HW226982   2.138   1.551   7.011  1.3913  0.0847 -1.0598
 5175SOL     OW26983   2.986   3.218  12.512 -0.3998  0.1667  0.2891
 5175SOL    HW126984   2.893   3.242  12.511 -0.4483 -0.1264 -3.4385
 5175SOL    HW226985   3.012   3.265  12.591  0.0673 -0.5052  0.5364
 5176SOL     OW26986   0.594   4.362  11.485 -0.3530 -0.3744 -0.1330
 5176SOL    HW126987   0.623   4.299  11.418  4.2644  1.3152  0.2446
 5176SOL    HW226988   0.656   4.433  11.466 -0.8951  0.5435  1.5964
 5177SOL     OW26989   3.075   0.197   2.961  0.3521  0.1854  0.8576
 5177SOL    HW126990   2.984   0.215   2.985  0.0880  0.5769 -0.4321
 5177SOL    HW226991   3.074   0.102   2.965  0.0846  0.1382 -0.4552
 5178SOL     OW26992   4.054   4.190   5.765 -0.3427  0.3734 -0.0926
 5178SOL    HW126993   3.995   4.181   5.690 -0.5153  0.6092  0.0121
 5178SOL    HW226994   4.007   4.237   5.835  0.7972  1.4711 -0.0779
 5179SOL     OW26995   3.622   1.694  11.996  0.4060 -0.1486  0.6464
 5179SOL    HW126996   3.539   1.647  12.005  0.0475  0.1156 -1.2069
 5179SOL    HW226997   3.620   1.779  12.040  0.2761 -1.0950  2.4559
 5180SOL     OW26998   0.656   4.461   5.382  0.2566  0.1833  0.4480
 5180SOL    HW126999   0.638   4.521   5.310  1.4636  0.4794  0.3883
 5180SOL    HW227000   0.651   4.531   5.448 -0.4721  0.6469 -0.1031
 5181SOL     OW27001   0.509   2.309   5.822  0.6446 -0.4570 -0.2657
 5181SOL    HW127002   0.567   2.257   5.877  2.1465  1.1567 -0.3275
 5181SOL    HW227003   0.568   2.310   5.746  1.2093 -2.5545  0.1487
 5182SOL     OW27004   2.597   4.644   7.363 -0.4758 -0.1352  0.0389
 5182SOL    HW127005   2.691   4.656   7.377 -0.4911 -0.6059  0.5300
 5182SOL    HW227006   2.562   4.606   7.443 -0.8389  0.7653  0.3104
 5183SOL     OW27007   1.113   0.164   8.769  0.6464  0.2601  0.3377
 5183SOL    HW127008   1.070   0.120   8.843 -0.8002 -1.1872 -1.3760
 5183SOL    HW227009   1.154   0.089   8.725  0.3349  0.8787 -0.9877
 5184SOL     OW27010   1.903   1.153  14.782  0.1152  0.7172  0.3871
 5184SOL    HW127011   1.843   1.185  14.714  1.0814  0.4092 -0.6288
 5184SOL    HW227012   1.973   1.125  14.722  1.5304  0.1694  2.3205
 5185SOL     OW27013   3.188   1.124   5.514  0.1681  0.4647  0.3717
 5185SOL    HW127014   3.215   1.075   5.436  1.1596  1.2613  0.2085
 5185SOL    HW227015   3.107   1.075   5.530  0.6886 -0.2982  0.6550
 5186SOL     OW27016   4.209   3.570   9.320  0.0438  0.0748 -0.4147
 5186SOL    HW127017   4.135   3.509   9.319  1.0688 -1.1853  0.5741
 5186SOL    HW227018   4.188   3.615   9.402  0.6357  0.5686 -0.5306
 5187SOL     OW27019   2.407   2.932  14.597 -0.4850  0.8711  0.2903
 5187SOL    HW127020   2.502   2.922  14.604 -0.8664 -3.5690 -0.7225
 5187SOL    HW227021   2.398   3.015  14.551  0.4266  0.0884 -1.2559
 5188SOL     OW27022   4.671   2.127  16.296 -0.3952  0.6323  0.0156
 5188SOL    HW127023   4.702   2.047  16.254 -1.3587  0.7562 -0.9156
 5188SOL    HW227024   4.628   2.169  16.222 -1.6350  1.2606  1.0771
 5189SOL     OW27025   2.917   1.068  11.306  0.3707 -0.0413  0.4112
 5189SOL    HW127026   2.824   1.064  11.329  0.2703  1.0939  0.1886
 5189SOL    HW227027   2.926   0.998  11.241  0.4744 -1.0306  1.4883
 5190SOL     OW27028   4.057   0.744   9.657 -0.0459  0.2571  0.2297
 5190SOL    HW127029   4.111   0.682   9.608  0.9356  0.5168  0.9868
 5190SOL    HW227030   4.128   0.790   9.700 -1.6391  2.7548  0.1955
 5191SOL     OW27031   3.232   0.346   3.683  0.3502  0.4854 -0.6983
 5191SOL    HW127032   3.235   0.440   3.704 -0.9503  0.1037  1.1759
 5191SOL    HW227033   3.314   0.339   3.634  0.9693  0.9871  0.2543
 5192SOL     OW27034   1.473   0.668   6.628 -0.5399  0.6786 -0.2353
 5192SOL    HW127035   1.449   0.739   6.687 -1.9661 -0.9658  1.1947
 5192SOL    HW227036   1.557   0.692   6.590 -0.8016  1.6287 -0.2108
 5193SOL     OW27037   2.586   2.897  10.736  0.0986  0.5700 -0.0525
 5193SOL    HW127038   2.666   2.932  10.777  0.9650 -2.4279  0.8160
 5193SOL    HW227039   2.625   2.893  10.649 -1.1598 -0.3860 -0.5668
 5194SOL     OW27040   4.047   4.159   5.160  0.2689  0.2137 -0.6109
 5194SOL    HW127041   4.122   4.187   5.107  1.2347  0.0049  0.6621
 5194SOL    HW227042   4.055   4.064   5.167  0.5914  0.3359  0.6429
 5195SOL     OW27043   2.696   4.215   5.261 -0.5458 -0.4456 -0.6716
 5195SOL    HW127044   2.630   4.280   5.236  0.7467  1.1878  0.1490
 5195SOL    HW227045   2.766   4.271   5.295 -0.9075  0.3146 -1.1736
 5196SOL     OW27046   4.374   3.439   7.437  0.2722  0.4807  0.3811
 5196SOL    HW127047   4.410   3.448   7.349  0.7755  3.2960  0.8876
 5196SOL    HW227048   4.398   3.525   7.471  1.0102  0.6671 -0.6149
 5197SOL     OW27049   0.251   3.789   7.772  0.1994  0.5509  0.1841
 5197SOL    HW127050   0.330   3.783   7.718  1.1620  1.2056  1.5013
 5197SOL    HW227051   0.287   3.823   7.854 -0.5948  3.2782 -0.6034
 5198SOL     OW27052   1.708   2.795   6.839 -0.1256  0.7659  0.3320
 5198SOL    HW127053   1.658   2.852   6.780  0.5259  0.0887 -0.8732
 5198SOL    HW227054   1.739   2.724   6.783 -0.5563  0.8910 -0.0698
 5199SOL     OW27055   3.107   4.262   4.740  0.0762 -0.0200 -0.3139
 5199SOL    HW127056   3.063   4.283   4.658 -1.4846 -0.3122  0.4524
 5199SOL    HW227057   3.058   4.324   4.793  1.2195 -0.6020  1.4151
 5200SOL     OW27058   4.698   2.213   5.144  0.2024 -0.0317 -0.1724
 5200SOL    HW127059   4.684   2.297   5.189 -1.3279 -0.4499  0.1287
 5200SOL    HW227060   0.069   2.201   5.161 -0.5368 -1.1437  3.1152
 5201SOL     OW27061   3.901   2.747  15.469 -0.1379  0.0587  0.2102
 5201SOL    HW127062   3.819   2.736  15.517  0.3736  0.8123  1.2731
 5201SOL    HW227063   3.890   2.825  15.415 -0.7989 -1.2584 -1.5775
 5202SOL     OW27064   3.616   3.069   8.446 -0.6909  0.6304 -0.0566
 5202SOL    HW127065   3.668   3.149   8.434  1.0032 -0.0367  2.6726
 5202SOL    HW227066   3.604   3.045   8.354 -1.0215 -0.8418  0.3643
 5203SOL     OW27067   0.740   1.269   6.196  0.0880 -0.0428  0.0052
 5203SOL    HW127068   0.688   1.328   6.250  0.2753 -2.5831  2.9295
 5203SOL    HW227069   0.695   1.185   6.203 -1.5991  0.7447 -1.2236
 5204SOL     OW27070   0.757   0.302   7.379 -0.0224  0.4321  0.0027
 5204SOL    HW127071   0.798   0.305   7.465 -0.6352 -0.5749  0.3245
 5204SOL    HW227072   0.811   0.364   7.329 -1.1287 -0.2473 -2.0437
 5205SOL     OW27073   1.998   0.587   5.453  0.1498 -0.0021  0.5723
 5205SOL    HW127074   1.911   0.614   5.424 -0.4824  0.7288  3.1288
 5205SOL    HW227075   1.984   0.495   5.475  1.6597 -0.2908  0.3472
 5206SOL     OW27076   1.611   4.677  14.946 -0.0892 -0.3385  0.2998
 5206SOL    HW127077   1.595   4.595  14.993  0.4647 -1.3013 -1.2243
 5206SOL    HW227078   1.705   4.689  14.957 -0.1949  0.0660  0.8189
 5207SOL     OW27079   2.660   1.658  13.502 -0.2720  0.1572 -0.3814
 5207SOL    HW127080   2.614   1.578  13.528 -0.6455  0.0201 -1.4529
 5207SOL    HW227081   2.707   1.626  13.425  1.2890 -0.4009  0.8083
 5208SOL     OW27082   4.411   2.122   6.019 -0.0317 -0.1422 -0.6982
 5208SOL    HW127083   4.319   2.130   6.043 -0.1026 -1.7407 -0.4980
 5208SOL    HW227084   4.460   2.151   6.096 -0.3425  0.5802 -0.7645
 5209SOL     OW27085   0.432   3.065   8.092 -0.0846 -0.6502 -0.4678
 5209SOL    HW127086   0.358   3.126   8.097  1.2093  0.9775 -1.3622
 5209SOL    HW227087   0.469   3.087   8.178 -0.4602  1.7786 -0.9201
 5210SOL     OW27088   1.719   0.304   8.972  0.2555  0.1207 -0.6061
 5210SOL    HW127089   1.729   0.390   8.929  1.3954  1.0426  1.5399
 5210SOL    HW227090   1.741   0.240   8.905 -3.2210 -0.5710 -1.1253
 5211SOL     OW27091   1.325   2.459  15.557 -0.1965 -0.8056  0.0672
 5211SOL    HW127092   1.300   2.506  15.478  1.3473 -2.4098 -1.3559
 5211SOL    HW227093   1.413   2.436  15.528 -0.3616  0.1495 -1.2019
 5212SOL     OW27094   4.142   3.895   5.188 -0.2795  0.1169 -0.2012
 5212SOL    HW127095   4.108   3.918   5.274  2.7043 -0.0066  1.0093
 5212SOL    HW227096   4.221   3.852   5.221 -0.3920  0.0202 -0.0606
 5213SOL     OW27097   0.184   0.421  10.384 -0.1705 -0.0784  0.0225
 5213SOL    HW127098   0.268   0.466  10.374  0.0153 -0.4148  0.0816
 5213SOL    HW227099   0.197   0.346  10.326  1.0788 -1.0548  1.5786
 5214SOL     OW27100   0.813   2.586  16.429  0.1311 -0.2022  0.1638
 5214SOL    HW127101   0.762   2.506  16.445 -1.6988  1.1370  1.0712
 5214SOL    HW227102   0.899   2.560  16.461 -0.8116 -1.5803  1.5346
 5215SOL     OW27103   2.650   3.159   9.410  0.2223  0.7585  0.3430
 5215SOL    HW127104   2.705   3.155   9.488 -0.0145  0.1274  0.4752
 5215SOL    HW227105   2.704   3.105   9.353 -0.2122  1.6730 -0.9327
 5216SOL     OW27106   0.804   1.927   6.047 -0.1988 -0.2440  0.0381
 5216SOL    HW127107   0.742   1.856   6.066 -1.3817  0.7850  0.0899
 5216SOL    HW227108   0.755   1.983   5.987  0.6652 -0.6742 -1.0619
 5217SOL     OW27109   2.880   0.637   2.712  0.5714 -0.2392 -0.5865
 5217SOL    HW127110   2.962   0.633   2.664  1.5046 -1.0463  1.0824
 5217SOL    HW227111   2.835   0.705   2.662  0.7569 -0.9203 -1.6857
 5218SOL     OW27112   4.158   3.921   6.714 -0.6968 -0.6298 -0.0419
 5218SOL    HW127113   4.198   4.005   6.694 -1.4239 -0.5581 -1.2115
 5218SOL    HW227114   4.119   3.928   6.801  1.1966 -0.3296  0.7691
 5219SOL     OW27115   1.368   2.888   5.361 -0.1328  0.1107 -0.1465
 5219SOL    HW127116   1.434   2.915   5.297 -0.4703  1.5628  0.1205
 5219SOL    HW227117   1.401   2.801   5.382  0.4136  0.6084  1.0822
 5220SOL     OW27118   4.117   3.262   9.837  0.1834 -0.0787  0.0770
 5220SOL    HW127119   4.047   3.326   9.847  0.1274 -0.1566  0.1731
 5220SOL    HW227120   4.174   3.283   9.911 -0.8994 -2.3510  1.5080
 5221SOL     OW27121   4.015   3.389   5.717 -0.2787  0.3216 -0.1079
 5221SOL    HW127122   4.110   3.388   5.733 -0.2702 -0.0903 -0.1963
 5221SOL    HW227123   3.985   3.448   5.786  0.9980  2.6253 -1.4868
 5222SOL     OW27124   0.195   4.259  17.629 -0.2419  0.4150 -0.3140
 5222SOL    HW127125   0.242   4.311  17.564  1.4787  1.8078  2.0477
 5222SOL    HW227126   0.121   4.319  17.643 -1.1791 -1.5088  3.0268
 5223SOL     OW27127   3.485   2.098   5.312 -0.3500  0.1307 -0.5311
 5223SOL    HW127128   3.525   2.085   5.226  1.0566 -0.4014  0.2007
 5223SOL    HW227129   3.555   2.086   5.375  0.1919 -1.7326 -1.4856
 5224SOL     OW27130   3.189   1.288   9.099  0.1259 -0.4453  0.0881
 5224SOL    HW127131   3.278   1.262   9.073 -0.3954 -1.3338 -0.8199
 5224SOL    HW227132   3.141   1.278   9.016  1.6073 -0.9938 -0.7032
 5225SOL     OW27133   4.677   4.543   1.235  0.5113 -0.0075 -0.5523
 5225SOL    HW127134   0.040   4.585   1.226  1.0261 -0.7198  1.1757
 5225SOL    HW227135   4.701   4.465   1.285  0.7161  0.3150 -0.1500
 5226SOL     OW27136   3.961   0.760  13.237 -0.1436 -0.3859  0.1292
 5226SOL    HW127137   3.868   0.741  13.228 -0.0696 -0.7025  0.0369
 5226SOL    HW227138   3.958   0.853  13.214 -1.5700 -1.1502 -2.7564
 5227SOL     OW27139   0.685   4.328   6.827 -0.8416 -0.2208  0.1381
 5227SOL    HW127140   0.706   4.274   6.903 -0.9989 -0.2851  0.1340
 5227SOL    HW227141   0.717   4.272   6.756 -3.9440 -1.0599 -0.5969
 5228SOL     OW27142   2.068   1.511   6.167 -0.0374  0.0825  0.0216
 5228SOL    HW127143   2.018   1.435   6.137 -0.1052  1.2833 -2.9600
 5228SOL    HW227144   2.121   1.473   6.236  2.5374  0.5815 -1.6970
 5229SOL     OW27145   3.490   2.829   6.768  0.2921  0.4826  0.2606
 5229SOL    HW127146   3.488   2.827   6.864 -3.1513 -2.5799  0.1300
 5229SOL    HW227147   3.585   2.816   6.758  0.2729 -0.0985  0.7850
 5230SOL     OW27148   4.095   3.551   9.026  0.0872 -0.0739 -0.3136
 5230SOL    HW127149   4.115   3.477   9.083  0.3083  0.9989  0.9876
 5230SOL    HW227150   4.123   3.628   9.074 -1.1306  1.3339 -1.8397
 5231SOL     OW27151   2.618   1.604   8.981  0.0022 -0.2099 -0.2319
 5231SOL    HW127152   2.624   1.517   8.942  0.7034 -1.7824  3.4318
 5231SOL    HW227153   2.693   1.643   8.936  0.0986 -0.0830  0.0384
 5232SOL     OW27154   4.648   4.011  13.068 -0.0160 -0.1038 -0.2754
 5232SOL    HW127155   4.595   4.051  12.999  0.3254 -2.1864 -1.7408
 5232SOL    HW227156   4.617   4.062  13.143 -1.2390  1.5413 -1.9058
 5233SOL     OW27157   3.788   1.846   2.053  0.1710  0.1725  0.4247
 5233SOL    HW127158   3.754   1.808   2.134 -3.4787 -1.9797 -2.1059
 5233SOL    HW227159   3.864   1.791   2.039  1.6486  2.6764 -1.4694
 5234SOL     OW27160   1.431   1.460  12.715  0.4199  0.5767  0.0265
 5234SOL    HW127161   1.453   1.424  12.630  2.2311  0.5202  0.5149
 5234SOL    HW227162   1.417   1.549  12.683  2.6510  0.9504  0.0562
 5235SOL     OW27163   1.885   3.810   9.701 -0.5220  0.0577 -0.1635
 5235SOL    HW127164   1.847   3.842   9.618  0.5643 -0.4766 -0.8695
 5235SOL    HW227165   1.833   3.732   9.721  1.8062 -2.0280 -2.2603
 5236SOL     OW27166   4.554   3.999  10.793 -0.0464 -0.6287  0.2105
 5236SOL    HW127167   4.567   3.912  10.755  1.9280  0.3249 -1.3001
 5236SOL    HW227168   4.586   4.056  10.723 -1.2680  3.0039  2.6153
 5237SOL     OW27169   3.122   2.290  17.174  0.4987 -0.2289  0.0199
 5237SOL    HW127170   3.177   2.365  17.153  1.0304 -0.7968 -0.6220
 5237SOL    HW227171   3.194   2.232  17.199  1.1333  0.5293 -0.0848
 5238SOL     OW27172   0.991   2.401   7.504 -0.0619  0.1800 -0.4256
 5238SOL    HW127173   0.939   2.429   7.428  0.9148  1.7545 -0.4956
 5238SOL    HW227174   0.957   2.466   7.565  0.9338  0.9640 -0.7203
 5239SOL     OW27175   3.043   1.246   7.735  0.5918  0.2077  0.2699
 5239SOL    HW127176   2.961   1.289   7.711 -0.6135 -1.7360  0.9928
 5239SOL    HW227177   3.030   1.222   7.826  1.5514 -0.1900  0.3045
 5240SOL     OW27178   1.771   1.745   4.408 -0.4756 -0.0284  0.3844
 5240SOL    HW127179   1.781   1.694   4.328 -1.5867  0.7637 -0.2636
 5240SOL    HW227180   1.822   1.683   4.459  0.8495  1.1379  0.4854
 5241SOL     OW27181   2.869   4.411   5.859  0.2864  0.4164 -0.5768
 5241SOL    HW127182   2.952   4.364   5.853 -0.6853 -1.4748  0.7520
 5241SOL    HW227183   2.829   4.377   5.939 -0.1712  0.2596 -0.8719
 5242SOL     OW27184   3.746   3.353   2.892  0.4324  0.0491  0.2577
 5242SOL    HW127185   3.799   3.278   2.919  1.0391  0.7208  0.9242
 5242SOL    HW227186   3.696   3.363   2.973 -1.2137  1.0736 -0.8784
 5243SOL     OW27187   0.430   3.487   9.968 -0.3484 -0.1428 -0.1218
 5243SOL    HW127188   0.477   3.425   9.913 -3.3258  0.9962 -3.9603
 5243SOL    HW227189   0.444   3.449  10.054  0.5673 -0.4781 -0.4208
 5244SOL     OW27190   0.762   4.016  14.621 -0.2088  0.6147 -0.6122
 5244SOL    HW127191   0.858   4.010  14.626 -0.3001  0.0955  0.3799
 5244SOL    HW227192   0.736   4.093  14.671 -0.8483  1.0902 -1.6843
 5245SOL     OW27193   2.155   3.021  11.155 -0.0975 -0.0379  0.2406
 5245SOL    HW127194   2.083   3.083  11.141 -0.7210 -0.6010  1.0406
 5245SOL    HW227195   2.172   2.988  11.066  1.9817  1.0535  0.2316
 5246SOL     OW27196   3.515   1.826   2.452 -0.4113  0.2770  0.2094
 5246SOL    HW127197   3.438   1.862   2.407 -1.3162 -2.3098 -0.3081
 5246SOL    HW227198   3.468   1.763   2.506  0.4627 -1.0432 -0.5509
 5247SOL     OW27199   1.726   0.405  15.765 -0.7295 -0.1086 -0.3174
 5247SOL    HW127200   1.765   0.472  15.709 -1.4021 -0.5667 -1.3253
 5247SOL    HW227201   1.673   0.354  15.704 -1.5949 -0.9605  1.1537
 5248SOL     OW27202   0.540   2.001   3.425  0.1332 -0.3915 -0.3205
 5248SOL    HW127203   0.624   2.005   3.469  0.8152  0.8095 -1.7303
 5248SOL    HW227204   0.569   1.999   3.334 -1.9987  1.2433 -1.0498
 5249SOL     OW27205   3.937   3.911  10.217 -0.0792 -0.5439  0.2932
 5249SOL    HW127206   3.907   3.922  10.307  0.4430  0.4408  0.3462
 5249SOL    HW227207   3.958   3.817  10.216  1.0654 -0.2884  1.1884
 5250SOL     OW27208   2.475   4.305  14.851 -0.0273  0.2379 -0.3940
 5250SOL    HW127209   2.402   4.359  14.882 -0.3026 -0.0181 -0.6050
 5250SOL    HW227210   2.547   4.364  14.872  2.7092 -2.1126 -3.1746
 5251SOL     OW27211   3.136   3.880   4.326  0.1155 -0.1431 -0.1557
 5251SOL    HW127212   3.146   3.975   4.334  0.8341 -0.0997 -1.4593
 5251SOL    HW227213   3.101   3.862   4.413 -0.2688 -1.6240 -0.6299
 5252SOL     OW27214   4.043   1.155  13.816  0.0349  0.3893 -0.2483
 5252SOL    HW127215   4.049   1.060  13.826  1.9786  0.5298 -0.1538
 5252SOL    HW227216   4.133   1.187  13.823  0.1738 -0.5062  1.9108
 5253SOL     OW27217   3.776   3.068   8.944  0.1961 -0.0414 -0.1569
 5253SOL    HW127218   3.706   3.015   8.906  0.7561 -2.1270  1.7414
 5253SOL    HW227219   3.727   3.145   8.973  0.1890 -0.8448  1.9156
 5254SOL     OW27220   4.699   0.842   4.263 -0.0428 -0.2203  0.2755
 5254SOL    HW127221   0.027   0.881   4.192 -0.4877  1.6537  1.0063
 5254SOL    HW227222   4.646   0.776   4.217  0.7726  0.2038 -1.2525
 5255SOL     OW27223   4.195   0.758  11.079 -0.1452 -0.7830  0.7544
 5255SOL    HW127224   4.258   0.830  11.071 -0.2022 -0.7259  0.8137
 5255SOL    HW227225   4.117   0.797  11.038 -0.4382 -0.2842  1.7676
 5256SOL     OW27226   0.196   3.667   3.455 -0.0932  0.1735  0.5377
 5256SOL    HW127227   0.145   3.589   3.434 -0.4570  0.6170 -0.2651
 5256SOL    HW227228   0.248   3.674   3.374  0.2493 -3.8860  0.4369
 5257SOL     OW27229   3.650   2.680   2.502 -0.1751 -0.3431  0.4317
 5257SOL    HW127230   3.639   2.773   2.482  0.5313 -0.2702  0.3836
 5257SOL    HW227231   3.672   2.643   2.416 -1.6585  1.3629 -0.6680
 5258SOL     OW27232   1.935   1.620   2.703 -0.0646  0.2731  0.0424
 5258SOL    HW127233   1.881   1.624   2.782 -2.0889 -0.6974 -1.3139
 5258SOL    HW227234   1.865   1.636   2.640 -1.1812  0.1157  1.2406
 5259SOL     OW27235   3.620   1.738  12.520 -0.2535 -0.6710 -0.2358
 5259SOL    HW127236   3.588   1.818  12.563  0.7849  0.3787 -1.4183
 5259SOL    HW227237   3.535   1.710  12.485 -0.4486  2.1866 -2.0542
 5260SOL     OW27238   1.818   3.613   4.872  0.4530  0.2939  0.0255
 5260SOL    HW127239   1.788   3.687   4.818 -0.5022  0.5981  0.9814
 5260SOL    HW227240   1.745   3.556   4.897  0.1799  0.6293 -0.0062
 5261SOL     OW27241   2.817   3.652   8.010  0.0631 -0.4223  0.0853
 5261SOL    HW127242   2.809   3.746   8.023  1.9391 -0.8452  4.3484
 5261SOL    HW227243   2.726   3.622   8.013  0.0706 -0.5139 -0.5235
 5262SOL     OW27244   1.953   2.803   9.474  0.3162 -0.2138  0.3345
 5262SOL    HW127245   2.019   2.872   9.461 -0.2170 -0.1218 -1.8854
 5262SOL    HW227246   1.917   2.796   9.386  1.2128 -1.4275  0.0701
 5263SOL     OW27247   3.454   0.156   3.063  0.3677 -0.0085  0.4147
 5263SOL    HW127248   3.518   0.089   3.087  0.8143  1.0445  2.1421
 5263SOL    HW227249   3.397   0.107   3.004  2.9541 -0.7835 -1.4177
 5264SOL     OW27250   3.682   0.448  10.554  0.2136 -0.6285 -0.2723
 5264SOL    HW127251   3.755   0.509  10.546 -0.0043 -0.2604  0.5958
 5264SOL    HW227252   3.601   0.500  10.545  0.0818 -0.6927  0.5660
 5265SOL     OW27253   2.280   0.038  16.762 -0.7413 -0.2171 -0.1940
 5265SOL    HW127254   2.224   0.070  16.833 -1.5520  0.3168 -1.0853
 5265SOL    HW227255   2.213   0.015  16.699  0.8007 -1.0722 -1.5327
 5266SOL     OW27256   1.898   3.534   2.600 -0.1466  0.2298 -0.2969
 5266SOL    HW127257   1.868   3.581   2.522 -0.9440 -0.1595 -0.2227
 5266SOL    HW227258   1.957   3.473   2.556  0.4088  0.5586 -0.0067
 5267SOL     OW27259   4.588   0.428   0.433  0.3133  0.0382 -0.3387
 5267SOL    HW127260   4.540   0.427   0.351 -0.2405  3.3328 -0.0403
 5267SOL    HW227261   4.672   0.464   0.405 -0.1133  2.4940  1.5141
 5268SOL     OW27262   1.624   3.484   3.110  0.0154 -0.1452 -0.4212
 5268SOL    HW127263   1.546   3.437   3.080  0.1257  0.0153 -0.9631
 5268SOL    HW227264   1.659   3.498   3.022 -0.0987 -0.8533 -0.5824
 5269SOL     OW27265   2.735   2.156   6.988  0.3457 -0.0952 -0.0987
 5269SOL    HW127266   2.780   2.215   7.048  0.3830  0.8393 -1.0379
 5269SOL    HW227267   2.719   2.222   6.920  1.2428  1.0109  0.7779
 5270SOL     OW27268   0.855   2.875   7.758 -1.0377  0.1337 -0.3230
 5270SOL    HW127269   0.941   2.868   7.799 -2.3309 -1.3388  2.1047
 5270SOL    HW227270   0.857   2.968   7.736  2.1963 -0.1510 -1.2818
 5271SOL     OW27271   0.542   3.331   7.131  0.4104 -0.0803 -0.1640
 5271SOL    HW127272   0.601   3.287   7.192 -0.1667  0.7224  0.9735
 5271SOL    HW227273   0.602   3.397   7.096  1.1140 -0.2348  0.7590
 5272SOL     OW27274   0.900   1.149  17.507 -0.2650 -0.2759  0.2836
 5272SOL    HW127275   0.883   1.083  17.439 -1.6523 -0.5283  0.8881
 5272SOL    HW227276   0.921   1.226  17.453 -2.9278  0.4808  0.3249
 5273SOL     OW27277   3.232   4.161  15.089  0.1535  0.1878 -0.2813
 5273SOL    HW127278   3.313   4.149  15.139  1.0848 -2.1283 -2.3137
 5273SOL    HW227279   3.267   4.212  15.015  1.6444  0.8762  0.8894
 5274SOL     OW27280   3.469   0.755   7.014 -0.3614  0.2789  0.0893
 5274SOL    HW127281   3.432   0.749   6.927 -1.3417  0.0094  0.5306
 5274SOL    HW227282   3.395   0.780   7.068 -0.8693 -0.5170 -0.2398
 5275SOL     OW27283   1.002   0.256  17.648 -0.2335 -0.2880  0.4585
 5275SOL    HW127284   1.008   0.168  17.609 -0.6759 -0.2412  0.2770
 5275SOL    HW227285   1.008   0.240   0.050 -0.6039 -0.9701  0.3735
 5276SOL     OW27286   0.170   4.339   0.975  0.1423 -0.0234 -0.1182
 5276SOL    HW127287   0.137   4.388   0.900 -1.8186 -1.6177 -0.3034
 5276SOL    HW227288   0.256   4.376   0.995 -0.3514 -0.5803  3.0162
 5277SOL     OW27289   3.904   4.241   4.432 -0.1356 -0.1843 -0.7327
 5277SOL    HW127290   3.995   4.270   4.425  0.0836 -0.7693 -0.2636
 5277SOL    HW227291   3.868   4.316   4.480  1.2622  1.0664 -1.6256
 5278SOL     OW27292   0.169   1.203  10.861 -0.2436 -0.1181 -0.0269
 5278SOL    HW127293   0.209   1.251  10.932  1.6088 -1.3701 -0.2301
 5278SOL    HW227294   0.140   1.121  10.901  1.6631 -1.4333 -1.3450
 5279SOL     OW27295   2.556   3.391   2.391 -0.1167  0.1474  0.5253
 5279SOL    HW127296   2.520   3.441   2.318  0.9479  3.8090  2.5166
 5279SOL    HW227297   2.557   3.304   2.350 -0.4706 -0.1358  1.1124
 5280SOL     OW27298   4.684   1.961  12.513 -0.3904  0.5176  0.1497
 5280SOL    HW127299   4.627   1.988  12.585  2.5503  0.4795  2.4942
 5280SOL    HW227300   4.707   2.049  12.481 -0.3788 -0.0698 -1.4540
 5281SOL     OW27301   3.511   0.038   2.337 -0.2732 -0.4982 -0.0323
 5281SOL    HW127302   3.438   0.038   2.275 -0.6207 -1.1675  0.3690
 5281SOL    HW227303   3.556   0.121   2.321 -0.4077 -0.6459 -1.1775
 5282SOL     OW27304   2.677   0.873   3.581  0.5337 -0.4901  0.1094
 5282SOL    HW127305   2.607   0.939   3.583 -0.7381 -1.7627 -2.7373
 5282SOL    HW227306   2.684   0.864   3.486 -0.1824 -0.6119  0.0675
 5283SOL     OW27307   3.104   4.253   7.079  0.2927 -0.3921 -0.3217
 5283SOL    HW127308   3.175   4.283   7.135 -0.5659  1.9065 -0.4402
 5283SOL    HW227309   3.045   4.329   7.083  1.5892  0.5581  0.8051
 5284SOL     OW27310   1.433   3.737   5.587  0.6817  0.3620  0.2815
 5284SOL    HW127311   1.394   3.769   5.505  0.5426 -0.4644  0.0234
 5284SOL    HW227312   1.526   3.720   5.576  0.0877 -1.6977 -1.5433
 5285SOL     OW27313   1.131   0.300   6.029  0.0627  1.1485  0.3802
 5285SOL    HW127314   1.063   0.331   6.089 -0.6803 -1.3432  0.8193
 5285SOL    HW227315   1.155   0.385   5.992 -0.9960  0.5984 -1.5874
 5286SOL     OW27316   4.274   4.195   3.634  0.0322  0.0781  0.0032
 5286SOL    HW127317   4.206   4.242   3.585  1.1303  0.8836 -0.7329
 5286SOL    HW227318   4.333   4.269   3.622 -1.0159  0.4526 -2.9968
 5287SOL     OW27319   3.082   2.592   4.553  0.1424 -0.0657  0.3620
 5287SOL    HW127320   3.121   2.555   4.474 -2.0600  0.5158 -0.9753
 5287SOL    HW227321   3.069   2.677   4.511 -0.6914  1.0008  2.8139
 5288SOL     OW27322   3.697   2.596   2.257  0.3393  0.0038  0.1805
 5288SOL    HW127323   3.680   2.501   2.254  0.7355 -0.0552 -0.2529
 5288SOL    HW227324   3.686   2.626   2.166  0.7219 -0.2582  0.0500
 5289SOL     OW27325   1.835   0.785  11.528  0.3797  0.6119  0.7236
 5289SOL    HW127326   1.810   0.794  11.436 -2.7476  2.1138  1.7300
 5289SOL    HW227327   1.833   0.693  11.555 -0.3917  0.2147 -0.6865
 5290SOL     OW27328   4.244   0.790   1.445 -0.2693 -0.1565  0.1370
 5290SOL    HW127329   4.185   0.735   1.497 -0.3083  0.1065  0.3670
 5290SOL    HW227330   4.334   0.765   1.468  0.3952  0.9501 -1.2429
 5291SOL     OW27331   4.015   2.803   2.135 -0.3179  0.5798 -0.0316
 5291SOL    HW127332   4.005   2.816   2.041 -1.2449  0.9867  0.1306
 5291SOL    HW227333   3.933   2.842   2.165  0.3478  1.4132  0.6889
 5292SOL     OW27334   4.163   4.070   8.027 -0.4327 -0.5357 -0.8963
 5292SOL    HW127335   4.071   4.094   8.034  0.3218  1.5052  1.9986
 5292SOL    HW227336   4.209   4.136   8.078 -1.7368  0.7187 -1.3402
 5293SOL     OW27337   2.902   3.484   3.543  0.1589 -0.1784  0.2410
 5293SOL    HW127338   2.913   3.532   3.461  0.9580  0.6161  0.8037
 5293SOL    HW227339   2.841   3.546   3.582  0.9168  1.2190 -0.8095
 5294SOL     OW27340   1.725   2.604   6.574  0.1640  0.0710  0.1419
 5294SOL    HW127341   1.715   2.551   6.495  1.1016 -1.1430  0.8403
 5294SOL    HW227342   1.653   2.666   6.565 -0.6962 -1.1239 -1.2862
 5295SOL     OW27343   0.675   3.241  11.419 -0.0638 -0.0581 -0.3677
 5295SOL    HW127344   0.649   3.193  11.498 -1.1579  0.7180 -0.2529
 5295SOL    HW227345   0.682   3.166  11.361 -1.0229 -0.4915  0.0737
 5296SOL     OW27346   1.955   4.228   8.833  0.3512 -0.0993  0.0589
 5296SOL    HW127347   1.965   4.252   8.925  1.5173 -2.1074  0.4695
 5296SOL    HW227348   2.038   4.249   8.790  0.4413  0.4700  0.5095
 5297SOL     OW27349   1.010   3.508   4.137 -0.0483  0.0508  0.2502
 5297SOL    HW127350   1.095   3.478   4.105  0.1572  0.9126 -0.0148
 5297SOL    HW227351   1.004   3.603   4.132  0.4247  0.0763  0.2013
 5298SOL     OW27352   0.521   0.611   2.366 -0.7272 -0.0447 -0.1094
 5298SOL    HW127353   0.508   0.516   2.360  1.7578 -0.3567 -0.6968
 5298SOL    HW227354   0.434   0.644   2.346 -0.4914  0.4485 -0.3267
 5299SOL     OW27355   2.624   1.912   6.598 -0.5660 -0.1589  0.8701
 5299SOL    HW127356   2.711   1.902   6.638  0.5919  1.1217 -1.3592
 5299SOL    HW227357   2.586   1.963   6.670 -0.1268 -0.1018  1.0633
 5300SOL     OW27358   4.123   3.665   0.198 -0.1481  0.0006  0.2943
 5300SOL    HW127359   4.089   3.611   0.270 -0.7506  0.1840  0.1509
 5300SOL    HW227360   4.213   3.683   0.226  0.5198 -2.2523 -0.4136
 5301SOL     OW27361   0.484   3.911   1.480 -0.0507  0.2563 -0.6135
 5301SOL    HW127362   0.563   3.908   1.533  0.2556  3.0618 -0.9120
 5301SOL    HW227363   0.518   3.910   1.390  0.1870 -0.2428 -0.5148
 5302SOL     OW27364   2.547   3.034   3.895  0.3655  0.4621  0.9735
 5302SOL    HW127365   2.497   3.087   3.957 -0.4146 -1.4548  2.0014
 5302SOL    HW227366   2.618   3.097   3.884 -0.6882  1.1580 -1.8918
 5303SOL     OW27367   0.618   2.114  10.158  0.5796  0.3566  0.7090
 5303SOL    HW127368   0.686   2.149  10.216  0.8121 -1.2514  1.3979
 5303SOL    HW227369   0.600   2.195  10.110 -0.6008  0.3019  1.0583
 5304SOL     OW27370   0.820   1.432   2.944 -0.0030 -0.4890  0.0715
 5304SOL    HW127371   0.907   1.472   2.943  0.5251 -1.6422 -1.2000
 5304SOL    HW227372   0.788   1.469   3.025  1.5277  1.9481 -0.4548
 5305SOL     OW27373   1.228   1.277   5.646 -0.2787  0.5719  0.5590
 5305SOL    HW127374   1.206   1.369   5.630  1.4830  1.1266  1.4119
 5305SOL    HW227375   1.163   1.237   5.588 -0.4976  0.8431  0.6162
 5306SOL     OW27376   3.336   0.493   6.653 -0.0571  0.2074 -0.2798
 5306SOL    HW127377   3.271   0.423   6.654  0.1174  0.0712  1.3978
 5306SOL    HW227378   3.417   0.442   6.663 -1.8682 -2.2764  1.8239
 5307SOL     OW27379   2.534   1.664   6.866  0.1322 -0.0298  0.0409
 5307SOL    HW127380   2.609   1.721   6.884  0.7586 -1.2497  1.2523
 5307SOL    HW227381   2.566   1.583   6.904 -1.2905 -0.5062  0.2227
 5308SOL     OW27382   1.258   2.980   5.894  0.3050 -0.4108  0.4626
 5308SOL    HW127383   1.175   2.967   5.941  0.7829  0.5169  1.5620
 5308SOL    HW227384   1.249   3.075   5.889 -0.3284 -0.4875  0.1259
 5309SOL     OW27385   4.095   3.655   7.258  0.0386  0.3336  0.6791
 5309SOL    HW127386   4.030   3.693   7.318  1.2569  2.6255  0.5624
 5309SOL    HW227387   4.176   3.637   7.305  0.7230 -0.1164 -0.6713
 5310SOL     OW27388   0.738   1.050   9.200 -0.1541  0.3137  0.3981
 5310SOL    HW127389   0.671   1.109   9.164 -0.6866 -1.1417 -0.9818
 5310SOL    HW227390   0.770   0.998   9.126 -0.4468 -2.6150  2.3226
 5311SOL     OW27391   0.609   0.630  10.197 -0.1361 -0.2503 -0.1977
 5311SOL    HW127392   0.691   0.680  10.202  0.3293 -0.8888 -1.4320
 5311SOL    HW227393   0.553   0.695  10.155 -1.8226 -0.2203  2.1019
 5312SOL     OW27394   2.047   0.101   7.939 -0.2431  0.7945  0.4964
 5312SOL    HW127395   2.019   0.135   8.024 -0.0497  0.7824  0.5641
 5312SOL    HW227396   1.962   0.080   7.900 -0.4283  3.4439 -0.5278
 5313SOL     OW27397   4.542   0.900   5.393 -0.6920 -0.6946 -0.5550
 5313SOL    HW127398   4.538   0.838   5.466  0.4047 -0.2742 -0.1497
 5313SOL    HW227399   4.630   0.882   5.361 -0.3919 -0.9637  0.4326
 5314SOL     OW27400   1.833   2.543  15.283  0.6891 -0.1812  0.0507
 5314SOL    HW127401   1.775   2.513  15.213 -0.0682  0.5151  0.3804
 5314SOL    HW227402   1.823   2.637  15.271 -0.7435 -0.5587 -1.5834
 5315SOL     OW27403   0.583   0.563   3.919 -0.1584  0.6295  0.1758
 5315SOL    HW127404   0.664   0.519   3.945 -0.4941  1.4707  2.6195
 5315SOL    HW227405   0.562   0.612   3.998 -0.7566  0.2800  0.2303
 5316SOL     OW27406   1.325   3.017  16.147 -0.3396  0.2033  0.0468
 5316SOL    HW127407   1.381   3.070  16.204  2.4961 -1.6561 -1.0283
 5316SOL    HW227408   1.301   3.075  16.074 -0.3624  0.8989  0.6074
 5317SOL     OW27409   2.279   2.922   4.975 -0.0318 -0.1415 -0.5345
 5317SOL    HW127410   2.343   2.989   4.994 -2.1310  2.6178 -3.2120
 5317SOL    HW227411   2.334   2.857   4.931  2.0803  0.7764  0.7444
 5318SOL     OW27412   0.799   3.968   5.469  0.5988  0.4801  0.0194
 5318SOL    HW127413   0.740   3.952   5.395  0.0819  1.0066  0.3210
 5318SOL    HW227414   0.851   4.041   5.434 -0.4531  1.8857  1.3637
 5319SOL     OW27415   2.597   2.311  13.560  0.0424 -0.1943  0.2754
 5319SOL    HW127416   2.547   2.301  13.642  2.4100 -1.1990  1.5804
 5319SOL    HW227417   2.575   2.227  13.519 -0.0090  0.1777 -0.4584
 5320SOL     OW27418   0.823   0.925   8.147 -0.3881 -0.0317  0.0610
 5320SOL    HW127419   0.848   0.987   8.214 -2.6101  2.2986 -1.2593
 5320SOL    HW227420   0.880   0.858   8.183 -0.6330 -0.4053 -0.2383
 5321SOL     OW27421   3.661   0.344  14.222  0.1606 -0.1806  0.5957
 5321SOL    HW127422   3.589   0.317  14.165 -1.1670  1.2896  1.5601
 5321SOL    HW227423   3.687   0.264  14.268  1.9892 -0.2330 -0.5403
 5322SOL     OW27424   3.576   0.798   5.988  0.1841  0.3113 -0.1836
 5322SOL    HW127425   3.538   0.792   6.076  1.8015  0.1333  0.4977
 5322SOL    HW227426   3.494   0.806   5.938 -0.3143  0.2401  0.6097
 5323SOL     OW27427   4.169   1.958  10.641  0.0668  0.0118  0.3445
 5323SOL    HW127428   4.135   1.929  10.725  1.2491  0.9510  1.1556
 5323SOL    HW227429   4.264   1.967  10.652 -0.2045 -0.3738  2.9558
 5324SOL     OW27430   1.672   3.513   8.832  0.0846  0.0810 -0.3633
 5324SOL    HW127431   1.727   3.540   8.758 -0.0179 -2.5750 -1.3870
 5324SOL    HW227432   1.597   3.572   8.818 -0.5663 -0.6889 -0.1131
 5325SOL     OW27433   2.388   1.253   7.318  0.2844 -0.2825  0.4429
 5325SOL    HW127434   2.402   1.253   7.412  0.9483  2.4921  0.3499
 5325SOL    HW227435   2.418   1.340   7.291  1.2021 -0.8159 -0.2591
 5326SOL     OW27436   4.345   1.321  16.355  0.1008 -0.4449 -0.2104
 5326SOL    HW127437   4.353   1.367  16.271  2.1730  0.2069  0.3464
 5326SOL    HW227438   4.285   1.251  16.330  1.2608 -0.9313 -1.5995
 5327SOL     OW27439   0.772   3.188   5.883  0.2081  0.2340  0.0219
 5327SOL    HW127440   0.835   3.242   5.835 -1.9059  0.7987 -2.0746
 5327SOL    HW227441   0.799   3.110   5.835  0.1908  0.6067 -0.5927
 5328SOL     OW27442   3.252   2.550  17.149 -0.2283  0.1299 -0.4224
 5328SOL    HW127443   3.228   2.594  17.068  2.2409  3.8963  0.8669
 5328SOL    HW227444   3.280   2.624  17.203 -1.3979  0.9375 -0.9279
 5329SOL     OW27445   0.947   4.404  12.249 -0.1335  0.6094 -0.2045
 5329SOL    HW127446   1.026   4.380  12.298  1.2825 -0.1486 -2.8677
 5329SOL    HW227447   0.878   4.358  12.296 -0.6242  1.1293 -0.4302
 5330SOL     OW27448   0.397   0.353  12.788 -0.1357 -0.1726 -0.5713
 5330SOL    HW127449   0.374   0.425  12.729  0.5798  1.0054  0.5966
 5330SOL    HW227450   0.405   0.282  12.725 -1.7890 -0.8509 -0.0074
 5331SOL     OW27451   1.020   1.201   3.265 -0.0126 -0.2656 -0.3532
 5331SOL    HW127452   0.985   1.170   3.181  0.5060  3.0188 -1.7861
 5331SOL    HW227453   1.012   1.296   3.264  0.2522 -0.2391  0.1735
 5332SOL     OW27454   3.396   2.568   9.349 -0.3748  0.3105  0.1812
 5332SOL    HW127455   3.437   2.613   9.423  0.5698  1.5685 -1.1007
 5332SOL    HW227456   3.478   2.561   9.300 -0.4002  1.2962  0.0014
 5333SOL     OW27457   4.518   3.930   0.924 -0.4773 -0.0649  0.7848
 5333SOL    HW127458   4.539   4.013   0.966 -0.8949 -0.3147  1.5005
 5333SOL    HW227459   4.553   3.945   0.836 -0.7321  0.5368  0.7915
 5334SOL     OW27460   2.024   4.356   2.267  0.5631 -0.5216 -0.8290
 5334SOL    HW127461   1.981   4.276   2.235 -1.0978  0.0171  0.0646
 5334SOL    HW227462   2.012   4.411   2.190 -0.8252  1.1433  0.5946
 5335SOL     OW27463   1.883   1.144  11.522 -0.0165  0.0670 -0.1532
 5335SOL    HW127464   1.891   1.191  11.605  1.2831 -1.3438  0.5228
 5335SOL    HW227465   1.929   1.060  11.526 -0.2451 -0.1591 -2.4507
 5336SOL     OW27466   2.595   1.146   2.573  0.6648  0.2399  0.1849
 5336SOL    HW127467   2.535   1.103   2.512 -0.5680  1.9904  0.1651
 5336SOL    HW227468   2.673   1.127   2.522  0.1446 -0.7569 -0.2397
 5337SOL     OW27469   3.357   1.050  13.166 -0.0226 -0.2664  0.1707
 5337SOL    HW127470   3.451   1.065  13.154 -0.0238  0.7377  1.5037
 5337SOL    HW227471   3.318   1.117  13.222 -2.8263 -2.6688  1.0971
 5338SOL     OW27472   0.272   2.451   4.198 -0.0576 -0.1103  0.5563
 5338SOL    HW127473   0.281   2.436   4.104 -4.8649  1.3472 -0.1445
 5338SOL    HW227474   0.182   2.422   4.207  0.4922 -1.6036  1.1947
 5339SOL     OW27475   2.505   0.251   0.451  0.4688 -0.4499  0.5731
 5339SOL    HW127476   2.536   0.277   0.538  1.0555 -0.8244  0.4712
 5339SOL    HW227477   2.443   0.323   0.433  0.6345 -0.4265  0.1015
 5340SOL     OW27478   2.355   3.335  11.083  0.0033  0.2564 -0.2745
 5340SOL    HW127479   2.287   3.316  11.148 -0.2851 -1.1509 -0.9771
 5340SOL    HW227480   2.422   3.377  11.137 -1.6008  1.2680  0.9559
 5341SOL     OW27481   3.829   4.422  15.667 -0.7016  0.7837 -0.0197
 5341SOL    HW127482   3.914   4.450  15.632  0.9030 -1.3499  2.1931
 5341SOL    HW227483   3.857   4.393  15.753 -2.4061 -0.5331  0.0774
 5342SOL     OW27484   4.447   4.218   0.084  0.0131 -0.3418 -0.8154
 5342SOL    HW127485   4.406   4.263   0.010 -0.1769  0.7489 -0.0573
 5342SOL    HW227486   4.369   4.191   0.134  0.1401  1.1953  0.2043
 5343SOL     OW27487   0.033   1.236   6.323  0.4683  0.5450  0.1553
 5343SOL    HW127488   0.123   1.204   6.315  0.4558  0.5558 -0.0450
 5343SOL    HW227489   0.037   1.259   6.416  1.1666  0.4475  0.1508
 5344SOL     OW27490   0.945   2.103   7.926 -0.2194  0.2572 -0.2861
 5344SOL    HW127491   0.962   2.196   7.911 -1.7281  0.5556 -0.1618
 5344SOL    HW227492   0.885   2.086   7.852 -0.9268  0.1390  0.3136
 5345SOL     OW27493   2.883   2.894   4.722 -0.0246 -0.2777 -0.8648
 5345SOL    HW127494   2.849   2.805   4.719 -0.5601 -0.0355 -1.8674
 5345SOL    HW227495   2.939   2.906   4.799  0.2406  0.7826 -1.2183
 5346SOL     OW27496   0.044   1.529   9.460  0.4126 -0.2619 -0.2796
 5346SOL    HW127497   0.034   1.569   9.546 -1.6519  0.0656 -0.6824
 5346SOL    HW227498   0.025   1.438   9.481  0.0602 -0.7810 -2.8838
 5347SOL     OW27499   3.703   1.854   7.579 -0.5834  0.1705  0.7391
 5347SOL    HW127500   3.754   1.861   7.498 -0.9421  0.4510  0.5359
 5347SOL    HW227501   3.751   1.800   7.642 -0.3208 -0.6728 -0.1939
 5348SOL     OW27502   2.359   4.463   0.073  0.3186 -0.6489  0.2120
 5348SOL    HW127503   2.333   4.521   0.144  0.5162  1.3490 -1.3395
 5348SOL    HW227504   2.304   4.386   0.088 -1.3729  0.3226 -1.0036
 5349SOL     OW27505   3.121   1.931   3.140 -0.2437 -0.1235  0.0828
 5349SOL    HW127506   3.177   1.927   3.062 -0.8471  2.9768 -0.5161
 5349SOL    HW227507   3.034   1.933   3.101  0.9336 -1.4271 -2.6333
 5350SOL     OW27508   0.546   3.876  14.648 -0.3170 -0.0624 -0.5702
 5350SOL    HW127509   0.614   3.942  14.639 -2.0889  2.1676  2.1181
 5350SOL    HW227510   0.492   3.894  14.572 -0.5931  2.6655  0.2693
 5351SOL     OW27511   4.141   4.442   6.193  0.0350  0.5426 -0.4484
 5351SOL    HW127512   4.150   4.528   6.235  0.4557 -1.0846  2.8366
 5351SOL    HW227513   4.227   4.407   6.217 -0.1259 -0.1934 -0.9294
 5352SOL     OW27514   4.527   3.822   6.040 -0.1078 -0.0537  0.3151
 5352SOL    HW127515   4.483   3.794   6.120 -0.0538 -2.8709 -0.6454
 5352SOL    HW227516   4.614   3.784   6.058  0.7901  1.5009 -0.7874
 5353SOL     OW27517   4.230   1.046  15.452 -0.2505  0.1415 -0.3606
 5353SOL    HW127518   4.244   1.133  15.417  3.5202 -1.0542 -1.7937
 5353SOL    HW227519   4.305   1.002  15.411 -0.8009 -1.0507 -0.0874
 5354SOL     OW27520   0.945   1.013  12.232  0.1338 -0.1740  0.2542
 5354SOL    HW127521   0.908   1.098  12.255 -0.3391 -0.7099  1.4315
 5354SOL    HW227522   1.021   1.024  12.290 -0.8492  2.2388  1.0714
 5355SOL     OW27523   0.847   3.732  12.630 -0.3824 -0.6105 -0.2765
 5355SOL    HW127524   0.794   3.729  12.550 -0.2101 -1.8744 -0.3418
 5355SOL    HW227525   0.877   3.823  12.626 -2.3831  0.0741  0.0863
 5356SOL     OW27526   0.754   2.581   3.624 -0.8481  0.6107  0.0797
 5356SOL    HW127527   0.686   2.642   3.654 -0.6900  0.5905  0.4872
 5356SOL    HW227528   0.829   2.624   3.664 -0.7398 -0.9872  1.6069
 5357SOL     OW27529   3.420   3.755   3.821  0.2259  0.3039 -0.5281
 5357SOL    HW127530   3.472   3.683   3.785  0.6468  0.3613 -0.0325
 5357SOL    HW227531   3.427   3.739   3.915  1.3697  1.3695 -0.4252
 5358SOL     OW27532   1.841   3.710   7.777  1.0839  0.1002 -0.6920
 5358SOL    HW127533   1.763   3.744   7.732  0.5412 -1.7663 -1.1675
 5358SOL    HW227534   1.801   3.702   7.864 -0.8892  2.6541 -1.3596
 5359SOL     OW27535   1.037   2.414   5.215  0.0288  0.0103 -0.0503
 5359SOL    HW127536   1.072   2.384   5.132 -2.1249 -1.3351 -0.4779
 5359SOL    HW227537   0.967   2.475   5.191 -0.1073 -0.1552 -0.0759
 5360SOL     OW27538   2.454   3.561   2.203 -0.2550  0.0284  0.0063
 5360SOL    HW127539   2.443   3.645   2.247  0.6298 -0.0123  0.2929
 5360SOL    HW227540   2.509   3.594   2.132  0.7635 -1.5065  0.0797
 5361SOL     OW27541   1.284   2.207   5.657 -0.0832 -0.3816  0.2023
 5361SOL    HW127542   1.300   2.139   5.592  0.6467  2.1884 -2.3055
 5361SOL    HW227543   1.237   2.153   5.721 -1.9436 -1.8428 -2.4015
 5362SOL     OW27544   4.016   3.108   2.555 -0.0264 -0.3264  0.1295
 5362SOL    HW127545   4.008   3.167   2.630 -0.7202 -0.2966  0.0297
 5362SOL    HW227546   3.995   3.173   2.487 -0.7460 -0.3532  0.3313
 5363SOL     OW27547   0.232   2.153  11.896 -0.0667 -0.5840 -0.3357
 5363SOL    HW127548   0.231   2.197  11.810  0.9080 -3.4953 -1.8279
 5363SOL    HW227549   0.138   2.157  11.910 -0.1186 -1.8300 -0.3202
 5364SOL     OW27550   4.408   0.073   6.796  0.5090  0.0892  0.7623
 5364SOL    HW127551   4.498   0.043   6.802  1.5253  2.6669 -1.5396
 5364SOL    HW227552   4.373   0.025   6.721  0.5218  1.3073 -0.0288
 5365SOL     OW27553   1.741   0.282  15.279  0.9182  0.2434 -0.5913
 5365SOL    HW127554   1.713   0.355  15.223 -0.4496 -0.6227 -1.0460
 5365SOL    HW227555   1.814   0.322  15.325 -0.2075 -0.2229  1.5898
 5366SOL     OW27556   0.690   3.893   0.024 -0.5594  0.2512  0.4196
 5366SOL    HW127557   0.698   3.988   0.031 -0.9787  0.1263  2.8671
 5366SOL    HW227558   0.631   3.879  17.642  0.5831  0.2069 -0.4794
 5367SOL     OW27559   1.491   2.470  12.122 -0.0762  0.7491  0.3343
 5367SOL    HW127560   1.546   2.426  12.186  1.5242  2.2188 -0.0343
 5367SOL    HW227561   1.473   2.395  12.065 -3.2602  1.4382  0.4139
 5368SOL     OW27562   4.599   2.412   1.989  0.0917 -0.0524 -0.4480
 5368SOL    HW127563   4.571   2.489   2.039 -0.6791 -0.0310 -0.9091
 5368SOL    HW227564   4.685   2.447   1.966 -0.2121  2.0183  1.4795
 5369SOL     OW27565   2.170   3.069  16.201  0.2015  0.2323  0.0380
 5369SOL    HW127566   2.092   3.121  16.221 -0.2298 -1.0496  1.6649
 5369SOL    HW227567   2.162   3.061  16.106 -0.5629  1.9745 -0.0581
 5370SOL     OW27568   4.234   1.807   4.618 -0.4662 -0.1703  0.3111
 5370SOL    HW127569   4.303   1.747   4.588 -0.1179  0.2740  0.2318
 5370SOL    HW227570   4.183   1.754   4.680  0.5839 -3.1783 -1.3840
 5371SOL     OW27571   3.494   4.282  12.425 -0.1561 -0.1119 -0.0118
 5371SOL    HW127572   3.479   4.239  12.341  0.2466 -3.1875  1.5038
 5371SOL    HW227573   3.581   4.308  12.395  0.3445 -0.5707  1.0724
 5372SOL     OW27574   4.401   3.514   2.498 -0.1011 -0.1872 -0.3377
 5372SOL    HW127575   4.396   3.580   2.567 -0.0851  0.7779 -1.2568
 5372SOL    HW227576   4.317   3.473   2.517  1.2465 -2.9026 -0.1952
 5373SOL     OW27577   3.907   3.798  11.397  0.2114  0.4682  0.5376
 5373SOL    HW127578   3.962   3.868  11.430 -0.5901  0.6684  1.4380
 5373SOL    HW227579   3.917   3.811  11.302  0.1401 -3.4050 -0.0099
 5374SOL     OW27580   2.363   1.410  11.492 -0.0287 -0.7520 -0.0960
 5374SOL    HW127581   2.363   1.378  11.583 -0.4097 -1.0901 -0.2129
 5374SOL    HW227582   2.456   1.412  11.469 -0.7185 -0.1673 -2.7947
 5375SOL     OW27583   3.496   2.892   9.364  0.2814  0.1132  0.5125
 5375SOL    HW127584   3.504   2.836   9.441  1.6482  1.5643  1.4112
 5375SOL    HW227585   3.489   2.838   9.285  1.4863 -0.5640  0.8659
 5376SOL     OW27586   3.908   1.781  16.408  0.3734  0.2224 -0.5687
 5376SOL    HW127587   3.961   1.709  16.442 -0.2715  0.1933  0.3957
 5376SOL    HW227588   3.908   1.774  16.313  2.3727 -0.8343 -0.4680
 5377SOL     OW27589   0.125   0.034   6.179  0.8422  0.1882  0.4903
 5377SOL    HW127590   0.152   4.707   6.256  2.4797  0.8926  0.3670
 5377SOL    HW227591   0.177   0.114   6.190 -0.0136  1.1939 -2.9679
 5378SOL     OW27592   2.636   4.193   3.001  0.0374  0.4054  0.2752
 5378SOL    HW127593   2.580   4.157   3.069  1.1765  0.6643  1.3591
 5378SOL    HW227594   2.675   4.110   2.971 -1.9465 -0.9276  1.4353
 5379SOL     OW27595   3.749   4.627   0.840  0.4079 -0.2343  0.3133
 5379SOL    HW127596   3.743   4.652   0.748 -1.1632 -0.0876  0.4577
 5379SOL    HW227597   3.661   4.591   0.854  0.1752  0.3362  0.3231
 5380SOL     OW27598   2.208   2.853  10.420  0.5671 -0.2156 -0.2863
 5380SOL    HW127599   2.245   2.922  10.475  0.8098 -0.5972  0.0251
 5380SOL    HW227600   2.196   2.784  10.485  1.5788  0.2106  0.3501
 5381SOL     OW27601   2.010   2.743  10.706  0.2987 -0.3631  0.3629
 5381SOL    HW127602   1.970   2.823  10.672  0.4315 -1.2486 -1.8780
 5381SOL    HW227603   2.002   2.682  10.633 -1.4143 -0.8203  0.9294
 5382SOL     OW27604   4.592   0.410   4.403  0.2789  0.3689 -0.7451
 5382SOL    HW127605   4.595   0.331   4.348  0.2199  0.4557 -0.8715
 5382SOL    HW227606   4.514   0.443   4.359  0.9059  1.2499 -1.1855
 5383SOL     OW27607   0.487   0.059   9.892  0.0719 -0.1195  0.0169
 5383SOL    HW127608   0.400   0.097   9.899 -0.9671 -1.9258 -2.9656
 5383SOL    HW227609   0.454   4.691   9.891 -1.2012  0.3402  0.4656
 5384SOL     OW27610   1.310   2.703   6.757 -0.1534 -0.1664  0.0046
 5384SOL    HW127611   1.337   2.704   6.849 -0.1581 -4.3671  0.0404
 5384SOL    HW227612   1.381   2.649   6.721  1.8441  1.7498  1.0788
 5385SOL     OW27613   3.485   1.145   1.798  0.4599  0.4059  0.3022
 5385SOL    HW127614   3.496   1.056   1.766 -0.3841  1.2292 -2.2479
 5385SOL    HW227615   3.417   1.185   1.743  0.5192  1.7097  1.1572
 5386SOL     OW27616   2.164   2.038  13.055  0.1816  0.3993 -0.0781
 5386SOL    HW127617   2.092   2.072  13.107  0.7261  1.2542  0.1173
 5386SOL    HW227618   2.232   2.103  13.074 -0.5363  0.6211  1.7021
 5387SOL     OW27619   2.965   1.516  16.731  0.5039  0.3351  0.0325
 5387SOL    HW127620   2.956   1.548  16.821 -2.2419 -0.9145  0.2125
 5387SOL    HW227621   3.058   1.536  16.723  1.6200 -3.8551  2.6988
 5388SOL     OW27622   3.004   3.016   8.162 -0.5334  0.3294 -0.1045
 5388SOL    HW127623   2.940   2.950   8.136 -0.0857 -0.2682  0.3326
 5388SOL    HW227624   2.969   3.079   8.098  2.3252  0.2930 -1.6882
 5389SOL     OW27625   1.693   3.743   5.535  0.0177 -0.6982  0.7866
 5389SOL    HW127626   1.710   3.832   5.506  1.0451 -0.6961  1.3928
 5389SOL    HW227627   1.752   3.738   5.610 -0.1017  1.9453  1.0266
 5390SOL     OW27628   2.432   2.672   4.960  0.2070 -0.0914 -0.2355
 5390SOL    HW127629   2.446   2.591   5.009 -0.0386  0.1659  0.2563
 5390SOL    HW227630   2.399   2.718   5.037  1.7166 -0.9621  0.9173
 5391SOL     OW27631   3.457   2.635   1.832 -0.1495 -0.3257  0.2204
 5391SOL    HW127632   3.441   2.644   1.926 -0.6352  1.2458 -0.0225
 5391SOL    HW227633   3.550   2.655   1.834  0.0008 -1.0023  0.2590
 5392SOL     OW27634   2.198   1.510   9.832  0.2538  0.4187 -0.5423
 5392SOL    HW127635   2.241   1.565   9.897 -1.7040 -0.0150  1.1243
 5392SOL    HW227636   2.197   1.428   9.882 -0.8636 -0.2056 -1.5929
 5393SOL     OW27637   3.400   0.519   0.361 -0.2517 -0.1297 -0.0270
 5393SOL    HW127638   3.380   0.537   0.452 -1.8827  1.0795 -0.6191
 5393SOL    HW227639   3.356   0.592   0.317  0.6793  0.1613 -0.4774
 5394SOL     OW27640   3.155   4.214  16.329 -0.6486  0.2607  0.0580
 5394SOL    HW127641   3.114   4.128  16.343 -1.1919  0.2365 -1.7189
 5394SOL    HW227642   3.087   4.254  16.276  0.9332  2.1580 -0.5245
 5395SOL     OW27643   4.552   1.466   0.929  0.1913  0.9655  1.0250
 5395SOL    HW127644   4.552   1.426   0.842  0.5482  0.9915  1.0141
 5395SOL    HW227645   4.476   1.523   0.925 -1.0481 -0.9006 -2.2096
 5396SOL     OW27646   1.975   0.993  13.232 -0.0491 -0.5734 -0.4293
 5396SOL    HW127647   1.969   0.900  13.210  1.5983 -0.6207 -0.6533
 5396SOL    HW227648   1.944   1.043  13.156 -2.6646  0.5819  1.4032
 5397SOL     OW27649   2.436   3.295   7.790 -0.1973 -0.5141  0.2553
 5397SOL    HW127650   2.378   3.366   7.818 -0.9277 -1.5704  1.4355
 5397SOL    HW227651   2.499   3.345   7.738 -3.3898  1.1916 -2.0294
 5398SOL     OW27652   3.972   1.956   5.512  0.1714  0.3334  0.1000
 5398SOL    HW127653   4.034   2.010   5.562 -0.4430 -1.3975  2.7091
 5398SOL    HW227654   3.960   1.883   5.573  5.8633 -0.8828 -0.2493
 5399SOL     OW27655   0.835   1.620   7.677  0.2515  0.1035 -0.1279
 5399SOL    HW127656   0.785   1.700   7.692 -0.4190 -0.1488 -1.0048
 5399SOL    HW227657   0.790   1.594   7.597 -2.4256  0.3672  1.3214
 5400SOL     OW27658   2.754   2.498  11.808 -0.6597  0.3092 -0.1882
 5400SOL    HW127659   2.739   2.444  11.885  0.5134  0.0911 -0.1176
 5400SOL    HW227660   2.814   2.567  11.835  0.2488 -0.7371  0.4636
 5401SOL     OW27661   2.473   2.867  12.917  0.5227  0.0437 -0.6455
 5401SOL    HW127662   2.563   2.864  12.885  0.8529  1.0166  0.1855
 5401SOL    HW227663   2.431   2.822  12.843  3.1632  3.6840 -4.3374
 5402SOL     OW27664   0.001   3.497  12.419 -0.3818 -0.3514 -0.2441
 5402SOL    HW127665   0.047   3.436  12.476 -0.6351  1.0115  1.4291
 5402SOL    HW227666   0.020   3.580  12.464  2.1448 -0.4931 -1.0626
 5403SOL     OW27667   1.098   4.579   8.385 -0.0844  0.2109  0.2290
 5403SOL    HW127668   1.017   4.600   8.431 -0.9304 -0.7738 -0.8066
 5403SOL    HW227669   1.056   4.550   8.303  0.5188  0.9358 -0.3352
 5404SOL     OW27670   0.262   1.894  12.470  0.1253  0.2366  0.1973
 5404SOL    HW127671   0.168   1.895  12.451  0.1795 -1.6669 -0.2604
 5404SOL    HW227672   0.275   1.985  12.497 -0.7704  0.5140 -0.2962
 5405SOL     OW27673   1.771   2.647   5.620  0.2080 -0.0338 -0.5529
 5405SOL    HW127674   1.775   2.636   5.715  2.5241  1.9600 -0.4346
 5405SOL    HW227675   1.818   2.730   5.617  2.6101 -1.3724  0.4519
 5406SOL     OW27676   0.466   4.680   0.370 -0.0277  0.2163  0.6416
 5406SOL    HW127677   0.387   4.695   0.318 -0.9111 -0.0569  1.9069
 5406SOL    HW227678   0.495   0.046   0.348  1.0282 -0.0985  0.7957
 5407SOL     OW27679   4.705   3.158  17.242  0.0450  0.3731  0.2468
 5407SOL    HW127680   4.692   3.223  17.310  1.3903  1.3563 -0.4320
 5407SOL    HW227681   4.655   3.082  17.273 -0.2891  0.1461 -0.8428
 5408SOL     OW27682   4.674   1.237   5.968  0.1307  0.1175 -0.0695
 5408SOL    HW127683   4.686   1.190   6.050  1.7133  0.5868 -0.0291
 5408SOL    HW227684   4.582   1.221   5.948  0.3227 -1.7595  0.5952
 5409SOL     OW27685   4.668   4.395   0.828  0.2876 -0.5334 -0.7616
 5409SOL    HW127686   4.661   4.457   0.900 -0.4294  0.7285 -1.9257
 5409SOL    HW227687   4.689   4.459   0.760 -1.2531  0.7439 -0.0365
 5410SOL     OW27688   3.977   0.982   9.517 -0.0329 -0.0614 -0.0440
 5410SOL    HW127689   4.049   0.947   9.569  0.3419  2.4117  1.1083
 5410SOL    HW227690   3.938   1.031   9.589  0.7492 -0.8228  0.8902
 5411SOL     OW27691   1.348   1.105   5.924 -0.1235  0.1919 -0.8076
 5411SOL    HW127692   1.414   1.046   5.958  0.5845 -0.0525 -2.6060
 5411SOL    HW227693   1.403   1.184   5.926  0.3700 -0.1844  0.5881
 5412SOL     OW27694   4.572   2.403   8.998  0.5577  0.2165  0.2186
 5412SOL    HW127695   4.576   2.475   8.935  0.4420  0.4457  0.4751
 5412SOL    HW227696   4.583   2.445   9.083  0.4430  1.0213 -0.1691
 5413SOL     OW27697   1.738   1.559   3.517 -0.4962 -0.3024  0.3211
 5413SOL    HW127698   1.673   1.556   3.588 -0.1894  1.4861  0.6917
 5413SOL    HW227699   1.806   1.505   3.556 -0.3724 -0.9058 -0.7462
 5414SOL     OW27700   2.352   3.128   9.512 -0.0422 -0.0198  0.2235
 5414SOL    HW127701   2.349   3.146   9.418  2.8323  1.0917  0.3267
 5414SOL    HW227702   2.266   3.087   9.522 -1.1917  1.5989 -2.8841
 5415SOL     OW27703   0.046   3.894   3.557  0.3724 -0.6292 -0.4812
 5415SOL    HW127704   0.080   3.969   3.606  0.9671 -0.9306 -0.4414
 5415SOL    HW227705   0.122   3.843   3.528  0.4686 -0.3545 -0.7175
 5416SOL     OW27706   2.916   2.570  10.135 -0.2629  0.3839 -0.0598
 5416SOL    HW127707   2.888   2.500  10.076 -0.2638 -0.1903  0.6321
 5416SOL    HW227708   2.942   2.636  10.070 -1.3451  0.4214 -0.4459
 5417SOL     OW27709   1.108   0.728  12.236 -0.1871  0.4073  0.5260
 5417SOL    HW127710   1.078   0.784  12.307 -0.7116  1.0589 -0.2109
 5417SOL    HW227711   1.133   0.650  12.286  3.2759 -0.0586 -1.9596
 5418SOL     OW27712   2.175   3.130   7.245  0.3305 -0.0261 -0.0070
 5418SOL    HW127713   2.198   3.038   7.255  2.6139  0.3304 -2.1454
 5418SOL    HW227714   2.212   3.179   7.319 -1.3273 -2.0480  2.1647
 5419SOL     OW27715   2.162   4.482  12.674 -0.2102  0.0310  0.3379
 5419SOL    HW127716   2.102   4.517  12.740  2.8583  3.7074  1.1670
 5419SOL    HW227717   2.110   4.429  12.613  2.5594 -0.2185 -1.8284
 5420SOL     OW27718   2.618   4.560   0.148  0.0069  0.0753 -0.2086
 5420SOL    HW127719   2.688   4.568   0.084  0.9887  0.3154  0.8779
 5420SOL    HW227720   2.541   4.526   0.103  0.4238 -0.6379 -0.3916
 5421SOL     OW27721   3.775   3.289  11.287 -0.4027 -0.1097  0.0256
 5421SOL    HW127722   3.860   3.272  11.247  0.3974  1.5433  1.0412
 5421SOL    HW227723   3.805   3.289  11.377 -0.3606  2.9625  0.0110
 5422SOL     OW27724   3.482   0.790   6.223  0.1740  0.2805 -0.1560
 5422SOL    HW127725   3.392   0.806   6.250  0.9845  1.4856  1.8787
 5422SOL    HW227726   3.529   0.855   6.275  1.4907 -0.1530 -0.7887
 5423SOL     OW27727   0.370   1.058   5.028 -0.0652  0.5070 -0.0599
 5423SOL    HW127728   0.428   0.989   4.997 -1.7204 -0.4333 -1.0475
 5423SOL    HW227729   0.428   1.134   5.016 -2.7755  2.6118  0.0078
 5424SOL     OW27730   0.713   4.366   7.685  0.2336 -0.1946  0.2698
 5424SOL    HW127731   0.678   4.450   7.656  1.0719 -1.1018 -3.3244
 5424SOL    HW227732   0.682   4.305   7.618  1.1695 -0.1151 -0.2369
 5425SOL     OW27733   2.651   0.977   6.467  0.3526 -0.1789  0.0131
 5425SOL    HW127734   2.668   1.009   6.556  1.7817 -1.1531  0.0961
 5425SOL    HW227735   2.735   1.009   6.434  0.9332 -0.4551  1.2245
 5426SOL     OW27736   4.508   0.148   7.862 -0.7284  0.1609 -0.0532
 5426SOL    HW127737   4.455   0.179   7.935 -0.6243 -0.9014  0.4713
 5426SOL    HW227738   4.597   0.161   7.894 -0.8928  0.3795  0.3181
 5427SOL     OW27739   3.619   1.945  12.066  0.5616  0.1083  0.1925
 5427SOL    HW127740   3.548   1.970  12.008 -0.0254  1.1425  1.3602
 5427SOL    HW227741   3.695   1.992  12.032  0.4891 -0.9807 -1.4395
 5428SOL     OW27742   2.501   2.589   0.172  0.0450  0.1086  0.6850
 5428SOL    HW127743   2.424   2.626   0.215  0.7909  1.5728  0.7641
 5428SOL    HW227744   2.463   2.560   0.088  0.2761 -3.9974  1.9881
 5429SOL     OW27745   3.116   4.687   7.090 -0.0421  0.5158 -0.1848
 5429SOL    HW127746   3.126   4.719   7.180 -0.8855  2.7567 -0.8687
 5429SOL    HW227747   3.069   4.604   7.093 -2.5898  1.9266 -0.1341
 5430SOL     OW27748   1.965   0.938   4.503  0.8366 -0.9404 -0.0398
 5430SOL    HW127749   1.947   0.928   4.597  0.5499 -2.4813 -0.2684
 5430SOL    HW227750   1.900   1.001   4.472  3.1792  0.7634 -1.4589
 5431SOL     OW27751   2.463   3.326   2.897  0.2225 -0.0227  0.2084
 5431SOL    HW127752   2.466   3.282   2.812 -1.5856  2.2547 -1.0011
 5431SOL    HW227753   2.554   3.355   2.899 -0.1596  1.1713 -0.0313
 5432SOL     OW27754   0.258   0.723   6.170 -0.4146 -0.4223  0.4004
 5432SOL    HW127755   0.249   0.780   6.246  1.4539 -0.1367  0.4045
 5432SOL    HW227756   0.324   0.667   6.212 -1.4531 -1.2659  0.8983
 5433SOL     OW27757   3.954   3.847   4.751 -0.2728  0.2386 -0.0367
 5433SOL    HW127758   4.033   3.897   4.727 -0.9635  1.6010  0.5152
 5433SOL    HW227759   3.902   3.873   4.675  0.0778 -0.6174 -0.5709
 5434SOL     OW27760   2.136   4.720  12.356  0.0891 -0.4439 -0.1781
 5434SOL    HW127761   2.146   4.722  12.261  1.9540 -3.1791 -0.0445
 5434SOL    HW227762   2.095   0.081  12.375 -0.6793 -1.2339  1.6450
 5435SOL     OW27763   4.470   3.614   4.861 -0.4806  0.0446 -0.1954
 5435SOL    HW127764   4.546   3.568   4.825 -0.1480  1.1212 -0.8551
 5435SOL    HW227765   4.410   3.617   4.788  0.3520 -1.4703 -0.9425
 5436SOL     OW27766   2.518   0.603  16.570  0.1726 -0.0607 -0.4905
 5436SOL    HW127767   2.515   0.650  16.487 -0.1772 -0.3951 -0.6699
 5436SOL    HW227768   2.601   0.555  16.565  0.7645  0.8303  0.9759
 5437SOL     OW27769   1.544   3.212  16.096 -0.3953  0.3157 -0.8855
 5437SOL    HW127770   1.510   3.293  16.134  1.4083  1.6492 -2.1268
 5437SOL    HW227771   1.536   3.234  16.004 -2.6222  2.0217 -0.3060
 5438SOL     OW27772   4.601   2.983  16.057 -0.0450 -0.1128  0.2638
 5438SOL    HW127773   4.692   2.993  16.085  0.0917  0.0124 -0.2266
 5438SOL    HW227774   4.544   2.994  16.133 -0.1272 -0.0809  0.1976
 5439SOL     OW27775   2.578   2.313   6.775 -0.0973  0.0732  0.2008
 5439SOL    HW127776   2.528   2.323   6.694  0.9768  3.4487 -0.0442
 5439SOL    HW227777   2.524   2.362   6.838  1.3869  0.5240  1.1356
 5440SOL     OW27778   0.344   3.990  14.440  0.8843  0.3638 -0.1007
 5440SOL    HW127779   0.335   4.040  14.521 -1.3573  1.2047 -0.8542
 5440SOL    HW227780   0.273   4.018  14.382  0.6968 -2.3792 -1.1794
 5441SOL     OW27781   0.479   2.131   6.691  0.0939 -0.1277  0.6318
 5441SOL    HW127782   0.479   2.224   6.668 -0.7911 -0.1798  0.4144
 5441SOL    HW227783   0.414   2.108   6.624 -0.5358 -1.3341  1.6582
 5442SOL     OW27784   4.711   1.153   7.075 -0.0469  0.7564 -0.3413
 5442SOL    HW127785   4.686   1.130   6.985 -3.0736  1.0976  0.4012
 5442SOL    HW227786   0.072   1.108   7.068  0.0384  1.2275 -2.5780
 5443SOL     OW27787   3.673   0.518   5.310 -0.5384  0.0794 -0.4176
 5443SOL    HW127788   3.733   0.449   5.340  0.2145  0.1178 -1.8257
 5443SOL    HW227789   3.735   0.564   5.254  0.2170 -0.9640 -0.4507
 5444SOL     OW27790   0.838   2.411  13.872  0.2001  0.2405 -0.6349
 5444SOL    HW127791   0.822   2.395  13.965 -0.0680 -0.2474 -0.7624
 5444SOL    HW227792   0.849   2.505  13.864 -0.1589  0.5195  2.0752
 5445SOL     OW27793   2.855   3.249   8.826 -0.4073  0.1185  0.2785
 5445SOL    HW127794   2.780   3.295   8.865 -0.6309 -1.5330  1.7875
 5445SOL    HW227795   2.812   3.179   8.776 -3.9892  1.3786  1.5931
 5446SOL     OW27796   4.044   0.298   7.005  0.7343 -0.2186  0.4617
 5446SOL    HW127797   3.988   0.264   7.075 -1.2749 -0.0280 -1.0780
 5446SOL    HW227798   3.981   0.319   6.937  0.2858  0.4299  1.0877
 5447SOL     OW27799   2.484   1.545   9.380  0.3363 -0.8216  0.0388
 5447SOL    HW127800   2.425   1.481   9.341  0.2848  0.0747 -1.3334
 5447SOL    HW227801   2.442   1.543   9.467 -3.2758  0.2997 -1.6790
 5448SOL     OW27802   1.875   2.836  13.126  0.3728  0.2649  0.4093
 5448SOL    HW127803   1.911   2.752  13.098 -0.6331  0.4055 -1.3376
 5448SOL    HW227804   1.950   2.892  13.148  2.4367 -2.5460  0.5584
 5449SOL     OW27805   3.410   0.925   4.249  0.1028  0.2338 -0.2091
 5449SOL    HW127806   3.321   0.958   4.236 -0.8654 -1.7791  1.3175
 5449SOL    HW227807   3.414   0.911   4.154 -1.3659  0.0495 -0.2443
 5450SOL     OW27808   3.344   3.541   6.724  0.6160 -0.8790 -0.3289
 5450SOL    HW127809   3.355   3.633   6.701 -0.0574 -0.3423  1.4656
 5450SOL    HW227810   3.288   3.552   6.802  0.7566  0.4173 -0.4044
 5451SOL     OW27811   0.684   1.300   3.927  0.0696 -0.2541 -0.2204
 5451SOL    HW127812   0.728   1.308   3.842 -2.1892 -1.5127 -1.5069
 5451SOL    HW227813   0.645   1.387   3.934  0.3931 -0.1037 -0.3042
 5452SOL     OW27814   1.202   3.138   4.640 -0.4532  0.1656  0.5606
 5452SOL    HW127815   1.196   3.043   4.647 -2.0225  0.1051 -1.7246
 5452SOL    HW227816   1.243   3.172   4.720  1.1816 -0.3764 -0.0568
 5453SOL     OW27817   3.767   0.473   2.460 -0.0750 -0.2303  0.0176
 5453SOL    HW127818   3.682   0.438   2.486 -0.8030 -0.2045 -2.2927
 5453SOL    HW227819   3.799   0.518   2.538  0.2879  0.6798 -0.6605
 5454SOL     OW27820   4.209   1.457   5.218 -1.0179  0.1929 -0.1290
 5454SOL    HW127821   4.264   1.517   5.268 -1.0332 -0.4335  0.6387
 5454SOL    HW227822   4.229   1.485   5.129  2.9626 -3.2774 -0.2935
 5455SOL     OW27823   3.132   0.940   3.972 -0.0151 -0.5588  0.0758
 5455SOL    HW127824   3.112   1.034   3.969 -0.8809 -0.7416  0.1721
 5455SOL    HW227825   3.105   0.937   4.064  0.9707 -3.9711  0.2481
 5456SOL     OW27826   1.594   2.444   5.616  0.0887 -0.1827 -0.3057
 5456SOL    HW127827   1.669   2.397   5.651 -0.3049 -0.4451  0.1782
 5456SOL    HW227828   1.653   2.519   5.600 -0.7607  0.6184  0.2972
 5457SOL     OW27829   0.406   1.162  16.223  0.7788 -0.1105 -0.0462
 5457SOL    HW127830   0.407   1.211  16.141  0.6564 -4.1856 -2.4721
 5457SOL    HW227831   0.396   1.070  16.198  1.4492 -0.0804 -0.4226
 5458SOL     OW27832   3.196   0.954  13.437  0.0664 -0.0502 -0.3242
 5458SOL    HW127833   3.215   0.894  13.365  2.6454 -1.5057  1.5776
 5458SOL    HW227834   3.190   1.039  13.392 -0.4519 -0.4890 -1.0800
 5459SOL     OW27835   2.850   2.554   9.057  0.4637  0.4089  0.8235
 5459SOL    HW127836   2.867   2.528   9.148 -0.2687 -0.3280  0.7485
 5459SOL    HW227837   2.932   2.516   9.027  0.5088 -0.0761  1.5652
 5460SOL     OW27838   3.713   2.219   3.179  0.7719  0.3416 -0.4380
 5460SOL    HW127839   3.667   2.183   3.254  1.6973  0.8413  0.3791
 5460SOL    HW227840   3.722   2.312   3.204  0.0268  0.8197 -1.9472
 5461SOL     OW27841   3.893   1.500   5.068 -0.0068  0.1723 -0.2307
 5461SOL    HW127842   3.971   1.449   5.089 -0.8840 -0.6246  1.0511
 5461SOL    HW227843   3.857   1.450   4.995 -2.8144  0.1277  1.2081
 5462SOL     OW27844   2.044   3.727   4.389  0.1981  0.2462 -0.4159
 5462SOL    HW127845   1.964   3.768   4.421 -0.4721 -1.1316 -0.3512
 5462SOL    HW227846   2.052   3.657   4.453 -0.2949 -1.9602 -2.7999
 5463SOL     OW27847   0.565   3.129   6.866  0.3688  0.0001  0.3083
 5463SOL    HW127848   0.553   3.065   6.797 -1.2769 -1.3406  1.8173
 5463SOL    HW227849   0.478   3.167   6.880  0.5498  0.1952  0.9323
 5464SOL     OW27850   1.246   1.061  10.302 -0.0118  0.0754 -0.0050
 5464SOL    HW127851   1.169   1.073  10.358 -1.3635  0.2779 -1.9311
 5464SOL    HW227852   1.315   1.106  10.352  2.1221 -0.3621 -2.5644
 5465SOL     OW27853   2.351   2.526   4.237  0.8250 -0.7264 -0.2141
 5465SOL    HW127854   2.355   2.457   4.170  1.1471 -0.1262 -0.8087
 5465SOL    HW227855   2.322   2.606   4.194  1.0754  0.1655  1.2628
 5466SOL     OW27856   1.039   4.247   3.279 -0.1146 -0.9847  0.1777
 5466SOL    HW127857   1.006   4.287   3.359  0.4496  0.9397 -0.5395
 5466SOL    HW227858   1.039   4.320   3.216 -0.6493  1.0280  2.5117
 5467SOL     OW27859   3.617   0.715   5.499 -0.3998 -0.1813  0.1521
 5467SOL    HW127860   3.661   0.709   5.584 -0.9237  0.9778  0.4992
 5467SOL    HW227861   3.638   0.634   5.454  1.9609  1.7731 -2.2521
 5468SOL     OW27862   1.050   0.773   5.467 -0.0333 -0.2835 -0.8630
 5468SOL    HW127863   1.019   0.851   5.515 -1.2274 -1.1648 -0.2011
 5468SOL    HW227864   1.037   0.713   5.541  1.5260  1.9471  1.2278
 5469SOL     OW27865   3.171   0.397   7.994 -0.2419  0.0375 -0.0602
 5469SOL    HW127866   3.080   0.380   8.017 -0.5224  1.4982 -0.0859
 5469SOL    HW227867   3.152   0.425   7.905  0.1900  0.1829 -0.1090
 5470SOL     OW27868   0.360   0.038   6.586  0.1479 -0.1018 -0.1930
 5470SOL    HW127869   0.353   0.011   6.678  3.0862  1.2666  0.4497
 5470SOL    HW227870   0.455   0.025   6.577  0.3933  1.7159 -0.2470
 5471SOL     OW27871   0.582   3.609   0.075 -0.0135  0.3271  0.0568
 5471SOL    HW127872   0.497   3.649   0.091  0.6800  1.4978  0.8111
 5471SOL    HW227873   0.640   3.684   0.089  1.0566 -0.5755  0.5256
 5472SOL     OW27874   0.149   2.762  11.120 -0.1488 -0.1501  0.1769
 5472SOL    HW127875   0.156   2.762  11.216  0.6039  1.3630  0.1127
 5472SOL    HW227876   0.075   2.822  11.126  1.2631  1.8046 -1.9549
 5473SOL     OW27877   1.462   4.498  14.580 -0.1691 -0.7056 -0.5369
 5473SOL    HW127878   1.453   4.460  14.492  4.0426 -3.2367  0.1245
 5473SOL    HW227879   1.553   4.479  14.601  0.6462  0.3796 -3.1281
 5474SOL     OW27880   2.378   3.683   5.209  0.5229 -0.0049 -0.0960
 5474SOL    HW127881   2.342   3.636   5.133 -0.8797 -0.0019  0.5667
 5474SOL    HW227882   2.323   3.762   5.213  0.2866 -0.2036  0.5321
 5475SOL     OW27883   1.800   3.199  13.861  0.1586 -0.4082  0.0334
 5475SOL    HW127884   1.820   3.180  13.770 -0.1660  2.4231 -0.6163
 5475SOL    HW227885   1.868   3.151  13.909  0.6172  0.8740  0.6747
 5476SOL     OW27886   4.439   3.214   5.189 -0.2257 -0.1298 -0.0293
 5476SOL    HW127887   4.487   3.143   5.145 -1.2472 -1.1810  0.5319
 5476SOL    HW227888   4.357   3.169   5.208 -0.5506  0.6093  0.3023
 5477SOL     OW27889   1.806   0.720  12.159  0.4239  0.6534 -0.5434
 5477SOL    HW127890   1.867   0.733  12.087  2.7725  0.4571  1.3948
 5477SOL    HW227891   1.738   0.782  12.134  0.3105  1.5607  1.9371
 5478SOL     OW27892   1.039   4.022  10.331  0.2346  0.0521  0.1858
 5478SOL    HW127893   0.954   4.056  10.355  0.6076 -0.2481  1.9101
 5478SOL    HW227894   1.028   3.927  10.342 -0.2834  0.0779 -0.1546
 5479SOL     OW27895   2.945   4.002   5.434 -0.1288 -0.2386 -0.8536
 5479SOL    HW127896   2.958   3.919   5.480  2.0392  0.3899 -0.2992
 5479SOL    HW227897   2.873   3.977   5.378 -0.1820 -1.5975 -0.1630
 5480SOL     OW27898   1.040   1.842  15.751  0.2427  0.3495  0.0191
 5480SOL    HW127899   1.108   1.903  15.778  1.5580 -0.4788 -1.4195
 5480SOL    HW227900   1.019   1.885  15.669 -0.6609 -1.3036 -0.6053
 5481SOL     OW27901   1.298   1.308   2.321 -0.1172 -0.3049 -0.2905
 5481SOL    HW127902   1.257   1.263   2.247 -0.5350  1.3432 -1.0422
 5481SOL    HW227903   1.332   1.236   2.375  1.4782  0.5651 -0.1148
 5482SOL     OW27904   1.908   2.955   4.897 -0.6038  0.2973  0.0103
 5482SOL    HW127905   1.887   3.034   4.947  2.7539  2.7677 -2.4922
 5482SOL    HW227906   1.905   2.878   4.953  0.9171  1.1252  1.2436
 5483SOL     OW27907   3.392   0.186   4.094 -0.3399  0.0254 -0.0139
 5483SOL    HW127908   3.404   0.135   4.014  1.9872 -0.3947  0.5981
 5483SOL    HW227909   3.468   0.244   4.083  2.3076 -3.6395 -1.1079
 5484SOL     OW27910   2.956   2.653  11.866 -0.5065  0.0477  0.3465
 5484SOL    HW127911   2.994   2.635  11.952 -0.2433  1.5447  0.5564
 5484SOL    HW227912   3.037   2.636  11.817 -0.8146  0.7260 -0.3900
 5485SOL     OW27913   1.883   1.933   5.242  0.2336 -0.7417 -1.0472
 5485SOL    HW127914   1.796   1.915   5.205 -0.3011  0.1965 -0.2444
 5485SOL    HW227915   1.866   1.982   5.322 -0.7987 -1.4245 -0.8425
 5486SOL     OW27916   3.647   3.546  14.118 -0.0614 -0.6178 -0.0557
 5486SOL    HW127917   3.592   3.605  14.169  0.6086 -1.0204  1.1200
 5486SOL    HW227918   3.645   3.588  14.032  2.3364  2.0050  1.1694
 5487SOL     OW27919   0.422   1.448   9.315  0.1740  0.2425  0.1952
 5487SOL    HW127920   0.355   1.491   9.369  0.3498 -1.5747  1.8495
 5487SOL    HW227921   0.380   1.450   9.229  1.7067  3.4755 -0.4729
 5488SOL     OW27922   0.048   0.096   0.503  0.0019  0.0109  0.1657
 5488SOL    HW127923   0.102   0.144   0.566 -0.1121  1.5587 -0.9086
 5488SOL    HW227924   0.074   0.119   0.414 -0.0697  0.2860  0.2147
 5489SOL     OW27925   0.833   0.659   1.677 -0.4634 -0.1866  0.1730
 5489SOL    HW127926   0.779   0.616   1.610  0.9101  1.1305 -1.7634
 5489SOL    HW227927   0.914   0.680   1.631  0.1900 -1.3947  0.7644
 5490SOL     OW27928   0.314   3.255  15.215  0.0574 -0.2898 -0.4488
 5490SOL    HW127929   0.358   3.191  15.160  1.3933  0.1729  0.1008
 5490SOL    HW227930   0.337   3.339  15.174 -0.1529 -0.6683 -1.3430
 5491SOL     OW27931   3.553   1.014   5.440 -0.4082  0.0730 -0.3924
 5491SOL    HW127932   3.479   0.994   5.497 -0.1646  1.6265  0.4740
 5491SOL    HW227933   3.591   0.930   5.416 -2.2126 -0.9601  0.4131
 5492SOL     OW27934   4.126   2.959   6.163  0.6816 -0.1079 -0.8093
 5492SOL    HW127935   4.051   2.927   6.113  0.0329  0.9149 -0.4901
 5492SOL    HW227936   4.191   2.944   6.094  0.1536 -2.1824 -0.8567
 5493SOL     OW27937   3.331   1.992  16.064 -0.1804 -0.2035 -0.4970
 5493SOL    HW127938   3.280   2.026  15.990 -1.7285 -2.5002 -0.4659
 5493SOL    HW227939   3.312   1.898  16.062 -0.3560 -0.1941  1.4102
 5494SOL     OW27940   0.537   3.541   2.562 -0.6074  0.2863  0.9620
 5494SOL    HW127941   0.528   3.628   2.522  0.8126  0.1273  0.3006
 5494SOL    HW227942   0.476   3.550   2.635 -0.2107  1.0640  1.2049
 5495SOL     OW27943   3.646   2.413   8.667  0.1973  0.7630 -0.3798
 5495SOL    HW127944   3.678   2.476   8.602  0.5484  0.3944 -0.5702
 5495SOL    HW227945   3.681   2.337   8.618  0.9041 -0.3931  1.9074
 5496SOL     OW27946   0.605   3.291   3.989 -0.0837 -0.1367 -0.0682
 5496SOL    HW127947   0.671   3.302   4.057  1.0094  0.8868 -1.2859
 5496SOL    HW227948   0.646   3.331   3.912  0.1442  1.3363  0.8299
 5497SOL     OW27949   4.546   0.799   4.960 -0.7325  0.3352  0.1791
 5497SOL    HW127950   4.523   0.876   5.013  0.5371  1.2269 -0.5690
 5497SOL    HW227951   4.640   0.816   4.956 -0.4169 -1.4754  0.2716
 5498SOL     OW27952   2.549   0.551   7.274  0.3278  0.3193  0.0351
 5498SOL    HW127953   2.486   0.489   7.238  3.3537 -1.1679 -2.7832
 5498SOL    HW227954   2.628   0.498   7.286 -0.0743  0.0069  1.2591
 5499SOL     OW27955   2.747   4.335   6.104  0.4512 -0.4826  0.2256
 5499SOL    HW127956   2.737   4.261   6.164 -1.1158 -1.1457 -0.8357
 5499SOL    HW227957   2.707   4.409   6.149 -0.2214 -0.4981 -0.3509
 5500SOL     OW27958   0.379   2.176  11.348 -0.3320  0.0760  0.2964
 5500SOL    HW127959   0.383   2.140  11.437  1.0386 -0.0789  0.1776
 5500SOL    HW227960   0.296   2.137  11.320  0.9016 -1.1797 -1.6143
 5501SOL     OW27961   4.174   0.278   5.401  0.2657  0.0382 -0.7007
 5501SOL    HW127962   4.096   0.296   5.348 -0.4419 -1.7786 -0.3087
 5501SOL    HW227963   4.192   0.358   5.449 -0.4977  1.3667 -2.6397
 5502SOL     OW27964   2.135   1.845   5.292 -0.2852  0.5306 -0.4315
 5502SOL    HW127965   2.098   1.806   5.372  1.4204  2.2030  1.1803
 5502SOL    HW227966   2.066   1.895   5.248 -0.6556  1.9889  1.8160
 5503SOL     OW27967   0.716   1.072   4.269 -0.0311  0.1862  0.0413
 5503SOL    HW127968   0.795   1.095   4.317  0.4902 -0.5721 -0.4577
 5503SOL    HW227969   0.663   1.057   4.348 -1.0929  0.0811 -0.6982
 5504SOL     OW27970   0.151   0.209   7.076 -0.4801 -0.6825 -0.0801
 5504SOL    HW127971   0.106   0.279   7.122 -0.6882  0.6238 -2.2454
 5504SOL    HW227972   0.128   0.233   6.986  2.5265  4.5206  0.5510
 5505SOL     OW27973   2.826   2.475   2.924 -0.4229  0.2236  0.3088
 5505SOL    HW127974   2.885   2.550   2.932  1.5557 -1.1348 -1.1951
 5505SOL    HW227975   2.759   2.516   2.978  0.0398 -0.6355  1.5560
 5506SOL     OW27976   1.419   0.502   3.878 -0.0208  0.8613 -0.3539
 5506SOL    HW127977   1.409   0.473   3.969  1.4308  1.8872  0.1175
 5506SOL    HW227978   1.354   0.453   3.826  0.5933 -0.2521 -0.0763
 5507SOL     OW27979   2.954   4.604   0.633 -0.4067  0.2340 -0.0709
 5507SOL    HW127980   2.913   4.582   0.717  0.3507  2.8136  0.9652
 5507SOL    HW227981   2.884   4.587   0.570  0.2798  1.5998 -1.2071
 5508SOL     OW27982   0.349   3.103   6.286 -0.3125 -0.1665 -0.6025
 5508SOL    HW127983   0.429   3.062   6.254  0.3154  0.2385  0.4721
 5508SOL    HW227984   0.342   3.176   6.224  0.4791 -0.2813 -0.8191
 5509SOL     OW27985   2.864   4.263  16.388 -0.1188 -0.0496 -0.3530
 5509SOL    HW127986   2.909   4.317  16.452 -0.7168  2.5616 -2.1674
 5509SOL    HW227987   2.810   4.216  16.452 -2.5981  1.6043 -1.2314
 5510SOL     OW27988   1.543   2.901  12.330  0.3163  0.4754 -0.0561
 5510SOL    HW127989   1.458   2.864  12.352  0.9517 -1.5302 -0.9809
 5510SOL    HW227990   1.509   2.986  12.357 -3.9318 -0.6578 -1.7245
 5511SOL     OW27991   0.488   0.188  16.688 -0.8428 -0.0974 -0.0199
 5511SOL    HW127992   0.433   0.254  16.646  0.6503  1.6187  0.6952
 5511SOL    HW227993   0.454   0.195  16.777  2.4537 -1.5385  1.3678
 5512SOL     OW27994   1.503   0.345   7.659  0.4699 -0.6349 -0.0342
 5512SOL    HW127995   1.505   0.404   7.735  2.0492 -0.1017 -0.4923
 5512SOL    HW227996   1.554   0.390   7.592  2.3770 -0.5974  1.4338
 5513SOL     OW27997   0.471   1.622   7.868  0.3268 -0.6879  0.1653
 5513SOL    HW127998   0.470   1.548   7.808  0.4872 -1.4097  1.0396
 5513SOL    HW227999   0.430   1.580   7.944  2.4724 -1.9742  0.6239
 5514SOL     OW28000   4.600   1.739   8.050  0.0628  0.3952  0.2111
 5514SOL    HW128001   4.688   1.773   8.035  0.9261 -1.7498  0.4416
 5514SOL    HW228002   4.575   1.800   8.120 -2.5503  0.2892 -0.6183
 5515SOL     OW28003   0.835   0.201   8.481 -0.5837  0.8803 -0.0099
 5515SOL    HW128004   0.825   0.153   8.399  2.0320 -0.7805  0.6615
 5515SOL    HW228005   0.802   0.136   8.542 -0.8716  1.3422  0.3281
 5516SOL     OW28006   2.993   0.173  12.668  0.4908 -0.9207  0.0038
 5516SOL    HW128007   2.960   0.096  12.622 -0.9738  1.2003 -2.4703
 5516SOL    HW228008   3.053   0.139  12.734  1.4977  0.8958  0.0241
 5517SOL     OW28009   4.690   0.980  11.170  0.2524  0.3191  0.7793
 5517SOL    HW128010   4.655   1.069  11.169 -2.1531 -0.6007  1.6766
 5517SOL    HW228011   4.720   0.973  11.080 -2.1673 -2.4667  0.1734
 5518SOL     OW28012   4.250   4.327   1.565  0.4384  0.4628  0.2895
 5518SOL    HW128013   4.340   4.346   1.590  0.2597  0.5121  0.8853
 5518SOL    HW228014   4.243   4.394   1.497 -1.2170 -0.4563 -0.4737
 5519SOL     OW28015   3.850   0.974   8.874 -0.0262  0.0842 -0.2679
 5519SOL    HW128016   3.829   0.978   8.968  2.4600 -0.9720  0.3283
 5519SOL    HW228017   3.892   1.059   8.868 -0.1597  0.1012 -0.9181
 5520SOL     OW28018   0.782   1.990  17.517  0.2797 -0.2215 -0.3320
 5520SOL    HW128019   0.714   2.040  17.472 -0.5516  0.1523  1.3387
 5520SOL    HW228020   0.857   2.026  17.470 -0.3230 -0.0208 -1.1277
 5521SOL     OW28021   0.580   2.535   3.071 -0.2214 -0.3581 -0.2241
 5521SOL    HW128022   0.502   2.533   3.126  0.4133  1.7261  0.7369
 5521SOL    HW228023   0.647   2.539   3.138 -1.6217  0.2492  1.1457
 5522SOL     OW28024   3.942   0.107   4.774  0.7334  0.0066  0.5309
 5522SOL    HW128025   3.916   0.044   4.841 -1.9689 -0.3558 -0.8402
 5522SOL    HW228026   4.037   0.103   4.777  0.6939  1.9584  3.7499
 5523SOL     OW28027   0.094   4.254  11.472 -0.3595  0.0233 -0.1047
 5523SOL    HW128028   0.087   4.248  11.567 -1.2428  2.0931 -0.0367
 5523SOL    HW228029   0.164   4.318  11.464  1.7274 -2.2387  0.1020
 5524SOL     OW28030   2.008   3.006   0.591 -0.0482  0.0799 -0.8454
 5524SOL    HW128031   2.054   2.936   0.638  1.0634  1.3566 -0.0240
 5524SOL    HW228032   2.050   3.085   0.624 -0.1757 -0.5675  0.9072
 5525SOL     OW28033   1.184   4.311   1.866 -0.4265  0.2414  0.1116
 5525SOL    HW128034   1.138   4.393   1.850 -2.6051 -0.7167  1.4518
 5525SOL    HW228035   1.151   4.288   1.953  0.1622  1.1909  0.5856
 5526SOL     OW28036   4.454   2.098  13.017  0.2311  0.3873 -0.6493
 5526SOL    HW128037   4.425   2.007  13.006  1.8250 -0.3425  1.1326
 5526SOL    HW228038   4.412   2.115  13.101  0.1964 -0.4268 -0.5013
 5527SOL     OW28039   1.013   2.468  16.608  0.1402 -0.0024 -0.0702
 5527SOL    HW128040   0.961   2.512  16.676 -3.1673 -1.6156 -1.5276
 5527SOL    HW228041   1.093   2.517  16.623 -0.1143  0.3602  0.1041
 5528SOL     OW28042   3.313   1.432   8.286 -0.0469  0.2321  0.0442
 5528SOL    HW128043   3.226   1.427   8.325  0.2900  0.1921  0.7844
 5528SOL    HW228044   3.304   1.351   8.235 -3.0025 -1.3992  3.1227
 5529SOL     OW28045   2.067   0.410   5.062  0.0522 -0.6888 -0.5424
 5529SOL    HW128046   2.140   0.423   5.002 -0.6505 -0.7082 -1.4126
 5529SOL    HW228047   2.000   0.464   5.018  0.2926  0.4813  0.5075
 5530SOL     OW28048   2.332   2.980  10.609  0.0370  0.5533 -0.4427
 5530SOL    HW128049   2.298   3.065  10.636 -0.1351  1.1546 -2.5307
 5530SOL    HW228050   2.416   2.975  10.656  0.2222  1.2203 -0.6976
 5531SOL     OW28051   3.241   1.538   6.159 -0.1296 -0.0734  0.2814
 5531SOL    HW128052   3.197   1.618   6.187  0.3774  0.0967  0.5789
 5531SOL    HW228053   3.230   1.490   6.241  0.5764  1.7288  1.4009
 5532SOL     OW28054   3.349   4.708   5.050  0.0486 -0.2344 -0.0385
 5532SOL    HW128055   3.333   4.637   5.112  0.0924 -0.5983 -0.4437
 5532SOL    HW228056   3.308   0.056   5.100 -2.6408 -2.0268  0.2877
 5533SOL     OW28057   4.346   3.553  16.587 -1.0468 -0.6337 -0.0102
 5533SOL    HW128058   4.338   3.463  16.617 -1.4618  0.0277  1.8453
 5533SOL    HW228059   4.346   3.604  16.668  0.8122 -1.6252  0.6166
 5534SOL     OW28060   2.517   3.809   7.631  0.4101 -0.8499 -0.6062
 5534SOL    HW128061   2.446   3.774   7.685  1.9532  1.0660  2.6376
 5534SOL    HW228062   2.599   3.823   7.679 -0.1812 -0.9031  0.4274
 5535SOL     OW28063   2.548   0.162  14.267 -0.1909 -0.3499  0.0907
 5535SOL    HW128064   2.534   0.094  14.333 -1.4356 -1.1059 -0.9415
 5535SOL    HW228065   2.618   0.205  14.317 -1.6396  0.1163  1.7057
 5536SOL     OW28066   0.491   0.039   4.524 -0.0443 -0.1428 -0.1381
 5536SOL    HW128067   0.418   4.708   4.555  0.1715 -1.1986 -1.4717
 5536SOL    HW228068   0.459   0.072   4.440 -0.0510 -0.9234 -0.4448
 5537SOL     OW28069   1.482   3.285   8.805  0.2945  0.5456 -0.7891
 5537SOL    HW128070   1.422   3.359   8.802 -0.0487  0.1982 -2.5494
 5537SOL    HW228071   1.559   3.336   8.832  0.8441  0.1491 -1.5895
 5538SOL     OW28072   4.369   2.338   0.067 -0.0194  0.0646 -0.7098
 5538SOL    HW128073   4.304   2.407   0.056  0.7941  1.4523  3.2208
 5538SOL    HW228074   4.334   2.268   0.011  2.1584 -0.8209 -0.9627
 5539SOL     OW28075   3.165   3.319   8.082 -0.0745 -0.4220  0.0046
 5539SOL    HW128076   3.226   3.377   8.036 -0.3568 -0.3676 -0.2989
 5539SOL    HW228077   3.194   3.234   8.049 -0.8710 -0.3364 -0.8932
 5540SOL     OW28078   2.640   1.703  16.149  0.0778 -0.2730  0.2754
 5540SOL    HW128079   2.724   1.746  16.161  0.9583 -1.7474 -0.6128
 5540SOL    HW228080   2.641   1.674  16.058 -0.7313 -1.7680  0.7366
 5541SOL     OW28081   4.497   3.197  10.692 -0.8135 -0.4774  0.2375
 5541SOL    HW128082   4.508   3.114  10.738  1.9747  1.0246  2.3063
 5541SOL    HW228083   4.417   3.232  10.731 -0.3528  1.8398 -0.9148
 5542SOL     OW28084   0.181   3.572   9.864 -0.3139  0.0922 -0.5755
 5542SOL    HW128085   0.266   3.537   9.890 -0.7617 -1.4471 -1.1802
 5542SOL    HW228086   0.159   3.585   9.956 -0.7914 -1.4795 -0.4619
 5543SOL     OW28087   0.514   3.030   4.529  0.4652 -0.2065 -0.3815
 5543SOL    HW128088   0.437   3.035   4.585  0.3951  1.2048 -0.6130
 5543SOL    HW228089   0.469   3.055   4.448  0.5244 -0.6433 -0.5487
 5544SOL     OW28090   3.508   1.623   2.677  0.0419  0.2584  0.2229
 5544SOL    HW128091   3.578   1.558   2.688  2.4451  2.6029 -1.0820
 5544SOL    HW228092   3.429   1.574   2.655  0.1445 -0.1653  0.7991
 5545SOL     OW28093   3.645   2.994   3.447 -0.2352 -0.5161 -0.4064
 5545SOL    HW128094   3.630   2.903   3.423 -0.2035 -0.1849 -1.7099
 5545SOL    HW228095   3.555   3.024   3.434 -0.5541 -0.0863  2.8439
 5546SOL     OW28096   1.659   3.943   7.321 -0.0029 -0.5896  0.4787
 5546SOL    HW128097   1.610   4.013   7.279 -2.4397 -2.4108  0.3331
 5546SOL    HW228098   1.723   3.996   7.370  0.6745 -2.1505  1.2783
 5547SOL     OW28099   2.845   1.244   5.157 -0.4671 -0.1113  0.4462
 5547SOL    HW128100   2.899   1.206   5.088  2.6577  0.0239  2.7928
 5547SOL    HW228101   2.840   1.338   5.140  1.0347  0.0423  0.8730
 5548SOL     OW28102   3.011   1.651  10.034 -0.7393  0.1690 -0.4483
 5548SOL    HW128103   3.074   1.676   9.966  0.1963 -0.1295  0.3125
 5548SOL    HW228104   2.946   1.616   9.974 -0.5897 -0.7394 -0.0900
 5549SOL     OW28105   2.473   4.131   7.697 -0.1106 -0.0009 -0.3365
 5549SOL    HW128106   2.549   4.073   7.690  1.1962  1.4330  1.6389
 5549SOL    HW228107   2.510   4.202   7.749  1.6206  0.6730 -2.4779
 5550SOL     OW28108   0.139   3.848   0.837 -0.1273  0.4830  0.4488
 5550SOL    HW128109   0.107   3.935   0.862 -1.6188 -0.5828  2.1945
 5550SOL    HW228110   0.172   3.868   0.749  0.7752  0.3219  0.7604
 5551SOL     OW28111   2.611   2.333  14.192 -0.5687 -0.0473 -0.3363
 5551SOL    HW128112   2.545   2.265  14.211 -0.0257 -0.2286  0.9208
 5551SOL    HW228113   2.686   2.284  14.159  0.1349 -0.0085  1.1784
 5552SOL     OW28114   2.634   0.553   3.636  0.1910  0.3797  0.3381
 5552SOL    HW128115   2.678   0.636   3.616  0.1619 -0.1985 -2.1106
 5552SOL    HW228116   2.547   0.568   3.599 -0.6334 -2.2136  1.2980
 5553SOL     OW28117   4.581   1.517   4.128 -0.7402 -0.2550  0.0649
 5553SOL    HW128118   4.497   1.529   4.172 -0.5297  2.8643 -0.3701
 5553SOL    HW228119   4.569   1.438   4.074 -2.0383 -0.8036  1.1783
 5554SOL     OW28120   1.320   3.059  12.078 -0.0626  0.3803 -0.3885
 5554SOL    HW128121   1.325   3.149  12.047  1.8120  0.4517  0.1416
 5554SOL    HW228122   1.351   3.015  11.999  0.5543 -0.7739  0.4909
 5555SOL     OW28123   4.310   1.701   5.372  0.2677  0.1284 -0.2570
 5555SOL    HW128124   4.350   1.665   5.451 -2.2485  1.6098  1.6957
 5555SOL    HW228125   4.353   1.787   5.378  0.9873 -0.2533 -0.0589
 5556SOL     OW28126   0.088   3.378  16.379 -0.1332  0.3088  0.1033
 5556SOL    HW128127   0.117   3.289  16.359  0.3244  0.2350  1.0807
 5556SOL    HW228128   4.722   3.383  16.343 -0.9175 -2.5890  1.7006
 5557SOL     OW28129   1.598   3.166  13.012 -0.0792  0.9712  0.0276
 5557SOL    HW128130   1.605   3.098  13.079  0.7206  0.8040 -0.2271
 5557SOL    HW228131   1.687   3.202  13.009 -0.5333  1.9114 -1.9660
 5558SOL     OW28132   0.315   0.737   2.268  0.2597  0.1187 -0.2136
 5558SOL    HW128133   0.302   0.808   2.206  1.7403  1.3678  0.9067
 5558SOL    HW228134   0.237   0.684   2.250  0.4522 -0.6129  1.0964
 5559SOL     OW28135   4.539   3.247  10.437 -0.0974  0.0909  0.7426
 5559SOL    HW128136   4.465   3.211  10.389 -2.0490  4.5683  0.4555
 5559SOL    HW228137   4.533   3.213  10.527  0.2431  0.5661  0.9443
 5560SOL     OW28138   2.516   1.606   6.321  0.1035  0.4641  0.1493
 5560SOL    HW128139   2.469   1.672   6.371 -0.5280  0.6552 -0.7015
 5560SOL    HW228140   2.517   1.533   6.384  0.9110 -0.6148 -1.1115
 5561SOL     OW28141   1.584   4.192   7.243 -0.3268  0.3702 -0.0966
 5561SOL    HW128142   1.604   4.249   7.169  3.8642  0.1937  0.9095
 5561SOL    HW228143   1.550   4.260   7.301  1.9443  0.8151  0.6989
 5562SOL     OW28144   2.158   2.160   3.213  0.0643  0.3493  0.0563
 5562SOL    HW128145   2.221   2.228   3.189  0.0536  0.4681  0.3569
 5562SOL    HW228146   2.211   2.121   3.283  0.3796 -1.6377 -1.2906
 5563SOL     OW28147   1.729   3.157   9.464 -0.7866  0.4673  0.4026
 5563SOL    HW128148   1.636   3.178   9.450 -1.1090 -0.0918  1.7301
 5563SOL    HW228149   1.722   3.062   9.466  0.7857  0.4374  3.2605
 5564SOL     OW28150   3.874   1.078   5.171  0.2722 -0.0817 -0.4890
 5564SOL    HW128151   3.903   1.054   5.259  0.5894 -0.9441 -0.8278
 5564SOL    HW228152   3.934   1.026   5.117 -0.0794 -2.6802  1.6479
 5565SOL     OW28153   4.078   1.576   2.608 -0.0187  0.0892  0.0900
 5565SOL    HW128154   4.070   1.645   2.542 -1.4281 -0.7480 -0.6156
 5565SOL    HW228155   4.006   1.602   2.666  0.3313 -1.0499  1.0267
 5566SOL     OW28156   4.064   4.205  15.825 -0.5086  0.1404 -0.5198
 5566SOL    HW128157   4.021   4.168  15.902 -0.1900 -1.6593 -1.2062
 5566SOL    HW228158   4.047   4.297  15.841 -1.0801 -0.0530 -0.0100
 5567SOL     OW28159   1.598   3.883   6.542  1.0172 -0.3183  0.2064
 5567SOL    HW128160   1.639   3.878   6.456  0.2213 -0.1359 -0.1882
 5567SOL    HW228161   1.675   3.862   6.596  1.6019 -0.4545 -0.6917
 5568SOL     OW28162   0.572   0.136  10.127  0.5789  0.3099  0.2327
 5568SOL    HW128163   0.510   0.063  10.139  0.7230  0.0714 -0.4948
 5568SOL    HW228164   0.594   0.117  10.036 -0.7720 -0.2296  0.0041
 5569SOL     OW28165   3.916   4.047   1.752 -0.5411  0.1094  0.3736
 5569SOL    HW128166   4.010   4.041   1.734 -0.8764 -3.1326 -0.3370
 5569SOL    HW228167   3.884   4.014   1.668  0.2309 -0.8095  0.4471
 5570SOL     OW28168   2.763   2.718   9.687  0.3586 -0.4600  0.2553
 5570SOL    HW128169   2.833   2.743   9.626  0.2852 -3.2383 -0.9952
 5570SOL    HW228170   2.710   2.798   9.689  0.8324 -0.0855 -2.2008
 5571SOL     OW28171   1.203   3.353  13.959 -0.1207 -0.2573 -0.3035
 5571SOL    HW128172   1.122   3.397  13.987  0.5910 -0.2225  1.7043
 5571SOL    HW228173   1.228   3.418  13.893 -0.8410 -1.1215 -1.4304
 5572SOL     OW28174   4.722   1.619   2.233 -0.3280  0.0229  0.0864
 5572SOL    HW128175   0.067   1.552   2.249 -1.2752 -0.8603  0.3696
 5572SOL    HW228176   4.650   1.563   2.204  0.6879 -0.1278 -2.0957
 5573SOL     OW28177   0.758   0.016  13.799 -0.0766 -0.5736  0.2340
 5573SOL    HW128178   0.761   4.657  13.748 -0.8544  0.5379 -1.6106
 5573SOL    HW228179   0.675   4.722  13.843 -0.4842  1.1770  0.0916
 5574SOL     OW28180   3.175   4.551   5.259  0.5083  0.0346  0.4764
 5574SOL    HW128181   3.193   4.504   5.177  0.1238 -0.4024  0.6482
 5574SOL    HW228182   3.086   4.580   5.240  0.8157  0.6499 -0.0301
 5575SOL     OW28183   3.447   3.891   2.716  0.2722 -0.2967  0.0453
 5575SOL    HW128184   3.478   3.965   2.768 -0.0662  1.0562 -1.6634
 5575SOL    HW228185   3.513   3.861   2.654  0.1207 -0.1765 -0.1747
 5576SOL     OW28186   0.934   4.601   2.711  0.0485  0.2108  0.2322
 5576SOL    HW128187   0.913   4.685   2.751  0.1775  0.9615 -1.2748
 5576SOL    HW228188   0.923   4.536   2.780 -0.4948 -0.1550 -0.1908
 5577SOL     OW28189   3.609   4.363   4.559 -0.4075 -0.1452 -0.4487
 5577SOL    HW128190   3.563   4.445   4.542  1.6187  1.3955  1.5358
 5577SOL    HW228191   3.694   4.405   4.570 -0.8070  0.4968  0.2394
 5578SOL     OW28192   0.222   3.708  13.060 -0.1697 -0.0512 -0.0430
 5578SOL    HW128193   0.265   3.777  13.111  1.8225 -1.6154  0.3594
 5578SOL    HW228194   0.243   3.627  13.107 -0.0172 -0.6941 -1.2213
 5579SOL     OW28195   0.984   1.004   4.398 -0.2706  0.1528  0.1638
 5579SOL    HW128196   1.051   0.946   4.361 -1.3837 -0.6127 -0.6676
 5579SOL    HW228197   1.032   1.086   4.387 -0.0955  0.0882  0.4744
 5580SOL     OW28198   2.314   0.454  11.142 -0.2432 -0.4752  0.9400
 5580SOL    HW128199   2.308   0.360  11.123  0.2037  0.2699 -2.9410
 5580SOL    HW228200   2.398   0.462  11.187  0.7514  0.3842 -1.0512
 5581SOL     OW28201   4.455   4.194   0.967 -0.4724 -0.1952 -0.1013
 5581SOL    HW128202   4.443   4.207   0.873  1.2055 -0.0861 -0.2914
 5581SOL    HW228203   4.478   4.283   0.991  0.0167 -0.4427  0.3523
 5582SOL     OW28204   2.258   1.526  15.782 -0.0705 -0.5626 -0.7872
 5582SOL    HW128205   2.180   1.514  15.836  1.3203  2.7830  1.9251
 5582SOL    HW228206   2.229   1.605  15.737  0.6452  0.2460  0.1595
 5583SOL     OW28207   2.474   3.926   6.310  0.5718 -0.2618 -0.3650
 5583SOL    HW128208   2.448   4.018   6.320 -0.4641 -0.3381 -2.2045
 5583SOL    HW228209   2.482   3.931   6.215  2.2076  0.4674 -0.1847
 5584SOL     OW28210   1.767   1.949  14.395  0.2665 -0.2701 -0.3016
 5584SOL    HW128211   1.810   1.931  14.479 -2.1083  0.9266  1.1748
 5584SOL    HW228212   1.769   2.043  14.411  0.8636 -0.3312  0.0007
 5585SOL     OW28213   1.216   2.220   3.532 -0.2288  0.3318 -0.2384
 5585SOL    HW128214   1.132   2.241   3.491 -0.4422  0.3857  0.2272
 5585SOL    HW228215   1.254   2.174   3.457  1.6515 -0.7613  1.3620
 5586SOL     OW28216   3.732   1.760   6.572  0.2185 -0.0491  0.6384
 5586SOL    HW128217   3.828   1.765   6.563  0.1677 -0.9171 -0.3883
 5586SOL    HW228218   3.708   1.668   6.584 -0.1781 -0.0826 -0.4381
 5587SOL     OW28219   2.139   2.694   5.601  0.3026  0.1485 -0.1727
 5587SOL    HW128220   2.195   2.746   5.544 -0.8609 -0.4416 -1.8482
 5587SOL    HW228221   2.061   2.749   5.605  0.1138 -0.1882  0.9279
 5588SOL     OW28222   3.709   0.131   7.360  0.3240  0.7014 -0.4606
 5588SOL    HW128223   3.772   0.191   7.321 -1.3592  2.1393 -0.9880
 5588SOL    HW228224   3.717   0.055   7.302  1.1758 -0.9114  1.7403
 5589SOL     OW28225   3.969   4.540  16.225 -0.1894 -0.3065  0.3359
 5589SOL    HW128226   3.876   4.521  16.216  0.3330 -2.6911 -0.0199
 5589SOL    HW228227   3.981   4.583  16.309 -1.3066 -1.7072  1.2113
 5590SOL     OW28228   0.626   1.274   0.587 -0.0491 -0.5111 -0.7562
 5590SOL    HW128229   0.590   1.272   0.498 -1.6524  1.2567 -0.1170
 5590SOL    HW228230   0.611   1.366   0.609 -0.7452 -1.1268  1.3135
 5591SOL     OW28231   3.670   3.443   7.891 -0.1011 -0.1710 -0.3261
 5591SOL    HW128232   3.761   3.416   7.906 -0.3185 -1.0625 -0.6386
 5591SOL    HW228233   3.675   3.443   7.795 -0.7076 -0.4505 -0.3585
 5592SOL     OW28234   0.361   1.269   4.480 -0.7908 -1.0564  0.9767
 5592SOL    HW128235   0.345   1.290   4.389 -0.3015  0.4239  1.2367
 5592SOL    HW228236   0.275   1.288   4.517  0.4205  0.9268  2.8161
 5593SOL     OW28237   4.113   0.559   6.828 -0.0658 -0.4098 -0.4591
 5593SOL    HW128238   4.170   0.482   6.823  1.2696  0.4970  1.3057
 5593SOL    HW228239   4.122   0.599   6.741  2.8019 -1.0094 -0.4415
 5594SOL     OW28240   2.605   3.782   5.952  0.0632  0.0523 -0.0821
 5594SOL    HW128241   2.619   3.690   5.931  0.4632 -0.6761  3.2451
 5594SOL    HW228242   2.520   3.796   5.911  0.4709 -0.1326 -0.9858
 5595SOL     OW28243   2.254   0.414  12.269  0.3339  0.1035 -0.0156
 5595SOL    HW128244   2.342   0.444  12.291 -0.0201  0.5261  0.8698
 5595SOL    HW228245   2.286   0.332  12.232  0.8713  0.1754  0.2857
 5596SOL     OW28246   2.783   1.171  16.886 -0.3101 -0.2638 -0.4335
 5596SOL    HW128247   2.725   1.098  16.863 -1.8636  0.9017 -0.2136
 5596SOL    HW228248   2.793   1.143  16.977  0.1034  0.6261 -0.2069
 5597SOL     OW28249   1.991   2.027  12.481  0.0128  0.0368 -0.1831
 5597SOL    HW128250   2.082   2.051  12.494 -0.0394 -0.9438  2.0195
 5597SOL    HW228251   1.956   2.112  12.508  1.0044  0.6987 -0.9660
 5598SOL     OW28252   3.889   1.674   6.889 -0.0936 -0.1700  0.0484
 5598SOL    HW128253   3.942   1.616   6.943  0.2465 -1.1651 -1.3637
 5598SOL    HW228254   3.865   1.747   6.946 -0.1538  1.1600 -1.6603
 5599SOL     OW28255   1.502   4.427   3.801 -0.5671  0.3257 -0.1358
 5599SOL    HW128256   1.513   4.332   3.792 -1.3955 -0.0156  2.3819
 5599SOL    HW228257   1.556   4.438   3.879  0.1806 -0.9396 -0.4625
 5600SOL     OW28258   2.402   1.679   8.771 -0.6505 -0.4184  0.1878
 5600SOL    HW128259   2.442   1.764   8.754  0.9520 -1.0307  0.9381
 5600SOL    HW228260   2.449   1.647   8.848  1.3287  0.7825 -0.5172
 5601SOL     OW28261   0.624   2.182   9.752 -0.0841 -0.3293 -0.3611
 5601SOL    HW128262   0.704   2.208   9.796 -0.3716  1.0264 -0.6517
 5601SOL    HW228263   0.577   2.265   9.757  0.2402 -0.1337 -0.5648
 5602SOL     OW28264   4.201   3.482   2.015 -0.1986  0.3373 -0.2220
 5602SOL    HW128265   4.126   3.527   2.052 -0.3841 -1.5286  1.6552
 5602SOL    HW228266   4.259   3.498   2.089  2.1267  0.6669 -2.1089
 5603SOL     OW28267   1.545   0.408  16.186 -0.0188  0.0353 -0.1503
 5603SOL    HW128268   1.450   0.408  16.200  0.3712 -1.2221  2.4531
 5603SOL    HW228269   1.543   0.443  16.097  0.3712  0.1879 -0.0961
 5604SOL     OW28270   2.936   4.652  12.452  0.0261 -0.3448  0.2116
 5604SOL    HW128271   2.920   4.608  12.535  1.5218 -0.1543  0.5951
 5604SOL    HW228272   2.966   4.579  12.397  0.3075  0.6652 -0.9746
 5605SOL     OW28273   2.494   0.143   0.174 -0.0817 -0.2675 -0.0299
 5605SOL    HW128274   2.512   0.187   0.257  0.4117 -1.7290  0.6410
 5605SOL    HW228275   2.429   0.081   0.207 -1.3893  1.2994  0.2987
 5606SOL     OW28276   0.804   0.497   4.898  0.2326  0.8031  0.0794
 5606SOL    HW128277   0.752   0.418   4.910  1.6140  0.2261  2.2604
 5606SOL    HW228278   0.858   0.477   4.821  0.0975  2.5699 -0.4642
 5607SOL     OW28279   3.553   1.322   7.781 -0.4134 -0.0847  0.0454
 5607SOL    HW128280   3.460   1.303   7.776 -0.7239  0.9254  1.8012
 5607SOL    HW228281   3.553   1.415   7.802  0.6613 -0.0830  0.0557
 5608SOL     OW28282   1.633   0.638   2.696 -0.4991  0.0534 -0.8759
 5608SOL    HW128283   1.714   0.588   2.690 -0.9841 -0.7199 -0.9701
 5608SOL    HW228284   1.650   0.727   2.666  0.8458 -0.4588 -1.6407
 5609SOL     OW28285   4.451   0.872  15.948 -0.1791 -0.6956 -0.6361
 5609SOL    HW128286   4.546   0.869  15.937 -0.1896 -0.3603 -0.8047
 5609SOL    HW228287   4.432   0.822  15.869  0.0697 -0.5251 -0.8004
 5610SOL     OW28288   0.728   2.077  15.614  0.4605  0.2861 -0.2474
 5610SOL    HW128289   0.697   2.166  15.628  0.2791  0.6000 -2.6148
 5610SOL    HW228290   0.673   2.060  15.538 -1.2615 -1.7471  1.4633
 5611SOL     OW28291   0.554   2.246   7.814  0.6276  0.9093 -0.3118
 5611SOL    HW128292   0.520   2.229   7.902  0.8266  0.8490 -0.2448
 5611SOL    HW228293   0.545   2.341   7.812 -1.4706  0.7443  2.3502
 5612SOL     OW28294   4.473   4.703   2.476 -0.1584  0.0644 -0.6014
 5612SOL    HW128295   4.445   0.033   2.551 -0.7121  1.5813 -1.8766
 5612SOL    HW228296   4.501   4.624   2.521 -0.4709  1.0142  1.2777
 5613SOL     OW28297   0.280   3.351   7.067  0.0295  0.0795  0.0565
 5613SOL    HW128298   0.367   3.322   7.095  0.0418  1.2341  1.2438
 5613SOL    HW228299   0.283   3.317   6.978 -1.1578  0.6643 -0.2029
 5614SOL     OW28300   0.304   0.416   7.441 -0.2724 -0.3755 -0.1233
 5614SOL    HW128301   0.229   0.378   7.486  0.7355 -0.3496  1.5702
 5614SOL    HW228302   0.360   0.429   7.518  0.7855  1.7233 -1.2371
 5615SOL     OW28303   2.051   1.801   5.576  0.1582 -0.3919  0.1625
 5615SOL    HW128304   2.108   1.878   5.575  1.1740 -1.1420  0.6052
 5615SOL    HW228305   2.106   1.733   5.616  1.4862  0.0164 -0.9920
 5616SOL     OW28306   1.932   1.786   3.350 -0.1602  0.3251 -0.2419
 5616SOL    HW128307   2.013   1.736   3.338 -0.2541  0.1148  0.0004
 5616SOL    HW228308   1.944   1.868   3.301 -0.0522  1.5054  1.7603
 5617SOL     OW28309   2.954   3.257   2.915 -0.1644  0.7309  0.0632
 5617SOL    HW128310   2.921   3.174   2.950 -3.5460  1.5412 -1.1995
 5617SOL    HW228311   3.021   3.280   2.979 -0.7013 -0.1588  0.9515
 5618SOL     OW28312   1.726   4.231  15.456  0.7427 -0.3097 -0.0559
 5618SOL    HW128313   1.805   4.269  15.418  0.5487  0.3194  0.1785
 5618SOL    HW228314   1.674   4.309  15.472  1.2795  0.0442 -0.0620
 5619SOL     OW28315   4.001   2.464   7.884 -0.6864  0.3970 -0.1278
 5619SOL    HW128316   4.086   2.507   7.873  0.3912 -2.0145 -1.0662
 5619SOL    HW228317   3.937   2.535   7.875 -0.8769 -0.1229 -2.9441
 5620SOL     OW28318   0.057   3.662   1.069 -0.1430  0.3259 -0.1553
 5620SOL    HW128319   0.065   3.730   1.003 -2.9731  3.3052  2.6360
 5620SOL    HW228320   4.684   3.654   1.071 -0.0313 -0.9369  0.1583
 5621SOL     OW28321   2.938   1.151  16.592  0.2075 -0.2542  0.0434
 5621SOL    HW128322   2.981   1.139  16.507  1.6908 -0.1485  0.7704
 5621SOL    HW228323   2.910   1.062  16.614 -2.7989  0.3423 -1.3360
 5622SOL     OW28324   0.748   4.541   4.065  0.9395  0.8950 -0.5040
 5622SOL    HW128325   0.841   4.545   4.043  0.9276  0.1683 -0.6669
 5622SOL    HW228326   0.702   4.553   3.982  0.3202  0.0814 -0.2810
 5623SOL     OW28327   2.499   1.376   6.914 -0.0824 -0.0885  0.2406
 5623SOL    HW128328   2.439   1.306   6.886  1.6074 -1.2192 -0.5481
 5623SOL    HW228329   2.545   1.340   6.990 -0.9989  2.6252  2.0521
 5624SOL     OW28330   3.009   2.330   1.286 -0.6196 -0.4795  0.6031
 5624SOL    HW128331   2.980   2.286   1.205  0.3332 -0.5245  0.2784
 5624SOL    HW228332   3.103   2.312   1.283 -0.4907  0.1621  0.9379
 5625SOL     OW28333   4.653   3.312   5.329  0.5695 -0.0775 -0.1492
 5625SOL    HW128334   4.719   3.247   5.304  0.7639 -0.5815  1.7062
 5625SOL    HW228335   4.578   3.270   5.286 -0.1930  0.6616  0.4651
 5626SOL     OW28336   3.481   4.538   7.573 -0.5580  0.0976 -0.3280
 5626SOL    HW128337   3.487   4.629   7.544 -3.2708  0.8963  1.6227
 5626SOL    HW228338   3.424   4.549   7.649  1.4127  0.3974  1.0984
 5627SOL     OW28339   1.865   1.631   3.824 -0.3662  0.1157 -0.0164
 5627SOL    HW128340   1.898   1.719   3.809  0.8018 -0.0824  1.3472
 5627SOL    HW228341   1.771   1.646   3.832 -0.8170 -2.8056  0.1625
 5628SOL     OW28342   1.547   4.352   5.644  0.5838  0.2768  0.7882
 5628SOL    HW128343   1.572   4.444   5.635 -2.5267  1.3908  3.2247
 5628SOL    HW228344   1.617   4.309   5.595  0.0343 -1.2726  1.3593
 5629SOL     OW28345   2.200   3.706  11.700  0.4193  0.2133 -0.3341
 5629SOL    HW128346   2.246   3.651  11.763 -1.3691  0.4331  1.1817
 5629SOL    HW228347   2.206   3.792  11.742 -0.9074 -0.4843  1.2612
 5630SOL     OW28348   0.559   4.453  10.115  0.3557 -0.0854  0.1931
 5630SOL    HW128349   0.648   4.488  10.110  0.4410 -0.2225  0.6638
 5630SOL    HW228350   0.519   4.526  10.162 -0.4100 -0.1242 -0.4093
 5631SOL     OW28351   3.615   1.902   6.989 -0.2842  0.1139  0.1002
 5631SOL    HW128352   3.581   1.856   7.065 -0.2958 -0.7947 -0.4530
 5631SOL    HW228353   3.533   1.930   6.948 -0.1885  1.6652  1.0006
 5632SOL     OW28354   1.739   1.060   5.104  0.3806 -0.5640  0.3132
 5632SOL    HW128355   1.715   1.003   5.031 -0.2637 -2.8040  2.2598
 5632SOL    HW228356   1.656   1.106   5.113  1.5668  1.7504 -0.4040
 5633SOL     OW28357   0.737   1.730   5.161  0.0066 -0.2990  0.1276
 5633SOL    HW128358   0.645   1.707   5.153 -0.1309  0.7778 -1.3531
 5633SOL    HW228359   0.777   1.741   5.075 -0.0830 -1.0408 -0.0069
 5634SOL     OW28360   2.107   1.504   5.480  0.0022  0.3740 -0.6002
 5634SOL    HW128361   2.193   1.539   5.503 -0.0159 -0.6311  0.9643
 5634SOL    HW228362   2.121   1.410   5.470  0.8448  0.3135  1.2879
 5635SOL     OW28363   3.483   0.265   4.422 -0.7235  0.0368 -0.4198
 5635SOL    HW128364   3.521   0.269   4.510  0.1144 -1.7396 -0.7193
 5635SOL    HW228365   3.554   0.298   4.367  1.1464 -2.0227  0.7599
 5636SOL     OW28366   3.718   3.843   5.651 -0.0163  0.3043  0.4586
 5636SOL    HW128367   3.698   3.871   5.562  2.7379 -0.1784 -0.3037
 5636SOL    HW228368   3.702   3.913   5.714 -1.6303 -1.8952  2.5361
 5637SOL     OW28369   3.254   0.420  16.141 -0.6008  0.3199  0.4684
 5637SOL    HW128370   3.264   0.453  16.051 -0.8117 -0.1057  0.2916
 5637SOL    HW228371   3.305   0.483  16.193 -0.2831  0.2731  0.2143
 5638SOL     OW28372   1.927   0.412   7.983 -0.3125 -0.1051 -0.0058
 5638SOL    HW128373   1.852   0.423   7.925 -1.0339  1.2543  1.1876
 5638SOL    HW228374   1.901   0.341   8.042 -1.4470 -0.8109 -1.3501
 5639SOL     OW28375   4.445   3.846   1.962  0.8123  0.3598  0.1490
 5639SOL    HW128376   4.351   3.836   1.943  0.7087  1.3729  0.1293
 5639SOL    HW228377   4.480   3.845   1.873 -1.6219 -1.7930 -0.7917
 5640SOL     OW28378   3.369   1.044   6.695 -0.7008 -0.0376 -0.0505
 5640SOL    HW128379   3.414   0.967   6.727  0.4154  1.0553  1.0112
 5640SOL    HW228380   3.372   1.094   6.777 -0.5853  0.7576 -0.5367
 5641SOL     OW28381   2.030   3.882   4.932  0.2112 -0.2683 -0.3287
 5641SOL    HW128382   1.975   3.819   4.980 -1.2501  1.6251  0.4630
 5641SOL    HW228383   1.977   3.960   4.946  2.0829  0.5954  1.9137
 5642SOL     OW28384   0.027   0.809   3.899 -0.0768  0.2460  0.0310
 5642SOL    HW128385   0.103   0.767   3.940  1.1575 -0.3637 -2.8826
 5642SOL    HW228386   0.060   0.897   3.915 -0.6741  0.2234  1.4449
 5643SOL     OW28387   1.835   2.102   6.938 -0.0447  0.2365  0.4011
 5643SOL    HW128388   1.752   2.087   6.985  1.1007 -0.3643  2.2211
 5643SOL    HW228389   1.843   2.197   6.944 -0.3049  0.2940 -0.1361
 5644SOL     OW28390   1.537   3.777   4.357 -0.6156 -0.2441  0.0792
 5644SOL    HW128391   1.626   3.776   4.322 -0.9838  1.4789 -0.8999
 5644SOL    HW228392   1.502   3.694   4.326 -0.3636  0.3621 -1.8155
 5645SOL     OW28393   1.243   0.134   3.284 -0.2444 -0.0512  0.4845
 5645SOL    HW128394   1.252   0.096   3.197 -0.8984  0.2689  0.2813
 5645SOL    HW228395   1.207   0.063   3.337 -1.0709  0.7814  1.0290
 5646SOL     OW28396   0.910   3.273   2.623 -0.0579 -0.3547  0.3236
 5646SOL    HW128397   1.000   3.242   2.625 -0.1948 -0.7015  0.8445
 5646SOL    HW228398   0.908   3.312   2.710  0.7718 -0.2712  0.3072
 5647SOL     OW28399   2.374   2.683  16.356 -0.3103  0.1180  0.0621
 5647SOL    HW128400   2.395   2.643  16.271 -1.0999  3.4625 -1.7038
 5647SOL    HW228401   2.291   2.724  16.333  0.2194  0.5865 -1.0224
 5648SOL     OW28402   3.956   3.250   6.988  0.4542  0.0571 -0.2147
 5648SOL    HW128403   3.968   3.343   6.971 -0.7313  0.5157  1.4455
 5648SOL    HW228404   4.029   3.236   7.049  1.5155 -0.4079 -1.5833
 5649SOL     OW28405   3.261   1.390   5.440 -0.4957 -0.1486 -0.1594
 5649SOL    HW128406   3.341   1.384   5.388  0.0709 -1.1505  0.8287
 5649SOL    HW228407   3.248   1.302   5.475 -2.6798 -0.1654 -0.9635
 5650SOL     OW28408   3.960   2.408   4.622  0.2578  0.1537 -0.0330
 5650SOL    HW128409   4.040   2.357   4.627 -0.2096 -0.6231 -0.4563
 5650SOL    HW228410   3.922   2.370   4.543 -0.2017  2.4709 -0.9421
 5651SOL     OW28411   3.491   4.606  16.269  0.1237 -0.3370  0.5421
 5651SOL    HW128412   3.524   4.690  16.300  0.1452 -0.0001 -0.3914
 5651SOL    HW228413   3.399   4.628  16.277  0.3140  0.5164  0.4116
 5652SOL     OW28414   3.908   0.841  16.997  0.4141 -0.0386  0.5145
 5652SOL    HW128415   3.846   0.893  17.049  1.8038  0.8454  1.2804
 5652SOL    HW228416   3.962   0.909  16.957 -1.5224  0.6647 -0.9413
 5653SOL     OW28417   1.639   1.828   3.460 -0.3426 -0.7048 -0.4883
 5653SOL    HW128418   1.675   1.747   3.495 -1.0108 -0.9244 -0.2973
 5653SOL    HW228419   1.718   1.861   3.418 -0.1969 -2.8088 -1.8628
 5654SOL     OW28420   2.276   1.137   1.546  0.8326  0.1546  0.1055
 5654SOL    HW128421   2.207   1.193   1.512  0.1510 -0.3151  0.7030
 5654SOL    HW228422   2.235   1.104   1.627  1.1479 -2.8242 -0.9312
 5655SOL     OW28423   3.282   4.040   3.427  0.1549 -0.4214 -0.0582
 5655SOL    HW128424   3.209   4.091   3.462  0.2242 -0.2396 -0.1808
 5655SOL    HW228425   3.290   3.966   3.487  0.0367  0.1887  0.7193
 5656SOL     OW28426   3.718   2.264  13.764 -0.4308  0.3327  0.0186
 5656SOL    HW128427   3.698   2.293  13.675  0.5631  0.6568 -0.1018
 5656SOL    HW228428   3.652   2.197  13.781  1.6188 -1.5276  0.7075
 5657SOL     OW28429   2.744   3.924   2.920 -0.0931  0.2447  0.2704
 5657SOL    HW128430   2.792   3.852   2.961 -1.0822 -0.5127  0.0747
 5657SOL    HW228431   2.683   3.885   2.857 -1.2411 -1.5921  2.5288
 5658SOL     OW28432   2.326   2.627   7.240  0.2753 -0.1087 -0.0741
 5658SOL    HW128433   2.301   2.610   7.149 -0.1732  2.8770 -0.4909
 5658SOL    HW228434   2.301   2.548   7.288 -0.4424  1.2427  1.7385
 5659SOL     OW28435   4.647   4.568   6.121  0.4617  0.0018  0.3544
 5659SOL    HW128436   4.604   4.592   6.203  0.4967  0.3680  0.2647
 5659SOL    HW228437   4.722   4.623   6.141 -0.2751  1.0314  0.2731
 5660SOL     OW28438   1.907   3.158  11.095  0.2671 -0.1598 -0.1581
 5660SOL    HW128439   1.896   3.243  11.136  0.0263  0.7368 -2.0778
 5660SOL    HW228440   1.831   3.154  11.037 -1.6424  0.7921  2.3271
 5661SOL     OW28441   3.613   4.180   1.893  0.2773 -0.0255  0.9519
 5661SOL    HW128442   3.615   4.135   1.809 -2.0147 -0.6723  1.2375
 5661SOL    HW228443   3.569   4.112   1.944 -1.2477  0.1426 -0.1449
 5662SOL     OW28444   0.338   3.925   4.241  0.1115  0.5516 -0.2256
 5662SOL    HW128445   0.269   3.990   4.229 -1.2178 -0.6752  0.8310
 5662SOL    HW228446   0.313   3.845   4.194 -2.5578  1.5837 -0.5814
 5663SOL     OW28447   0.693   3.253   3.107  0.3579  0.3730  0.5663
 5663SOL    HW128448   0.616   3.196   3.093 -0.6308  2.1614 -1.3747
 5663SOL    HW228449   0.758   3.185   3.126 -1.3027 -1.6208 -0.7726
 5664SOL     OW28450   2.619   1.194   7.134 -0.7972  0.3001  0.3014
 5664SOL    HW128451   2.542   1.207   7.188  0.4433  0.7777  1.9711
 5664SOL    HW228452   2.671   1.137   7.191  1.3844  0.4020 -1.5533
 5665SOL     OW28453   2.536   4.578  15.002 -0.0637  0.1140  0.2018
 5665SOL    HW128454   2.443   4.563  15.015 -0.1378  0.1450 -0.2712
 5665SOL    HW228455   2.545   4.619  14.916  1.6478  0.0460  0.3472
 5666SOL     OW28456   4.576   1.710   4.665 -0.0406  0.0699  0.5597
 5666SOL    HW128457   4.537   1.629   4.634  1.2376  0.1575 -1.2787
 5666SOL    HW228458   4.603   1.696   4.756 -0.7106  0.2892  0.7912
 5667SOL     OW28459   1.906   0.312   5.548  0.8435  0.0008  0.6237
 5667SOL    HW128460   1.904   0.301   5.643  0.9472  3.4906  1.0202
 5667SOL    HW228461   1.936   0.226   5.519  0.6276 -0.3829  1.5485
 5668SOL     OW28462   4.284   1.321  17.043 -0.6151  0.1601  0.7590
 5668SOL    HW128463   4.272   1.341  16.950  0.3419 -0.7655  0.4451
 5668SOL    HW228464   4.353   1.380  17.074 -0.6394 -0.0165  1.1572
 5669SOL     OW28465   1.138   2.952   5.244 -0.1898  0.0748  0.0361
 5669SOL    HW128466   1.224   2.933   5.283  0.1230  0.3816 -0.4946
 5669SOL    HW228467   1.169   2.966   5.154  0.5360  0.1485  0.2973
 5670SOL     OW28468   2.394   1.831  12.765  0.1629  0.2534 -0.0659
 5670SOL    HW128469   2.353   1.906  12.808 -0.7738 -0.5044  0.3524
 5670SOL    HW228470   2.482   1.837  12.803 -0.9169 -0.7054  2.6040
 5671SOL     OW28471   0.919   1.503   1.600 -0.8999  0.3798 -0.2690
 5671SOL    HW128472   0.969   1.432   1.561 -1.5481 -0.9607  1.3217
 5671SOL    HW228473   0.853   1.459   1.655 -0.7324  0.4745  0.0066
 5672SOL     OW28474   0.253   0.348   0.029  0.2833  0.5501  0.5925
 5672SOL    HW128475   0.349   0.349   0.024  0.2711 -1.6479 -0.1326
 5672SOL    HW228476   0.237   0.435   0.065  1.9459  1.1679 -0.1774
 5673SOL     OW28477   1.720   1.616   2.531  0.4013  0.3543  0.2961
 5673SOL    HW128478   1.680   1.662   2.457  0.7942  1.4826  0.7862
 5673SOL    HW228479   1.644   1.583   2.578 -0.4114  1.0398 -0.5190
 5674SOL     OW28480   1.544   1.321   6.222 -0.2875 -0.2923 -0.0455
 5674SOL    HW128481   1.462   1.370   6.210  0.4296  0.4152 -1.9733
 5674SOL    HW228482   1.543   1.293   6.314 -0.7671 -1.6444 -0.4690
 5675SOL     OW28483   1.657   0.647   9.014 -0.1836  0.0991 -0.1576
 5675SOL    HW128484   1.650   0.727   9.066  2.2096 -0.0818  0.4558
 5675SOL    HW228485   1.564   0.644   8.993 -0.5546 -0.1566  1.5231
 5676SOL     OW28486   2.222   4.080   3.513  0.1540  0.3752  0.4800
 5676SOL    HW128487   2.187   3.992   3.527  1.8587 -0.6317 -1.6239
 5676SOL    HW228488   2.309   4.056   3.483  0.6663 -0.6099  2.7323
 5677SOL     OW28489   0.963   3.355   5.408  0.2230 -0.3509  0.1026
 5677SOL    HW128490   0.949   3.277   5.354 -0.7352 -0.6582  0.8034
 5677SOL    HW228491   1.052   3.379   5.383 -0.8901  2.1409 -1.5383
 5678SOL     OW28492   2.434   4.382   3.395 -0.0903  0.3399  0.3862
 5678SOL    HW128493   2.441   4.307   3.337 -0.8937  0.2104  0.4532
 5678SOL    HW228494   2.524   4.381   3.426  0.1519  1.9622 -0.2630
 5679SOL     OW28495   0.324   1.114   6.634  0.7734 -0.3525  0.2226
 5679SOL    HW128496   0.323   1.023   6.663  0.7463  0.0067  1.3563
 5679SOL    HW228497   0.391   1.151   6.692  0.3432  0.4953  0.1723
 5680SOL     OW28498   1.754   1.497  13.080 -0.8843  0.5218  0.0199
 5680SOL    HW128499   1.791   1.449  13.006 -2.0021 -0.6471  0.2122
 5680SOL    HW228500   1.660   1.496  13.059 -0.9738  1.4463  0.3787
 5681SOL     OW28501   3.469   3.959   7.214 -0.6560  0.0403  0.2294
 5681SOL    HW128502   3.493   4.017   7.142 -1.1603  1.2446  1.0242
 5681SOL    HW228503   3.373   3.965   7.219 -0.7575 -1.4317  0.0435
 5682SOL     OW28504   3.042   4.704   0.356 -0.6058  0.4899 -0.9823
 5682SOL    HW128505   2.970   4.647   0.383  0.6521 -1.0392 -0.8494
 5682SOL    HW228506   3.062   0.038   0.431  0.9047  0.5872 -1.4512
 5683SOL     OW28507   4.572   1.454  10.000 -0.0176  0.5508  0.3670
 5683SOL    HW128508   4.603   1.468  10.090 -0.9022 -0.0373  0.7671
 5683SOL    HW228509   4.540   1.364  10.011 -1.5709  0.6385 -3.5135
 5684SOL     OW28510   1.722   2.922  13.653  0.1135 -0.0205 -0.2313
 5684SOL    HW128511   1.649   2.981  13.632 -1.4239 -1.1109  1.9659
 5684SOL    HW228512   1.691   2.905  13.742 -0.4148  1.4374 -0.1345
 5685SOL     OW28513   3.603   0.930  13.331  0.1311  0.1294  0.3736
 5685SOL    HW128514   3.522   0.881  13.313  0.0939  0.7625 -1.1391
 5685SOL    HW228515   3.591   0.961  13.421  1.4560  1.0394  0.2226
 5686SOL     OW28516   3.611   3.033   8.156  0.0312  0.1500 -0.4263
 5686SOL    HW128517   3.531   3.087   8.155 -1.7564 -2.5155 -0.7790
 5686SOL    HW228518   3.632   3.037   8.062  0.0091 -2.3616 -0.5357
 5687SOL     OW28519   2.699   3.266   4.521 -0.5580 -0.1480 -0.2076
 5687SOL    HW128520   2.683   3.320   4.599 -2.1620 -0.0022 -0.6520
 5687SOL    HW228521   2.784   3.231   4.549 -1.0722 -2.0201 -1.0584
 5688SOL     OW28522   0.658   0.061   7.887  0.1472  0.1518  0.6792
 5688SOL    HW128523   0.587   0.006   7.921  1.8135 -2.0010  0.7061
 5688SOL    HW228524   0.738   0.009   7.892 -0.7981 -1.3139  0.8123
 5689SOL     OW28525   3.373   0.911  12.398  0.0481 -0.2048  0.3259
 5689SOL    HW128526   3.381   0.868  12.313  1.8361  2.9338 -1.1255
 5689SOL    HW228527   3.463   0.907  12.432  0.4197 -2.4408 -0.9072
 5690SOL     OW28528   3.889   0.961   2.006  0.8184  0.5707 -0.1514
 5690SOL    HW128529   3.940   1.042   2.005  1.0250  0.4291 -1.5742
 5690SOL    HW228530   3.938   0.917   1.936  1.4561  2.8709 -1.1581
 5691SOL     OW28531   4.484   2.622   7.791 -0.1139 -0.0641 -0.4990
 5691SOL    HW128532   4.573   2.608   7.824 -0.2072  0.1145 -0.1825
 5691SOL    HW228533   4.505   2.634   7.698 -2.6573 -2.6153 -1.4000
 5692SOL     OW28534   3.471   3.332  13.429 -0.2551 -0.5515 -0.7017
 5692SOL    HW128535   3.493   3.410  13.378 -2.3231  0.4853  0.0123
 5692SOL    HW228536   3.495   3.265  13.365 -1.4109 -1.2604 -0.3951
 5693SOL     OW28537   3.185   0.636   4.916 -0.0994  0.7732  0.3202
 5693SOL    HW128538   3.159   0.555   4.959 -0.0861  1.1389  1.0176
 5693SOL    HW228539   3.093   0.658   4.902 -0.2089  0.1486  0.0348
 5694SOL     OW28540   1.405   3.046   8.972  0.1899 -0.5691  0.3652
 5694SOL    HW128541   1.418   3.126   8.921  2.0322 -0.8814  0.3435
 5694SOL    HW228542   1.496   3.028   8.993 -0.0066  1.6298  3.2246
 5695SOL     OW28543   2.368   2.417   3.572  0.0484  0.3484 -0.3971
 5695SOL    HW128544   2.457   2.391   3.547  1.1915  2.7690  1.1322
 5695SOL    HW228545   2.373   2.512   3.579 -1.6635  0.1174  3.9155
 5696SOL     OW28546   3.162   0.502   2.896  0.3768 -0.3117  0.3958
 5696SOL    HW128547   3.245   0.455   2.887  0.5901  0.0255  0.6295
 5696SOL    HW228548   3.118   0.467   2.818  2.8875 -3.0969  0.1980
 5697SOL     OW28549   4.641   1.284  10.760 -0.1941  0.1836 -0.2589
 5697SOL    HW128550   0.007   1.280  10.797  1.3772 -0.3477 -4.0591
 5697SOL    HW228551   4.591   1.271  10.840 -1.4541  0.1921 -1.0363
 5698SOL     OW28552   4.158   0.116  12.794 -0.3691 -0.1522  0.0459
 5698SOL    HW128553   4.194   0.062  12.865  3.5282  3.1555  0.5982
 5698SOL    HW228554   4.066   0.092  12.796  0.3012 -3.0150 -3.5648
 5699SOL     OW28555   2.741   2.089   8.741 -1.0210  0.1950  0.5420
 5699SOL    HW128556   2.748   2.163   8.801 -0.6925  1.1791 -0.7080
 5699SOL    HW228557   2.758   2.134   8.658  0.4359  0.5031  1.0053
 5700SOL     OW28558   3.778   2.565   8.491  0.4758  0.6253 -0.3577
 5700SOL    HW128559   3.763   2.581   8.398 -0.9005 -2.6798 -0.6935
 5700SOL    HW228560   3.752   2.650   8.528 -3.0119 -1.9486  3.1275
 5701SOL     OW28561   1.064   2.784   7.500 -0.5013 -0.0208 -0.3166
 5701SOL    HW128562   1.135   2.815   7.443 -0.1622 -0.5140 -0.1701
 5701SOL    HW228563   1.105   2.701   7.527 -0.0106 -0.2977 -1.8878
 5702SOL     OW28564   2.820   3.454   9.137 -0.5266 -0.0903 -0.8102
 5702SOL    HW128565   2.859   3.475   9.222  0.0864 -1.2130 -0.8179
 5702SOL    HW228566   2.855   3.529   9.089 -1.4138 -0.1083 -1.4707
 5703SOL     OW28567   0.878   0.128   5.939  0.4706 -0.1737 -0.0071
 5703SOL    HW128568   0.933   0.190   5.987  0.3563 -0.7494  0.8662
 5703SOL    HW228569   0.948   0.065   5.919 -0.5185 -0.6373 -2.0306
 5704SOL     OW28570   0.845   4.483   3.657  0.1063  0.0310  0.0748
 5704SOL    HW128571   0.840   4.568   3.703  0.1071  0.7118 -1.1866
 5704SOL    HW228572   0.801   4.425   3.719  0.1782 -1.0126 -0.8559
 5705SOL     OW28573   3.065   2.727   1.614 -0.0249  0.0629  0.0980
 5705SOL    HW128574   2.993   2.700   1.672  0.5131 -0.7159  0.4091
 5705SOL    HW228575   3.010   2.780   1.557 -0.0203  0.7780  0.7604
 5706SOL     OW28576   3.432   0.712   7.746 -0.4611 -0.1214  0.3450
 5706SOL    HW128577   3.438   0.617   7.758  1.0712 -0.1250 -0.4884
 5706SOL    HW228578   3.347   0.722   7.704 -0.0564 -3.1345 -1.2092
 5707SOL     OW28579   4.256   1.173   8.773  0.2830 -0.7332  0.2008
 5707SOL    HW128580   4.329   1.111   8.780  1.1091  0.3469  1.1885
 5707SOL    HW228581   4.301   1.255   8.752 -0.8247  0.0327  0.8102
 5708SOL     OW28582   4.487   4.346  10.251 -0.0213 -0.3475 -0.0132
 5708SOL    HW128583   4.447   4.368  10.167 -1.7372 -1.3686  0.5311
 5708SOL    HW228584   4.522   4.429  10.284 -0.3335  0.0431 -0.6714
 5709SOL     OW28585   3.478   4.719   4.359  0.1882 -0.2948 -0.4469
 5709SOL    HW128586   3.481   4.694   4.452  0.3876  2.0198  0.1660
 5709SOL    HW228587   3.458   0.089   4.370  0.9146 -0.1799 -0.0235
 5710SOL     OW28588   2.818   2.113  16.958 -0.4571  0.0214 -0.2269
 5710SOL    HW128589   2.779   2.158  16.884 -0.5705 -2.6325 -1.7697
 5710SOL    HW228590   2.786   2.025  16.943 -0.7496  0.0581  0.1731
 5711SOL     OW28591   2.844   3.044  13.689 -0.3724  0.0370  0.0252
 5711SOL    HW128592   2.867   3.135  13.669 -2.4293  0.6058  0.2891
 5711SOL    HW228593   2.768   3.041  13.747 -0.0959 -0.4738  0.3661
 5712SOL     OW28594   0.435   4.233   3.368  0.0640  0.2788 -0.3982
 5712SOL    HW128595   0.495   4.221   3.294 -0.5146 -1.3157 -0.6098
 5712SOL    HW228596   0.357   4.199   3.324 -0.0220 -0.4861  0.3582
 5713SOL     OW28597   1.895   1.323   3.893  0.0726  0.0575  0.2385
 5713SOL    HW128598   1.865   1.413   3.904  1.1807  0.4316  0.2701
 5713SOL    HW228599   1.846   1.278   3.962  1.0407  0.2500  1.0565
 5714SOL     OW28600   3.169   2.399   5.365  0.0311  0.6164 -0.1351
 5714SOL    HW128601   3.254   2.431   5.335 -0.0574  0.2448 -0.7868
 5714SOL    HW228602   3.190   2.355   5.448  0.3892 -0.4598 -0.7890
 5715SOL     OW28603   1.011   4.590   4.000 -0.2310 -0.2850  0.2232
 5715SOL    HW128604   1.095   4.583   4.047 -1.6192 -3.0385  2.2897
 5715SOL    HW228605   1.039   4.611   3.911 -0.1536  1.8232  0.7355
 5716SOL     OW28606   0.781   3.083   7.033 -0.7441 -0.0222 -0.0141
 5716SOL    HW128607   0.753   3.099   7.123 -0.7482 -1.2856  0.2128
 5716SOL    HW228608   0.711   3.111   6.975 -0.8082  0.7895  0.4555
 5717SOL     OW28609   1.793   3.977   3.372 -0.2013 -0.0319 -0.0395
 5717SOL    HW128610   1.732   4.037   3.416 -0.8032 -0.1611 -0.6952
 5717SOL    HW228611   1.824   4.040   3.308 -1.1292  0.5360  0.0650
 5718SOL     OW28612   3.399   2.348   0.402 -0.3855  0.2322  0.3118
 5718SOL    HW128613   3.491   2.330   0.381 -1.3419 -0.2299 -3.4526
 5718SOL    HW228614   3.410   2.400   0.482 -1.1369  0.6385  0.1510
 5719SOL     OW28615   1.319   2.393   3.265 -0.0785  0.3487 -0.2840
 5719SOL    HW128616   1.285   2.388   3.175 -4.0318 -0.0760  1.2336
 5719SOL    HW228617   1.307   2.302   3.292 -1.8546  1.0417  1.2599
 5720SOL     OW28618   4.221   0.493  17.319  0.2364  0.1874 -0.6964
 5720SOL    HW128619   4.138   0.506  17.274  1.1580  0.3719 -2.3383
 5720SOL    HW228620   4.277   0.490  17.241  0.8288  0.5800 -0.2857
 5721SOL     OW28621   2.836   2.316   0.081 -0.1108  0.3493  0.1372
 5721SOL    HW128622   2.845   2.345  17.682 -0.8711 -1.6195 -0.5672
 5721SOL    HW228623   2.863   2.225   0.071 -1.6115  0.2221 -2.7666
 5722SOL     OW28624   0.743   3.334   8.252  0.2523  0.8549 -0.1896
 5722SOL    HW128625   0.770   3.274   8.321 -1.2877  1.2546  0.7640
 5722SOL    HW228626   0.790   3.411   8.282  1.2758  1.3781 -3.1816
 5723SOL     OW28627   0.102   1.549   0.982  0.4440  0.4457 -0.7863
 5723SOL    HW128628   0.012   1.519   0.993  0.4529  0.7040 -0.0290
 5723SOL    HW228629   0.088   1.641   0.960  0.0728  1.1630  2.4433
 5724SOL     OW28630   1.847   0.948  12.330 -0.0811 -0.0317 -0.2496
 5724SOL    HW128631   1.884   0.964  12.243 -1.0365  1.1626 -0.4349
 5724SOL    HW228632   1.820   0.857  12.320  1.4075 -0.6020  0.8829
 5725SOL     OW28633   3.536   4.215  10.555  0.1516 -0.4635 -0.5459
 5725SOL    HW128634   3.574   4.237  10.471 -2.3280 -0.2244 -1.6174
 5725SOL    HW228635   3.583   4.284  10.602  0.1367 -1.4558  0.9297
 5726SOL     OW28636   3.501   0.353   8.789  0.2090  0.2614  0.7302
 5726SOL    HW128637   3.552   0.432   8.773 -0.0985  0.4805  0.8171
 5726SOL    HW228638   3.419   0.393   8.819  0.3703 -0.2835  1.8851
 5727SOL     OW28639   3.420   4.267  17.399 -0.4793 -0.1650 -0.0060
 5727SOL    HW128640   3.359   4.252  17.471 -1.3500 -0.3300 -0.7761
 5727SOL    HW228641   3.434   4.362  17.391 -1.6106 -0.0204 -0.2983
 5728SOL     OW28642   3.347   3.102   2.634 -0.2862 -0.4802  0.1493
 5728SOL    HW128643   3.299   3.031   2.592 -0.2220  0.7231 -1.9757
 5728SOL    HW228644   3.301   3.113   2.717 -1.8430  0.2504 -0.8075
 5729SOL     OW28645   3.227   1.734  16.194  0.3288 -0.0618  0.1453
 5729SOL    HW128646   3.182   1.650  16.197 -2.3160  1.3131 -1.7155
 5729SOL    HW228647   3.157   1.797  16.205 -0.9198 -1.3236 -0.5571
 5730SOL     OW28648   2.351   0.230   4.109  0.0510 -0.2394  0.0791
 5730SOL    HW128649   2.331   0.164   4.176 -2.2855  0.6260  0.2198
 5730SOL    HW228650   2.444   0.249   4.121  0.3783 -0.6630 -1.8382
 5731SOL     OW28651   4.452   3.237   1.901 -0.1249 -0.4538  0.8522
 5731SOL    HW128652   4.514   3.177   1.859  1.2998  1.2647  0.4992
 5731SOL    HW228653   4.504   3.286   1.965 -1.7296  0.8084  1.1714
 5732SOL     OW28654   0.869   1.904   1.894 -0.5029 -0.2738 -0.0907
 5732SOL    HW128655   0.854   1.981   1.950 -1.5211  1.2725 -2.4704
 5732SOL    HW228656   0.803   1.845   1.932  0.8738 -2.1669 -0.6902
 5733SOL     OW28657   2.945   2.112  13.209  0.1713 -0.0155  0.2402
 5733SOL    HW128658   3.032   2.074  13.217 -0.1547 -0.9154 -0.3972
 5733SOL    HW228659   2.959   2.174  13.137  0.1009 -1.3142 -0.9052
 5734SOL     OW28660   2.278   3.199   4.711  0.5132 -0.2728  0.4076
 5734SOL    HW128661   2.351   3.235   4.760 -0.5945  2.0600  0.3170
 5734SOL    HW228662   2.209   3.205   4.778  0.4665 -1.4755  0.4808
 5735SOL     OW28663   4.061   1.247   3.698 -0.2125 -0.3024  0.1605
 5735SOL    HW128664   4.024   1.312   3.759 -0.2138  0.0645 -0.2311
 5735SOL    HW228665   4.058   1.294   3.615 -0.9117  0.7470  0.7690
 5736SOL     OW28666   2.786   1.646   6.359  0.0490  0.3027 -0.3635
 5736SOL    HW128667   2.692   1.628   6.351 -0.0887 -0.2775  2.5406
 5736SOL    HW228668   2.811   1.675   6.272  0.0254 -2.5067 -1.3170
 5737SOL     OW28669   2.070   2.087   5.018 -0.0078  0.0411  0.4950
 5737SOL    HW128670   2.140   2.083   5.084 -1.0808 -0.1354  1.6142
 5737SOL    HW228671   1.993   2.070   5.072 -0.7925  0.3754 -0.5256
 5738SOL     OW28672   3.235   3.204   5.872  0.1126  0.1603  0.8258
 5738SOL    HW128673   3.298   3.133   5.861  0.6371  0.9128 -1.0629
 5738SOL    HW228674   3.179   3.168   5.941  0.9193  0.2982  1.5547
 5739SOL     OW28675   0.753   1.999   4.681 -0.2123  0.3038  0.4221
 5739SOL    HW128676   0.727   1.987   4.772  0.5087  0.9699  0.7211
 5739SOL    HW228677   0.772   2.093   4.678  2.7948 -0.3805 -2.9616
 5740SOL     OW28678   1.441   0.534  13.284 -0.0439 -0.3394 -0.3082
 5740SOL    HW128679   1.532   0.503  13.287  0.7183  1.8624 -0.7407
 5740SOL    HW228680   1.432   0.562  13.193 -1.6048 -2.0485 -0.6743
 5741SOL     OW28681   3.654   3.542   9.161  0.0237  0.1499  0.0237
 5741SOL    HW128682   3.655   3.634   9.189  0.3947  0.8448 -2.2827
 5741SOL    HW228683   3.696   3.538   9.075 -0.7767 -0.0507 -0.3583
 5742SOL     OW28684   4.299   4.081   9.353 -0.2736 -0.6562  0.1168
 5742SOL    HW128685   4.225   4.039   9.309 -0.3078 -0.5841  0.1057
 5742SOL    HW228686   4.261   4.161   9.389  0.4139 -0.9533  1.4922
 5743SOL     OW28687   4.259   3.316   0.608  0.2597  0.1814 -0.0333
 5743SOL    HW128688   4.228   3.401   0.637  1.0614  0.3054  0.4604
 5743SOL    HW228689   4.261   3.322   0.512  0.2195  1.0557  0.0207
 5744SOL     OW28690   1.546   4.467   4.745  0.2999 -0.4632  0.0878
 5744SOL    HW128691   1.505   4.523   4.679 -2.8748 -0.2858  2.2240
 5744SOL    HW228692   1.614   4.422   4.694  0.6812  0.9809 -0.6778
 5745SOL     OW28693   3.976   2.675   6.107 -0.1883 -0.0980  0.3325
 5745SOL    HW128694   3.972   2.679   6.202  0.1119  0.9959  0.3073
 5745SOL    HW228695   3.913   2.747   6.094 -0.0975 -0.0791 -0.0119
 5746SOL     OW28696   4.633   2.941   4.648  0.4205  0.0829  0.3380
 5746SOL    HW128697   4.719   2.914   4.616 -0.5085 -3.8966  1.2020
 5746SOL    HW228698   4.583   2.886   4.589 -1.2315  1.5803  0.3299
 5747SOL     OW28699   0.644   4.513   4.492  0.6362  0.6006  0.2369
 5747SOL    HW128700   0.671   4.449   4.426  2.1864  2.5231 -1.0191
 5747SOL    HW228701   0.585   4.559   4.432 -0.0448  2.1829  2.1252
 5748SOL     OW28702   0.535   2.951   6.623 -0.0462 -0.1405  0.4801
 5748SOL    HW128703   0.469   2.898   6.578  0.8166  0.6176 -1.7014
 5748SOL    HW228704   0.563   2.886   6.687 -0.4685  0.4932  1.3051
 5749SOL     OW28705   3.143   0.831   2.724 -0.3397  0.2580 -0.0113
 5749SOL    HW128706   3.225   0.789   2.750 -0.2973  0.2228 -0.2012
 5749SOL    HW228707   3.114   0.858   2.811 -1.0368  1.9380 -0.7681
 5750SOL     OW28708   3.842   3.479   7.289  1.0781  0.6991 -0.1174
 5750SOL    HW128709   3.781   3.540   7.330 -0.9742 -1.3838 -0.0381
 5750SOL    HW228710   3.876   3.431   7.365 -1.4318 -1.1641 -0.1507
 5751SOL     OW28711   3.740   1.940   2.713  0.4862  0.5659  0.2208
 5751SOL    HW128712   3.764   2.026   2.748  1.4118  1.0390 -1.5811
 5751SOL    HW228713   3.711   1.968   2.626  0.7082  0.6873  0.1870
 5752SOL     OW28714   2.427   1.072  13.915 -0.6926 -0.2011  0.0097
 5752SOL    HW128715   2.500   1.125  13.948  1.5794 -0.8908 -3.9076
 5752SOL    HW228716   2.350   1.091  13.968 -0.8729  0.5977 -0.5321
 5753SOL     OW28717   2.237   4.407   5.985  0.0169  0.0726 -0.1544
 5753SOL    HW128718   2.329   4.389   5.962  0.7391  2.4161  0.8335
 5753SOL    HW228719   2.222   4.353   6.062  0.8999  1.8643  1.3033
 5754SOL     OW28720   2.429   2.324   2.419  0.3766  0.7550  0.8616
 5754SOL    HW128721   2.501   2.378   2.451 -1.6598  2.9499  1.7366
 5754SOL    HW228722   2.367   2.388   2.384 -0.6784 -1.2082 -0.8717
 5755SOL     OW28723   1.770   4.697   5.265  0.2802 -0.3408 -0.6260
 5755SOL    HW128724   1.685   4.692   5.221 -0.2333 -0.6945  0.4079
 5755SOL    HW228725   1.808   0.057   5.235 -0.9382  0.2817 -0.4405
 5756SOL     OW28726   3.797   1.113   4.674  0.2563  0.0863  0.2248
 5756SOL    HW128727   3.807   1.027   4.715 -1.3027 -0.0673  0.2481
 5756SOL    HW228728   3.839   1.091   4.591 -1.1469 -1.3102 -0.1067
 5757SOL     OW28729   3.900   0.727   4.714 -0.1409 -0.2376  0.6501
 5757SOL    HW128730   3.832   0.663   4.696  1.8847 -2.2220  0.0032
 5757SOL    HW228731   3.959   0.719   4.639 -0.1329 -0.4890  0.6836
 5758SOL     OW28732   4.200   2.154  12.911  0.2402 -0.2291 -0.0181
 5758SOL    HW128733   4.174   2.091  12.844 -1.1381 -0.2287  0.5125
 5758SOL    HW228734   4.276   2.109  12.947 -2.0650 -2.2127  2.4162
 5759SOL     OW28735   3.148   2.806   9.152  0.1225 -0.8595 -0.4196
 5759SOL    HW128736   3.082   2.808   9.083  0.3839  0.3843 -0.6247
 5759SOL    HW228737   3.181   2.895   9.143  1.2807 -1.0388  2.1431
 5760SOL     OW28738   2.129   1.328  13.779 -0.1310 -0.0613 -0.2126
 5760SOL    HW128739   2.148   1.347  13.871  0.7096  1.1018 -0.6281
 5760SOL    HW228740   2.070   1.253  13.784 -1.1386  0.7654  0.3286
 5761SOL     OW28741   3.340   4.620  11.398  0.1864 -0.2088 -0.0087
 5761SOL    HW128742   3.332   4.568  11.478  1.7073  0.0319  0.3023
 5761SOL    HW228743   3.372   4.708  11.417 -1.4179  0.3475  0.0521
 5762SOL     OW28744   0.024   3.291   7.540 -0.3530  0.2426  0.4279
 5762SOL    HW128745   4.692   3.268   7.616  0.3720 -1.6936  0.3574
 5762SOL    HW228746   0.052   3.204   7.515  1.4009  1.3644 -1.4950
 5763SOL     OW28747   1.170   0.414   9.540 -0.2321 -0.2737  0.2162
 5763SOL    HW128748   1.152   0.380   9.628 -0.0115  0.5924  0.5916
 5763SOL    HW228749   1.089   0.405   9.490 -0.2203 -0.4109  0.2218
 5764SOL     OW28750   0.209   3.986  17.498 -0.1437  0.7595  0.1332
 5764SOL    HW128751   0.222   4.078  17.522  1.7164  0.3104  0.8965
 5764SOL    HW228752   0.205   3.998  17.403 -0.4592  0.1822  0.0764
 5765SOL     OW28753   0.172   1.623  16.150  0.1956 -0.0878 -0.2437
 5765SOL    HW128754   0.091   1.593  16.190  0.8877 -0.1109  1.1170
 5765SOL    HW228755   0.126   1.655  16.072  1.0811 -1.1271 -1.1817
 5766SOL     OW28756   3.968   1.450  17.544 -0.4956 -0.7940  0.0559
 5766SOL    HW128757   3.899   1.504  17.505 -1.3062 -0.5712  1.7732
 5766SOL    HW228758   3.936   1.363  17.519 -0.0915 -0.8011 -0.4272
 5767SOL     OW28759   4.060   0.095   5.923  0.0563 -0.0924 -0.6888
 5767SOL    HW128760   4.135   0.154   5.932  0.6268 -1.0784  1.0155
 5767SOL    HW228761   4.003   0.157   5.968  0.2964  0.3562 -1.0047
 5768SOL     OW28762   2.090   2.446   4.712  0.6349 -0.5304  0.0212
 5768SOL    HW128763   2.091   2.541   4.708 -2.5575 -0.4863  0.4529
 5768SOL    HW228764   2.123   2.426   4.625 -2.3018  0.3753 -1.2766
 5769SOL     OW28765   1.767   4.017  14.886  0.1216 -0.1606 -0.0438
 5769SOL    HW128766   1.851   3.971  14.899  0.1544 -0.1959 -0.3936
 5769SOL    HW228767   1.743   3.999  14.795 -1.6322 -0.7408  0.5318
 5770SOL     OW28768   2.595   2.356  17.317 -0.1932  0.5659  0.2158
 5770SOL    HW128769   2.674   2.339  17.266 -1.6769 -1.4633 -1.4451
 5770SOL    HW228770   2.578   2.448  17.301 -2.1807  0.3908  1.3710
 5771SOL     OW28771   3.674   0.203   2.695 -0.7650 -0.6853 -0.1307
 5771SOL    HW128772   3.641   0.115   2.712  1.0285 -1.6196 -1.5977
 5771SOL    HW228773   3.615   0.255   2.751  0.9717 -0.8387  1.8181
 5772SOL     OW28774   0.070   2.614   7.847 -0.1852  0.1940  0.5715
 5772SOL    HW128775   0.146   2.665   7.820  0.1391 -2.7535 -4.1476
 5772SOL    HW228776   0.097   2.585   7.935 -1.3983 -0.5964  0.6902
 5773SOL     OW28777   3.315   3.820  11.566  0.2069  0.4013 -0.1876
 5773SOL    HW128778   3.335   3.901  11.519  0.8560  0.7535  0.6923
 5773SOL    HW228779   3.265   3.777  11.496  0.0807 -0.0543  0.1802
 5774SOL     OW28780   1.867   0.693  11.836 -0.1661 -0.3401  0.0595
 5774SOL    HW128781   1.895   0.654  11.753 -0.7817  0.5229 -0.5613
 5774SOL    HW228782   1.785   0.648  11.857 -0.7376  0.1193 -1.1980
 5775SOL     OW28783   1.883   3.634   5.319 -0.0572 -0.7326 -0.3903
 5775SOL    HW128784   1.855   3.723   5.341 -2.5778 -2.0354  1.6916
 5775SOL    HW228785   1.901   3.595   5.404 -0.6003  0.8934  0.4518
 5776SOL     OW28786   4.281   3.353   9.160  0.3052  0.7408  0.3900
 5776SOL    HW128787   4.275   3.307   9.243 -2.1525  0.4824  0.0594
 5776SOL    HW228788   4.272   3.439   9.202 -0.0158  0.8840  0.0300
 5777SOL     OW28789   2.872   4.289   7.888  0.0106  0.2191  0.2874
 5777SOL    HW128790   2.896   4.232   7.814 -1.2499 -2.7399  2.1605
 5777SOL    HW228791   2.779   4.302   7.866  0.3442  2.0667  0.0000
 5778SOL     OW28792   1.975   0.788   7.032 -0.5678 -0.7407 -0.7099
 5778SOL    HW128793   2.067   0.796   7.059 -0.4164  0.0539 -1.4305
 5778SOL    HW228794   1.972   0.843   6.953  0.7085  0.9034  0.3823
 5779SOL     OW28795   1.433   1.959   9.644 -0.5683 -0.3642 -0.1086
 5779SOL    HW128796   1.377   1.980   9.719 -0.9035  1.0905 -0.7680
 5779SOL    HW228797   1.398   1.992   9.561  0.9973  0.0005 -0.6184
 5780SOL     OW28798   0.322   2.353  14.753  0.1016  0.5836  0.3006
 5780SOL    HW128799   0.312   2.352  14.848  1.5935  2.9404  0.4865
 5780SOL    HW228800   0.415   2.331  14.745  0.1339  0.6974  0.3723
 5781SOL     OW28801   0.963   1.216   2.716  0.5472  0.1443 -0.0634
 5781SOL    HW128802   0.903   1.171   2.776  0.7046 -0.3456 -0.2697
 5781SOL    HW228803   0.908   1.277   2.668  0.8117  1.5981  1.4664
 5782SOL     OW28804   1.812   3.419  10.939 -0.3710 -0.0082 -0.0907
 5782SOL    HW128805   1.725   3.424  10.977 -0.5154  0.0322 -0.4257
 5782SOL    HW228806   1.795   3.377  10.855  2.0905  0.6468 -0.9132
 5783SOL     OW28807   3.228   1.235   8.103 -0.5073 -0.1177  0.0893
 5783SOL    HW128808   3.288   1.227   8.030 -1.6412 -1.4573 -0.6873
 5783SOL    HW228809   3.175   1.305   8.065  0.2650 -0.0694 -0.8838
 5784SOL     OW28810   2.913   3.608   2.741  0.3916  0.2675  0.2102
 5784SOL    HW128811   3.000   3.573   2.722 -0.2919 -0.9106 -0.8006
 5784SOL    HW228812   2.864   3.557   2.676 -1.8113  1.5524  0.8474
 5785SOL     OW28813   4.554   0.743   5.625  0.6881  0.1948  1.2329
 5785SOL    HW128814   4.555   0.664   5.571  2.1988  1.2074 -0.2178
 5785SOL    HW228815   4.498   0.705   5.693  1.1542 -1.5112  0.6637
 5786SOL     OW28816   4.138   3.862   5.644 -0.1293 -0.1548 -0.0067
 5786SOL    HW128817   4.171   3.949   5.667  2.4124 -1.3385  0.7350
 5786SOL    HW228818   4.121   3.876   5.550  0.6895 -0.1630 -0.1604
 5787SOL     OW28819   4.292   2.324   7.689 -0.0193  0.0682  0.4618
 5787SOL    HW128820   4.280   2.230   7.680 -1.0203  0.4663 -2.1645
 5787SOL    HW228821   4.300   2.342   7.783  0.7439 -2.3279  0.8543
 5788SOL     OW28822   3.286   4.212   2.083 -0.3682 -0.0505  0.7048
 5788SOL    HW128823   3.336   4.131   2.071 -2.1289 -0.9778 -0.5146
 5788SOL    HW228824   3.199   4.184   2.115 -1.0422 -0.6337 -1.6370
 5789SOL     OW28825   1.701   3.946   3.913  0.3653  0.8030  0.3640
 5789SOL    HW128826   1.641   3.940   3.988  0.5202  1.1211  0.5120
 5789SOL    HW228827   1.716   3.853   3.894  0.7941  1.2895 -1.6721
 5790SOL     OW28828   2.751   3.477   3.151 -0.4306 -0.7586  0.1844
 5790SOL    HW128829   2.807   3.534   3.204 -1.1681  1.6428 -1.6441
 5790SOL    HW228830   2.779   3.497   3.062 -0.4044  0.6793  0.5136
 5791SOL     OW28831   1.617   0.791   7.878 -0.1512 -0.2299  0.1683
 5791SOL    HW128832   1.604   0.720   7.815  0.7334 -2.6284  2.7056
 5791SOL    HW228833   1.592   0.872   7.833  0.1701  0.0356  0.4703
 5792SOL     OW28834   3.447   0.196  15.825  0.0079 -0.0370  0.6393
 5792SOL    HW128835   3.442   0.251  15.747 -2.1761  1.9467  2.1787
 5792SOL    HW228836   3.373   0.138  15.810 -0.3754  0.9620 -1.3896
 5793SOL     OW28837   4.013   0.644   6.040  0.0071 -0.4183  0.0796
 5793SOL    HW128838   4.009   0.588   6.118 -0.6610 -0.6855 -0.1449
 5793SOL    HW228839   3.953   0.715   6.062 -0.7801 -1.3170  0.8850
 5794SOL     OW28840   3.333   4.393   4.759 -0.1801  0.9727 -0.3695
 5794SOL    HW128841   3.346   4.396   4.664 -1.0999 -0.8513 -0.5567
 5794SOL    HW228842   3.262   4.330   4.768 -0.5121  1.0457 -2.3170
 5795SOL     OW28843   2.280   2.908  13.906  0.3472 -0.1177  0.7928
 5795SOL    HW128844   2.257   2.984  13.958 -0.7081 -0.9838  1.6045
 5795SOL    HW228845   2.257   2.839  13.968  0.4306  0.0891  1.0502
 5796SOL     OW28846   1.362   3.857   5.337 -0.0235  0.0494  0.2071
 5796SOL    HW128847   1.439   3.874   5.283  0.0713  0.7179  0.5569
 5796SOL    HW228848   1.311   3.798   5.282  0.9588 -0.7760  0.1935
 5797SOL     OW28849   3.215   4.416   5.002 -0.2274 -0.0361  0.4191
 5797SOL    HW128850   3.271   4.421   4.925 -0.1454 -0.7329  0.4392
 5797SOL    HW228851   3.254   4.346   5.053 -1.0946 -1.6033 -1.0676
 5798SOL     OW28852   1.178   4.656   8.640  0.3803  0.4524 -0.1545
 5798SOL    HW128853   1.167   4.630   8.549 -1.9895  0.1430  0.2132
 5798SOL    HW228854   1.096   4.617   8.669  1.6374  0.4015  3.3584
 5799SOL     OW28855   0.847   0.533   3.590  0.2682 -0.7397  0.1579
 5799SOL    HW128856   0.826   0.626   3.589  2.3609 -0.2753 -0.5935
 5799SOL    HW228857   0.848   0.522   3.495  0.0282 -2.4205  0.3419
 5800SOL     OW28858   0.875   0.709   3.072 -0.2601  0.2401 -0.3249
 5800SOL    HW128859   0.905   0.735   2.985 -0.4924 -2.0690 -1.1060
 5800SOL    HW228860   0.830   0.785   3.107 -0.0274  0.9408 -1.5708
 5801SOL     OW28861   2.711   4.446   2.955  0.2125  0.1816 -0.3101
 5801SOL    HW128862   2.698   4.353   2.974  1.9813  0.0912  0.4544
 5801SOL    HW228863   2.640   4.456   2.891 -1.9218 -3.4374  1.4929
 5802SOL     OW28864   2.108   4.519   4.572 -0.3657  0.5222  0.5320
 5802SOL    HW128865   2.152   4.485   4.650  0.3055 -1.3890 -0.7093
 5802SOL    HW228866   2.132   4.611   4.585  0.3064  0.3937  0.1921
 5803SOL     OW28867   1.253   2.719  14.039 -0.1638 -0.5692 -0.1045
 5803SOL    HW128868   1.260   2.769  14.121  1.6634  2.6124 -2.2081
 5803SOL    HW228869   1.328   2.659  14.037 -0.3892 -0.7445 -2.3033
 5804SOL     OW28870   2.169   2.247   3.688  0.2793 -0.9036  0.2921
 5804SOL    HW128871   2.128   2.226   3.604 -2.5030  1.4504  1.0498
 5804SOL    HW228872   2.192   2.336   3.663  2.0309 -1.3180  0.4637
 5805SOL     OW28873   3.565   2.269   2.942  0.3975 -0.3750 -0.2250
 5805SOL    HW128874   3.577   2.192   2.997  0.0571  1.2500  2.1030
 5805SOL    HW228875   3.501   2.317   2.994  0.8414 -0.1630  0.1263
 5806SOL     OW28876   1.811   4.607   2.428  0.8409  0.2263  0.2003
 5806SOL    HW128877   1.779   4.565   2.348  1.3674  1.8122 -0.8545
 5806SOL    HW228878   1.846   4.692   2.401  1.6042 -0.0509  0.3145
 5807SOL     OW28879   3.823   0.754   3.063  0.2211 -0.8171 -0.0082
 5807SOL    HW128880   3.846   0.794   2.979  2.2367 -0.4447  0.7290
 5807SOL    HW228881   3.792   0.665   3.045  1.4526 -1.3379  0.4540
 5808SOL     OW28882   1.680   2.087   5.453  0.1561  0.2699  0.3248
 5808SOL    HW128883   1.762   2.133   5.472  0.8846 -0.4399 -1.0799
 5808SOL    HW228884   1.636   2.129   5.379  0.7597  1.6732  0.7612
 5809SOL     OW28885   0.976   1.176   7.209 -0.5712  0.2138  0.3808
 5809SOL    HW128886   0.958   1.158   7.117 -1.0413  0.5372  0.4050
 5809SOL    HW228887   0.885   1.172   7.241 -0.0155  1.0484  2.0792
 5810SOL     OW28888   4.357   3.893   2.374 -0.1453  0.1360  0.6111
 5810SOL    HW128889   4.427   3.933   2.322  0.4070  3.0353  3.5796
 5810SOL    HW228890   4.280   3.945   2.347 -0.1214 -0.2234 -0.1602
 5811SOL     OW28891   0.987   0.219   7.022  0.0886 -0.3203 -0.1790
 5811SOL    HW128892   0.981   0.312   7.040  0.2526  0.1358 -2.4782
 5811SOL    HW228893   1.074   0.229   6.984 -0.7545  1.0609 -1.7341
 5812SOL     OW28894   2.177   0.313  14.395  0.2750 -0.2693  0.1547
 5812SOL    HW128895   2.105   0.339  14.338 -0.5313  0.3587  1.4491
 5812SOL    HW228896   2.167   0.218  14.398  0.4311 -0.2153  2.4041
 5813SOL     OW28897   3.583   1.928  15.990 -0.3755  0.2034  0.2836
 5813SOL    HW128898   3.645   1.984  16.037  0.4222 -1.4698  1.2388
 5813SOL    HW228899   3.498   1.972  15.994 -0.4261 -0.0437  1.8850
 5814SOL     OW28900   0.180   0.039   1.813  0.0065 -0.2376 -0.7437
 5814SOL    HW128901   0.094   0.039   1.856  1.6942 -0.0468  2.6217
 5814SOL    HW228902   0.167   4.715   1.731  0.3669 -3.4838  1.0483
 5815SOL     OW28903   1.103   3.711  16.987 -1.0312 -0.3184 -0.1726
 5815SOL    HW128904   1.147   3.789  17.022  0.4422 -1.1399 -0.1698
 5815SOL    HW228905   1.014   3.744  16.982 -0.2581  1.5640 -1.5123
 5816SOL     OW28906   0.897   4.624   5.545 -0.4196  0.0470  0.5333
 5816SOL    HW128907   0.857   4.549   5.588 -0.2229 -0.5443 -0.3059
 5816SOL    HW228908   0.992   4.611   5.541 -0.6985 -1.4411 -1.7176
 5817SOL     OW28909   4.188   2.393   1.558 -0.3243  0.1194  0.2040
 5817SOL    HW128910   4.248   2.350   1.497  1.7368  2.9492  0.2277
 5817SOL    HW228911   4.106   2.344   1.551  0.1982 -1.0409  2.2213
 5818SOL     OW28912   2.476   4.625  17.598 -0.4757 -0.6190  0.0196
 5818SOL    HW128913   2.398   4.679  17.587  0.0693  0.5222  1.7557
 5818SOL    HW228914   2.438   4.565  17.661  0.9194 -2.1239 -0.5696
 5819SOL     OW28915   1.387   2.071   8.210 -0.3304 -0.4220 -0.4717
 5819SOL    HW128916   1.303   2.045   8.174  0.6273  0.0745 -3.0921
 5819SOL    HW228917   1.406   2.154   8.167 -0.1432  0.1831  0.7809
 5820SOL     OW28918   1.569   4.545   6.318 -0.4773  0.1072  0.0551
 5820SOL    HW128919   1.610   4.528   6.403  0.0802 -2.3001 -0.7210
 5820SOL    HW228920   1.503   4.477   6.307 -0.8688  0.5339 -0.2410
 5821SOL     OW28921   0.316   0.694   5.216  0.3754  0.0270  0.2591
 5821SOL    HW128922   0.376   0.711   5.289  1.7307  2.1831 -1.3582
 5821SOL    HW228923   0.377   0.668   5.147  1.3655  0.6440  0.9051
 5822SOL     OW28924   0.210   0.111  15.091 -0.2178 -0.1058  0.2978
 5822SOL    HW128925   0.206   0.207  15.100 -1.2334 -0.2914  1.7990
 5822SOL    HW228926   0.178   0.102  15.001  2.9999  0.1859 -0.8655
 5823SOL     OW28927   3.113   1.792  15.937 -0.1377 -0.1656  0.2164
 5823SOL    HW128928   3.097   1.812  15.845  0.0530 -0.6150  0.0838
 5823SOL    HW228929   3.189   1.734  15.929 -0.8483 -0.9093 -1.0370
 5824SOL     OW28930   1.376   3.966  10.384 -0.1419 -0.0057  0.2639
 5824SOL    HW128931   1.338   3.989  10.300 -0.2721 -0.5513  0.1715
 5824SOL    HW228932   1.358   4.043  10.437  1.8753  0.9728 -0.4606
 5825SOL     OW28933   3.127   0.518   2.599  0.6158 -0.1309  0.3555
 5825SOL    HW128934   3.220   0.513   2.575  0.3846 -0.3935 -0.4657
 5825SOL    HW228935   3.090   0.439   2.561 -0.3546  0.1547  0.6944
 5826SOL     OW28936   0.128   0.402   6.819  0.3050 -0.0725  0.2757
 5826SOL    HW128937   0.156   0.485   6.858 -1.4718  0.0393  1.3249
 5826SOL    HW228938   0.197   0.392   6.753 -1.7714 -1.1921 -1.7059
 5827SOL     OW28939   1.985   0.929   4.783 -0.6982  0.5660 -0.5441
 5827SOL    HW128940   1.987   1.015   4.826  0.2851 -0.2283  0.9840
 5827SOL    HW228941   1.960   0.873   4.856  1.3361 -0.0430 -0.3260
 5828SOL     OW28942   0.652   4.443   1.522  0.0995  0.0020  0.3522
 5828SOL    HW128943   0.722   4.441   1.588  1.6379 -2.4590 -1.3545
 5828SOL    HW228944   0.648   4.530   1.483 -0.6012 -0.6672 -1.0647
 5829SOL     OW28945   1.159   0.584  10.293  0.2173 -0.4188 -0.7393
 5829SOL    HW128946   1.220   0.655  10.273 -0.6529  0.8737  1.1029
 5829SOL    HW228947   1.212   0.506  10.276  0.1024 -0.8270  0.7780
 5830SOL     OW28948   4.359   0.500  17.101  0.3631 -0.3499  0.1953
 5830SOL    HW128949   4.371   0.453  17.018 -1.6211 -2.0333  0.8674
 5830SOL    HW228950   4.328   0.588  17.080  0.6809 -0.0520  0.9703
 5831SOL     OW28951   1.338   1.421   8.427  0.2545  0.0090  0.4588
 5831SOL    HW128952   1.291   1.360   8.483 -0.6993  0.1437 -0.1968
 5831SOL    HW228953   1.386   1.461   8.501 -0.8240  1.8420  0.1724
 5832SOL     OW28954   3.929   3.864   2.522  0.4751  0.2612 -0.1961
 5832SOL    HW128955   3.975   3.948   2.529 -1.4609  1.0998  2.5733
 5832SOL    HW228956   3.939   3.832   2.432  0.7729  1.9506 -0.7618
 5833SOL     OW28957   1.858   4.557   0.027  0.3428  0.2303 -0.3720
 5833SOL    HW128958   1.949   4.531   0.012 -0.4791 -2.8265 -0.0255
 5833SOL    HW228959   1.820   4.593  17.639 -0.1039 -1.2769 -0.8465
 5834SOL     OW28960   2.858   3.621   2.298 -0.3340  0.0995 -0.3429
 5834SOL    HW128961   2.780   3.582   2.259 -1.1692  0.7131  0.7384
 5834SOL    HW228962   2.913   3.543   2.308  1.5803  1.3590 -1.1697
 5835SOL     OW28963   3.156   2.328   0.991  1.0973  0.4214 -0.4439
 5835SOL    HW128964   3.227   2.264   0.999 -0.3508 -1.0371  0.6851
 5835SOL    HW228965   3.079   2.271   0.995  0.8758  0.8891  1.6788
 5836SOL     OW28966   1.397   1.798   5.993  0.5563 -0.3367 -0.1187
 5836SOL    HW128967   1.454   1.875   6.002 -0.5260  0.4974 -0.3345
 5836SOL    HW228968   1.437   1.758   5.916  1.4489  2.1390 -0.9415
 5837SOL     OW28969   4.529   1.494   2.096 -0.5507  0.2010  0.3529
 5837SOL    HW128970   4.557   1.404   2.110 -0.1875  0.5007  1.5688
 5837SOL    HW228971   4.442   1.462   2.071 -0.0734  0.3685 -1.5245
 5838SOL     OW28972   0.384   1.894  15.712 -0.3832 -0.4459 -0.0200
 5838SOL    HW128973   0.439   1.818  15.727  2.4923  1.6615  0.1050
 5838SOL    HW228974   0.305   1.872  15.761  0.2022 -0.0060  1.1033
 5839SOL     OW28975   3.205   0.548   1.316  0.1599  0.2362 -0.2135
 5839SOL    HW128976   3.275   0.512   1.261  1.5581  0.3189  1.5161
 5839SOL    HW228977   3.141   0.476   1.312  0.9349 -0.4130 -0.9361
 5840SOL     OW28978   3.904   2.329   6.540 -0.2136  0.5280 -0.0587
 5840SOL    HW128979   3.909   2.400   6.604  1.8772 -1.6228  2.1708
 5840SOL    HW228980   3.828   2.274   6.560  2.1367 -2.3190  1.0076
 5841SOL     OW28981   2.229   1.786  15.381 -0.0697 -0.0958  0.8771
 5841SOL    HW128982   2.230   1.748  15.293 -1.8727  0.1784  0.7453
 5841SOL    HW228983   2.319   1.801  15.411  0.8451  0.7217 -2.3523
 5842SOL     OW28984   1.783   1.497   2.905  0.3340 -0.5616  0.4867
 5842SOL    HW128985   1.701   1.546   2.914  0.2100 -0.8210  0.7859
 5842SOL    HW228986   1.787   1.443   2.984 -0.0744  1.7608  2.0640
 5843SOL     OW28987   3.636   2.087   7.683 -0.2679 -0.3372  0.5102
 5843SOL    HW128988   3.655   2.005   7.638  1.5651  0.8008 -0.8186
 5843SOL    HW228989   3.718   2.136   7.688 -1.6337  2.0936 -0.7198
 5844SOL     OW28990   1.686   0.231  12.959 -0.0395  0.7813  0.0302
 5844SOL    HW128991   1.731   0.147  12.966  1.6303  1.6244 -0.6103
 5844SOL    HW228992   1.653   0.227  13.049  1.3693 -1.4185  0.4529
 5845SOL     OW28993   0.979   2.628  12.254  0.4011 -0.1899  0.1061
 5845SOL    HW128994   0.932   2.566  12.310 -1.9254  1.1001 -0.4231
 5845SOL    HW228995   0.987   2.704  12.313 -1.3859 -0.5012  0.7414
 5846SOL     OW28996   1.607   2.550   0.590 -0.5683 -0.1853  0.2725
 5846SOL    HW128997   1.528   2.602   0.575 -0.4690  0.1607  0.9167
 5846SOL    HW228998   1.570   2.469   0.624  0.6335 -1.4188 -1.3836
 5847SOL     OW28999   0.922   1.056   9.941  0.3332 -0.2071 -0.2025
 5847SOL    HW129000   0.967   1.022  10.019 -1.5862  1.1837  1.5187
 5847SOL    HW229001   0.971   1.136   9.920 -0.9514  0.2780 -1.3243
 5848SOL     OW29002   4.439   3.717   6.608 -0.3810 -0.3342  0.1454
 5848SOL    HW129003   4.456   3.627   6.637 -0.7220 -0.4280  0.0622
 5848SOL    HW229004   4.374   3.758   6.664 -0.7207 -2.3060  1.2047
 5849SOL     OW29005   1.885   1.675   9.159 -0.2509 -0.0715 -0.3222
 5849SOL    HW129006   1.938   1.597   9.178  0.3808  0.5137  0.3849
 5849SOL    HW229007   1.911   1.730   9.233 -1.9125 -1.0634  0.9993
 5850SOL     OW29008   3.712   0.131  10.850  0.0629 -0.0623 -0.0916
 5850SOL    HW129009   3.791   0.099  10.895  0.4696 -0.9848 -1.4785
 5850SOL    HW229010   3.647   0.151  10.918 -0.1496 -0.4701 -0.1753
 5851SOL     OW29011   3.852   1.535   2.044  0.2870 -0.1360  0.5749
 5851SOL    HW129012   3.913   1.509   2.114 -0.0957  1.0989  1.3674
 5851SOL    HW229013   3.789   1.585   2.096 -1.3987 -1.1479 -0.4935
 5852SOL     OW29014   3.394   2.620   4.183 -0.0188 -0.4776  0.8625
 5852SOL    HW129015   3.475   2.671   4.181 -0.7993  0.7807  1.2321
 5852SOL    HW229016   3.340   2.659   4.252 -0.3118  1.2999 -0.3645
 5853SOL     OW29017   4.367   1.936   6.586  0.8716  0.1021 -0.0203
 5853SOL    HW129018   4.420   1.871   6.540  2.3792  1.2875  0.0230
 5853SOL    HW229019   4.388   2.015   6.536 -1.3878  1.1414  0.6934
 5854SOL     OW29020   4.541   1.157  12.204 -0.2519 -0.0367  0.2418
 5854SOL    HW129021   4.502   1.233  12.247 -0.7089 -0.2261  0.1546
 5854SOL    HW229022   4.604   1.200  12.147 -0.9223 -0.7493 -1.0239
 5855SOL     OW29023   4.649   2.052   6.955 -0.0334  0.2639 -0.2993
 5855SOL    HW129024   0.013   2.022   6.984 -0.6270 -2.4325 -1.4021
 5855SOL    HW229025   4.653   2.071   6.861  3.4388 -0.5969 -0.3141
 5856SOL     OW29026   1.568   4.065   3.064  0.0906  0.2991  0.2499
 5856SOL    HW129027   1.538   4.130   3.127 -0.0388  1.7013 -1.2720
 5856SOL    HW229028   1.592   3.991   3.119 -0.1219  0.8396  1.0621
 5857SOL     OW29029   4.366   3.736   7.505 -0.6143 -0.5218  0.0704
 5857SOL    HW129030   4.415   3.818   7.517  1.6509 -1.6448 -1.6034
 5857SOL    HW229031   4.277   3.768   7.522 -0.3175  0.3734 -0.0563
 5858SOL     OW29032   2.436   1.169  11.817  0.0484 -0.0894 -0.1566
 5858SOL    HW129033   2.507   1.213  11.770  0.6076 -0.3860  0.4182
 5858SOL    HW229034   2.355   1.187  11.768  0.0701 -2.1065 -0.9354
 5859SOL     OW29035   2.896   1.691   9.308  0.6056 -0.0860 -0.4142
 5859SOL    HW129036   2.803   1.699   9.285  1.0601  1.2724 -1.7248
 5859SOL    HW229037   2.931   1.630   9.243 -1.6059 -2.7689  0.8689
 5860SOL     OW29038   4.319   1.423   8.890 -0.6673 -0.1644 -0.3639
 5860SOL    HW129039   4.368   1.492   8.844 -0.9510  0.2847  0.0039
 5860SOL    HW229040   4.282   1.475   8.962 -0.8202 -0.1265 -0.4703
 5861SOL     OW29041   0.327   2.682   7.794 -0.3101 -0.0635  0.6539
 5861SOL    HW129042   0.316   2.749   7.727  0.6269  1.4318  1.9930
 5861SOL    HW229043   0.418   2.701   7.818  0.3179 -2.7893  0.4887
 5862SOL     OW29044   2.206   2.477   2.331  0.3892  0.3925 -0.3927
 5862SOL    HW129045   2.140   2.428   2.283  1.5350 -1.1479 -0.4042
 5862SOL    HW229046   2.151   2.535   2.384 -0.0724  0.2029 -0.6659
 5863SOL     OW29047   3.838   2.039  11.940 -0.3191  0.3203  1.0668
 5863SOL    HW129048   3.863   2.081  11.858 -2.7503  1.5045  0.9369
 5863SOL    HW229049   3.914   1.983  11.957 -0.5574 -0.8300 -1.5706
 5864SOL     OW29050   3.100   0.233   8.579  0.1391 -0.2873  0.2253
 5864SOL    HW129051   3.159   0.158   8.580 -1.1676 -1.3201 -0.7745
 5864SOL    HW229052   3.139   0.283   8.507 -2.3459  1.7949  0.3219
 5865SOL     OW29053   3.839   1.453   8.256 -0.2665 -0.2121 -0.3338
 5865SOL    HW129054   3.779   1.516   8.296  1.5310  1.8046 -0.8719
 5865SOL    HW229055   3.791   1.437   8.175 -0.5570  1.3202 -0.4615
 5866SOL     OW29056   0.297   2.714   2.732 -0.3328  0.4960  0.5422
 5866SOL    HW129057   0.356   2.720   2.656 -0.8487  0.4140  0.1386
 5866SOL    HW229058   0.232   2.783   2.720 -0.2303  0.7582  1.5445
 5867SOL     OW29059   3.985   1.780   5.322  0.1584  0.1118  0.2263
 5867SOL    HW129060   4.064   1.730   5.344  1.5876  1.0253 -2.7574
 5867SOL    HW229061   3.989   1.842   5.394  0.0691 -0.1233  0.4317
 5868SOL     OW29062   0.457   0.568   5.010 -0.4912 -0.0351 -0.2843
 5868SOL    HW129063   0.386   0.532   4.957 -0.4026  0.1433 -0.5241
 5868SOL    HW229064   0.503   0.487   5.032  0.1508  0.3560 -0.1774
 5869SOL     OW29065   3.351   2.703   6.444  0.0785 -0.2152  0.0674
 5869SOL    HW129066   3.287   2.716   6.374  1.0319  1.5118 -0.4921
 5869SOL    HW229067   3.287   2.712   6.515  2.5157  3.3698  1.8151
 5870SOL     OW29068   3.094   1.412   7.155  0.2240 -0.2937  0.3602
 5870SOL    HW129069   3.009   1.371   7.138 -0.0159 -0.9372  2.9709
 5870SOL    HW229070   3.080   1.436   7.247  0.9059 -2.0344  0.9309
 5871SOL     OW29071   2.715   3.089   6.800 -0.1166  0.1859 -0.7265
 5871SOL    HW129072   2.679   3.067   6.885  0.3226 -1.1242 -0.8838
 5871SOL    HW229073   2.640   3.090   6.740 -0.8161  0.5176  0.1497
 5872SOL     OW29074   1.312   0.899  12.167 -0.3333 -0.5824 -0.4377
 5872SOL    HW129075   1.253   0.824  12.164 -1.8181  0.6105 -0.6913
 5872SOL    HW229076   1.293   0.950  12.088  0.5677 -1.9640 -1.5590
 5873SOL     OW29077   0.990   2.832   5.507  0.0144  0.6116 -0.0682
 5873SOL    HW129078   1.012   2.792   5.423  0.1045  1.5054 -0.4677
 5873SOL    HW229079   1.081   2.851   5.531  0.0321 -1.4903  1.5336
 5874SOL     OW29080   4.458   0.233   3.417 -0.1441 -0.2162 -0.2713
 5874SOL    HW129081   4.422   0.201   3.500  1.7808  0.5516  0.8737
 5874SOL    HW229082   4.516   0.299   3.456  0.3087  0.0854 -1.4637
 5875SOL     OW29083   2.009   2.264   6.719 -0.1681  0.2917 -0.2243
 5875SOL    HW129084   1.936   2.325   6.703 -1.0237 -1.0674 -1.5008
 5875SOL    HW229085   1.969   2.209   6.786 -1.1352  0.6974 -0.4565
 5876SOL     OW29086   0.550   2.377   6.630  0.5276 -0.1885  0.0928
 5876SOL    HW129087   0.599   2.409   6.554 -0.7059  0.0691 -0.5910
 5876SOL    HW229088   0.459   2.389   6.606  0.7249 -0.5219 -0.8408
 5877SOL     OW29089   1.416   0.143  14.975  0.0464 -0.6786  0.3903
 5877SOL    HW129090   1.485   0.077  14.984  0.0960 -0.7427 -0.4202
 5877SOL    HW229091   1.348   0.080  14.997 -1.7930  1.8487  2.0251
 5878SOL     OW29092   1.685   1.257   8.995 -0.4137  0.0245 -0.0478
 5878SOL    HW129093   1.749   1.295   9.055  0.3809 -2.0160  0.3901
 5878SOL    HW229094   1.741   1.191   8.954 -0.5325 -0.5708  0.7476
 5879SOL     OW29095   2.729   2.476   2.277 -0.1612 -0.3843  0.1756
 5879SOL    HW129096   2.754   2.385   2.293 -0.6392 -0.4765  0.3875
 5879SOL    HW229097   2.692   2.502   2.361 -2.2009  0.4633 -0.9721
 5880SOL     OW29098   0.435   2.604  11.189  0.0703 -0.2475  0.0298
 5880SOL    HW129099   0.440   2.531  11.250  2.1503  1.1300  1.5115
 5880SOL    HW229100   0.517   2.645  11.217 -0.8651  0.2038  2.1013
 5881SOL     OW29101   0.914   1.489   4.290 -0.1303  0.1022 -0.5967
 5881SOL    HW129102   0.877   1.405   4.262 -1.7911  0.4093  0.6308
 5881SOL    HW229103   0.959   1.517   4.210 -0.6651 -0.7036 -1.1784
 5882SOL     OW29104   1.307   2.251   7.076 -0.7800  0.0497  0.2974
 5882SOL    HW129105   1.282   2.322   7.017  0.4438  0.2925  0.0744
 5882SOL    HW229106   1.261   2.283   7.154  0.6263  4.4440 -0.6831
 5883SOL     OW29107   1.681   0.415  11.502 -0.0567 -0.3832 -0.2503
 5883SOL    HW129108   1.726   0.402  11.418  2.2963 -0.2022  0.9820
 5883SOL    HW229109   1.726   0.360  11.566 -0.5102  1.1234  1.3609
 5884SOL     OW29110   2.927   3.663   7.310 -0.4879 -0.2984 -0.6119
 5884SOL    HW129111   2.913   3.677   7.216 -1.5736  0.4591 -0.3342
 5884SOL    HW229112   2.979   3.740   7.333  2.3506 -2.0611 -1.0894
 5885SOL     OW29113   0.167   4.476   2.793  0.2407  0.1090  0.5469
 5885SOL    HW129114   0.231   4.546   2.799  1.0784 -0.8615  2.9123
 5885SOL    HW229115   0.095   4.515   2.742  0.2827  0.7776  0.9970
 5886SOL     OW29116   0.838   2.670  13.898  0.1949 -0.0112 -0.3224
 5886SOL    HW129117   0.748   2.703  13.902 -0.5078 -2.1357  1.0677
 5886SOL    HW229118   0.894   2.747  13.885 -1.3471  1.4604  1.6596
 5887SOL     OW29119   3.715   3.030  14.225 -0.3108  0.0945 -0.0580
 5887SOL    HW129120   3.718   3.120  14.194  0.8622  0.2652  0.5223
 5887SOL    HW229121   3.747   2.999  14.141  2.0556 -0.3558  1.0080
 5888SOL     OW29122   4.376   1.433  17.684 -0.2103  0.1883  0.1415
 5888SOL    HW129123   4.291   1.473   0.009 -0.3120  0.9036 -2.1082
 5888SOL    HW229124   4.353   1.375  17.611  0.2093  1.8745 -1.3154
 5889SOL     OW29125   1.751   1.262  14.573 -0.5300 -0.1129  0.5409
 5889SOL    HW129126   1.818   1.248  14.506 -1.8229 -1.7774 -0.3965
 5889SOL    HW229127   1.678   1.249  14.513  0.3515  1.5064 -0.9294
 5890SOL     OW29128   1.361   1.340   7.098  0.2042  0.2080  0.4145
 5890SOL    HW129129   1.316   1.288   7.164 -0.4070  1.0639  0.6705
 5890SOL    HW229130   1.420   1.390   7.154 -1.1008  0.0520  1.8925
 5891SOL     OW29131   2.974   2.550   4.230  0.3095 -0.0376  0.0075
 5891SOL    HW129132   3.024   2.630   4.245 -2.1011  1.5741 -0.6849
 5891SOL    HW229133   3.044   2.490   4.257 -0.2751 -0.0709  1.4426
 5892SOL     OW29134   3.300   0.223  17.127 -0.1052 -0.6509  0.3623
 5892SOL    HW129135   3.349   0.145  17.099 -0.9411 -1.2965  0.7090
 5892SOL    HW229136   3.366   0.292  17.139 -1.8432  1.1087 -0.2778
 5893SOL     OW29137   2.868   2.680   6.060 -0.0061 -0.6817  0.1658
 5893SOL    HW129138   2.890   2.639   5.976  1.2881 -2.2374  1.2405
 5893SOL    HW229139   2.855   2.604   6.117 -4.4699 -0.6964 -0.8589
 5894SOL     OW29140   0.068   2.711  13.820  0.3268  0.1646  0.7883
 5894SOL    HW129141   0.047   2.642  13.757  0.0437  1.4776 -0.5255
 5894SOL    HW229142   4.704   2.724  13.859 -0.1936 -1.2508  0.1310
 5895SOL     OW29143   1.879   2.773   5.167  0.2284  0.1161 -0.0108
 5895SOL    HW129144   1.971   2.799   5.165  0.0452  0.7772 -0.0587
 5895SOL    HW229145   1.857   2.706   5.104  0.7850 -1.0713  1.0574
 5896SOL     OW29146   4.542   3.157   2.455  0.5316 -0.6863  0.1552
 5896SOL    HW129147   4.544   3.246   2.419  0.3335  0.3055  2.5483
 5896SOL    HW229148   4.447   3.145   2.452  0.6768 -1.6584 -0.5721
 5897SOL     OW29149   0.475   0.517   0.375 -0.4848 -0.3322  0.3074
 5897SOL    HW129150   0.469   0.530   0.470 -1.5008  3.1143 -0.2307
 5897SOL    HW229151   0.539   0.587   0.361 -0.7748 -0.4552 -1.5732
 5898SOL     OW29152   4.669   3.062   5.100  0.1226 -0.6914 -0.4961
 5898SOL    HW129153   4.648   2.992   5.162  0.6209 -2.1983 -2.0213
 5898SOL    HW229154   0.032   3.094   5.130 -0.6640 -0.6927  1.7473
 5899SOL     OW29155   0.602   4.697   1.411  0.4376 -0.3766 -0.2080
 5899SOL    HW129156   0.556   4.668   1.333 -1.9033  0.7292  0.7332
 5899SOL    HW229157   0.634   0.062   1.388  1.2097 -0.7440 -0.5436
 5900SOL     OW29158   2.392   3.904   8.082 -0.4506  0.0557 -0.0019
 5900SOL    HW129159   2.425   3.818   8.052 -0.5119 -0.2128  0.7054
 5900SOL    HW229160   2.338   3.927   8.006  1.6627  0.4005 -1.4294
 5901SOL     OW29161   1.837   1.922  14.660 -0.0282 -0.3483 -0.7700
 5901SOL    HW129162   1.865   1.945  14.748 -1.9066  1.0122 -0.5273
 5901SOL    HW229163   1.743   1.919  14.676  0.4658 -4.0541  1.4541
 5902SOL     OW29164   3.667   4.604   5.142  0.1422  0.7859  0.0546
 5902SOL    HW129165   3.730   4.535   5.161  0.1947  0.5861 -0.8334
 5902SOL    HW229166   3.716   4.675   5.101  0.7532  0.7606  0.7383
 5903SOL     OW29167   0.737   1.623  14.245 -0.3997 -0.0578 -0.4611
 5903SOL    HW129168   0.648   1.651  14.222 -0.4259 -1.4586 -2.0573
 5903SOL    HW229169   0.731   1.528  14.246 -1.3692 -0.0147 -1.8491
 5904SOL     OW29170   1.857   2.648   8.233 -0.1163  0.2618 -0.1610
 5904SOL    HW129171   1.897   2.662   8.318 -1.9444  0.1113  0.7349
 5904SOL    HW229172   1.785   2.591   8.259 -0.6785  0.0219 -2.2046
 5905SOL     OW29173   3.581   2.871   0.818  0.0333 -0.3386 -0.0384
 5905SOL    HW129174   3.501   2.826   0.845 -0.8855  0.5980 -1.1629
 5905SOL    HW229175   3.593   2.830   0.733  1.6239  0.9352 -0.4243
 5906SOL     OW29176   0.127   1.121   2.313 -0.4117  0.3480  0.2386
 5906SOL    HW129177   0.151   1.083   2.229 -1.3470 -2.1438  1.1214
 5906SOL    HW229178   0.204   1.097   2.364 -1.4800 -1.2949  1.0537
 5907SOL     OW29179   0.646   0.313   9.403  0.7228  0.1211  0.0345
 5907SOL    HW129180   0.620   0.246   9.339 -3.8143  1.8301  0.1236
 5907SOL    HW229181   0.665   0.254   9.476  3.7596  1.4481  0.3182
 5908SOL     OW29182   0.334   3.895   3.163  0.5613  0.1096  0.3785
 5908SOL    HW129183   0.426   3.893   3.192  0.9545 -1.1101 -0.9357
 5908SOL    HW229184   0.347   3.897   3.068  1.3448 -2.5848  0.4297
 5909SOL     OW29185   0.561   1.190  15.231 -0.4042  0.2403 -0.0680
 5909SOL    HW129186   0.530   1.201  15.141  3.4168 -3.9522 -1.8846
 5909SOL    HW229187   0.576   1.095  15.224  2.4444  0.3794  4.8109
 5910SOL     OW29188   2.474   3.882  15.906 -0.1242 -0.3617 -0.2527
 5910SOL    HW129189   2.486   3.977  15.900 -1.3868 -0.4397 -4.1290
 5910SOL    HW229190   2.408   3.873  15.837 -0.8010 -0.1629  0.3781
 5911SOL     OW29191   1.127   4.553  15.518  0.0402  0.1602  0.1549
 5911SOL    HW129192   1.193   4.605  15.563 -0.2954 -0.0904  0.9491
 5911SOL    HW229193   1.193   4.516  15.459 -0.7715 -0.6526 -0.2477
 5912SOL     OW29194   1.863   3.498  12.180 -0.5804 -0.4787  0.1884
 5912SOL    HW129195   1.838   3.587  12.206 -0.5443 -0.4497  0.1241
 5912SOL    HW229196   1.788   3.476  12.126  0.8236  1.9330 -2.7322
 5913SOL     OW29197   1.166   0.066   7.292  0.3249  0.0741  0.0610
 5913SOL    HW129198   1.165   4.695   7.313  0.8554 -0.1753 -1.0145
 5913SOL    HW229199   1.256   0.070   7.325  0.7993  1.2519 -1.3804
 5914SOL     OW29200   3.337   2.430   8.623 -0.6060  0.2747  0.5302
 5914SOL    HW129201   3.410   2.396   8.675 -1.3994 -2.8951 -0.4268
 5914SOL    HW229202   3.313   2.511   8.669 -0.8532  1.1620 -1.1481
 5915SOL     OW29203   0.889   4.402   2.915 -0.0880 -0.5698 -0.6881
 5915SOL    HW129204   0.902   4.419   3.009 -0.1296 -1.6095 -0.4975
 5915SOL    HW229205   0.798   4.373   2.908  0.0539 -1.5397  1.5478
 5916SOL     OW29206   2.366   0.508   4.448  0.1084  0.4630  0.4612
 5916SOL    HW129207   2.327   0.584   4.406  0.9736 -0.0088 -1.2020
 5916SOL    HW229208   2.296   0.443   4.435 -0.7985  1.2936  1.2258
 5917SOL     OW29209   2.259   1.972   7.143  0.0527 -0.1869  0.1063
 5917SOL    HW129210   2.171   1.993   7.175 -0.4143  0.1232 -1.4091
 5917SOL    HW229211   2.298   2.058   7.126 -0.1672  0.1795  1.4726
 5918SOL     OW29212   0.604   1.911   8.823 -0.1605  0.9843  0.3036
 5918SOL    HW129213   0.693   1.877   8.830  0.8611  3.5072 -0.1858
 5918SOL    HW229214   0.580   1.911   8.915  0.3157  0.5980  0.4287
 5919SOL     OW29215   1.850   1.304   0.180  0.2513  0.5748  0.2654
 5919SOL    HW129216   1.896   1.315   0.097 -1.3518 -0.6538 -0.7750
 5919SOL    HW229217   1.921   1.316   0.243 -0.2767  1.9024  0.6126
 5920SOL     OW29218   0.152   0.447  13.481 -0.1489 -0.3609 -0.4647
 5920SOL    HW129219   0.124   0.520  13.426 -1.3741 -1.2626 -1.0460
 5920SOL    HW229220   0.147   0.373  13.420  1.6674  0.2600 -1.3412
 5921SOL     OW29221   4.516   1.481  11.243  0.0979 -0.0777 -0.0540
 5921SOL    HW129222   4.431   1.461  11.283  0.0601  2.1798  0.9860
 5921SOL    HW229223   4.497   1.562  11.195  0.4947  0.4691  0.7002
 5922SOL     OW29224   1.710   0.091   3.180  0.5288 -0.6799  0.1995
 5922SOL    HW129225   1.760   0.101   3.261 -1.1286  0.6518  1.0494
 5922SOL    HW229226   1.639   0.153   3.196  1.5703  0.2385  1.2095
 5923SOL     OW29227   4.422   3.508   0.399  0.2522  0.2319 -0.7137
 5923SOL    HW129228   4.466   3.423   0.391  0.9830  0.4046  1.3482
 5923SOL    HW229229   4.338   3.467   0.382  0.5851 -0.8688  0.3138
 5924SOL     OW29230   3.125   2.434   2.933  0.7460  0.3950 -0.1131
 5924SOL    HW129231   3.085   2.486   2.864 -2.7203 -0.9535  0.8690
 5924SOL    HW229232   3.199   2.489   2.957  0.7954 -0.2362  1.1766
 5925SOL     OW29233   3.551   3.659   0.727  0.1417  0.2020  0.1444
 5925SOL    HW129234   3.515   3.748   0.723 -0.1541  0.0447 -0.7262
 5925SOL    HW229235   3.564   3.655   0.821  3.2663 -0.4047 -0.3000
 5926SOL     OW29236   4.265   2.085   3.082 -0.1876  0.2125  0.2917
 5926SOL    HW129237   4.334   2.106   3.145  0.1658 -0.7000  0.2035
 5926SOL    HW229238   4.187   2.093   3.136 -1.5578  1.1428 -1.7811
 5927SOL     OW29239   2.049   1.480   5.055 -0.4695  0.0606 -0.0499
 5927SOL    HW129240   2.090   1.408   5.104  0.5102 -0.0265 -0.9811
 5927SOL    HW229241   2.125   1.534   5.034  0.8009 -1.7963 -0.2573
 5928SOL     OW29242   3.265   2.592   0.615 -0.6235 -0.9009  0.1261
 5928SOL    HW129243   3.176   2.599   0.582 -0.1166  1.6375 -0.7022
 5928SOL    HW229244   3.246   2.587   0.709  2.6169  1.8314  0.9212
 5929SOL     OW29245   4.132   0.655   1.207  0.2442  0.9179 -0.4921
 5929SOL    HW129246   4.087   0.581   1.248 -0.0764  1.0769 -0.5556
 5929SOL    HW229247   4.168   0.702   1.282  0.7039 -2.1814  1.2248
 5930SOL     OW29248   1.998   2.011   2.489 -0.2286  0.1600  0.6061
 5930SOL    HW129249   2.023   1.938   2.432 -2.3988  2.0117 -2.7194
 5930SOL    HW229250   1.905   1.993   2.473  0.2968 -4.0520  2.3062
 5931SOL     OW29251   3.939   2.659   3.612  0.1390  0.1829  0.0306
 5931SOL    HW129252   3.906   2.702   3.533 -0.1793  0.0915  0.1172
 5931SOL    HW229253   3.897   2.716   3.677 -2.0401 -1.0306 -0.3356
 5932SOL     OW29254   0.557   1.997  12.810  0.1911 -0.1497 -0.2957
 5932SOL    HW129255   0.557   2.060  12.882  1.8288 -0.7698  0.2544
 5932SOL    HW229256   0.514   1.921  12.849  0.7183  0.9941  2.4813
 5933SOL     OW29257   2.437   3.349   4.870  0.2208  0.2366 -0.4598
 5933SOL    HW129258   2.491   3.402   4.811  0.3151 -0.1119 -0.6870
 5933SOL    HW229259   2.371   3.409   4.906  0.1596  0.1634 -0.4510
 5934SOL     OW29260   3.907   4.525   3.398  0.2061  0.3041 -0.0246
 5934SOL    HW129261   3.929   4.441   3.358  0.3768  0.5923 -0.5236
 5934SOL    HW229262   3.991   4.569   3.410  0.1262  0.5354 -0.3294
 5935SOL     OW29263   3.434   0.371   6.312  0.2855  0.0548 -0.7028
 5935SOL    HW129264   3.465   0.280   6.317 -1.8298 -0.6607 -0.7585
 5935SOL    HW229265   3.448   0.398   6.403 -0.4489 -0.0788 -0.5550
 5936SOL     OW29266   2.408   1.505   6.630 -0.1981 -0.1040 -0.5393
 5936SOL    HW129267   2.468   1.552   6.687  2.2470 -1.7299 -1.7956
 5936SOL    HW229268   2.389   1.431   6.688  0.7460 -1.2752 -1.7240
 5937SOL     OW29269   2.450   0.780   3.834 -0.3043 -0.3603 -0.0870
 5937SOL    HW129270   2.389   0.710   3.812 -0.3856  0.1022 -1.3428
 5937SOL    HW229271   2.526   0.723   3.826 -0.7126 -0.7915 -0.8883
 5938SOL     OW29272   2.676   2.785   4.428 -0.3439 -0.0299 -0.2338
 5938SOL    HW129273   2.640   2.798   4.515 -0.3675 -0.5019 -0.1716
 5938SOL    HW229274   2.732   2.707   4.432 -0.7955 -0.1958  2.6338
 5939SOL     OW29275   1.003   0.169  11.051 -0.1724  0.4488  0.0072
 5939SOL    HW129276   1.078   0.129  11.093 -0.4233  0.1067  0.1274
 5939SOL    HW229277   1.039   0.198  10.967  0.4119  1.5344  0.6362
 5940SOL     OW29278   0.022   3.302  16.634  0.4260 -0.7655 -0.3604
 5940SOL    HW129279   0.051   3.350  16.556 -0.8125  0.0054 -0.3349
 5940SOL    HW229280   0.054   3.356  16.706  1.8874  0.7029 -2.1094
 5941SOL     OW29281   0.781   0.357   4.001 -0.0686  0.3175 -0.2652
 5941SOL    HW129282   0.838   0.415   3.951  0.2869 -0.8001 -1.1775
 5941SOL    HW229283   0.838   0.280   4.004 -0.1703  0.2300 -0.5170
 5942SOL     OW29284   4.718   0.140   2.376  0.0063 -0.1887 -0.4621
 5942SOL    HW129285   4.625   0.124   2.388  0.1143 -0.4917 -0.0328
 5942SOL    HW229286   0.012   0.069   2.314  2.2257  0.9732 -1.2072
 5943SOL     OW29287   1.509   4.000   4.159 -0.0356 -0.2306 -0.8999
 5943SOL    HW129288   1.522   4.027   4.250  1.3900 -2.1718 -0.5267
 5943SOL    HW229289   1.536   3.908   4.166  1.5043  0.4486  2.1169
 5944SOL     OW29290   3.231   0.808  17.248  0.1469  0.0480  0.5194
 5944SOL    HW129291   3.177   0.730  17.237  0.5439 -0.0900 -0.5448
 5944SOL    HW229292   3.320   0.772  17.246  0.0550 -0.1725  0.3880
 5945SOL     OW29293   0.502   0.673   4.452  0.3532  0.3183 -0.0424
 5945SOL    HW129294   0.432   0.609   4.446 -1.3981  2.0931  1.5738
 5945SOL    HW229295   0.586   0.630   4.467  0.7295  1.2124  0.4011
 5946SOL     OW29296   4.414   3.129   3.266 -0.0982  0.6869 -0.5272
 5946SOL    HW129297   4.470   3.053   3.253 -0.9393 -0.5095  2.7779
 5946SOL    HW229298   4.392   3.110   3.358  0.7608  1.7265 -0.1166
 5947SOL     OW29299   2.705   4.591  17.436  0.9917 -0.8358 -0.4103
 5947SOL    HW129300   2.775   4.580  17.500 -1.1061  0.0376  2.0433
 5947SOL    HW229301   2.631   4.593  17.496  1.4148  0.2841  0.0798
 5948SOL     OW29302   0.730   2.515   9.247 -0.3780 -0.1402  0.1537
 5948SOL    HW129303   0.709   2.603   9.216  1.3188  0.4777  0.7570
 5948SOL    HW229304   0.714   2.521   9.341  2.6651  2.2843  0.5067
 5949SOL     OW29305   1.335   1.603   1.269 -0.1303 -0.5197 -0.5419
 5949SOL    HW129306   1.242   1.585   1.255  0.0324  0.0445 -2.3938
 5949SOL    HW229307   1.354   1.634   1.181 -1.6891  0.0113 -0.6994
 5950SOL     OW29308   3.714   3.490   7.605 -0.1406 -0.3663  0.1036
 5950SOL    HW129309   3.644   3.424   7.607 -0.0942 -0.4157  0.1092
 5950SOL    HW229310   3.668   3.562   7.562  1.4474  0.1545 -0.7243
 5951SOL     OW29311   3.256   1.662   3.387 -0.5266  0.0699 -0.5464
 5951SOL    HW129312   3.165   1.687   3.372 -0.6234  0.1450  0.1847
 5951SOL    HW229313   3.277   1.633   3.298 -0.9696  1.2260 -1.0317
 5952SOL     OW29314   1.938   3.379   2.111  0.1128 -0.3236 -0.5703
 5952SOL    HW129315   1.845   3.381   2.090 -0.3177 -0.8730  1.3017
 5952SOL    HW229316   1.989   3.376   2.030  1.1464 -0.1619  0.0710
 5953SOL     OW29317   4.360   3.052   3.525  0.4683  0.0897  0.2556
 5953SOL    HW129318   4.380   3.108   3.600 -1.5089 -1.6297  2.0806
 5953SOL    HW229319   4.266   3.035   3.533  0.5542 -0.6492 -0.2711
 5954SOL     OW29320   3.906   0.433   7.994 -0.5105  0.0686 -0.2190
 5954SOL    HW129321   3.918   0.498   8.063 -1.8367 -0.2223  0.2903
 5954SOL    HW229322   3.860   0.492   7.935 -2.6521 -1.8297 -0.4374
 5955SOL     OW29323   0.101   1.956   1.537 -0.0079  0.4494 -0.4693
 5955SOL    HW129324   0.045   1.887   1.502 -0.9507  0.3999  1.1110
 5955SOL    HW229325   0.030   2.021   1.541 -0.6984 -0.3855  1.0021
 5956SOL     OW29326   2.520   3.550  17.010 -0.0782 -0.5969 -1.3330
 5956SOL    HW129327   2.450   3.501  17.053  0.8695  0.1462  1.0962
 5956SOL    HW229328   2.472   3.581  16.933 -1.5673  0.7225  0.1178
 5957SOL     OW29329   2.800   4.093   9.456 -0.1395 -0.2160 -0.2918
 5957SOL    HW129330   2.804   4.142   9.538 -0.4964 -1.2843  0.3639
 5957SOL    HW229331   2.890   4.101   9.425  0.6750 -0.0722  2.0756
 5958SOL     OW29332   2.404   2.318   7.897  0.5250 -0.3544  1.0323
 5958SOL    HW129333   2.342   2.325   7.824 -1.7168  0.3791  3.0102
 5958SOL    HW229334   2.344   2.288   7.966 -1.0902  0.2172 -0.1191
 5959SOL     OW29335   1.657   1.200   2.150  0.2503  0.2679  0.4060
 5959SOL    HW129336   1.676   1.205   2.243 -0.1288 -1.6966  0.5893
 5959SOL    HW229337   1.645   1.295   2.141 -3.0726 -0.4324 -2.5896
 5960SOL     OW29338   2.578   2.155   7.708  0.1201 -0.2232 -0.0633
 5960SOL    HW129339   2.535   2.200   7.781 -1.0388  0.9126 -1.4231
 5960SOL    HW229340   2.668   2.178   7.727 -0.9212  2.0841  2.1117
 5961SOL     OW29341   0.806   0.104  10.875 -0.5362  0.0308  0.3194
 5961SOL    HW129342   0.808   0.029  10.934 -1.7091  0.7621  1.2930
 5961SOL    HW229343   0.837   0.170  10.937 -1.6833 -0.2558  1.1979
 5962SOL     OW29344   1.188   3.053  17.169 -0.5021 -0.2450 -0.1789
 5962SOL    HW129345   1.255   3.120  17.156 -1.7184  0.6658 -1.9195
 5962SOL    HW229346   1.109   3.107  17.160  1.3386  2.5057  0.1604
 5963SOL     OW29347   2.121   1.677   2.892 -0.2615  0.3306 -0.4430
 5963SOL    HW129348   2.055   1.649   2.829  0.8155 -0.0163 -1.4089
 5963SOL    HW229349   2.204   1.672   2.845  0.8062  2.2273  1.2083
 5964SOL     OW29350   4.369   0.536   3.418  0.0415  0.1638 -0.0064
 5964SOL    HW129351   4.354   0.524   3.324 -2.9910 -0.2547  0.5368
 5964SOL    HW229352   4.294   0.481   3.439  0.1485  0.8080  2.0495
 5965SOL     OW29353   4.227   2.700   5.734 -0.5059  0.4507 -0.3239
 5965SOL    HW129354   4.141   2.710   5.694  0.1900 -0.2160 -2.0216
 5965SOL    HW229355   4.209   2.634   5.800  0.1548  1.1830  0.5797
 5966SOL     OW29356   0.249   0.228  10.217  0.0647  0.2354  0.1783
 5966SOL    HW129357   0.268   0.246  10.125  0.9253 -1.0498  0.1097
 5966SOL    HW229358   0.284   0.142  10.240  2.6772  1.5828  1.3284
 5967SOL     OW29359   2.729   1.101   8.404  0.1068  0.1753 -0.2166
 5967SOL    HW129360   2.819   1.068   8.405  0.2125  0.4125 -1.2470
 5967SOL    HW229361   2.686   1.017   8.387 -1.4336  0.9217 -0.0472
 5968SOL     OW29362   2.611   4.660   6.770  0.3513 -0.0849 -0.2045
 5968SOL    HW129363   2.575   4.660   6.858 -0.0231 -1.6460 -0.3612
 5968SOL    HW229364   2.705   4.640   6.774  0.9104  2.4520 -0.2590
 5969SOL     OW29365   2.933   2.381   6.466 -0.7101 -0.1918  0.1034
 5969SOL    HW129366   2.965   2.425   6.387  0.3499 -0.9726  0.1027
 5969SOL    HW229367   2.938   2.460   6.520  3.3372  0.0739 -0.6439
 5970SOL     OW29368   0.247   4.479  11.898 -0.1615  0.4532 -0.3681
 5970SOL    HW129369   0.327   4.431  11.875 -0.5889 -1.4701  2.1772
 5970SOL    HW229370   0.247   4.475  11.993  1.0018  0.5177 -0.3551
 5971SOL     OW29371   3.938   2.452   5.793  0.3999 -0.9124 -0.2468
 5971SOL    HW129372   3.896   2.440   5.707  0.5661  1.2911 -0.6365
 5971SOL    HW229373   3.985   2.369   5.802  0.4674 -1.0294 -1.6710
 5972SOL     OW29374   0.670   0.896   4.605 -0.4384  0.3588  0.4028
 5972SOL    HW129375   0.588   0.943   4.592 -0.3432  0.4232  0.0325
 5972SOL    HW229376   0.719   0.964   4.650 -0.1948  0.2083  0.3598
 5973SOL     OW29377   0.360   4.463   3.747 -0.4347  0.1501 -0.3702
 5973SOL    HW129378   0.276   4.442   3.705 -0.1327 -0.7626 -0.5170
 5973SOL    HW229379   0.413   4.416   3.682  1.5300 -1.8535  2.6957
 5974SOL     OW29380   3.099   4.262   3.173 -0.5328  0.3240 -0.2312
 5974SOL    HW129381   3.045   4.309   3.109 -1.2180 -1.1508 -0.7427
 5974SOL    HW229382   3.056   4.291   3.253  1.3890  0.6330  0.6893
 5975SOL     OW29383   4.653   3.075  16.537 -0.2264  0.5000 -0.5944
 5975SOL    HW129384   4.697   3.158  16.556  2.0295 -0.5343 -1.2073
 5975SOL    HW229385   4.568   3.082  16.580 -0.1816  0.4505 -0.4964
 5976SOL     OW29386   3.943   2.128   7.547  0.0647  0.1971  0.0900
 5976SOL    HW129387   4.038   2.129   7.557  0.1929 -1.1278 -0.9862
 5976SOL    HW229388   3.925   2.046   7.500  0.6985  0.9102 -1.3850
 5977SOL     OW29389   0.997   2.496   4.483 -0.7128  0.2638  0.6852
 5977SOL    HW129390   1.078   2.501   4.432  0.0311  0.5457  1.8645
 5977SOL    HW229391   1.004   2.575   4.537  0.5509 -0.0316  0.9675
 5978SOL     OW29392   4.390   4.300   5.881 -0.6632 -0.5033 -0.2792
 5978SOL    HW129393   4.483   4.302   5.901 -0.7534  2.1713 -0.1123
 5978SOL    HW229394   4.365   4.389   5.905  1.6984 -0.1215  0.7667
 5979SOL     OW29395   4.268   2.817   9.470  0.1020  0.4421 -0.2827
 5979SOL    HW129396   4.191   2.861   9.434  1.8535  2.5106 -1.4919
 5979SOL    HW229397   4.257   2.842   9.562 -1.4938 -0.1714 -0.3140
 5980SOL     OW29398   0.110   1.397   3.019  0.0029 -0.0136  0.1233
 5980SOL    HW129399   0.014   1.401   3.024 -0.0536 -0.0166 -0.9162
 5980SOL    HW229400   0.132   1.459   2.949  2.0336  0.5541  1.2758
 5981SOL     OW29401   0.645   1.563   8.680  0.2165  0.1360  0.0937
 5981SOL    HW129402   0.593   1.639   8.654  0.1975 -0.0165 -0.3059
 5981SOL    HW229403   0.721   1.606   8.720  0.1759  0.3114 -0.0205
 5982SOL     OW29404   2.468   0.527   6.762  0.0825  0.2678  0.3010
 5982SOL    HW129405   2.534   0.549   6.829  1.3628 -2.2865 -0.1424
 5982SOL    HW229406   2.397   0.549   6.823 -1.2547  1.5251 -1.7263
 5983SOL     OW29407   1.466   1.998  11.900 -0.4149 -0.0120 -0.0108
 5983SOL    HW129408   1.403   1.926  11.901 -1.2975  0.7595  0.1729
 5983SOL    HW229409   1.543   1.951  11.868 -0.6692 -0.9969  0.8215
 5984SOL     OW29410   1.009   3.444   2.436 -0.0888 -0.2010  0.2374
 5984SOL    HW129411   1.078   3.378   2.432 -0.3797 -0.6689  3.3015
 5984SOL    HW229412   0.946   3.399   2.492  1.5379 -1.4955  1.0269
 5985SOL     OW29413   0.645   0.019   1.836  0.1292  0.1490  0.0937
 5985SOL    HW129414   0.632   0.104   1.794 -1.1568  1.0689  2.3959
 5985SOL    HW229415   0.689   0.045   1.916 -0.9116  1.0844  0.3591
 5986SOL     OW29416   2.137   0.915  15.382  0.0391 -0.4225 -0.3874
 5986SOL    HW129417   2.070   0.853  15.353  0.2487 -0.1898 -1.3921
 5986SOL    HW229418   2.218   0.894  15.335 -1.7838 -2.3113 -2.6545
 5987SOL     OW29419   4.015   3.296   4.393  0.6808  0.4432 -0.4741
 5987SOL    HW129420   4.073   3.311   4.468  0.4598 -0.8340 -0.0493
 5987SOL    HW229421   3.960   3.373   4.379 -0.6083 -0.4052 -0.0525
 5988SOL     OW29422   0.886   3.137   7.690 -0.2290 -0.6287 -0.6882
 5988SOL    HW129423   0.910   3.201   7.757 -0.4078 -0.0317 -1.2013
 5988SOL    HW229424   0.866   3.190   7.613 -1.5362 -0.2041 -0.0573
 5989SOL     OW29425   2.365   0.729   2.995 -0.4284 -0.0772 -0.1112
 5989SOL    HW129426   2.303   0.680   2.939 -0.1390  0.4288 -0.8786
 5989SOL    HW229427   2.450   0.712   2.954 -0.2229 -1.0940  0.7456
 5990SOL     OW29428   3.965   3.352   8.623  0.3479 -0.3222 -0.4428
 5990SOL    HW129429   3.874   3.332   8.644 -0.1206  1.4209 -0.7974
 5990SOL    HW229430   4.021   3.350   8.702  0.4824 -0.4999 -0.5432
 5991SOL     OW29431   4.505   4.074  15.313 -0.3365  0.0987 -0.1969
 5991SOL    HW129432   4.509   4.026  15.395 -0.3377  1.8459  0.8242
 5991SOL    HW229433   4.550   4.018  15.250 -0.9793  1.0228 -1.5018
 5992SOL     OW29434   1.285   4.415   8.097 -0.1113  0.2953  0.6072
 5992SOL    HW129435   1.361   4.386   8.046 -0.0796 -0.3017  0.9933
 5992SOL    HW229436   1.324   4.449   8.177  0.3705  0.1515  0.4347
 5993SOL     OW29437   2.276   3.927   5.223  0.0205  0.4058  0.1458
 5993SOL    HW129438   2.285   4.019   5.246  1.4257  0.2693  0.1296
 5993SOL    HW229439   2.260   3.890   5.310  0.0295  0.3389  0.1186
 5994SOL     OW29440   2.099   1.412   2.219  0.4043 -0.3628  0.3310
 5994SOL    HW129441   2.159   1.483   2.239  0.8596 -0.3340 -1.1279
 5994SOL    HW229442   2.036   1.419   2.290  0.1619 -1.1495  0.1973
 5995SOL     OW29443   0.538   1.686  13.821  0.3826  0.5167  0.2485
 5995SOL    HW129444   0.506   1.635  13.747  0.8437  1.4424 -0.5758
 5995SOL    HW229445   0.483   1.764  13.822  0.9441  0.9319 -2.0834
 5996SOL     OW29446   1.233   2.927   1.843 -0.2060 -0.1116 -0.2322
 5996SOL    HW129447   1.194   2.862   1.902  0.0057 -0.2615 -0.2576
 5996SOL    HW229448   1.186   3.004   1.874  0.4064 -0.0407  0.5342
 5997SOL     OW29449   0.564   3.712  11.643 -0.3274  1.2738 -0.7939
 5997SOL    HW129450   0.601   3.744  11.726  2.0100  1.2533 -1.8399
 5997SOL    HW229451   0.515   3.637  11.678  1.6482  1.2764  1.9818
 5998SOL     OW29452   1.359   1.798   3.977  0.3380  0.2041 -0.2096
 5998SOL    HW129453   1.284   1.830   3.926  0.6071  0.4488 -0.4564
 5998SOL    HW229454   1.354   1.704   3.959 -1.4500  0.4709 -1.1252
 5999SOL     OW29455   0.423   3.334   2.391 -0.3377  0.6765  0.4082
 5999SOL    HW129456   0.514   3.316   2.412 -0.0332  2.1683  0.3783
 5999SOL    HW229457   0.428   3.423   2.354  0.3592  0.6970  0.5495
 6000SOL     OW29458   0.620   4.065   1.064  0.0756  0.1530  0.3240
 6000SOL    HW129459   0.631   4.055   0.969 -2.8300 -0.4044  0.0521
 6000SOL    HW229460   0.674   4.139   1.092 -2.3293  2.0779 -0.1837
 6001SOL     OW29461   1.120   0.262   9.114 -0.0358  0.3624 -0.2516
 6001SOL    HW129462   1.058   0.244   9.184  0.7865 -0.1131  0.3624
 6001SOL    HW229463   1.187   0.194   9.121  0.7304  1.1761  0.3945
 6002SOL     OW29464   0.822   3.956   4.344  0.0154  0.1822 -0.0732
 6002SOL    HW129465   0.876   3.915   4.412  0.6755  1.9581  0.5019
 6002SOL    HW229466   0.732   3.936   4.370  0.9463 -2.4937  1.0089
 6003SOL     OW29467   1.862   3.350   4.669  0.1159 -0.0017  0.0551
 6003SOL    HW129468   1.783   3.385   4.710  0.3016  1.6396 -0.9517
 6003SOL    HW229469   1.824   3.278   4.619 -0.3679 -0.6232  1.3252
 6004SOL     OW29470   1.418   0.418   9.440 -0.0867  0.0560  0.1419
 6004SOL    HW129471   1.323   0.420   9.443 -0.0890  1.6086 -0.9074
 6004SOL    HW229472   1.443   0.391   9.528 -2.0008 -0.3659  0.5471
 6005SOL     OW29473   4.480   2.913   6.065 -0.6094 -0.3800 -0.0696
 6005SOL    HW129474   4.516   2.999   6.046  0.0483 -0.7797 -0.6479
 6005SOL    HW229475   4.406   2.901   6.005  1.5880 -2.6286 -2.3161
 6006SOL     OW29476   2.917   2.492   3.595 -0.1838 -0.4105  0.4561
 6006SOL    HW129477   2.849   2.511   3.661  0.6142  2.0668  0.5565
 6006SOL    HW229478   2.866   2.498   3.514 -1.3570 -0.7991  1.1587
 6007SOL     OW29479   3.938   4.637   8.026 -0.4950  0.6155 -0.5832
 6007SOL    HW129480   4.031   4.618   8.025 -0.7226 -0.5164  0.4366
 6007SOL    HW229481   3.935   0.010   8.033 -1.6390  0.5742 -0.4036
 6008SOL     OW29482   3.010   2.811  17.349 -0.2456  0.2371 -0.4238
 6008SOL    HW129483   3.013   2.890  17.296  1.5984  0.0702 -0.5649
 6008SOL    HW229484   3.103   2.790  17.343 -0.4332 -0.8820  0.5296
 6009SOL     OW29485   2.946   4.125   2.499 -0.0845 -0.2341 -0.4007
 6009SOL    HW129486   2.914   4.036   2.481 -1.6255  0.1630  0.3460
 6009SOL    HW229487   2.868   4.164   2.539  0.3054 -2.0695  2.1138
 6010SOL     OW29488   3.359   0.325   0.883 -0.4359  0.2268 -0.5514
 6010SOL    HW129489   3.371   0.355   0.973  2.1883 -0.7841 -0.5645
 6010SOL    HW229490   3.415   0.248   0.880 -0.2909  0.4079 -2.0942
 6011SOL     OW29491   4.414   0.376   8.376  0.0149  0.6946  1.0853
 6011SOL    HW129492   4.479   0.306   8.381  0.0106  0.7699  2.0601
 6011SOL    HW229493   4.419   0.406   8.466 -0.4597  0.7873  1.0836
 6012SOL     OW29494   0.898   3.103   2.304 -0.1812 -0.0303 -0.2013
 6012SOL    HW129495   0.931   3.190   2.282 -1.7433  0.9285  1.3021
 6012SOL    HW229496   0.963   3.042   2.269 -0.5157  0.4875 -1.7192
 6013SOL     OW29497   3.234   0.396   4.145 -0.0714  0.1742  0.5446
 6013SOL    HW129498   3.274   0.310   4.132  2.0827  1.0336  1.4854
 6013SOL    HW229499   3.244   0.434   4.057  3.3631  0.3282  0.9935
 6014SOL     OW29500   0.617   3.933   5.270  0.4726 -0.0552  0.1293
 6014SOL    HW129501   0.609   4.027   5.251 -0.0039 -0.2420 -0.5867
 6014SOL    HW229502   0.601   3.887   5.188 -0.5133  1.3802 -0.4878
 6015SOL     OW29503   2.067   3.520  10.941  0.7380 -0.2238 -0.6041
 6015SOL    HW129504   2.079   3.485  11.029  2.1040  0.7211 -0.4241
 6015SOL    HW229505   1.975   3.498  10.926  0.9127 -0.7457 -0.8977
 6016SOL     OW29506   2.328   1.995   4.862  0.0026 -0.9066  0.4134
 6016SOL    HW129507   2.268   2.017   4.934  1.7670  1.8792  1.0243
 6016SOL    HW229508   2.376   2.075   4.843  0.7161 -1.7326 -1.2964
 6017SOL     OW29509   4.702   0.014   9.855 -0.1084 -0.0972  0.0208
 6017SOL    HW129510   4.700   4.695   9.769 -0.9076 -1.6724  0.8003
 6017SOL    HW229511   4.667   0.101   9.835  0.9341  0.4734  0.6499
 6018SOL     OW29512   4.011   3.613  16.885 -0.1161 -0.8568  0.2341
 6018SOL    HW129513   4.008   3.572  16.971  2.4473  0.1152  0.8125
 6018SOL    HW229514   4.104   3.636  16.887 -0.2706 -0.3108  1.0667
 6019SOL     OW29515   3.596   1.182   3.039 -0.2398 -0.3553  0.2964
 6019SOL    HW129516   3.594   1.136   3.123 -1.9908 -3.5477 -1.4850
 6019SOL    HW229517   3.678   1.146   3.004 -1.4101 -0.6298 -2.1588
 6020SOL     OW29518   3.044   2.727  12.653 -0.3192  0.3855  0.0287
 6020SOL    HW129519   3.108   2.777  12.603 -0.9656  0.3203 -0.8624
 6020SOL    HW229520   2.989   2.796  12.691 -1.5371 -0.6188  0.0894
 6021SOL     OW29521   0.995   0.911   7.608  0.0005  0.5857 -0.3212
 6021SOL    HW129522   0.919   0.899   7.666  0.3975 -0.2455  0.0374
 6021SOL    HW229523   0.957   0.976   7.549  0.6715  1.5067  0.2756
 6022SOL     OW29524   1.732   3.433   0.382 -0.3986 -0.0125 -0.0577
 6022SOL    HW129525   1.799   3.368   0.359  1.0707  1.5596 -0.2025
 6022SOL    HW229526   1.675   3.367   0.422  0.1557 -0.2105  0.4264
 6023SOL     OW29527   0.376   3.238   3.476  0.1428  0.0401  0.0436
 6023SOL    HW129528   0.404   3.323   3.442  2.8378 -0.0191  2.1487
 6023SOL    HW229529   0.341   3.259   3.562 -0.1297 -1.0505  0.2108
 6024SOL     OW29530   0.822   1.781   3.936  0.4888  0.2820 -0.9833
 6024SOL    HW129531   0.777   1.740   4.010 -0.2049 -2.3032 -2.8001
 6024SOL    HW229532   0.766   1.745   3.868 -0.1304 -0.5486 -0.0381
 6025SOL     OW29533   1.340   2.717  14.750  0.1679 -0.1985  0.1632
 6025SOL    HW129534   1.259   2.710  14.801  0.3559  1.5800  0.6890
 6025SOL    HW229535   1.320   2.675  14.666  2.6810  0.5890 -0.8295
 6026SOL     OW29536   3.080   3.509  10.017  0.1388  0.4095 -0.1456
 6026SOL    HW129537   3.137   3.586  10.017 -1.1850  1.3798 -2.8575
 6026SOL    HW229538   3.079   3.500  10.112 -0.5155  1.2214 -0.0803
 6027SOL     OW29539   2.361   4.197   6.930  0.2982 -0.3965  0.2831
 6027SOL    HW129540   2.362   4.118   6.983 -0.2137 -0.6682 -0.1197
 6027SOL    HW229541   2.281   4.178   6.882  0.3364  0.8656 -0.2740
 6028SOL     OW29542   1.267   4.436  14.848 -0.1244  0.4232 -0.0232
 6028SOL    HW129543   1.338   4.405  14.792 -1.0288 -0.3188 -0.7659
 6028SOL    HW229544   1.199   4.430  14.781 -2.2362 -1.3498  2.2545
 6029SOL     OW29545   4.434   2.229   9.230  0.4214  0.3046 -0.2182
 6029SOL    HW129546   4.341   2.244   9.211  0.5835  0.2703 -1.0511
 6029SOL    HW229547   4.485   2.297   9.185 -0.3245  1.0761  0.0978
 6030SOL     OW29548   0.047   1.893   2.202 -1.1723 -0.3174 -0.5886
 6030SOL    HW129549   0.062   1.926   2.291  0.0150  1.2820 -1.3750
 6030SOL    HW229550   0.049   1.800   2.223  0.6536 -0.3270 -0.8450
 6031SOL     OW29551   4.465   0.023  10.852  0.2883 -0.1613 -0.4960
 6031SOL    HW129552   4.379   4.704  10.852 -0.2074  0.8750 -0.2022
 6031SOL    HW229553   4.477   0.044  10.945  0.9671 -1.0255 -0.3845
 6032SOL     OW29554   2.170   2.929   9.204  0.2593 -0.2360 -0.5617
 6032SOL    HW129555   2.171   3.024   9.220  0.8249 -0.3146 -0.1430
 6032SOL    HW229556   2.233   2.904   9.272 -0.4750 -1.6429 -0.4168
 6033SOL     OW29557   3.690   0.740   9.246  0.3220 -0.2705 -0.2512
 6033SOL    HW129558   3.727   0.826   9.225 -0.6032 -0.1795 -1.5010
 6033SOL    HW229559   3.750   0.728   9.319 -1.1094  1.7925  1.3045
 6034SOL     OW29560   1.515   1.476   9.172 -0.1104 -0.1189 -0.5401
 6034SOL    HW129561   1.459   1.546   9.206  1.1008  0.6123 -0.0738
 6034SOL    HW229562   1.585   1.525   9.129 -1.0581  0.8123 -1.0281
 6035SOL     OW29563   3.919   1.592   4.066  0.0931 -0.1121 -0.3912
 6035SOL    HW129564   3.916   1.559   4.155  0.5296  1.2614  0.1372
 6035SOL    HW229565   3.843   1.651   4.063  1.4418  1.7325  2.3210
 6036SOL     OW29566   2.575   4.034   8.255  0.3924  0.7224  0.2697
 6036SOL    HW129567   2.556   4.035   8.348  4.3114 -0.1276  1.0919
 6036SOL    HW229568   2.498   3.988   8.221  0.0473  1.0237  0.6553
 6037SOL     OW29569   0.674   4.647   5.159  0.0456 -0.2245  0.0227
 6037SOL    HW129570   0.700   4.706   5.229 -0.5185 -1.3159  1.1578
 6037SOL    HW229571   0.634   4.702   5.092  0.2022 -2.2248 -1.7091
 6038SOL     OW29572   4.207   0.092  14.329  0.0893  0.1363 -0.3359
 6038SOL    HW129573   4.286   0.128  14.369 -0.7874  0.4073  1.1387
 6038SOL    HW229574   4.213   0.124  14.239  1.9466  2.2129  0.5198
 6039SOL     OW29575   4.192   2.676   3.740 -0.1975 -0.7414 -0.0483
 6039SOL    HW129576   4.117   2.658   3.683 -0.0779  0.7581 -0.6587
 6039SOL    HW229577   4.183   2.604   3.803 -0.8747  0.1931  0.9198
 6040SOL     OW29578   2.543   4.352   3.909 -0.5384 -0.8019  0.4477
 6040SOL    HW129579   2.490   4.429   3.927 -1.3806 -0.8196 -1.9243
 6040SOL    HW229580   2.616   4.398   3.870 -1.1254  0.1672  0.4984
 6041SOL     OW29581   1.495   1.175   3.542  0.6971  0.3629 -0.5890
 6041SOL    HW129582   1.492   1.230   3.621 -0.6996 -1.5030  0.6566
 6041SOL    HW229583   1.558   1.105   3.558  0.5121  0.3256 -0.0295
 6042SOL     OW29584   1.244   1.519   2.000  0.6673  0.3484  0.0406
 6042SOL    HW129585   1.167   1.464   2.003 -0.0548  1.4238  1.3505
 6042SOL    HW229586   1.228   1.564   2.083  2.0826  1.6714 -0.3862
 6043SOL     OW29587   0.651   0.721   4.144  0.1639  0.2124  0.2756
 6043SOL    HW129588   0.728   0.724   4.201 -1.1181  1.9071  1.9256
 6043SOL    HW229589   0.587   0.778   4.186  0.5399  1.0285 -0.2708
 6044SOL     OW29590   3.351   3.181   7.029 -0.1863 -0.0468  0.0043
 6044SOL    HW129591   3.380   3.155   6.942 -1.4099  1.7323 -0.9335
 6044SOL    HW229592   3.436   3.221   7.049 -0.0794 -0.2083 -0.1283
 6045SOL     OW29593   1.868   0.770   5.011  0.8553  0.4126  0.3061
 6045SOL    HW129594   1.888   0.683   4.976  0.3631  1.1257 -1.7779
 6045SOL    HW229595   1.779   0.750   5.040  0.2060  0.3242 -1.7259
 6046SOL     OW29596   4.405   3.206  14.922  0.0178 -0.0653  0.1883
 6046SOL    HW129597   4.316   3.210  14.958  1.7765  0.7626  4.4506
 6046SOL    HW229598   4.395   3.178  14.831  1.5333 -1.0462  0.3317
 6047SOL     OW29599   3.011   2.986   3.532  0.1126  0.2735  0.1774
 6047SOL    HW129600   3.039   3.077   3.524  1.0103 -0.2769 -2.8103
 6047SOL    HW229601   3.093   2.956   3.572 -0.2638 -0.6022  0.2880
 6048SOL     OW29602   1.233   4.115   3.621 -0.6539  0.0309 -0.1147
 6048SOL    HW129603   1.322   4.116   3.586 -0.5783  0.2348  0.0822
 6048SOL    HW229604   1.264   4.086   3.707 -1.2672 -0.0177  0.0894
 6049SOL     OW29605   4.685   0.841  15.074  0.1046  0.3064  0.0585
 6049SOL    HW129606   4.694   0.752  15.108  0.3176  0.5008  0.5019
 6049SOL    HW229607   4.590   0.844  15.067  0.1938  1.8837 -0.4606
 6050SOL     OW29608   1.740   3.009  16.328  0.0328 -0.2900 -0.5145
 6050SOL    HW129609   1.652   3.044  16.322  0.1922  0.2129 -0.0157
 6050SOL    HW229610   1.804   3.081  16.326 -0.5083  0.2015  0.0571
 6051SOL     OW29611   4.416   4.630   9.748 -0.3283 -0.4216  0.0458
 6051SOL    HW129612   4.414   4.689   9.824  1.1466 -0.6816  0.2843
 6051SOL    HW229613   4.378   4.552   9.788  1.1990 -1.6259 -0.8501
 6052SOL     OW29614   3.604   3.473   4.975  0.5722  0.1188 -0.3401
 6052SOL    HW129615   3.695   3.492   4.997 -0.1575  1.5568  1.4693
 6052SOL    HW229616   3.564   3.552   4.937 -2.2713 -0.3560  1.6680
 6053SOL     OW29617   3.659   1.523   4.729  0.1576 -0.4185 -0.6629
 6053SOL    HW129618   3.569   1.509   4.756  0.3045  0.6396  0.3591
 6053SOL    HW229619   3.654   1.591   4.661 -0.0456  0.6817  0.4506
 6054SOL     OW29620   2.243   2.889   7.345 -0.3498  0.0248 -0.4576
 6054SOL    HW129621   2.257   2.805   7.300 -0.3602 -0.0648 -0.2919
 6054SOL    HW229622   2.314   2.883   7.408 -1.1819  1.3576  0.6037
 6055SOL     OW29623   1.992   1.694   0.630  0.1713 -0.4660  0.0690
 6055SOL    HW129624   1.914   1.746   0.649 -0.2618 -0.2719 -2.2187
 6055SOL    HW229625   2.050   1.764   0.598 -3.4154  2.1417 -0.7147
 6056SOL     OW29626   3.237   4.398   7.494  0.2471 -0.3829 -0.1506
 6056SOL    HW129627   3.281   4.335   7.552 -0.1893 -0.7819 -0.2494
 6056SOL    HW229628   3.290   4.420   7.418 -0.6200 -0.7483 -0.8621
 6057SOL     OW29629   0.488   1.817   5.474 -0.0308 -0.9739  0.0569
 6057SOL    HW129630   0.551   1.799   5.544 -0.3098 -3.6527 -0.3719
 6057SOL    HW229631   0.488   1.729   5.437 -0.8955 -0.7048 -0.5748
 6058SOL     OW29632   3.863   3.941   1.473  0.0417 -0.0662  0.2105
 6058SOL    HW129633   3.783   3.894   1.497  0.4196 -0.8302 -0.0116
 6058SOL    HW229634   3.824   4.007   1.415  2.3502 -0.3812 -1.7240
 6059SOL     OW29635   3.122   3.704  15.903 -0.1145 -0.5447 -0.2712
 6059SOL    HW129636   3.184   3.665  15.965 -0.4382  0.8690  0.9310
 6059SOL    HW229637   3.168   3.706  15.820 -1.2666 -0.5377 -0.9124
 6060SOL     OW29638   4.190   1.077   2.398  0.1283 -0.0561  0.2996
 6060SOL    HW129639   4.239   1.124   2.330  0.7094  1.4523  1.7471
 6060SOL    HW229640   4.114   1.133   2.415 -0.6400 -1.3171  1.0447
 6061SOL     OW29641   4.084   3.574   4.124  0.0222  0.3276  0.5404
 6061SOL    HW129642   4.040   3.507   4.072  0.9254 -0.3000  0.5883
 6061SOL    HW229643   4.037   3.568   4.208 -0.9444  0.3904  0.0046
 6062SOL     OW29644   4.630   0.518   1.296  0.1268 -0.4678  0.0447
 6062SOL    HW129645   4.602   0.441   1.346  0.9029  0.4771  1.9673
 6062SOL    HW229646   4.691   0.480   1.233  0.3205 -1.6213  0.9211
 6063SOL     OW29647   4.146   0.454  16.790  0.4004 -0.1189  0.0874
 6063SOL    HW129648   4.156   0.506  16.870 -4.2101 -0.8479  1.1548
 6063SOL    HW229649   4.120   0.520  16.726  1.0003  0.6682  0.6592
 6064SOL     OW29650   0.677   1.010   5.349  0.0099  0.0290 -0.3294
 6064SOL    HW129651   0.724   1.069   5.407 -0.5934 -0.8138  0.9947
 6064SOL    HW229652   0.725   1.022   5.267 -0.0667 -0.6213 -0.4674
 6065SOL     OW29653   3.229   3.094   2.882  0.0339  0.0609 -0.5196
 6065SOL    HW129654   3.201   3.003   2.892  1.0800 -0.3875 -1.7049
 6065SOL    HW229655   3.259   3.101   2.973  1.1925  0.3584 -0.9146
 6066SOL     OW29656   3.357   2.871   1.698  0.1196 -0.0103 -0.1739
 6066SOL    HW129657   3.334   2.923   1.774  1.9218  2.4298 -1.3067
 6066SOL    HW229658   3.447   2.903   1.692  0.8145 -1.7997  0.6440
 6067SOL     OW29659   0.243   0.432   4.906 -0.2814  0.1059 -0.5991
 6067SOL    HW129660   0.169   0.374   4.926  0.5620 -0.9213 -0.5232
 6067SOL    HW229661   0.230   0.437   4.811 -1.4640  0.8721 -0.4064
 6068SOL     OW29662   0.267   3.028   4.692 -0.0941  0.4442  0.0038
 6068SOL    HW129663   0.237   2.937   4.698  2.3597 -0.4147 -0.4588
 6068SOL    HW229664   0.186   3.077   4.679 -0.4024 -0.5154 -1.6319
 6069SOL     OW29665   4.401   4.513   7.551 -0.0653  0.1613 -0.2902
 6069SOL    HW129666   4.379   4.456   7.625  1.4964 -0.1526 -0.0601
 6069SOL    HW229667   4.473   4.566   7.587  0.2353 -0.4264 -0.0212
 6070SOL     OW29668   0.165   3.204   5.208  0.2465  0.3076 -0.3549
 6070SOL    HW129669   0.223   3.212   5.133  2.6249  1.9131  1.6372
 6070SOL    HW229670   0.228   3.206   5.280  1.4806  0.4473 -1.4273
 6071SOL     OW29671   1.774   2.291   5.754  0.7910 -0.3036  0.0681
 6071SOL    HW129672   1.732   2.209   5.781 -0.1319 -0.5803 -2.1693
 6071SOL    HW229673   1.866   2.264   5.750  1.0455  1.0608 -3.1247
 6072SOL     OW29674   1.630   3.385   4.001  0.3451 -0.3764 -0.0276
 6072SOL    HW129675   1.605   3.457   4.059  1.0564 -1.5782  1.7828
 6072SOL    HW229676   1.717   3.399   3.964 -0.2446  0.2185 -1.1826
 6073SOL     OW29677   3.145   1.254   7.457 -0.0264  0.1776  0.0109
 6073SOL    HW129678   3.107   1.268   7.544 -0.5365  2.7584 -0.6352
 6073SOL    HW229679   3.175   1.344   7.439  0.4062 -0.2648 -1.4350
 6074SOL     OW29680   4.550   4.012   6.743  0.0461 -0.4223 -0.1278
 6074SOL    HW129681   4.536   3.923   6.775  0.8162 -0.7920 -0.8200
 6074SOL    HW229682   4.597   4.049   6.817 -0.6878  1.5629 -0.6511
 6075SOL     OW29683   0.028   3.513   8.364 -0.5721  0.7557 -0.0766
 6075SOL    HW129684   0.085   3.528   8.441 -0.2197 -2.3719  0.2653
 6075SOL    HW229685   4.660   3.525   8.394  0.2357  0.7509  2.4071
 6076SOL     OW29686   0.343   1.310  10.092 -0.3571  0.2301  0.0269
 6076SOL    HW129687   0.425   1.320  10.141  0.6881  2.4583 -2.1993
 6076SOL    HW229688   0.339   1.215  10.078  0.2761  0.6856 -3.2231
 6077SOL     OW29689   2.568   2.757   3.904 -0.0069  0.1633  0.3691
 6077SOL    HW129690   2.552   2.847   3.876  0.2359  0.4720  1.2378
 6077SOL    HW229691   2.572   2.781   3.996  0.8104  1.5779 -0.0459
 6078SOL     OW29692   2.125   3.388  11.251  0.0354  0.1961  0.0468
 6078SOL    HW129693   2.032   3.369  11.262  0.8941 -4.1426  0.1243
 6078SOL    HW229694   2.153   3.385  11.343  1.3900  0.2055 -0.3672
 6079SOL     OW29695   1.509   2.784  14.946  0.1190 -0.2962  0.0694
 6079SOL    HW129696   1.451   2.772  14.871  0.0880 -1.3832  0.2733
 6079SOL    HW229697   1.474   2.729  15.016  1.1519 -0.1606  0.6869
 6080SOL     OW29698   4.187   1.991  16.834  0.1195 -0.3352  0.5707
 6080SOL    HW129699   4.245   2.042  16.891  0.6161 -0.3283  0.0567
 6080SOL    HW229700   4.253   1.956  16.775  0.1476  0.9006 -0.1407
 6081SOL     OW29701   4.161   2.909   6.710  0.2191 -0.3748  0.4032
 6081SOL    HW129702   4.152   2.955   6.793 -0.7539  0.4894 -0.1812
 6081SOL    HW229703   4.253   2.882   6.717  0.2746 -1.0732 -2.9530
 6082SOL     OW29704   0.184   1.988  10.260  0.7791 -0.7325  0.3215
 6082SOL    HW129705   0.272   1.953  10.242  0.2613 -0.2860 -3.1276
 6082SOL    HW229706   0.127   1.911  10.250  0.2032 -0.1376 -0.9463
 6083SOL     OW29707   2.112   1.771  16.065 -0.3899  0.1203  0.3314
 6083SOL    HW129708   2.078   1.718  15.993 -0.7084  2.4936 -1.2549
 6083SOL    HW229709   2.172   1.824  16.014  3.3468 -1.3371  3.2018
 6084SOL     OW29710   3.601   2.743  14.683 -0.1192  0.0984 -0.0477
 6084SOL    HW129711   3.626   2.827  14.722  0.3096 -0.0493 -0.0060
 6084SOL    HW229712   3.607   2.760  14.590 -0.4603  3.8132  0.6116
 6085SOL     OW29713   1.384   3.831   7.057 -0.4074  0.6956 -1.1018
 6085SOL    HW129714   1.362   3.908   7.006  0.2286  1.5383 -0.1008
 6085SOL    HW229715   1.302   3.808   7.101 -0.3940 -0.0050 -1.4421
 6086SOL     OW29716   1.350   3.971   3.819  0.4909  0.0315 -0.4831
 6086SOL    HW129717   1.381   3.946   3.733 -0.0122 -1.4810 -0.2219
 6086SOL    HW229718   1.305   3.887   3.831 -0.7082  0.7250 -0.0706
 6087SOL     OW29719   2.860   4.177  11.620 -0.1270 -0.2481 -0.2400
 6087SOL    HW129720   2.898   4.091  11.608  1.0495  0.1231  0.9139
 6087SOL    HW229721   2.914   4.226  11.557  0.2771  0.0697  0.3583
 6088SOL     OW29722   2.600   4.281   8.126  0.3478  0.2070 -0.0633
 6088SOL    HW129723   2.647   4.344   8.181  0.0338  0.9744 -0.6857
 6088SOL    HW229724   2.641   4.205   8.167 -0.3932  0.0706  0.4244
 6089SOL     OW29725   4.074   3.557   8.040 -0.3587 -0.0385  0.2031
 6089SOL    HW129726   4.083   3.579   7.948  0.4639 -1.9331 -0.1633
 6089SOL    HW229727   4.068   3.642   8.083  0.7701 -0.2905  0.8602
 6090SOL     OW29728   0.275   0.120   4.863 -0.1312  0.3265 -0.1766
 6090SOL    HW129729   0.254   0.068   4.786 -1.3183  0.8169 -0.1832
 6090SOL    HW229730   0.212   0.085   4.926  0.5724  0.1484  0.4228
 6091SOL     OW29731   3.208   4.082  13.781 -0.1250 -0.2498  0.1627
 6091SOL    HW129732   3.139   4.126  13.831 -0.5591 -0.0825 -0.5878
 6091SOL    HW229733   3.150   4.027  13.729  3.2514 -5.1213  1.5105
 6092SOL     OW29734   2.365   2.585  16.075 -0.0758 -0.3569 -0.4258
 6092SOL    HW129735   2.284   2.631  16.052  0.8198  0.9638 -0.9461
 6092SOL    HW229736   2.406   2.579  15.989  1.5779 -1.0774  0.4310
 6093SOL     OW29737   1.134   3.476   7.111 -0.0118 -0.7668 -0.2191
 6093SOL    HW129738   1.051   3.432   7.091 -0.8179  0.2289  0.9536
 6093SOL    HW229739   1.197   3.405   7.095  2.0623  1.0116 -0.0090
 6094SOL     OW29740   1.182   2.699  12.000 -0.5642 -0.0419  0.7314
 6094SOL    HW129741   1.271   2.733  11.989 -1.1325  1.5855  1.1175
 6094SOL    HW229742   1.194   2.606  12.017  1.8214 -0.1912 -1.6615
 6095SOL     OW29743   1.090   0.624   7.647 -0.1830 -0.3092  0.2624
 6095SOL    HW129744   1.185   0.622   7.659 -0.3980  1.1763  2.1964
 6095SOL    HW229745   1.071   0.718   7.654  1.1955  0.3071 -4.4430
 6096SOL     OW29746   1.187   1.388  11.158  0.1101 -0.3200  0.0703
 6096SOL    HW129747   1.147   1.474  11.149  2.5514  0.7275 -0.7744
 6096SOL    HW229748   1.236   1.386  11.075 -0.3615  0.3734 -0.2278
 6097SOL     OW29749   1.319   3.143  13.137  0.3006 -0.6103 -0.3182
 6097SOL    HW129750   1.369   3.199  13.079 -1.3570  0.7667 -0.4232
 6097SOL    HW229751   1.375   3.066  13.126  1.1782 -0.1014  0.6565
 6098SOL     OW29752   4.326   1.382   7.861  0.0046  0.4647 -0.1783
 6098SOL    HW129753   4.347   1.296   7.897  0.1694  0.5651 -0.0340
 6098SOL    HW229754   4.337   1.431   7.942  1.0154 -0.9239  0.5356
 6099SOL     OW29755   1.192   1.021   3.510  0.7231 -0.4105  0.6086
 6099SOL    HW129756   1.247   0.949   3.543  2.8110  0.9367  0.0978
 6099SOL    HW229757   1.208   1.034   3.417 -1.7337 -0.4562  0.1927
 6100SOL     OW29758   3.592   1.538   7.048 -0.8936  0.3018 -0.3092
 6100SOL    HW129759   3.637   1.522   6.965 -0.6435 -1.4483  0.1563
 6100SOL    HW229760   3.609   1.458   7.098  1.0390  1.5726  1.1038
 6101SOL     OW29761   3.332   1.951  13.804 -0.4493 -0.8415  0.5117
 6101SOL    HW129762   3.252   1.999  13.784  1.1699  1.3706 -0.6582
 6101SOL    HW229763   3.306   1.899  13.880 -0.2202 -3.3031 -1.0920
 6102SOL     OW29764   2.188   0.323  13.835 -0.5919  0.2826 -0.3242
 6102SOL    HW129765   2.258   0.265  13.864  0.5355  0.7453 -2.0828
 6102SOL    HW229766   2.130   0.257  13.797 -0.6530 -0.2936  0.7767
 6103SOL     OW29767   0.842   3.572   5.537  0.3154 -0.3327  0.5553
 6103SOL    HW129768   0.883   3.639   5.483 -0.8173 -0.4141 -0.4211
 6103SOL    HW229769   0.865   3.498   5.480  0.0174  0.4552 -0.5904
 6104SOL     OW29770   2.486   2.091  12.969  0.2040 -0.2990  0.9319
 6104SOL    HW129771   2.476   2.026  13.039  0.2863 -0.3421  0.9039
 6104SOL    HW229772   2.577   2.082  12.939  0.1743  0.0340  0.7413
 6105SOL     OW29773   3.365   0.278  15.569 -0.5185 -0.1262 -0.1069
 6105SOL    HW129774   3.283   0.326  15.579  0.5428  1.5993  0.3761
 6105SOL    HW229775   3.336   0.188  15.580 -0.2164 -0.4218 -1.6845
 6106SOL     OW29776   0.677   4.469   6.240 -0.3258  0.0939 -0.2048
 6106SOL    HW129777   0.699   4.384   6.202 -2.1808 -0.6795  0.4613
 6106SOL    HW229778   0.725   4.536   6.191 -0.3127  0.6761  0.6071
 6107SOL     OW29779   3.127   0.072   7.355 -0.2623  0.4301 -0.2959
 6107SOL    HW129780   3.091   0.158   7.376  0.4924  0.8110 -0.5521
 6107SOL    HW229781   3.173   0.044   7.434 -0.7665 -2.3387 -0.9888
 6108SOL     OW29782   3.973   4.150   6.496 -0.2030  0.4224 -0.1115
 6108SOL    HW129783   4.057   4.197   6.503  0.4346 -0.8101  0.4852
 6108SOL    HW229784   3.930   4.231   6.468  0.6942  0.6331 -0.8986
 6109SOL     OW29785   4.549   1.064  17.140  0.8220 -0.6269 -0.1645
 6109SOL    HW129786   4.483   1.077  17.208  0.0279 -0.4781 -0.9603
 6109SOL    HW229787   4.508   1.010  17.073 -1.0541  1.8158 -0.9791
 6110SOL     OW29788   1.442   3.427  16.197  0.0458  0.3070  0.3586
 6110SOL    HW129789   1.361   3.457  16.156  0.2437 -2.2316 -1.8072
 6110SOL    HW229790   1.489   3.511  16.197 -0.3316  0.5212  0.7012
 6111SOL     OW29791   3.647   0.979   3.527  0.4798 -0.6492  0.2690
 6111SOL    HW129792   3.683   1.068   3.521 -1.4707  0.2119  1.2315
 6111SOL    HW229793   3.632   0.968   3.433  0.0051 -0.8663  0.3708
 6112SOL     OW29794   0.034   3.788   8.881  0.0620 -0.3953 -0.4195
 6112SOL    HW129795   0.058   3.877   8.907 -0.7559 -0.2393 -0.2023
 6112SOL    HW229796   0.116   3.739   8.881  0.1424 -0.2595 -0.1704
 6113SOL     OW29797   0.542   2.767   7.433 -0.0863 -0.2372 -0.5063
 6113SOL    HW129798   0.560   2.750   7.340  0.5672  0.4863 -0.5136
 6113SOL    HW229799   0.618   2.822   7.452 -1.0259  0.9050 -0.0393
 6114SOL     OW29800   2.929   1.688   5.116 -0.1667 -0.6187  0.3995
 6114SOL    HW129801   2.898   1.619   5.057  0.1978 -1.6972  1.4825
 6114SOL    HW229802   2.976   1.640   5.183  1.7995 -0.8180 -1.1116
 6115SOL     OW29803   3.540   0.575   3.102  0.4229 -0.2199  0.1539
 6115SOL    HW129804   3.606   0.508   3.086  0.7301 -0.0201  0.6121
 6115SOL    HW229805   3.533   0.598   3.009 -0.4093  2.1735  0.8077
 6116SOL     OW29806   2.007   1.161  16.788  0.2601 -0.0161  0.9402
 6116SOL    HW129807   1.955   1.169  16.708  1.1345  2.8032  0.6487
 6116SOL    HW229808   1.933   1.147  16.847  0.3615 -1.8248  0.6339
 6117SOL     OW29809   2.929   0.902   9.044  0.4979 -0.4367  0.7046
 6117SOL    HW129810   2.934   0.900   9.140 -1.7200  2.0410  0.8575
 6117SOL    HW229811   3.023   0.896   9.027  0.8288  0.4516  2.1780
 6118SOL     OW29812   1.667   3.053   5.542 -0.4279  0.2051  0.1014
 6118SOL    HW129813   1.656   3.146   5.522  3.4224  0.8879  1.2460
 6118SOL    HW229814   1.721   3.028   5.467 -0.2006  0.1663  0.2783
 6119SOL     OW29815   3.204   3.474   7.063 -0.0139 -0.1443 -0.6573
 6119SOL    HW129816   3.273   3.409   7.068  2.5698  2.7700  1.5471
 6119SOL    HW229817   3.138   3.446   7.127  0.6769  2.6013  1.2935
 6120SOL     OW29818   1.332   1.214  11.412 -0.1952 -0.2143 -0.3648
 6120SOL    HW129819   1.426   1.235  11.406  0.1639 -0.9243  2.6879
 6120SOL    HW229820   1.291   1.287  11.365 -0.3719  0.5255  0.9331
 6121SOL     OW29821   1.619   2.302   5.226  0.0632  0.6302 -0.4839
 6121SOL    HW129822   1.620   2.357   5.304 -0.1607 -1.1686  0.8005
 6121SOL    HW229823   1.545   2.340   5.179 -0.3124  0.7375  0.1998
 6122SOL     OW29824   0.357   1.285   2.444 -0.4548 -0.3967  0.4654
 6122SOL    HW129825   0.449   1.314   2.440 -0.5275 -0.3615 -1.0228
 6122SOL    HW229826   0.381   1.193   2.434 -0.8353 -0.7800  2.9767
 6123SOL     OW29827   2.037   2.450  15.441  0.2721 -0.0741 -0.2627
 6123SOL    HW129828   2.092   2.529  15.439 -0.2588  0.1996 -3.8575
 6123SOL    HW229829   1.955   2.477  15.400 -0.5747 -1.2534  0.6749
 6124SOL     OW29830   1.415   0.673  16.297  0.5808  0.1131 -0.3800
 6124SOL    HW129831   1.509   0.669  16.278  0.9451  0.2089  1.4306
 6124SOL    HW229832   1.379   0.672  16.208 -1.9044 -2.4177  0.6562
 6125SOL     OW29833   3.294   4.406  10.459  0.0806 -0.2643  0.5545
 6125SOL    HW129834   3.334   4.487  10.488  1.1003 -1.0647  1.3969
 6125SOL    HW229835   3.272   4.363  10.541  0.2501  2.1443  1.8500
 6126SOL     OW29836   2.698   3.513  12.852  0.0652 -0.2213  0.0766
 6126SOL    HW129837   2.742   3.540  12.772 -0.5248  1.7054  0.3914
 6126SOL    HW229838   2.770   3.517  12.914  1.5700 -3.1282 -1.4929
 6127SOL     OW29839   4.008   1.633   6.541  0.5349 -0.2322  0.1155
 6127SOL    HW129840   4.016   1.538   6.553  1.5414 -0.0656  0.8431
 6127SOL    HW229841   4.026   1.661   6.631  2.6493  0.2347 -0.4497
 6128SOL     OW29842   2.532   0.641  14.289  0.0809 -0.1526 -0.1322
 6128SOL    HW129843   2.568   0.611  14.373 -0.1159 -1.6537 -0.5768
 6128SOL    HW229844   2.462   0.577  14.275  0.2740 -0.2609 -0.5737
 6129SOL     OW29845   2.300   2.059   5.168 -0.0949  0.2186  0.2474
 6129SOL    HW129846   2.376   2.066   5.226 -1.7392  1.9519  2.1890
 6129SOL    HW229847   2.286   1.966   5.185 -0.8094  0.1147 -0.9535
 6130SOL     OW29848   0.426   3.618   7.112 -0.6003  0.1428  0.2205
 6130SOL    HW129849   0.442   3.524   7.101  0.3459  0.0575  2.3612
 6130SOL    HW229850   0.432   3.631   7.206  1.5320  0.4793  0.0286
 6131SOL     OW29851   1.003   2.155   6.109 -0.3161 -0.3865 -0.0096
 6131SOL    HW129852   0.922   2.206   6.097  1.4528  1.9988 -1.8170
 6131SOL    HW229853   0.975   2.065   6.121  2.5840 -1.6021 -2.3058
 6132SOL     OW29854   2.095   0.142  11.599  0.0277 -0.2764 -0.1662
 6132SOL    HW129855   2.078   0.059  11.643 -0.6770  0.2379  0.5075
 6132SOL    HW229856   2.059   0.199  11.666  0.8376  1.0853 -0.8827
 6133SOL     OW29857   0.273   1.805  13.733 -0.3180  0.0037 -0.2123
 6133SOL    HW129858   0.238   1.717  13.718 -0.0270 -0.1219 -0.1518
 6133SOL    HW229859   0.279   1.803  13.828  0.0728 -2.8712 -0.3182
 6134SOL     OW29860   0.656   3.613   5.739 -0.1703  0.0831  0.5458
 6134SOL    HW129861   0.674   3.707   5.736 -3.3309  0.8160  4.3716
 6134SOL    HW229862   0.707   3.578   5.666  0.9347  1.5289  0.6330
 6135SOL     OW29863   3.920   1.704   8.962 -0.0594  0.2690  0.3204
 6135SOL    HW129864   3.935   1.691   8.869  1.1115 -3.0230  0.9643
 6135SOL    HW229865   3.830   1.673   8.975 -0.8157  1.7635 -1.3994
 6136SOL     OW29866   4.607   1.885   7.357  0.1591  0.3490 -0.3110
 6136SOL    HW129867   4.604   1.958   7.419  2.8190 -0.7797  1.1503
 6136SOL    HW229868   4.694   1.849   7.376 -0.4565 -0.4326  1.0645
 6137SOL     OW29869   1.762   0.033   6.301 -0.2341  0.0925 -0.0406
 6137SOL    HW129870   1.687   4.697   6.300  0.3659 -0.6624 -0.9606
 6137SOL    HW229871   1.731   0.111   6.255  0.9731 -0.2745 -1.4984
 6138SOL     OW29872   1.385   3.364   3.138  0.4307 -1.0118 -0.0424
 6138SOL    HW129873   1.358   3.273   3.145 -0.7172 -0.9391 -3.4139
 6138SOL    HW229874   1.307   3.406   3.174  0.9880 -0.0438  0.0346
 6139SOL     OW29875   4.505   0.902   2.709  0.7039  0.3245 -0.1875
 6139SOL    HW129876   4.420   0.887   2.669  0.0750  2.5851  0.2756
 6139SOL    HW229877   4.571   0.859   2.655  1.6952  0.3701  0.9839
 6140SOL     OW29878   0.821   0.159  17.362  0.4012 -0.1461  0.4764
 6140SOL    HW129879   0.850   0.250  17.357  2.8378 -0.9898 -0.4142
 6140SOL    HW229880   0.900   0.114  17.332  0.8597  0.4352  0.7930
 6141SOL     OW29881   1.755   4.680   1.730  0.0742 -0.1241 -0.2751
 6141SOL    HW129882   1.761   0.020   1.658  1.0681 -1.0120 -0.9590
 6141SOL    HW229883   1.766   4.597   1.684  1.1688 -0.3814  0.4639
 6142SOL     OW29884   4.117   3.262   5.449  0.1331 -0.1997 -0.1120
 6142SOL    HW129885   4.142   3.294   5.536  2.1448  0.5399 -0.9428
 6142SOL    HW229886   4.180   3.308   5.394 -0.0291  0.3363  0.1499
 6143SOL     OW29887   4.329   0.452   6.543  0.6256 -0.3200  0.0301
 6143SOL    HW129888   4.239   0.439   6.571  0.6235 -1.8816 -0.6876
 6143SOL    HW229889   4.366   0.431   6.629 -0.2873  0.5397  0.6303
 6144SOL     OW29890   3.960   0.257   5.259  0.6846  0.7049 -0.1619
 6144SOL    HW129891   3.892   0.229   5.198  0.8757 -0.3906  0.1263
 6144SOL    HW229892   3.916   0.239   5.342  1.4376 -2.2404 -0.4192
 6145SOL     OW29893   2.321   2.912   4.542  0.3969  0.4691 -0.4887
 6145SOL    HW129894   2.397   2.872   4.584  0.8117 -2.3395 -3.8581
 6145SOL    HW229895   2.301   2.980   4.606 -2.7869  0.0584 -1.0445
 6146SOL     OW29896   4.195   0.838  15.640  0.0467  0.5058  0.1152
 6146SOL    HW129897   4.283   0.803  15.627  0.4058  0.6399  2.2511
 6146SOL    HW229898   4.190   0.908  15.575  0.7981 -0.1138 -0.6173
 6147SOL     OW29899   1.349   2.986   6.564  0.3505  0.2953 -0.3490
 6147SOL    HW129900   1.256   2.978   6.586  0.1959 -0.8547 -1.4314
 6147SOL    HW229901   1.333   3.039   6.486 -0.1746  0.4771 -0.1209
 6148SOL     OW29902   1.474   1.134   5.024  0.1836  0.1059 -0.1433
 6148SOL    HW129903   1.476   1.224   4.992 -0.0427  0.0453 -0.3286
 6148SOL    HW229904   1.420   1.155   5.101 -1.9350 -1.1389 -1.2920
 6149SOL     OW29905   0.159   4.311   4.618  0.0930 -0.6077 -0.4369
 6149SOL    HW129906   0.212   4.232   4.626  0.7178 -0.0210  1.1508
 6149SOL    HW229907   0.092   4.305   4.686 -0.6793  0.7552 -1.0846
 6150SOL     OW29908   4.200   1.135  10.906  0.2563  0.3104  0.2885
 6150SOL    HW129909   4.188   1.229  10.916  0.3825  0.5582 -2.0259
 6150SOL    HW229910   4.217   1.126  10.813 -1.1887  1.7083 -0.1098
 6151SOL     OW29911   4.593   0.152   8.377  0.2681 -0.5690 -0.6268
 6151SOL    HW129912   4.582   0.060   8.355 -0.8925 -0.9659  1.6296
 6151SOL    HW229913   4.681   0.183   8.352 -0.2104 -0.6473 -2.4391
 6152SOL     OW29914   2.549   4.576   7.967 -0.2347  0.3899  0.2201
 6152SOL    HW129915   2.598   4.579   8.049 -1.7504 -1.8178  1.2022
 6152SOL    HW229916   2.472   4.629   7.987 -0.5952 -0.3538  0.8122
 6153SOL     OW29917   1.814   4.401   4.430 -0.1574  0.4493  0.1939
 6153SOL    HW129918   1.902   4.407   4.394  0.0961 -0.2413  0.7033
 6153SOL    HW229919   1.770   4.351   4.360  0.2963 -2.0510  1.6896
 6154SOL     OW29920   1.110   2.392   4.168  0.4655  0.2111  0.0291
 6154SOL    HW129921   1.175   2.429   4.108 -0.7256  0.2294 -1.2463
 6154SOL    HW229922   1.154   2.419   4.249  1.0206  1.1877 -0.5903
 6155SOL     OW29923   4.186   0.039   8.299 -0.5344 -0.7417 -0.7249
 6155SOL    HW129924   4.110   0.029   8.242 -1.6969  0.2367  0.6589
 6155SOL    HW229925   4.181   4.681   8.351  0.9160 -1.6758 -2.0282
 6156SOL     OW29926   2.359   4.164   9.425  0.7239 -0.4282 -0.1379
 6156SOL    HW129927   2.372   4.257   9.441 -0.7991 -0.6477  2.4516
 6156SOL    HW229928   2.284   4.141   9.481 -1.9417 -0.3284 -3.7019
 6157SOL     OW29929   3.790   1.666  10.018 -0.4650  0.2245  0.0600
 6157SOL    HW129930   3.774   1.691   9.927 -2.2598  0.0203  0.3099
 6157SOL    HW229931   3.737   1.586  10.017  0.3235 -0.2787 -1.3458
 6158SOL     OW29932   4.250   3.959   7.263 -0.2817 -0.3511 -0.1685
 6158SOL    HW129933   4.234   3.931   7.353  0.3776 -0.4809 -0.0869
 6158SOL    HW229934   4.173   4.014   7.251 -0.0658 -0.1853 -0.8348
 6159SOL     OW29935   2.425   1.164  12.438  0.0180  0.2851  0.1822
 6159SOL    HW129936   2.346   1.182  12.387  0.3431  1.6248  0.1521
 6159SOL    HW229937   2.396   1.082  12.478 -0.6609 -0.1510 -1.2172
 6160SOL     OW29938   1.704   4.572   4.951  0.2448 -0.3843 -0.3881
 6160SOL    HW129939   1.641   4.632   4.989  1.1927  1.4210 -1.6721
 6160SOL    HW229940   1.653   4.540   4.876  0.1306 -0.5753 -0.2270
 6161SOL     OW29941   4.414   3.388  14.688 -0.1914 -0.2114 -0.0803
 6161SOL    HW129942   4.481   3.334  14.731 -1.6881  0.5558  3.2558
 6161SOL    HW229943   4.408   3.456  14.756 -0.6870 -0.9619  0.6351
 6162SOL     OW29944   1.704   3.649   3.325  0.1934  0.0725  0.0649
 6162SOL    HW129945   1.628   3.684   3.278 -0.9745 -1.6130  0.7104
 6162SOL    HW229946   1.694   3.556   3.303  0.2498 -0.2707  1.5261
 6163SOL     OW29947   2.659   2.749   8.698  0.1163  0.3861  0.5406
 6163SOL    HW129948   2.662   2.844   8.697  0.0808  0.3740 -0.4282
 6163SOL    HW229949   2.620   2.734   8.784  1.1720 -3.8587  0.2922
 6164SOL     OW29950   4.691   4.461  14.016  0.1259 -0.0110 -0.4532
 6164SOL    HW129951   4.703   4.477  13.922  1.3865  3.3055  0.2709
 6164SOL    HW229952   0.026   4.529  14.052  1.6041 -2.8659  2.5136
 6165SOL     OW29953   1.265   4.440   2.935 -1.1956  0.5445  0.0090
 6165SOL    HW129954   1.258   4.395   2.850 -0.4183  0.3977  0.0191
 6165SOL    HW229955   1.351   4.478   2.919 -0.7981 -0.2391  0.2868
 6166SOL     OW29956   4.031   3.856   2.218  0.2098  0.0928 -0.3428
 6166SOL    HW129957   3.954   3.900   2.182 -0.4219  1.3423  2.4819
 6166SOL    HW229958   4.091   3.931   2.213  0.6534 -0.2441 -0.0975
 6167SOL     OW29959   2.778   1.572   7.053 -0.0076  0.2023 -0.5165
 6167SOL    HW129960   2.817   1.619   6.979  0.4327  0.0071 -0.4110
 6167SOL    HW229961   2.813   1.483   7.043 -1.9551 -0.7148  0.7848
 6168SOL     OW29962   2.534   2.404   3.120 -0.5192  0.0737  0.3083
 6168SOL    HW129963   2.529   2.317   3.158 -1.0981 -1.0634 -2.3594
 6168SOL    HW229964   2.442   2.424   3.103 -0.9574 -1.2581  1.1175
 6169SOL     OW29965   2.782   2.814  15.788  0.0455 -0.1146  0.9007
 6169SOL    HW129966   2.809   2.895  15.829 -0.8921  0.2473  0.8059
 6169SOL    HW229967   2.835   2.816  15.709 -0.5260  0.0675  0.5204
 6170SOL     OW29968   1.762   0.161   1.541 -0.0782 -0.1490  0.0352
 6170SOL    HW129969   1.780   0.197   1.455 -1.4601  2.3420  0.7882
 6170SOL    HW229970   1.686   0.214   1.563 -0.2421 -0.4019  0.0827
 6171SOL     OW29971   1.218   2.855   4.647  0.1663 -0.2991  0.6861
 6171SOL    HW129972   1.214   2.808   4.730  0.6864  2.5026  2.2746
 6171SOL    HW229973   1.291   2.817   4.599  0.6206 -0.7548  1.7416
 6172SOL     OW29974   3.081   1.324   5.706  0.8240  0.1532  0.0451
 6172SOL    HW129975   3.163   1.292   5.668  0.4981  1.2705 -1.6336
 6172SOL    HW229976   3.116   1.412   5.721 -1.9818  1.1856  0.5399
 6173SOL     OW29977   1.086   0.161   2.482  0.4973 -0.1274  0.5678
 6173SOL    HW129978   1.053   0.248   2.460 -2.3665 -1.1226  1.0550
 6173SOL    HW229979   1.088   0.171   2.577 -0.3012  0.3783  0.5221
 6174SOL     OW29980   0.239   1.404  11.014 -0.3913 -0.0919  0.1802
 6174SOL    HW129981   0.259   1.470  11.080 -2.4005 -0.4843  1.1469
 6174SOL    HW229982   0.187   1.455  10.952 -1.7198 -1.7082 -0.0414
 6175SOL     OW29983   3.968   0.397   9.754 -0.1219 -0.1495 -0.1369
 6175SOL    HW129984   3.997   0.426   9.668  1.2048  0.1465  0.4039
 6175SOL    HW229985   4.037   0.436   9.807 -0.0700 -0.4684  0.0350
 6176SOL     OW29986   3.266   3.861   6.038  0.1352 -0.5706 -0.2695
 6176SOL    HW129987   3.236   3.938   5.989  1.0342  1.8337  2.9986
 6176SOL    HW229988   3.350   3.895   6.068 -0.3634 -0.1192  0.5871
 6177SOL     OW29989   0.312   2.128   2.308  0.4123  0.6071  0.1468
 6177SOL    HW129990   0.290   2.139   2.216 -0.7919  0.9430  0.4810
 6177SOL    HW229991   0.240   2.175   2.349 -1.5450 -0.9044 -1.5597
 6178SOL     OW29992   2.119   2.805   2.891 -0.5700 -0.0525 -0.2924
 6178SOL    HW129993   2.088   2.874   2.949 -0.6017 -1.1563  1.0101
 6178SOL    HW229994   2.072   2.837   2.814  0.8757 -1.4717 -1.7584
 6179SOL     OW29995   1.659   1.671   9.039  0.0781 -0.4959  0.5029
 6179SOL    HW129996   1.688   1.723   8.964  0.0230 -1.6230 -0.3004
 6179SOL    HW229997   1.736   1.669   9.095  0.9869 -2.4618 -0.8005
 6180SOL     OW29998   1.785   4.286   0.541 -0.3984 -0.1095 -0.6161
 6180SOL    HW129999   1.701   4.309   0.581 -0.2946  0.5567 -0.7740
 6180SOL    HW230000   1.763   4.205   0.495 -1.3290  0.0008 -0.3788
 6181SOL     OW30001   3.546   2.208  17.028 -0.1593  0.0446 -0.2065
 6181SOL    HW130002   3.532   2.301  17.049 -0.9665 -0.1224 -0.0029
 6181SOL    HW230003   3.475   2.175  17.082  1.1478 -2.8153 -0.2362
 6182SOL     OW30004   0.351   3.961   4.564 -0.4617 -0.4392  0.2564
 6182SOL    HW130005   0.367   4.036   4.621 -0.6269  0.1181 -0.4388
 6182SOL    HW230006   0.317   4.001   4.484 -1.4328 -1.4045  0.2004
 6183SOL     OW30007   1.611   3.185   7.292  0.0585  0.4042 -1.0827
 6183SOL    HW130008   1.576   3.273   7.301  0.0667  0.2460  0.4168
 6183SOL    HW230009   1.554   3.144   7.356  2.3742 -1.5489 -0.2434
 6184SOL     OW30010   2.012   3.178  10.822  0.7338  0.2941  0.1703
 6184SOL    HW130011   1.979   3.150  10.907  0.7316  0.0346  0.0838
 6184SOL    HW230012   1.942   3.234  10.787  1.1932  0.2473 -0.8272
 6185SOL     OW30013   0.924   3.393   7.840  0.1834 -0.2860  0.2357
 6185SOL    HW130014   0.977   3.378   7.919 -0.2021 -1.0327  0.3491
 6185SOL    HW230015   0.985   3.446   7.788  0.1423 -0.7939 -0.3293
 6186SOL     OW30016   0.537   2.806   7.145 -0.1203  0.2065  0.2775
 6186SOL    HW130017   0.593   2.804   7.068 -1.4320 -2.4016 -0.6096
 6186SOL    HW230018   0.541   2.901   7.155 -1.1417  0.0385  2.2772
 6187SOL     OW30019   2.644   1.551   8.204 -0.1111  0.0555 -0.2081
 6187SOL    HW130020   2.579   1.524   8.138  1.6564 -0.5898 -1.6838
 6187SOL    HW230021   2.585   1.568   8.277  1.3021 -2.8669  1.5637
 6188SOL     OW30022   0.226   1.318   2.687  0.3196  0.5247 -0.1268
 6188SOL    HW130023   0.242   1.325   2.593  0.2249 -0.0578 -0.1827
 6188SOL    HW230024   0.219   1.411   2.710 -2.5941  0.1144  0.5942
 6189SOL     OW30025   1.364   2.500   4.083  0.4112 -0.2557  0.6445
 6189SOL    HW130026   1.425   2.435   4.118  0.9297 -0.5520 -0.8128
 6189SOL    HW230027   1.429   2.561   4.049 -1.4488  1.2284 -0.2129
 6190SOL     OW30028   0.604   1.290   2.299 -0.2140  0.2948  0.0652
 6190SOL    HW130029   0.635   1.205   2.331  1.4848  1.0200  0.3439
 6190SOL    HW230030   0.544   1.257   2.232 -0.6192  1.0297  0.0676
 6191SOL     OW30031   2.447   1.304  10.540 -0.4799  0.0548 -0.4861
 6191SOL    HW130032   2.486   1.302  10.627 -1.0318 -2.2836 -0.2790
 6191SOL    HW230033   2.383   1.375  10.541 -0.4309  0.0556  1.3198
 6192SOL     OW30034   3.337   3.816   0.102 -0.2107  0.2113  0.0341
 6192SOL    HW130035   3.284   3.885   0.063  0.4510  0.7784  0.1365
 6192SOL    HW230036   3.425   3.854   0.093 -0.9229  1.8683  0.1481
 6193SOL     OW30037   3.546   2.341  12.810  0.0810  0.2178 -0.3999
 6193SOL    HW130038   3.503   2.398  12.747  0.6579  0.1399 -0.8674
 6193SOL    HW230039   3.570   2.406  12.877  0.9256 -0.7523  0.2508
 6194SOL     OW30040   2.877   1.284   7.074 -0.1314  0.2981  0.5364
 6194SOL    HW130041   2.882   1.296   6.979 -1.5030 -0.4200  0.3608
 6194SOL    HW230042   2.790   1.244   7.076  0.6154 -1.3081  0.9407
 6195SOL     OW30043   0.508   4.274   5.796 -0.0184 -0.4548 -0.0659
 6195SOL    HW130044   0.452   4.282   5.719  1.9461  1.4944 -1.2790
 6195SOL    HW230045   0.470   4.347   5.845 -0.0043  0.5763 -1.5991
 6196SOL     OW30046   4.062   3.631   8.422 -0.2311  0.0515 -0.2191
 6196SOL    HW130047   4.148   3.589   8.427  0.2134  1.1405  1.3975
 6196SOL    HW230048   4.009   3.577   8.363  0.2659  0.1508 -0.7559
 6197SOL     OW30049   0.757   3.354  15.765  0.6449 -0.0420  0.1526
 6197SOL    HW130050   0.806   3.311  15.695  0.0389  0.5235 -0.6237
 6197SOL    HW230051   0.669   3.325  15.739 -0.0610  0.0617  2.4588
 6198SOL     OW30052   1.550   0.161  11.110 -0.2148 -0.6324 -0.3234
 6198SOL    HW130053   1.537   0.251  11.079  1.1907 -0.6216 -0.8668
 6198SOL    HW230054   1.569   0.119  11.026 -1.8202 -0.1540 -0.9228
 6199SOL     OW30055   2.514   0.319  10.891 -0.5828  0.0348  0.7839
 6199SOL    HW130056   2.605   0.311  10.863 -0.6747  0.7269  0.2765
 6199SOL    HW230057   2.498   0.413  10.883  0.8553  0.1782 -0.4194
 6200SOL     OW30058   1.672   4.648   6.971 -0.2892  0.1683 -0.0175
 6200SOL    HW130059   1.715   4.670   7.053 -1.6440 -0.9046  0.9774
 6200SOL    HW230060   1.746   4.647   6.910  1.9249  1.0782  2.7023
 6201SOL     OW30061   2.046   2.291   6.456 -0.4175  0.1730  0.2667
 6201SOL    HW130062   2.074   2.287   6.548 -1.8367 -0.2278  0.6870
 6201SOL    HW230063   2.001   2.375   6.445 -0.1480  0.1600 -0.8806
 6202SOL     OW30064   2.873   0.857   8.741  0.1791 -0.5064  0.1892
 6202SOL    HW130065   2.917   0.853   8.826 -0.3386 -1.2193  0.4267
 6202SOL    HW230066   2.921   0.793   8.689  0.6147  0.9659 -1.2239
 6203SOL     OW30067   4.180   3.757  10.587 -0.4081 -0.2029  0.5020
 6203SOL    HW130068   4.165   3.809  10.508  0.1229 -0.1083  0.4612
 6203SOL    HW230069   4.259   3.707  10.567 -1.5163 -1.6945 -0.1797
 6204SOL     OW30070   1.924   2.881   5.623 -0.0948 -0.1215  0.4740
 6204SOL    HW130071   1.907   2.933   5.544 -2.0489 -1.1528  0.2278
 6204SOL    HW230072   1.913   2.952   5.687  1.3293  0.2878  0.2578
 6205SOL     OW30073   3.890   0.042  12.745  0.7147 -0.5433 -0.1560
 6205SOL    HW130074   3.854   0.080  12.665  0.2456  0.3730  0.4937
 6205SOL    HW230075   3.817   4.711  12.777  1.5655 -0.4941  1.8496
 6206SOL     OW30076   1.861   3.991   4.435  0.2505 -0.1135 -0.2248
 6206SOL    HW130077   1.931   3.978   4.371 -1.6024 -1.3296 -2.0085
 6206SOL    HW230078   1.915   3.994   4.514  2.4697  2.1873 -1.8651
 6207SOL     OW30079   0.472   2.445  11.393 -0.6325 -0.3158 -0.9252
 6207SOL    HW130080   0.515   2.435  11.478 -1.0255  2.9127 -0.3712
 6207SOL    HW230081   0.449   2.354  11.374 -2.6608 -0.0055  0.1140
 6208SOL     OW30082   4.710   2.781   5.852  0.4183  0.1447 -0.0644
 6208SOL    HW130083   4.683   2.815   5.938  2.5706  0.9665  0.2868
 6208SOL    HW230084   4.633   2.781   5.795 -0.6613  1.6663  1.3938
 6209SOL     OW30085   0.984   3.781   9.952 -0.5389  0.1294  0.3992
 6209SOL    HW130086   1.065   3.775  10.002  0.3588  1.1307 -0.9535
 6209SOL    HW230087   0.989   3.710   9.888  3.0866  1.6340 -0.9635
 6210SOL     OW30088   2.340   1.516  10.701 -0.4531 -0.3036 -0.1396
 6210SOL    HW130089   2.424   1.501  10.744 -0.4497 -0.7403 -0.3065
 6210SOL    HW230090   2.307   1.583  10.761  1.0169 -0.2792  0.6695
 6211SOL     OW30091   2.836   2.050   8.217 -0.6682  0.0257 -0.0803
 6211SOL    HW130092   2.894   2.041   8.293 -1.9784  1.4786  1.0856
 6211SOL    HW230093   2.903   2.045   8.148  0.1476  1.9160  0.5875
 6212SOL     OW30094   2.022   3.207   8.136 -0.4950  0.0977  0.2962
 6212SOL    HW130095   2.103   3.171   8.172 -0.8126  0.0451  0.9521
 6212SOL    HW230096   2.011   3.283   8.194  0.1041 -0.7040  1.4503
 6213SOL     OW30097   1.672   3.018   9.023  0.4816 -0.7210  0.2571
 6213SOL    HW130098   1.683   3.088   9.087  0.7801 -0.2019 -0.3548
 6213SOL    HW230099   1.749   3.038   8.969 -1.4661  0.6037 -2.0265
 6214SOL     OW30100   1.416   0.042   6.945 -0.6380 -0.5802  0.4529
 6214SOL    HW130101   1.404   0.081   6.858 -1.2691  0.1463  0.8585
 6214SOL    HW230102   1.505   0.008   6.947  0.5379  2.3856 -1.0358
 6215SOL     OW30103   3.373   1.879   8.458 -0.1348  0.0364 -0.2144
 6215SOL    HW130104   3.412   1.812   8.402  0.4991 -2.2028  2.9499
 6215SOL    HW230105   3.426   1.954   8.430  1.5278 -1.2335 -0.4750
 6216SOL     OW30106   1.556   2.089   3.735 -0.3465 -0.7625  1.0799
 6216SOL    HW130107   1.507   2.145   3.795  0.5750 -1.1730  2.2119
 6216SOL    HW230108   1.618   2.146   3.689 -1.1657 -0.5513  0.2300
 6217SOL     OW30109   1.831   3.664  16.406 -0.0581 -0.1794  0.5731
 6217SOL    HW130110   1.915   3.703  16.383 -0.2847 -0.2142 -0.3248
 6217SOL    HW230111   1.771   3.736  16.426  1.0934  0.8171  0.4387
 6218SOL     OW30112   2.084   4.502   7.992  0.2776  0.6000 -0.0211
 6218SOL    HW130113   2.166   4.548   8.008  0.6913 -0.3019  0.4324
 6218SOL    HW230114   2.078   4.514   7.897 -1.3886  0.1856  0.0225
 6219SOL     OW30115   4.393   0.580   1.668  0.5841  0.3680  0.0835
 6219SOL    HW130116   4.428   0.522   1.735  0.8973  0.8333  0.3207
 6219SOL    HW230117   4.327   0.527   1.623 -2.3766  0.1373  4.7384
 6220SOL     OW30118   1.308   0.711  16.070 -0.4130 -0.5692  0.0383
 6220SOL    HW130119   1.215   0.687  16.075 -0.9586  1.1723 -1.7425
 6220SOL    HW230120   1.343   0.691  15.984 -1.6440 -1.3374 -0.2931
 6221SOL     OW30121   3.356   1.107   6.945 -0.7668 -0.4943 -0.4198
 6221SOL    HW130122   3.420   1.151   7.001 -0.3016  1.2982 -2.3979
 6221SOL    HW230123   3.314   1.063   7.019 -0.2204 -0.4930 -0.1045
 6222SOL     OW30124   2.338   1.299  12.041  0.8280  0.4621  0.5408
 6222SOL    HW130125   2.417   1.340  12.077  1.9676 -0.5250 -0.8513
 6222SOL    HW230126   2.372   1.267  11.958  3.4439  1.3758  1.2487
 6223SOL     OW30127   4.504   3.470   6.692 -0.0549  0.0933  0.0917
 6223SOL    HW130128   4.507   3.392   6.636  2.6043 -1.1579  1.9536
 6223SOL    HW230129   4.426   3.449   6.743  1.6943  1.7853  3.4698
 6224SOL     OW30130   1.493   0.837  11.487  0.1882 -0.0771  0.2977
 6224SOL    HW130131   1.423   0.772  11.477  0.6759 -0.4280 -0.8142
 6224SOL    HW230132   1.549   0.809  11.415  1.1890  2.0625  0.2366
 6225SOL     OW30133   0.547   0.442  13.285  0.1996  0.2650 -0.2171
 6225SOL    HW130134   0.572   0.429  13.193  0.4438  1.4010 -0.3140
 6225SOL    HW230135   0.453   0.427  13.283  0.4052 -0.8644 -1.3181
 6226SOL     OW30136   0.284   0.660   3.268  0.5663  0.9633  0.5201
 6226SOL    HW130137   0.298   0.566   3.263 -2.5246  0.4686  1.1126
 6226SOL    HW230138   0.189   0.658   3.276  0.6076  0.7446  0.9463
 6227SOL     OW30139   0.170   2.347  15.902  0.5278  0.1414  0.2085
 6227SOL    HW130140   0.239   2.320  15.963  0.3262  1.0858  0.8519
 6227SOL    HW230141   0.177   2.442  15.894  0.3388  0.2488  1.2550
 6228SOL     OW30142   0.413   2.384   8.846 -0.3774 -0.4764 -0.0252
 6228SOL    HW130143   0.451   2.297   8.835  0.7152  0.0102 -0.1171
 6228SOL    HW230144   0.353   2.374   8.920 -0.5700 -1.2940 -0.2987
 6229SOL     OW30145   3.405   1.832  17.045  0.0668 -0.0159 -0.4077
 6229SOL    HW130146   3.484   1.782  17.023 -0.3568 -0.2372 -1.4226
 6229SOL    HW230147   3.446   1.895  17.104 -2.1425  1.7939 -0.8476
 6230SOL     OW30148   3.751   2.995  13.090 -0.6588  0.7402 -0.6736
 6230SOL    HW130149   3.832   2.995  13.141 -1.6988  0.6640  0.9848
 6230SOL    HW230150   3.691   2.934  13.131  0.1387 -0.4885 -1.3361
 6231SOL     OW30151   3.915   4.406   8.661 -0.2326  0.8820 -0.2505
 6231SOL    HW130152   3.956   4.320   8.659 -2.2954 -0.1166  0.6102
 6231SOL    HW230153   3.847   4.388   8.726 -0.8273  2.6690 -0.3539
 6232SOL     OW30154   3.909   0.809   2.247  0.1913  0.1689  0.1867
 6232SOL    HW130155   3.998   0.776   2.235 -0.1395 -0.0134 -1.7652
 6232SOL    HW230156   3.908   0.852   2.161  2.2320  0.5270  0.3492
 6233SOL     OW30157   1.852   4.716   5.931  0.4025 -0.4671  0.1641
 6233SOL    HW130158   1.880   4.624   5.924  3.9086  0.5066  1.4020
 6233SOL    HW230159   1.790   4.700   6.002  1.4922  4.2259  2.1822
 6234SOL     OW30160   0.961   4.666   6.800  0.1540 -0.2184  0.2516
 6234SOL    HW130161   0.964   4.593   6.738  1.6245  1.6557 -1.9121
 6234SOL    HW230162   0.991   4.625   6.881 -0.8509 -0.1995  0.6401
 6235SOL     OW30163   1.561   1.054   6.125 -0.0396  0.4090 -0.0657
 6235SOL    HW130164   1.582   1.143   6.152  0.0127 -0.0161  1.2958
 6235SOL    HW230165   1.511   1.019   6.199  0.7750 -1.1352 -0.2359
 6236SOL     OW30166   1.113   1.741   3.801  0.5521  1.1486 -0.3256
 6236SOL    HW130167   1.120   1.708   3.712 -2.5532  0.3918 -0.2949
 6236SOL    HW230168   1.099   1.833   3.780 -0.6156  1.3049  1.0905
 6237SOL     OW30169   4.547   1.279   3.957  0.4767  0.3319  0.6073
 6237SOL    HW130170   4.512   1.224   3.887  1.9917  0.5981 -0.3569
 6237SOL    HW230171   4.639   1.290   3.932  0.2327 -1.2675 -0.9987
 6238SOL     OW30172   0.634   2.760   9.159  0.2228  0.0386  0.2374
 6238SOL    HW130173   0.693   2.819   9.112  0.3076 -0.7430 -0.6362
 6238SOL    HW230174   0.551   2.795   9.126 -1.5593 -3.0738  1.4933
 6239SOL     OW30175   2.852   4.093   5.046 -0.8221 -0.2749  0.1665
 6239SOL    HW130176   2.784   4.025   5.039 -0.4611 -0.4891 -1.2405
 6239SOL    HW230177   2.854   4.110   5.140 -0.6170 -0.3247  0.1694
 6240SOL     OW30178   0.355   3.617   9.312  0.3332 -0.2975  0.2487
 6240SOL    HW130179   0.283   3.566   9.275  2.9162 -0.5541 -4.5017
 6240SOL    HW230180   0.363   3.585   9.401  2.4581 -0.3727  0.0446
 6241SOL     OW30181   1.638   0.221   6.146 -0.2853 -0.0107  0.3402
 6241SOL    HW130182   1.628   0.279   6.071  1.8340 -1.7882 -1.2919
 6241SOL    HW230183   1.565   0.159   6.149 -1.4908  1.3473 -0.7649
 6242SOL     OW30184   1.988   0.190   6.428 -0.0870 -0.2066 -0.9203
 6242SOL    HW130185   1.929   0.143   6.368  0.1235  1.8019 -2.6791
 6242SOL    HW230186   1.965   0.282   6.419  1.7089  0.2637 -0.6501
 6243SOL     OW30187   4.126   1.554   9.088 -0.3087 -0.0557  0.6324
 6243SOL    HW130188   4.053   1.600   9.048 -1.5759 -1.3403  1.4706
 6243SOL    HW230189   4.078   1.472   9.099 -1.1023  0.3886  0.4946
 6244SOL     OW30190   4.167   2.370   8.306  0.7092  0.2235  0.7626
 6244SOL    HW130191   4.175   2.436   8.236  0.8510  0.1862  0.7432
 6244SOL    HW230192   4.126   2.418   8.378 -0.4823  0.9881 -0.4068
 6245SOL     OW30193   2.582   1.838   7.354  0.9148 -0.1058  0.0428
 6245SOL    HW130194   2.496   1.856   7.392  1.1132  0.7149  0.1199
 6245SOL    HW230195   2.580   1.897   7.279 -1.7773 -1.4720 -0.9495
 6246SOL     OW30196   1.042   4.275  15.742  0.1525  0.1621  0.0605
 6246SOL    HW130197   1.079   4.357  15.776  2.7383 -1.3880  0.9386
 6246SOL    HW230198   1.037   4.306  15.651 -4.3251  0.0990  0.2800
 6247SOL     OW30199   4.283   1.808  11.369  0.1049 -0.7809  0.1078
 6247SOL    HW130200   4.373   1.792  11.397  0.2272 -1.7837 -0.8706
 6247SOL    HW230201   4.290   1.795  11.274  0.9029 -1.8387  0.3169
 6248SOL     OW30202   3.934   0.510   3.295  0.1422 -0.4173 -0.0443
 6248SOL    HW130203   3.948   0.490   3.387 -0.9216  2.8291  0.8025
 6248SOL    HW230204   3.918   0.421   3.262 -2.2319  0.3226 -0.8917
 6249SOL     OW30205   0.243   0.671   6.631  0.7170 -0.3694  0.0499
 6249SOL    HW130206   0.154   0.660   6.596 -0.0095  0.5537  1.6191
 6249SOL    HW230207   0.269   0.579   6.625  0.1152 -0.4113 -1.8626
 6250SOL     OW30208   2.996   2.912   2.624 -0.1747 -0.0239  0.1244
 6250SOL    HW130209   2.940   2.867   2.560 -1.5268  1.6151  0.1674
 6250SOL    HW230210   3.080   2.897   2.581 -0.2810 -1.8983  0.5549
 6251SOL     OW30211   3.571   1.031   9.302  0.0143 -0.5737 -0.0545
 6251SOL    HW130212   3.577   1.070   9.390  0.1416 -1.9803  0.5565
 6251SOL    HW230213   3.486   0.989   9.312 -0.6980  1.1560  1.3167
 6252SOL     OW30214   3.843   3.866   7.766 -0.6363  0.4440 -0.0936
 6252SOL    HW130215   3.860   3.959   7.751 -0.2283  0.1444 -1.5392
 6252SOL    HW230216   3.763   3.866   7.819 -0.9846  2.7783 -0.6196
 6253SOL     OW30217   4.511   4.331  12.865 -0.3812  0.1087  0.3406
 6253SOL    HW130218   4.458   4.358  12.789 -2.4331 -1.9554  1.0563
 6253SOL    HW230219   4.476   4.242  12.859  2.7613 -1.2477  2.5620
 6254SOL     OW30220   0.226   3.205   3.031  0.3125 -0.0354  0.4437
 6254SOL    HW130221   0.157   3.221   3.096 -1.4747 -0.2324 -1.4168
 6254SOL    HW230222   0.186   3.261   2.965  0.0608 -0.4436  0.2505
 6255SOL     OW30223   0.562   3.212  16.132 -0.0094 -0.5216 -0.4821
 6255SOL    HW130224   0.589   3.133  16.178 -0.5208  1.3217  2.9702
 6255SOL    HW230225   0.518   3.247  16.210  0.9631 -0.5951  0.1058
 6256SOL     OW30226   2.464   4.169  15.847 -0.1253  0.1064  0.4819
 6256SOL    HW130227   2.392   4.226  15.820  0.6587  0.3074 -1.2126
 6256SOL    HW230228   2.525   4.175  15.773 -1.3721 -0.2815 -0.5771
 6257SOL     OW30229   3.795   4.341  13.308  0.0366  0.1672 -0.1348
 6257SOL    HW130230   3.821   4.352  13.399  0.3426  3.0272 -0.5540
 6257SOL    HW230231   3.776   4.433  13.288 -1.8808 -0.2985 -0.5061
 6258SOL     OW30232   3.966   1.915   3.414 -0.2052 -0.1881  0.5310
 6258SOL    HW130233   3.954   1.949   3.503 -1.5784  1.0000 -0.0985
 6258SOL    HW230234   3.988   1.991   3.361  0.9462  0.3726  1.7909
 6259SOL     OW30235   3.507   2.826   5.230  0.1818  0.0043  0.1297
 6259SOL    HW130236   3.449   2.832   5.154  1.6797 -0.4528 -1.0334
 6259SOL    HW230237   3.561   2.905   5.229  1.7647 -1.1025 -1.2948
 6260SOL     OW30238   4.262   3.513  15.067  0.0844  0.1119 -0.0578
 6260SOL    HW130239   4.330   3.507  15.000 -2.2241 -0.3027 -2.3740
 6260SOL    HW230240   4.317   3.537  15.141  2.9719 -2.5350 -1.3759
 6261SOL     OW30241   1.551   3.716   7.240  0.3516  0.1300 -0.0579
 6261SOL    HW130242   1.604   3.796   7.243  2.9701 -1.4859 -3.3741
 6261SOL    HW230243   1.492   3.738   7.168 -0.1075  0.5427  0.4367
 6262SOL     OW30244   2.049   2.035   0.148 -0.6500  0.0598 -0.1868
 6262SOL    HW130245   1.957   2.013   0.132 -1.1232  1.1947  0.9568
 6262SOL    HW230246   2.088   1.948   0.137 -1.3873  0.1632 -3.6071
 6263SOL     OW30247   4.618   1.219   6.661 -0.2571 -0.4616  0.1866
 6263SOL    HW130248   4.710   1.242   6.645 -1.6250  3.6786 -1.5625
 6263SOL    HW230249   4.621   1.171   6.744  2.9446  1.2108  1.0440
 6264SOL     OW30250   1.276   0.808   4.325 -0.1404 -0.4451 -0.3136
 6264SOL    HW130251   1.319   0.747   4.266 -1.8805 -0.9142 -1.1027
 6264SOL    HW230252   1.312   0.771   4.405 -2.1865 -0.0286  0.8030
 6265SOL     OW30253   0.034   3.827   0.262 -0.2213  0.4971  0.6000
 6265SOL    HW130254   0.048   3.828   0.167  1.8369  0.3408  0.9076
 6265SOL    HW230255   0.063   3.741   0.291 -0.8532 -0.5985 -1.9836
 6266SOL     OW30256   1.086   1.345  15.073  0.3952  0.1019 -0.3900
 6266SOL    HW130257   1.176   1.371  15.055  1.6812 -3.3650  1.0385
 6266SOL    HW230258   1.068   1.408  15.143  1.6818  1.7916 -1.5937
 6267SOL     OW30259   4.099   3.322  15.244  0.3374  0.4357 -0.4577
 6267SOL    HW130260   4.144   3.254  15.295 -0.4800 -0.5293 -1.0057
 6267SOL    HW230261   4.171   3.367  15.199  0.7946 -1.4220 -1.6186
 6268SOL     OW30262   1.420   1.400  16.064  0.0507 -0.5352  0.2412
 6268SOL    HW130263   1.358   1.337  16.102 -0.8222 -0.3990 -0.9633
 6268SOL    HW230264   1.356   1.460  16.026  0.4720  1.1973  2.2973
 6269SOL     OW30265   2.082   2.030   8.994  0.1729  0.4587 -0.1400
 6269SOL    HW130266   2.094   2.121   8.967  0.5352  0.1594 -0.9816
 6269SOL    HW230267   2.123   2.042   9.080  0.8053 -2.7794 -0.0033
 6270SOL     OW30268   2.090   0.729  15.914  0.1075 -0.5454  0.3737
 6270SOL    HW130269   2.173   0.725  15.961  0.2342 -1.0969  0.1047
 6270SOL    HW230270   2.110   0.743  15.822 -2.8375 -1.0070 -0.3640
 6271SOL     OW30271   3.612   0.227  15.459  0.5353 -0.1128 -0.3622
 6271SOL    HW130272   3.664   0.294  15.414  1.0610 -1.3322 -1.5664
 6271SOL    HW230273   3.536   0.280  15.481  1.2012  1.0126 -0.7443
 6272SOL     OW30274   4.504   1.693   5.028  0.0271  0.9873  0.2440
 6272SOL    HW130275   4.416   1.718   5.055 -0.1774 -0.2564  0.7093
 6272SOL    HW230276   4.527   1.629   5.095 -1.4792  0.6851  0.4697
 6273SOL     OW30277   0.938   0.440   8.495 -0.3883  0.3609  0.0340
 6273SOL    HW130278   0.914   0.347   8.488  1.7202 -0.2087  0.5031
 6273SOL    HW230279   1.022   0.436   8.540 -0.8449 -1.5785  0.7222
 6274SOL     OW30280   1.318   0.440   5.157 -0.2939 -0.4794 -0.1720
 6274SOL    HW130281   1.308   0.377   5.228  1.9096  0.5641  1.0710
 6274SOL    HW230282   1.229   0.459   5.128 -0.0651 -0.0136 -0.5657
 6275SOL     OW30283   3.893   0.958   5.418 -0.0134 -0.0317 -0.1043
 6275SOL    HW130284   3.800   0.943   5.434 -0.0834 -1.0140 -1.3550
 6275SOL    HW230285   3.932   0.945   5.504  1.7005  1.9158 -0.5824
 6276SOL     OW30286   2.999   2.615   0.484  0.2879  0.3452 -0.1796
 6276SOL    HW130287   2.932   2.674   0.517 -1.2636 -0.2570 -2.2374
 6276SOL    HW230288   2.959   2.594   0.400  1.9042  0.6971 -1.0266
 6277SOL     OW30289   3.882   1.254   2.630 -0.0693  0.6521 -0.4354
 6277SOL    HW130290   3.844   1.339   2.652 -2.4247 -0.4805 -0.0907
 6277SOL    HW230291   3.939   1.288   2.561  3.4747  1.2073  2.8010
 6278SOL     OW30292   2.520   4.641   7.691  0.0184 -0.5238 -0.5827
 6278SOL    HW130293   2.519   4.613   7.782  1.4127 -1.9231 -1.0078
 6278SOL    HW230294   2.523   0.014   7.699  0.5121 -0.4764 -1.3068
 6279SOL     OW30295   3.904   4.221  14.177 -0.4824 -0.0927 -0.2042
 6279SOL    HW130296   3.925   4.130  14.154  0.2243  0.5116 -1.9332
 6279SOL    HW230297   3.821   4.244  14.135  0.1406  3.0228  0.3147
 6280SOL     OW30298   0.042   1.184   0.681  0.2695  0.1861  0.1226
 6280SOL    HW130299   0.001   1.136   0.609  1.3797  0.1613 -0.4820
 6280SOL    HW230300   0.105   1.224   0.622  2.4548 -0.5995  1.9227
 6281SOL     OW30301   3.257   2.290   2.363 -0.2628  0.6697  0.0973
 6281SOL    HW130302   3.274   2.278   2.270  1.1205  0.1526  0.4294
 6281SOL    HW230303   3.249   2.385   2.368  1.3665  0.8432 -0.5580
 6282SOL     OW30304   2.021   2.218   5.806  0.3118  0.3114  0.0676
 6282SOL    HW130305   2.001   2.268   5.885 -1.5506  2.3786 -1.7020
 6282SOL    HW230306   2.089   2.272   5.765 -0.5314 -0.2614 -2.0980
 6283SOL     OW30307   2.263   2.094   9.185  0.3738 -0.2610  0.3946
 6283SOL    HW130308   2.343   2.133   9.149 -0.7545  1.0880 -0.6380
 6283SOL    HW230309   2.303   2.035   9.249  0.4730  1.1206  1.5990
 6284SOL     OW30310   0.363   4.601  14.853  0.1398 -0.3359  0.3646
 6284SOL    HW130311   0.289   4.577  14.797 -1.2739  2.1087  1.2142
 6284SOL    HW230312   0.344   4.560  14.938 -1.6923  0.1046  0.1479
 6285SOL     OW30313   2.987   4.250   8.566  0.0479  1.0013 -0.6102
 6285SOL    HW130314   2.925   4.183   8.593  0.9577  0.9490  1.3571
 6285SOL    HW230315   3.075   4.214   8.578 -1.3660 -2.7492 -1.8412
 6286SOL     OW30316   1.589   1.969   8.637 -0.3271  0.1435  0.0477
 6286SOL    HW130317   1.659   2.018   8.680  0.3620 -2.4345  1.8201
 6286SOL    HW230318   1.524   1.970   8.707  1.7755 -0.9272  2.0172
 6287SOL     OW30319   2.715   1.964   0.751 -0.2097 -0.2012 -0.0293
 6287SOL    HW130320   2.805   1.985   0.726 -0.3534  2.2350  1.5449
 6287SOL    HW230321   2.709   2.012   0.834  2.2552  1.7808 -1.0102
 6288SOL     OW30322   2.436   3.606  14.836 -0.6011  0.7307  0.1255
 6288SOL    HW130323   2.495   3.605  14.761  0.2052  3.9390  0.7262
 6288SOL    HW230324   2.424   3.697  14.863  2.2516  1.6301 -1.6790
 6289SOL     OW30325   2.418   2.763  10.907  0.0986  0.1263 -0.0595
 6289SOL    HW130326   2.469   2.819  10.849  0.6106 -2.1585 -1.8083
 6289SOL    HW230327   2.484   2.738  10.972 -0.0541  0.9976  0.4384
 6290SOL     OW30328   2.447   3.654   7.132 -0.0336 -0.9962  0.1799
 6290SOL    HW130329   2.368   3.706   7.151 -0.5369 -1.0318 -1.7827
 6290SOL    HW230330   2.492   3.672   7.215  2.5660 -0.6547 -1.3222
 6291SOL     OW30331   3.033   1.813  14.249  0.5863 -0.1737 -0.7555
 6291SOL    HW130332   2.988   1.886  14.290  0.8173 -1.1185  1.2104
 6291SOL    HW230333   3.040   1.838  14.157 -0.8979 -4.2481 -1.9741
 6292SOL     OW30334   2.339   0.950   4.005 -0.0281 -0.3197 -0.4529
 6292SOL    HW130335   2.376   0.890   3.941  2.6492 -1.4788  2.1554
 6292SOL    HW230336   2.244   0.942   4.013  0.1860 -1.4569  0.9079
 6293SOL     OW30337   2.882   1.551   1.993  0.4520 -0.0452  0.0380
 6293SOL    HW130338   2.916   1.489   1.929  1.5950  0.8437 -0.2343
 6293SOL    HW230339   2.955   1.553   2.055  0.0254  0.0375  0.5359
 6294SOL     OW30340   3.047   2.877   5.728 -0.3251 -0.0570 -0.2175
 6294SOL    HW130341   3.076   2.823   5.801 -1.6882 -2.2609 -1.3086
 6294SOL    HW230342   2.954   2.884   5.749 -0.3418  1.7537 -0.8954
 6295SOL     OW30343   2.855   2.426   0.657 -0.4858 -0.0789 -0.0927
 6295SOL    HW130344   2.909   2.486   0.605 -1.5548  2.0073  1.2426
 6295SOL    HW230345   2.922   2.390   0.715  0.4075  0.2553 -0.9015
 6296SOL     OW30346   2.805   0.120  12.919  0.1253 -0.0481 -0.7688
 6296SOL    HW130347   2.786   0.173  12.996 -1.6785 -0.8808 -0.6481
 6296SOL    HW230348   2.717   0.100  12.886  0.2223 -1.4197 -0.1851
 6297SOL     OW30349   3.660   0.999   6.371  0.4311 -0.1608 -0.0926
 6297SOL    HW130350   3.673   1.094   6.381  0.2235 -0.3443  1.7967
 6297SOL    HW230351   3.637   0.976   6.461  1.6087  0.5611  0.3974
 6298SOL     OW30352   1.705   3.155  12.739  0.4436 -0.0927  0.9421
 6298SOL    HW130353   1.673   3.151  12.829 -2.0100  2.0573  0.1653
 6298SOL    HW230354   1.732   3.246  12.736  0.2067  0.0020  1.6736
 6299SOL     OW30355   1.330   4.604   1.394  0.0602 -0.4466 -0.2774
 6299SOL    HW130356   1.370   4.630   1.310 -1.3714  0.7784 -0.5906
 6299SOL    HW230357   1.329   4.691   1.434 -0.5569  0.0237 -1.2848
 6300SOL     OW30358   2.874   0.342   8.690 -0.3530  0.1413 -0.3216
 6300SOL    HW130359   2.828   0.259   8.680  0.4089 -0.5698  1.9587
 6300SOL    HW230360   2.961   0.307   8.671 -0.1289 -0.9731  2.7217
 6301SOL     OW30361   1.505   1.278   4.117  0.0785  0.0655 -0.6721
 6301SOL    HW130362   1.436   1.338   4.146 -0.6806 -1.7860  1.3571
 6301SOL    HW230363   1.443   1.218   4.075  0.6779  0.0415 -1.5360
 6302SOL     OW30364   1.748   0.723   6.529  0.2337  0.3728  0.7481
 6302SOL    HW130365   1.839   0.725   6.500 -0.1049  0.3331 -0.2986
 6302SOL    HW230366   1.758   0.738   6.623  1.0796 -1.5795  0.9630
 6303SOL     OW30367   3.584   2.553   0.210  0.7358  0.0410  0.6472
 6303SOL    HW130368   3.558   2.636   0.250 -1.1704 -0.3706  0.2535
 6303SOL    HW230369   3.563   2.492   0.280 -1.0570 -0.5766 -0.4202
 6304SOL     OW30370   2.841   2.776  16.374 -0.3244  0.3837 -0.6644
 6304SOL    HW130371   2.933   2.792  16.395 -0.1543 -1.6774  0.2336
 6304SOL    HW230372   2.830   2.853  16.319  2.8865 -0.3452 -2.3013
 6305SOL     OW30373   3.463   3.860  15.651 -0.3835 -0.3302 -0.1291
 6305SOL    HW130374   3.480   3.951  15.676  1.1957 -0.7470  0.2922
 6305SOL    HW230375   3.495   3.816  15.730 -1.9401 -0.5268  0.3930
 6306SOL     OW30376   1.131   1.858   5.965  0.2333  0.1881 -0.1921
 6306SOL    HW130377   1.098   1.819   6.046  1.0620 -0.2237 -0.0526
 6306SOL    HW230378   1.225   1.845   5.974  0.2958  0.4093 -0.5629
 6307SOL     OW30379   1.567   1.235   5.336  0.7703  0.2544 -0.2377
 6307SOL    HW130380   1.603   1.316   5.372 -2.6625  1.7232 -0.0501
 6307SOL    HW230381   1.475   1.260   5.323  1.3014  2.5053  0.2978
 6308SOL     OW30382   3.868   2.723   7.838  0.7694 -0.0918  0.2872
 6308SOL    HW130383   3.861   2.816   7.860 -0.0340 -0.5536  1.9430
 6308SOL    HW230384   3.921   2.738   7.759  1.5061  1.8598  1.1470
 6309SOL     OW30385   2.139   4.334   7.431  0.2663 -0.3663  0.4089
 6309SOL    HW130386   2.224   4.290   7.439  1.2493  1.5002  0.3814
 6309SOL    HW230387   2.127   4.327   7.337  2.7528 -1.3664  0.1642
 6310SOL     OW30388   4.713   4.706   5.658  0.2366 -0.0685  0.0955
 6310SOL    HW130389   4.619   4.706   5.677  0.2152  0.1218 -0.0078
 6310SOL    HW230390   0.022   0.048   5.722  0.1619  0.9274 -0.8802
 6311SOL     OW30391   1.883   2.839   2.263  0.5175  0.0790  0.1144
 6311SOL    HW130392   1.854   2.761   2.216  0.2692 -0.2558  0.8199
 6311SOL    HW230393   1.954   2.801   2.315  3.2937  0.8925 -3.1370
 6312SOL     OW30394   1.416   1.054   8.492  0.9575 -0.3834  0.0314
 6312SOL    HW130395   1.495   1.080   8.539 -0.1043  1.5367  0.7321
 6312SOL    HW230396   1.451   0.974   8.453 -0.5837 -1.3089  0.5449
 6313SOL     OW30397   4.676   3.087   0.942  0.2757 -0.1554  0.4852
 6313SOL    HW130398   4.627   3.154   0.894  0.1001 -0.1294  0.7008
 6313SOL    HW230399   4.707   3.132   1.020  1.3725 -1.0798  0.5883
 6314SOL     OW30400   0.334   2.234  17.164 -0.7348 -0.4182 -0.1299
 6314SOL    HW130401   0.321   2.265  17.254 -0.3616 -0.4583 -0.0600
 6314SOL    HW230402   0.280   2.294  17.113  1.0743  0.5337 -0.9521
 6315SOL     OW30403   2.436   0.270   4.996 -0.6988  0.1626 -0.1579
 6315SOL    HW130404   2.451   0.218   4.917  0.0550  1.2137 -0.6981
 6315SOL    HW230405   2.432   0.200   5.061 -1.7046  0.5181  0.1728
 6316SOL     OW30406   2.474   3.754   3.924  0.5295 -0.2904  0.1396
 6316SOL    HW130407   2.562   3.724   3.900 -0.4945 -3.1404 -0.0512
 6316SOL    HW230408   2.483   3.770   4.017 -1.9534  1.4958  0.0669
 6317SOL     OW30409   2.822   2.456   9.685 -0.1896 -0.4880  0.3179
 6317SOL    HW130410   2.852   2.433   9.597 -1.6875 -0.2374 -0.2577
 6317SOL    HW230411   2.787   2.544   9.671 -1.9178 -1.4586 -1.5561
 6318SOL     OW30412   0.714   2.166   7.444  0.4743  0.6521  0.0735
 6318SOL    HW130413   0.755   2.182   7.529 -1.8682 -1.5113  1.6262
 6318SOL    HW230414   0.771   2.100   7.406  1.6781  2.8755 -1.9718
 6319SOL     OW30415   2.179   2.819  16.200  0.1949 -0.8446  0.0539
 6319SOL    HW130416   2.176   2.914  16.212 -2.1595 -0.7343 -1.2301
 6319SOL    HW230417   2.087   2.795  16.209 -0.5027  0.8615 -2.3837
 6320SOL     OW30418   2.201   1.757  15.659 -0.0423 -0.4600 -0.5727
 6320SOL    HW130419   2.205   1.780  15.566  1.3803 -0.0937 -0.4330
 6320SOL    HW230420   2.270   1.815  15.692 -0.3734 -0.9305  0.9670
 6321SOL     OW30421   0.188   3.507   9.170  0.1289  0.2523 -0.2764
 6321SOL    HW130422   0.167   3.414   9.165 -1.0861  0.4495  1.1492
 6321SOL    HW230423   0.113   3.546   9.126 -1.9844 -3.0723  0.3679
 6322SOL     OW30424   0.928   0.435   4.675 -0.5265 -0.0960  0.3465
 6322SOL    HW130425   1.006   0.435   4.731  0.3117 -1.6205 -0.8086
 6322SOL    HW230426   0.954   0.391   4.594  1.3943  0.9394  0.3852
 6323SOL     OW30427   4.501   0.163   4.651 -0.2041 -0.4471 -0.2174
 6323SOL    HW130428   4.525   0.211   4.730  1.0130  1.0116 -1.4840
 6323SOL    HW230429   4.417   0.200   4.623 -0.4555 -1.2264 -0.4966
 6324SOL     OW30430   2.338   1.180   8.209  0.4550  0.3368 -0.5256
 6324SOL    HW130431   2.309   1.246   8.146 -0.2028  1.0921  0.5709
 6324SOL    HW230432   2.428   1.163   8.181  1.0668  2.0601  0.4332
 6325SOL     OW30433   2.002   2.484   0.081  0.5145  0.3627  0.0455
 6325SOL    HW130434   2.023   2.439   0.163 -2.7447  0.5158  0.9673
 6325SOL    HW230435   2.075   2.544   0.091 -0.2837  1.3820 -0.2979
 6326SOL     OW30436   4.142   4.526   2.146 -0.2739  0.1089  0.1597
 6326SOL    HW130437   4.075   4.459   2.159  0.4739 -0.9375 -1.3566
 6326SOL    HW230438   4.116   4.586   2.216  0.5839 -0.0702  0.6276
 6327SOL     OW30439   3.978   0.665   7.062 -0.1089  0.1506 -0.0471
 6327SOL    HW130440   3.883   0.676   7.059 -0.2381 -0.9728  0.0779
 6327SOL    HW230441   3.999   0.632   6.975 -0.3356 -2.1939  0.7950
 6328SOL     OW30442   2.492   2.137   3.225  0.2895 -0.0617  0.5907
 6328SOL    HW130443   2.547   2.080   3.172  1.9240  0.8363  1.3098
 6328SOL    HW230444   2.433   2.077   3.270 -1.0858  1.6615  1.0970
 6329SOL     OW30445   0.368   2.054   4.486  0.1535  0.1988 -0.3588
 6329SOL    HW130446   0.338   2.005   4.410 -2.1058  2.3067 -0.8352
 6329SOL    HW230447   0.438   2.104   4.445 -0.0006  0.3070 -0.4917
 6330SOL     OW30448   2.438   3.208   9.023 -0.1746 -0.6419 -0.1271
 6330SOL    HW130449   2.498   3.282   9.021 -0.8818 -0.0252  1.5111
 6330SOL    HW230450   2.465   3.162   8.943  1.0741 -1.2713  0.6467
 6331SOL     OW30451   4.419   1.003   0.955  0.0358 -0.5289 -0.0750
 6331SOL    HW130452   4.390   1.052   0.878  0.7680 -2.8194 -1.8027
 6331SOL    HW230453   4.453   1.082   0.998  1.7641  0.0850 -2.6183
 6332SOL     OW30454   0.813   2.586   5.207  0.2751  0.1045 -0.3207
 6332SOL    HW130455   0.792   2.590   5.300  1.1081 -0.6578 -0.1045
 6332SOL    HW230456   0.737   2.529   5.194 -0.4341  0.6610  1.4228
 6333SOL     OW30457   1.144   2.110   5.863 -0.0904  0.7225  0.0918
 6333SOL    HW130458   1.103   2.153   5.939  1.6650  0.3639  1.2338
 6333SOL    HW230459   1.138   2.016   5.878  2.2440  0.2198 -2.3319
 6334SOL     OW30460   4.626   0.983   1.507  0.1274  0.3065  0.5002
 6334SOL    HW130461   4.702   0.986   1.449  0.2217  1.1940  0.6782
 6334SOL    HW230462   4.588   0.898   1.485  0.2559  0.4011 -0.0741
 6335SOL     OW30463   3.188   0.562   7.487 -0.5528 -0.1091  1.0075
 6335SOL    HW130464   3.180   0.651   7.520 -1.1899 -0.1991  1.0836
 6335SOL    HW230465   3.236   0.572   7.405 -0.0776  1.1026  1.4371
 6336SOL     OW30466   2.174   1.291   9.973  0.0762 -0.3945 -0.6645
 6336SOL    HW130467   2.261   1.271  10.008  0.5539  2.1565 -0.4368
 6336SOL    HW230468   2.173   1.228   9.900 -0.6703  1.6071 -2.3697
 6337SOL     OW30469   4.670   0.004   4.502 -0.4844 -0.5291 -0.2017
 6337SOL    HW130470   4.634   4.639   4.491 -0.4685 -0.2699 -2.3679
 6337SOL    HW230471   4.598   0.055   4.537 -0.3082  0.9661 -1.9989
 6338SOL     OW30472   3.210   4.208   2.472  0.3006 -0.0856  0.1605
 6338SOL    HW130473   3.208   4.251   2.387  3.7596  1.3840  0.8093
 6338SOL    HW230474   3.125   4.163   2.476  1.6962 -2.8307 -0.8399
 6339SOL     OW30475   3.073   2.016  14.035  0.0967 -0.2908 -0.1041
 6339SOL    HW130476   3.016   2.084  14.072  0.7983 -0.7425  1.8405
 6339SOL    HW230477   3.022   1.987  13.960  1.0198 -0.1993 -0.7721
 6340SOL     OW30478   1.473   0.501   0.607  0.1038 -0.0301  0.4065
 6340SOL    HW130479   1.506   0.422   0.564 -0.0649 -0.0955  0.3977
 6340SOL    HW230480   1.497   0.576   0.552  0.0920  0.6697  1.3721
 6341SOL     OW30481   1.414   0.738   1.230  0.0190 -0.5855  0.6361
 6341SOL    HW130482   1.414   0.697   1.143  0.7001  1.9736 -0.5445
 6341SOL    HW230483   1.412   0.674   1.301  1.1914  0.0904  1.2758
 6342SOL     OW30484   2.229   0.908   8.636  0.1320  0.0636 -0.1498
 6342SOL    HW130485   2.227   0.866   8.722 -1.6835 -0.7755 -0.5994
 6342SOL    HW230486   2.140   0.941   8.624  0.7437  1.6558 -0.2382
 6343SOL     OW30487   0.021   4.495  15.523  0.1518  0.0992  0.4238
 6343SOL    HW130488   4.714   4.455  15.605 -0.9239  2.2830  1.1152
 6343SOL    HW230489   4.715   4.418  15.473 -1.6071  0.3509  1.0315
 6344SOL     OW30490   3.503   0.853  17.386  0.5004 -0.5149  0.7870
 6344SOL    HW130491   3.468   0.938  17.415  0.5608 -0.2208 -0.0187
 6344SOL    HW230492   3.522   0.804  17.466 -1.1263  0.3038  1.6873
 6345SOL     OW30493   1.855   1.824  16.984 -0.3080  0.6256  0.2753
 6345SOL    HW130494   1.853   1.900  16.926 -0.1227  0.4272  0.0021
 6345SOL    HW230495   1.762   1.812  17.001  0.5298 -0.0755  4.2195
 6346SOL     OW30496   0.675   3.134  13.710  0.0783  0.1353 -0.2978
 6346SOL    HW130497   0.730   3.074  13.760 -1.5103  0.9324  2.4317
 6346SOL    HW230498   0.663   3.206  13.773 -1.4863  0.5265 -1.0514
 6347SOL     OW30499   3.604   2.656   6.529 -0.2437  0.3159  0.2074
 6347SOL    HW130500   3.597   2.577   6.582 -0.0069  0.7509  0.8767
 6347SOL    HW230501   3.513   2.663   6.502 -0.4909 -0.9276  0.7225
 6348SOL     OW30502   0.447   1.209   8.794 -0.0929  0.1884 -0.4342
 6348SOL    HW130503   0.461   1.128   8.745  1.4355  0.2562 -0.1139
 6348SOL    HW230504   0.531   1.254   8.795 -0.2873  0.5738 -2.1673
 6349SOL     OW30505   1.083   2.558   5.771  0.1768 -0.3591 -0.1496
 6349SOL    HW130506   1.173   2.526   5.762 -0.0407 -0.0344 -3.5535
 6349SOL    HW230507   1.080   2.590   5.680  0.5895 -0.3246 -0.1511
 6350SOL     OW30508   2.190   3.631  17.494  0.4428  0.4118 -0.4313
 6350SOL    HW130509   2.258   3.564  17.491  0.4055  0.4654 -3.0224
 6350SOL    HW230510   2.116   3.571  17.493  0.5942  0.2261 -0.4405
 6351SOL     OW30511   1.123   0.864   0.894 -0.1061  0.1265  0.7325
 6351SOL    HW130512   1.072   0.825   0.823  0.4571  0.5989  0.0657
 6351SOL    HW230513   1.203   0.812   0.887  2.5386  4.2719  0.4716
 6352SOL     OW30514   4.671   2.692   2.516  0.5890  0.7429 -0.2212
 6352SOL    HW130515   0.036   2.661   2.538  0.8472 -0.0862 -2.3865
 6352SOL    HW230516   4.685   2.726   2.427 -0.9078  1.9279 -0.0133
 6353SOL     OW30517   1.932   0.525  11.565  0.3581  0.1170  0.1585
 6353SOL    HW130518   2.020   0.507  11.534  0.9167 -0.9519  2.3541
 6353SOL    HW230519   1.883   0.507  11.485  2.5930 -0.0563 -1.1590
 6354SOL     OW30520   3.791   3.087  14.605 -0.3130 -0.5565 -0.3378
 6354SOL    HW130521   3.777   3.004  14.558  0.3984 -0.3299 -0.9523
 6354SOL    HW230522   3.849   3.059  14.676  0.8988 -0.1745 -1.1767
 6355SOL     OW30523   3.882   3.353   2.047 -0.0632  0.3669 -0.3157
 6355SOL    HW130524   3.913   3.431   2.093 -2.4560 -1.0622  3.7078
 6355SOL    HW230525   3.880   3.289   2.118  0.2893  0.7187  0.0134
 6356SOL     OW30526   2.266   3.935   2.864  0.1510  0.0977 -0.0853
 6356SOL    HW130527   2.189   3.904   2.816  0.1103  0.9726 -0.5777
 6356SOL    HW230528   2.232   3.958   2.950 -0.3292  0.9658 -0.5151
 6357SOL     OW30529   3.706   4.603  11.155  0.6257  0.5138 -0.0349
 6357SOL    HW130530   3.640   4.547  11.114  0.6965  1.3893 -1.3208
 6357SOL    HW230531   3.714   4.683  11.103  0.1234 -0.1198 -1.0890
 6358SOL     OW30532   1.097   2.810   3.535  0.9047 -0.4942  0.1305
 6358SOL    HW130533   1.171   2.860   3.501  1.5249 -0.3390  1.6806
 6358SOL    HW230534   1.113   2.726   3.493 -0.6748 -0.8086  0.1592
 6359SOL     OW30535   2.819   1.802   7.496 -0.5736 -0.3444  0.1886
 6359SOL    HW130536   2.751   1.811   7.429  0.6809  0.2861 -1.0163
 6359SOL    HW230537   2.763   1.803   7.574  0.5454  0.3731  0.9852
 6360SOL     OW30538   1.196   4.208   4.704 -0.1341  0.1619 -0.0515
 6360SOL    HW130539   1.161   4.145   4.766  1.3171 -0.7516 -0.1652
 6360SOL    HW230540   1.187   4.289   4.756  3.7382 -1.1217  2.5994
 6361SOL     OW30541   3.355   1.341   7.095 -0.9166 -0.0339 -0.6722
 6361SOL    HW130542   3.264   1.354   7.122 -0.9591  0.8214 -1.2164
 6361SOL    HW230543   3.361   1.406   7.025 -0.6069  1.3386  0.6266
 6362SOL     OW30544   2.141   3.915   9.719 -0.0853  0.0851  0.2292
 6362SOL    HW130545   2.104   4.000   9.695 -2.2907 -2.0078 -3.7662
 6362SOL    HW230546   2.056   3.880   9.747 -1.0056  1.7149 -0.5386
 6363SOL     OW30547   3.492   3.600   2.339 -0.0859  0.2913 -0.4708
 6363SOL    HW130548   3.443   3.570   2.262 -0.1760 -0.5046 -0.1055
 6363SOL    HW230549   3.421   3.597   2.403  0.7815 -1.7306  0.3817
 6364SOL     OW30550   4.077   2.204  13.912  0.7016 -0.3172 -0.3101
 6364SOL    HW130551   4.033   2.282  13.878  3.1124  1.4098  0.5262
 6364SOL    HW230552   4.011   2.147  13.953 -0.5445  0.5186 -1.1219
 6365SOL     OW30553   2.572   3.354   5.725 -0.4784  0.5048 -0.5359
 6365SOL    HW130554   2.630   3.425   5.756 -1.3489  0.7672  0.5074
 6365SOL    HW230555   2.505   3.353   5.793  1.5825  1.1825  1.5276
 6366SOL     OW30556   3.872   3.208   4.638  0.0059 -0.1491  0.1569
 6366SOL    HW130557   3.872   3.133   4.696  0.5624  0.9284  1.5415
 6366SOL    HW230558   3.955   3.200   4.590 -0.1801  1.8987 -0.5180
 6367SOL     OW30559   2.783   0.403  14.900  0.0735 -0.4569  0.2082
 6367SOL    HW130560   2.746   0.435  14.982 -1.6901 -0.1260 -0.7205
 6367SOL    HW230561   2.711   0.360  14.855 -1.1512  0.2923  1.4648
 6368SOL     OW30562   0.032   1.451   6.113 -0.3774  0.0109 -0.0102
 6368SOL    HW130563   0.005   1.375   6.062 -0.2755  0.8059 -1.2263
 6368SOL    HW230564   0.004   1.431   6.203  1.8006 -0.4885  0.5450
 6369SOL     OW30565   1.936   0.859  10.106  0.2346  0.2219  0.6572
 6369SOL    HW130566   1.857   0.914  10.109  1.5209  1.8831  3.6853
 6369SOL    HW230567   1.938   0.841  10.012  0.2693 -1.9024  1.0670
 6370SOL     OW30568   3.414   3.991   5.595 -0.0759  0.5468 -0.4109
 6370SOL    HW130569   3.350   4.061   5.593 -2.5234 -1.6995 -0.8301
 6370SOL    HW230570   3.484   4.023   5.653 -0.8950 -1.3138  1.6171
 6371SOL     OW30571   0.414   3.450   8.496  0.3116  0.2182  0.3004
 6371SOL    HW130572   0.462   3.410   8.569  1.0896  0.5779 -0.0201
 6371SOL    HW230573   0.328   3.407   8.499  0.1143  0.6136  0.4003
 6372SOL     OW30574   0.041   4.521  14.424  0.1289  0.0623 -0.1097
 6372SOL    HW130575   4.675   4.554  14.442 -1.0582 -3.8194  1.2185
 6372SOL    HW230576   0.047   4.566  14.340 -0.2848  2.1532  0.9640
 6373SOL     OW30577   2.929   4.461   7.131 -0.6157 -0.2740 -0.1582
 6373SOL    HW130578   2.871   4.413   7.189  2.5945 -2.3853  1.2865
 6373SOL    HW230579   2.865   4.522   7.094 -0.9690 -0.2584  0.4826
 6374SOL     OW30580   0.532   0.906   7.106  0.0696 -0.0470 -0.1022
 6374SOL    HW130581   0.524   0.847   7.031  1.0223 -0.8279  0.4042
 6374SOL    HW230582   0.555   0.847   7.178 -4.1562  0.2209  1.4969
 6375SOL     OW30583   0.163   3.005   6.457  0.5149  0.2188  0.5796
 6375SOL    HW130584   0.165   3.080   6.515 -0.0915  0.7069 -0.0373
 6375SOL    HW230585   0.225   3.041   6.394 -0.1571  1.8021  0.8318
 6376SOL     OW30586   1.488   0.779  11.879 -1.2220  0.4125 -0.2944
 6376SOL    HW130587   1.524   0.789  11.791  0.3013  0.1554  0.3086
 6376SOL    HW230588   1.396   0.786  11.853 -0.8646  2.4976 -0.9529
 6377SOL     OW30589   0.019   1.507   5.183 -0.8905 -0.3907 -0.0739
 6377SOL    HW130590   4.651   1.485   5.207 -1.9149  2.8691 -0.9856
 6377SOL    HW230591   0.064   1.434   5.226 -0.2952 -0.5369 -0.9440
 6378SOL     OW30592   2.735   2.740   0.126 -0.1022 -0.2859 -0.1722
 6378SOL    HW130593   2.750   2.697   0.042  1.3251 -1.9309  0.9469
 6378SOL    HW230594   2.659   2.691   0.158 -1.5783  2.5719  0.7146
 6379SOL     OW30595   0.629   3.901   3.208 -1.0278  0.2447 -0.0712
 6379SOL    HW130596   0.672   3.983   3.233 -1.3773  1.2184 -2.6125
 6379SOL    HW230597   0.672   3.860   3.133  0.3361 -1.2296  1.5317
 6380SOL     OW30598   2.960   4.675   8.829 -0.2493 -0.4944 -0.5620
 6380SOL    HW130599   2.926   0.031   8.786  1.2773 -0.1324 -1.0975
 6380SOL    HW230600   2.940   4.609   8.763  0.7041  0.0244 -1.3822
 6381SOL     OW30601   4.546   3.803   8.685 -0.6184  0.7232 -0.1109
 6381SOL    HW130602   4.590   3.844   8.610 -0.2634  0.7333  0.1026
 6381SOL    HW230603   4.617   3.793   8.748  0.3124 -1.4299 -1.5075
 6382SOL     OW30604   3.749   1.098  11.204 -0.6265 -0.3192 -0.5930
 6382SOL    HW130605   3.704   1.067  11.283 -2.0640  1.2923 -0.7715
 6382SOL    HW230606   3.719   1.031  11.142 -0.7032 -1.5727  0.7792
 6383SOL     OW30607   1.869   3.892   6.643 -0.2052 -0.1598 -0.6132
 6383SOL    HW130608   1.941   3.956   6.641 -0.5494  0.2365 -0.3848
 6383SOL    HW230609   1.893   3.840   6.719 -3.0916  0.0523  0.4319
 6384SOL     OW30610   1.077   2.800   2.026 -0.2104 -0.1072 -0.1320
 6384SOL    HW130611   1.018   2.858   2.073  2.3396 -1.3174  4.5335
 6384SOL    HW230612   1.023   2.722   2.016  0.5273 -0.7660  1.0671
 6385SOL     OW30613   0.735   1.358  15.330 -0.5428  0.1599 -0.2894
 6385SOL    HW130614   0.666   1.309  15.285  0.5977  0.1378 -2.0280
 6385SOL    HW230615   0.790   1.388  15.258  2.0351  0.3384  1.7444
 6386SOL     OW30616   0.444   1.882  10.213  0.5978  0.1721 -0.5113
 6386SOL    HW130617   0.513   1.946  10.197  2.1080 -0.8959  1.6993
 6386SOL    HW230618   0.490   1.803  10.185  0.3978 -0.7222  1.6624
 6387SOL     OW30619   4.261   0.852   3.254 -0.3243 -0.3921  0.1492
 6387SOL    HW130620   4.287   0.812   3.171 -0.1978 -0.4730  0.2290
 6387SOL    HW230621   4.343   0.850   3.303  1.3576  0.1777 -2.5903
 6388SOL     OW30622   4.325   1.525  10.254 -0.4198  0.4790  0.2744
 6388SOL    HW130623   4.298   1.517  10.345  0.0150  1.5650  0.5036
 6388SOL    HW230624   4.418   1.549  10.254  0.1383 -1.6497 -0.1109
 6389SOL     OW30625   2.459   3.590  10.877  0.0844 -0.2464 -0.0693
 6389SOL    HW130626   2.440   3.534  10.952  0.4660 -1.9996 -1.2914
 6389SOL    HW230627   2.485   3.524  10.812  0.0704 -3.5069  3.2615
 6390SOL     OW30628   0.438   3.578   6.040 -0.1489 -0.2676  0.2016
 6390SOL    HW130629   0.442   3.673   6.051 -2.0664  0.0897 -2.1587
 6390SOL    HW230630   0.493   3.572   5.962  0.9217 -0.7551  0.9927
 6391SOL     OW30631   0.805   3.873   8.343 -0.0750  0.0205  0.7086
 6391SOL    HW130632   0.753   3.953   8.332  1.2902  1.0163  1.5707
 6391SOL    HW230633   0.878   3.899   8.399  0.6471 -1.1107  0.2673
 6392SOL     OW30634   2.714   3.296   6.046  0.7588 -0.4310 -0.3584
 6392SOL    HW130635   2.766   3.217   6.030  0.1688 -0.7717 -0.5896
 6392SOL    HW230636   2.729   3.311   6.139  1.4843 -1.8558 -0.2330
 6393SOL     OW30637   4.401   3.011  14.256  0.1179 -0.0303  0.6199
 6393SOL    HW130638   4.441   2.938  14.210  1.5388 -0.1539  2.0125
 6393SOL    HW230639   4.335   3.040  14.194 -2.7726 -3.0676  2.2716
 6394SOL     OW30640   3.293   0.957   1.463  0.1266  0.1580 -0.0029
 6394SOL    HW130641   3.259   0.984   1.377 -0.4131 -0.2288  0.0896
 6394SOL    HW230642   3.375   0.915   1.436  0.6056  0.2261  1.3737
 6395SOL     OW30643   2.371   4.366   5.548  0.4234  0.3822  0.4964
 6395SOL    HW130644   2.312   4.399   5.615  1.3266  2.1449  0.4054
 6395SOL    HW230645   2.443   4.427   5.567 -0.3177  1.5251 -0.4069
 6396SOL     OW30646   1.472   1.994  14.515  0.0476  0.0196 -0.7428
 6396SOL    HW130647   1.511   1.985  14.428  0.5717 -1.4224 -0.3550
 6396SOL    HW230648   1.411   1.921  14.518  0.3654 -0.1355  1.6756
 6397SOL     OW30649   3.555   0.029   4.621  0.0183 -0.2451  0.0044
 6397SOL    HW130650   3.606   4.717   4.694 -1.3447  1.8849  1.9525
 6397SOL    HW230651   3.504   0.079   4.685  0.5806 -3.1327  2.7403
 6398SOL     OW30652   0.924   0.711   1.276  0.4262  0.3120 -0.3651
 6398SOL    HW130653   1.000   0.745   1.323 -0.3124 -0.2017  1.2045
 6398SOL    HW230654   0.870   0.789   1.268  0.5387  0.3356 -0.8881
 6399SOL     OW30655   1.119   2.424  14.738 -0.5090  0.2539  0.4670
 6399SOL    HW130656   1.191   2.424  14.801 -1.4975  0.2605  1.5953
 6399SOL    HW230657   1.086   2.335  14.736 -0.2335  0.1449  0.7753
 6400SOL     OW30658   1.970   2.550  15.701 -0.4367  0.8365  0.2566
 6400SOL    HW130659   1.923   2.624  15.662 -2.5988 -0.1076  1.0556
 6400SOL    HW230660   1.990   2.504  15.620  2.1677  1.2848  0.6321
 6401SOL     OW30661   2.182   2.782   3.893 -0.0556  0.6247 -0.3539
 6401SOL    HW130662   2.239   2.810   3.821 -0.9044  2.0749 -0.4495
 6401SOL    HW230663   2.207   2.853   3.951  0.2642 -0.3343  0.6886
 6402SOL     OW30664   4.191   1.295   5.449  0.9136 -0.4499  0.1439
 6402SOL    HW130665   4.185   1.386   5.477 -1.5904 -0.1268 -1.4741
 6402SOL    HW230666   4.226   1.303   5.360  1.4494 -0.4643  0.3531
 6403SOL     OW30667   3.542   2.260   3.543  0.1462 -0.4290  0.0044
 6403SOL    HW130668   3.572   2.172   3.519 -0.6343 -1.0580  1.3370
 6403SOL    HW230669   3.624   2.308   3.546  0.5022 -0.9855 -0.5580
 6404SOL     OW30670   3.808   1.208  10.846  0.4782 -0.6775 -0.2688
 6404SOL    HW130671   3.869   1.162  10.903  0.7938  1.4052  1.0733
 6404SOL    HW230672   3.863   1.256  10.784  3.1065 -1.8886  1.1336
 6405SOL     OW30673   4.191   3.903  14.103 -0.2504  0.8946  0.6023
 6405SOL    HW130674   4.096   3.914  14.106 -0.3816  0.3260 -1.7190
 6405SOL    HW230675   4.202   3.877  14.195  3.0612  1.7059  0.4422
 6406SOL     OW30676   3.465   4.508   2.447 -0.2262  0.2298  0.6191
 6406SOL    HW130677   3.461   4.595   2.407 -2.4081 -0.2455 -0.2102
 6406SOL    HW230678   3.450   4.455   2.369 -1.6636 -0.4357  1.3428
 6407SOL     OW30679   3.967   1.243  10.607  0.4621  0.1084 -0.1105
 6407SOL    HW130680   3.896   1.189  10.572 -0.2917  0.4591  0.8695
 6407SOL    HW230681   3.932   1.331  10.594  1.6840  0.4035 -1.4687
 6408SOL     OW30682   0.339   4.519   4.839  0.2859 -0.0322 -0.1672
 6408SOL    HW130683   0.390   4.489   4.764  1.6729 -0.4245  0.9556
 6408SOL    HW230684   0.250   4.496   4.810 -1.6194  3.1733  3.0063
 6409SOL     OW30685   1.748   2.641  13.329  0.1985  0.2673 -0.2583
 6409SOL    HW130686   1.815   2.634  13.261  1.0688  0.0272  0.6302
 6409SOL    HW230687   1.794   2.696  13.392  0.1534 -0.8709  0.7557
 6410SOL     OW30688   4.127   4.127  11.880 -0.1749 -0.0410  0.2815
 6410SOL    HW130689   4.038   4.107  11.850 -1.0873 -0.5102  3.3222
 6410SOL    HW230690   4.140   4.220  11.863  2.3268 -0.3002  0.7663
 6411SOL     OW30691   1.300   2.766  10.841 -0.3031  0.1311 -0.7868
 6411SOL    HW130692   1.236   2.697  10.858  3.2700 -2.7420  1.1495
 6411SOL    HW230693   1.309   2.754  10.747 -0.4066  0.8155 -0.8808
 6412SOL     OW30694   0.097   1.046   4.043  0.5548  0.8924 -0.3286
 6412SOL    HW130695   0.097   1.137   4.011  0.7490  0.2748 -2.0961
 6412SOL    HW230696   0.186   1.038   4.078  0.4402  0.8764 -0.0437
 6413SOL     OW30697   1.395   2.971   6.993  0.2808 -0.6687  0.4241
 6413SOL    HW130698   1.385   2.876   6.999  0.7885 -0.8066 -0.9213
 6413SOL    HW230699   1.489   2.973   7.013  0.5052 -0.1274 -0.6731
 6414SOL     OW30700   0.063   3.735   6.141  0.7921  0.3540 -0.0292
 6414SOL    HW130701   0.158   3.738   6.152  0.9057 -0.1146 -0.9168
 6414SOL    HW230702   0.051   3.662   6.081  0.9235  1.2115 -1.0901
 6415SOL     OW30703   3.949   4.670   5.312  0.3071 -0.1626 -0.3592
 6415SOL    HW130704   3.900   0.029   5.319  1.4427  0.3703  1.2745
 6415SOL    HW230705   3.972   4.668   5.219 -0.0924 -0.7065 -0.4505
 6416SOL     OW30706   3.178   0.463   6.266 -0.3945 -0.3094 -0.0596
 6416SOL    HW130707   3.246   0.403   6.296  0.5984  0.8967  0.0513
 6416SOL    HW230708   3.199   0.485   6.176 -0.3646  2.3740  0.5931
 6417SOL     OW30709   2.875   2.381   5.054  0.4324  0.4567  0.3583
 6417SOL    HW130710   2.955   2.338   5.024  0.7658 -0.3817  2.5377
 6417SOL    HW230711   2.886   2.380   5.149  1.1446  1.6113  0.2958
 6418SOL     OW30712   2.152   0.368   3.980 -0.1451  0.5924  0.1747
 6418SOL    HW130713   2.223   0.325   4.028 -0.5355  3.1585  3.0359
 6418SOL    HW230714   2.185   0.454   4.007 -0.3887  0.5869  0.4808
 6419SOL     OW30715   4.175   0.696   8.307  0.4874 -0.1231 -0.3106
 6419SOL    HW130716   4.255   0.702   8.255  0.8741  1.1797  0.4391
 6419SOL    HW230717   4.114   0.667   8.239 -2.3940  2.0804  1.3391
 6420SOL     OW30718   1.950   0.368  15.465 -0.1891  0.4700 -0.4133
 6420SOL    HW130719   2.041   0.364  15.494  0.1532 -0.4587 -1.5925
 6420SOL    HW230720   1.909   0.432  15.523 -1.1790 -2.8169  2.4544
 6421SOL     OW30721   1.406   4.312  16.472 -0.2452 -0.0806  0.4459
 6421SOL    HW130722   1.439   4.252  16.405 -0.9987 -0.6627  0.5996
 6421SOL    HW230723   1.471   4.382  16.474 -0.8292  0.4919 -2.2239
 6422SOL     OW30724   3.358   1.320   5.725  0.0091 -1.0351 -0.6091
 6422SOL    HW130725   3.398   1.404   5.703 -1.9916  0.1000  0.0772
 6422SOL    HW230726   3.365   1.324   5.820 -2.1445 -1.2539 -0.4242
 6423SOL     OW30727   1.730   2.348   6.671 -0.3773 -0.0138 -0.1016
 6423SOL    HW130728   1.679   2.430   6.675 -0.0629  0.1051  1.3904
 6423SOL    HW230729   1.743   2.344   6.576 -2.9759  1.3517 -0.5293
 6424SOL     OW30730   0.191   4.696   3.025 -0.4233 -0.0987  0.2018
 6424SOL    HW130731   0.241   0.046   2.989  0.0164 -0.6912 -0.3729
 6424SOL    HW230732   0.249   4.620   3.017 -2.4046 -1.6649  0.4650
 6425SOL     OW30733   2.895   2.396   7.560  0.0668  0.3009 -0.4046
 6425SOL    HW130734   2.863   2.486   7.559 -2.2353 -0.4800  0.4953
 6425SOL    HW230735   2.986   2.413   7.584  0.6221 -2.2601 -0.7419
 6426SOL     OW30736   3.991   2.029   2.234 -0.3353  0.8880 -0.0476
 6426SOL    HW130737   3.942   2.097   2.188 -0.6018  0.5783 -0.2248
 6426SOL    HW230738   3.924   1.994   2.293 -0.0010 -1.2047 -0.9146
 6427SOL     OW30739   2.026   1.735  17.188  0.1217 -0.2511  0.2621
 6427SOL    HW130740   1.995   1.769  17.105  1.2505  0.9132  0.3198
 6427SOL    HW230741   1.950   1.754  17.244  0.2735  1.0290  0.0441
 6428SOL     OW30742   1.101   1.033   7.990 -0.2691  0.0067  0.2919
 6428SOL    HW130743   1.113   1.059   8.081  1.2691  0.3203  0.0063
 6428SOL    HW230744   1.125   0.940   7.996 -1.0454 -0.2585 -0.7074
 6429SOL     OW30745   1.360   2.117   2.985  0.1631 -0.1718  0.1623
 6429SOL    HW130746   1.361   2.025   3.012  2.2331  0.1709  1.2625
 6429SOL    HW230747   1.441   2.150   3.025  0.6706 -0.1666 -0.8780
 6430SOL     OW30748   4.408   4.575  10.652 -0.1906 -0.0955  0.4374
 6430SOL    HW130749   4.338   4.600  10.713 -1.9099  1.7347 -2.3015
 6430SOL    HW230750   4.474   4.587  10.721 -0.1626  0.5193  0.3076
 6431SOL     OW30751   2.945   2.274   3.986  0.0877  1.0059  0.7706
 6431SOL    HW130752   2.954   2.370   3.983 -0.3611  1.0459  0.7306
 6431SOL    HW230753   2.854   2.280   4.015 -0.4479 -0.2481 -0.7075
 6432SOL     OW30754   2.446   1.514  12.390 -0.2190  0.3272 -0.5573
 6432SOL    HW130755   2.412   1.551  12.472  0.4575  1.1634 -0.6512
 6432SOL    HW230756   2.506   1.450  12.429  0.3496  1.6940  0.8205
 6433SOL     OW30757   4.623   3.903   0.687  0.0295 -0.9635 -0.0178
 6433SOL    HW130758   4.715   3.933   0.688 -1.2106  2.9681 -2.2405
 6433SOL    HW230759   4.626   3.810   0.665  0.8428 -0.7405 -0.8629
 6434SOL     OW30760   4.162   4.346   4.378  0.0448  0.0475 -0.5783
 6434SOL    HW130761   4.163   4.332   4.284 -1.3600 -1.7561 -0.3379
 6434SOL    HW230762   4.226   4.416   4.383 -1.5366  1.6768 -3.5575
 6435SOL     OW30763   2.409   0.147  16.551  0.0689  0.1205 -0.2938
 6435SOL    HW130764   2.355   0.116  16.624 -2.8161 -0.3878 -2.6609
 6435SOL    HW230765   2.448   0.067  16.516 -1.0148 -0.0419 -1.1314
 6436SOL     OW30766   1.481   1.925  14.250 -0.4281 -0.1611 -0.3325
 6436SOL    HW130767   1.430   1.958  14.177  0.8475  1.2812 -0.5905
 6436SOL    HW230768   1.412   1.895  14.309 -3.0027  2.5383 -2.0328
 6437SOL     OW30769   2.586   0.511   5.031  0.1095 -0.3806  0.4102
 6437SOL    HW130770   2.516   0.445   5.029  1.6358 -1.9963 -0.2917
 6437SOL    HW230771   2.667   0.461   5.040 -0.1899 -0.9503 -0.0644
 6438SOL     OW30772   1.196   2.427   2.207 -0.4340  0.8712  0.3094
 6438SOL    HW130773   1.167   2.337   2.196  0.5754  0.4003  1.5202
 6438SOL    HW230774   1.212   2.451   2.116  2.4822  1.7583  1.0470
 6439SOL     OW30775   0.903   3.325  11.199 -0.0024  0.1512 -0.1348
 6439SOL    HW130776   0.969   3.308  11.132  0.6133 -0.6356  0.6663
 6439SOL    HW230777   0.957   3.369  11.265  1.1881  0.4927 -1.3273
 6440SOL     OW30778   3.445   3.240   8.183 -0.1962  0.3873 -0.0868
 6440SOL    HW130779   3.405   3.295   8.116  0.8027  2.3616  0.9657
 6440SOL    HW230780   3.486   3.305   8.239 -0.4616 -0.5262  1.1667
 6441SOL     OW30781   1.729   3.856   8.336  0.6308  0.1686  0.2688
 6441SOL    HW130782   1.693   3.865   8.248 -1.4038  0.0285  1.1067
 6441SOL    HW230783   1.722   3.761   8.343  2.0244  0.1648  1.6852
 6442SOL     OW30784   2.503   1.978   5.565  0.5451 -0.1985  0.4903
 6442SOL    HW130785   2.410   1.957   5.556  0.6453 -0.2432 -0.4010
 6442SOL    HW230786   2.491   2.062   5.610  1.0472 -0.5841  1.3622
 6443SOL     OW30787   3.391   1.683   8.255  0.0635  0.2149  0.2887
 6443SOL    HW130788   3.357   1.594   8.261 -1.5784  0.8969  1.1430
 6443SOL    HW230789   3.327   1.735   8.206 -0.4006  0.0824  0.7528
 6444SOL     OW30790   1.938   1.779   7.005  0.0675  0.0288 -0.1415
 6444SOL    HW130791   1.986   1.844   7.055 -0.4264  0.7046 -0.5414
 6444SOL    HW230792   1.850   1.813   7.024  0.6488  2.0214 -1.0635
 6445SOL     OW30793   3.385   1.091  14.055 -0.4107  0.0310 -0.1819
 6445SOL    HW130794   3.341   1.042  14.125 -2.6435  0.6358 -1.1704
 6445SOL    HW230795   3.319   1.156  14.032 -2.1721 -1.6608  0.1407
 6446SOL     OW30796   2.744   0.446  12.959  0.2048  0.1607  0.7777
 6446SOL    HW130797   2.727   0.431  13.052  1.2530 -0.4468  0.8806
 6446SOL    HW230798   2.748   0.542  12.960  1.2899  0.1206  1.1150
 6447SOL     OW30799   2.627   0.647   6.537 -0.2540  0.3477 -0.3210
 6447SOL    HW130800   2.624   0.611   6.626  3.1049 -2.1584 -1.2356
 6447SOL    HW230801   2.585   0.573   6.493 -0.7413  0.2962  0.2376
 6448SOL     OW30802   4.336   3.604   2.245 -0.2276 -0.3939 -0.1555
 6448SOL    HW130803   4.340   3.566   2.333  0.8998  1.5437  0.6267
 6448SOL    HW230804   4.306   3.691   2.271 -3.9380 -1.1777 -1.8401
 6449SOL     OW30805   3.239   0.553  15.881  0.1309  0.0713  1.1687
 6449SOL    HW130806   3.327   0.542  15.846 -0.9816 -1.4777 -1.2139
 6449SOL    HW230807   3.211   0.642  15.858 -1.2347 -0.2429  1.5902
 6450SOL     OW30808   4.392   1.040  12.460 -0.7099  0.3200 -0.1140
 6450SOL    HW130809   4.383   1.007  12.549 -0.8926 -1.0501 -0.6411
 6450SOL    HW230810   4.485   1.059  12.461 -0.3236 -1.6693  0.8144
 6451SOL     OW30811   4.194   1.214   6.734 -0.4471 -0.1111  0.4584
 6451SOL    HW130812   4.207   1.160   6.656  1.9414 -1.8266  2.0772
 6451SOL    HW230813   4.244   1.292   6.708 -3.0906  1.5077  0.2240
 6452SOL     OW30814   1.699   0.302  12.217 -0.2256  0.2984 -0.0939
 6452SOL    HW130815   1.703   0.313  12.312  1.5217 -0.3080 -0.0816
 6452SOL    HW230816   1.786   0.276  12.185 -0.1494 -0.1640  0.4950
 6453SOL     OW30817   3.251   1.022  13.695 -0.1770 -0.6717  0.2625
 6453SOL    HW130818   3.240   0.978  13.611 -0.8490 -2.4365  1.2742
 6453SOL    HW230819   3.237   1.115  13.677 -0.7154 -0.6065  0.9951
 6454SOL     OW30820   3.169   4.435   5.923  0.1880  0.1739 -0.6428
 6454SOL    HW130821   3.259   4.415   5.898  0.3521  1.5227 -1.1469
 6454SOL    HW230822   3.179   4.438   6.019  0.3091 -2.5398 -0.5828
 6455SOL     OW30823   0.916   1.564  14.488  0.1630  0.1104 -0.1282
 6455SOL    HW130824   0.862   1.508  14.432  0.4365 -0.5047  0.2115
 6455SOL    HW230825   0.935   1.500  14.557  1.9080  0.8286  0.0602
 6456SOL     OW30826   0.107   1.255   4.318 -0.0007  0.3223 -0.0673
 6456SOL    HW130827   0.157   1.192   4.266  0.9855  1.1155 -0.0824
 6456SOL    HW230828   0.093   1.200   4.396 -0.5272  1.1302  0.4004
 6457SOL     OW30829   3.453   3.379  15.263  0.0787  0.1905  0.4086
 6457SOL    HW130830   3.459   3.415  15.174  0.2964  0.6454  0.6061
 6457SOL    HW230831   3.387   3.311  15.256  0.5561 -0.1903 -0.5130
 6458SOL     OW30832   2.888   4.076  16.116  0.3027  0.5580  0.6441
 6458SOL    HW130833   2.813   4.044  16.065  0.4394  1.2561  0.0040
 6458SOL    HW230834   2.882   4.171  16.120 -0.8874  0.5862 -1.6805
 6459SOL     OW30835   0.281   2.763   5.887  0.2603 -0.0133  0.2499
 6459SOL    HW130836   0.186   2.755   5.882  0.1770  0.7201  0.5512
 6459SOL    HW230837   0.291   2.858   5.873  2.2796 -0.3503 -0.5224
 6460SOL     OW30838   0.611   2.666  14.836 -0.4383  0.4432 -0.2846
 6460SOL    HW130839   0.663   2.743  14.861  0.5251  0.4840 -2.4386
 6460SOL    HW230840   0.632   2.670  14.743 -0.3671  0.8186 -0.2528
 6461SOL     OW30841   1.820   0.568  12.365  0.0303  0.3570 -0.9576
 6461SOL    HW130842   1.825   0.619  12.284 -1.0157  0.6471 -0.8307
 6461SOL    HW230843   1.872   0.491  12.342  0.7744  0.1471  1.5147
 6462SOL     OW30844   2.074   2.321   7.023 -0.5365  0.6703  0.2553
 6462SOL    HW130845   1.980   2.305   7.011 -0.4893  1.1959 -0.8211
 6462SOL    HW230846   2.076   2.337   7.117 -1.2201 -2.3399  0.7830
 6463SOL     OW30847   4.001   0.133   3.665  0.2692 -0.5829  0.5577
 6463SOL    HW130848   3.994   0.079   3.587  2.0066 -0.3346  0.2297
 6463SOL    HW230849   4.054   0.084   3.728  1.5903 -0.2074 -0.2672
 6464SOL     OW30850   1.520   0.542  12.055  0.2419  0.2781 -0.2872
 6464SOL    HW130851   1.557   0.488  11.985  0.3195 -1.2659  0.9501
 6464SOL    HW230852   1.554   0.628  12.029 -1.1261  0.6188 -0.9975
 6465SOL     OW30853   1.500   0.142   6.420 -0.2081  0.1423  0.1830
 6465SOL    HW130854   1.502   0.055   6.381  1.4190  0.4138 -0.3171
 6465SOL    HW230855   1.432   0.182   6.365 -1.0641 -0.5917  0.7136
 6466SOL     OW30856   4.313   1.402   6.411  0.3133  0.2136 -0.3319
 6466SOL    HW130857   4.368   1.323   6.405 -1.3290 -1.2394  3.4513
 6466SOL    HW230858   4.339   1.428   6.500 -0.1241  0.5503 -0.3052
 6467SOL     OW30859   3.677   4.612  17.028 -0.3771 -0.5056  0.9124
 6467SOL    HW130860   3.695   4.698  17.065  1.8252 -0.3828 -0.4517
 6467SOL    HW230861   3.662   4.628  16.935  0.6087 -0.3388  0.7895
 6468SOL     OW30862   2.247   0.971   7.710  0.0280 -0.1060  0.0179
 6468SOL    HW130863   2.204   0.958   7.794  0.9877  0.1813  0.5594
 6468SOL    HW230864   2.182   1.023   7.662  0.6367  1.8222  1.3056
 6469SOL     OW30865   4.482   4.594   1.935  0.2776 -0.0361 -0.3320
 6469SOL    HW130866   4.398   4.600   1.890 -0.2547 -0.4787  0.6047
 6469SOL    HW230867   4.464   4.568   2.025 -3.1331  0.7473 -0.7999
 6470SOL     OW30868   0.310   4.137   1.487 -0.0806 -0.4405  0.5648
 6470SOL    HW130869   0.380   4.074   1.506 -0.9845 -1.5556  0.1940
 6470SOL    HW230870   0.301   4.118   1.394  0.8158 -0.0787  0.4103
 6471SOL     OW30871   3.186   4.473   2.316  0.6020 -0.3476 -0.6234
 6471SOL    HW130872   3.218   4.478   2.406  0.1397  1.4474 -0.5573
 6471SOL    HW230873   3.092   4.484   2.323  0.4692 -1.5497 -0.4573
 6472SOL     OW30874   0.146   1.381   7.877 -0.4688  0.1027  0.4859
 6472SOL    HW130875   0.146   1.405   7.785  0.4803  0.0705  0.4774
 6472SOL    HW230876   0.056   1.351   7.881 -0.1407 -1.1986 -2.2494
 6473SOL     OW30877   1.619   0.428   7.909  0.4349  0.0442 -0.7054
 6473SOL    HW130878   1.530   0.460   7.919  0.2569 -0.2042 -1.4937
 6473SOL    HW230879   1.654   0.429   7.998 -0.4024 -1.0631 -0.3583
 6474SOL     OW30880   0.331   1.581  13.425  0.1181  0.1684  0.2702
 6474SOL    HW130881   0.240   1.583  13.453  0.1675 -2.7882  0.7189
 6474SOL    HW230882   0.319   1.541  13.339  1.8186 -0.5982  0.3864
 6475SOL     OW30883   2.690   2.587   5.805 -0.5764  0.2652 -0.7579
 6475SOL    HW130884   2.761   2.554   5.750  0.4330  0.0371  0.6624
 6475SOL    HW230885   2.675   2.513   5.863  0.1213 -0.0867 -1.0293
 6476SOL     OW30886   2.518   1.587   4.932  0.0512  0.3676 -0.5606
 6476SOL    HW130887   2.494   1.495   4.938  1.5966  0.0706  1.3814
 6476SOL    HW230888   2.605   1.584   4.973  0.8863  1.3635 -2.2896
 6477SOL     OW30889   4.175   3.589   5.399  0.9562  0.2825  0.6354
 6477SOL    HW130890   4.197   3.513   5.346  1.2367  1.6323 -1.1882
 6477SOL    HW230891   4.232   3.654   5.359 -0.9383  1.6695  0.1785
 6478SOL     OW30892   1.079   0.337   3.124  0.5680 -0.0447 -0.0444
 6478SOL    HW130893   1.064   0.289   3.206 -0.0293  0.3237  0.0654
 6478SOL    HW230894   1.108   0.264   3.069 -0.0775  0.6929 -1.3579
 6479SOL     OW30895   0.909   1.196   8.906 -0.4154  0.5984  0.2116
 6479SOL    HW130896   0.834   1.238   8.865 -1.2744 -0.8438  0.3273
 6479SOL    HW230897   0.883   1.108   8.931  1.7790 -0.7695 -2.3189
 6480SOL     OW30898   3.593   3.382   7.121 -0.5792 -0.5141  0.0940
 6480SOL    HW130899   3.619   3.416   7.035  1.8967  0.3391  1.2017
 6480SOL    HW230900   3.678   3.340   7.138 -1.4294 -1.7404  1.3462
 6481SOL     OW30901   1.058   2.302  16.414  0.3723 -0.4501 -0.4018
 6481SOL    HW130902   1.053   2.378  16.471  0.8369 -1.2962  0.7597
 6481SOL    HW230903   1.086   2.345  16.333  0.5457 -2.2872 -1.3271
 6482SOL     OW30904   0.430   0.171  12.575  0.0139 -0.2436 -0.1713
 6482SOL    HW130905   0.398   0.082  12.558 -0.7164  0.1108 -0.7120
 6482SOL    HW230906   0.375   0.218  12.511 -0.8064 -0.8236  0.0986
 6483SOL     OW30907   3.758   3.498   8.917 -0.4658 -0.0498 -0.2709
 6483SOL    HW130908   3.688   3.526   8.858 -1.9365 -0.5780  1.1954
 6483SOL    HW230909   3.805   3.434   8.863 -1.4434  0.2851 -1.5114
 6484SOL     OW30910   1.403   1.818   7.577  0.1629  0.1696  0.6025
 6484SOL    HW130911   1.363   1.785   7.496  0.3806  0.9193  0.1830
 6484SOL    HW230912   1.330   1.863   7.620 -1.5716  0.0316 -2.1699
 6485SOL     OW30913   1.660   3.097   7.987 -0.4056  0.0114 -0.2773
 6485SOL    HW130914   1.670   3.097   7.892  0.1582 -0.0496 -0.2220
 6485SOL    HW230915   1.605   3.175   7.992  0.0571  0.2620  1.1963
 6486SOL     OW30916   1.114   0.070   6.436 -0.0690  0.2109  0.6547
 6486SOL    HW130917   1.170   0.037   6.506 -0.2327 -1.2317  0.0933
 6486SOL    HW230918   1.146   0.159   6.421 -0.2661  0.0530 -0.7211
 6487SOL     OW30919   3.801   0.225   6.498  0.3240  0.0884 -0.0568
 6487SOL    HW130920   3.848   0.223   6.581 -1.2200 -1.7944  0.7811
 6487SOL    HW230921   3.808   0.321   6.491 -1.3008  0.1895 -0.3651
 6488SOL     OW30922   0.990   3.949   9.061 -0.1300  0.1488  0.5325
 6488SOL    HW130923   1.071   3.955   9.009  0.1160 -1.5624  0.7281
 6488SOL    HW230924   0.993   4.027   9.116 -1.4456  0.5122  0.0931
 6489SOL     OW30925   4.342   1.788  12.598 -0.2835 -0.1902  0.2034
 6489SOL    HW130926   4.425   1.795  12.552  0.3550  1.1712  1.5666
 6489SOL    HW230927   4.323   1.877  12.628 -2.3071 -0.5541  0.0206
 6490SOL     OW30928   0.138   2.945   2.713  0.0412  0.6699  0.1133
 6490SOL    HW130929   0.167   3.015   2.655 -0.5736  1.1927  0.4353
 6490SOL    HW230930   0.051   2.982   2.731 -1.0403 -1.3809 -0.9148
 6491SOL     OW30931   1.778   3.962  15.426  0.1515  0.2753 -0.1959
 6491SOL    HW130932   1.870   3.946  15.449 -1.0309 -4.7171  1.0168
 6491SOL    HW230933   1.768   4.049  15.464  1.5781  0.7010 -0.7668
 6492SOL     OW30934   4.045   2.832  15.783  0.1962 -0.1959  0.9650
 6492SOL    HW130935   4.129   2.841  15.828 -0.2538  2.1560  1.3241
 6492SOL    HW230936   3.995   2.779  15.844  0.8863  1.9127  3.3418
 6493SOL     OW30937   0.919   1.113   2.311  0.2339 -0.2551 -0.4779
 6493SOL    HW130938   0.862   1.097   2.386  0.5617 -0.4208 -0.2634
 6493SOL    HW230939   0.927   1.208   2.315  1.2411 -0.3155 -1.0909
 6494SOL     OW30940   1.541   3.228  13.469 -0.5965  0.3707  0.4631
 6494SOL    HW130941   1.546   3.182  13.385  1.1533  2.6684 -0.7000
 6494SOL    HW230942   1.486   3.304  13.448  0.0767  0.4749 -0.9377
 6495SOL     OW30943   1.918   4.480   5.336 -0.1287  0.3414  0.4049
 6495SOL    HW130944   1.864   4.559   5.331 -1.6586 -0.6161  1.8345
 6495SOL    HW230945   1.925   4.498   5.430  0.5640 -0.5119  0.5185
 6496SOL     OW30946   0.872   1.153   3.006  0.3212  0.2977 -0.5319
 6496SOL    HW130947   0.858   1.243   2.975 -0.8023  0.1598 -0.4348
 6496SOL    HW230948   0.788   1.116   2.978 -0.9817  1.2087  2.1767
 6497SOL     OW30949   3.555   3.030  16.357 -0.2665  0.3588  0.0351
 6497SOL    HW130950   3.561   3.072  16.442  0.5206  1.7504 -0.6975
 6497SOL    HW230951   3.601   3.095  16.303  1.1437 -0.5313  0.1582
 6498SOL     OW30952   4.216   4.560   3.731  0.1767  0.0453  0.3686
 6498SOL    HW130953   4.218   4.644   3.777 -0.9246  1.6345 -2.4650
 6498SOL    HW230954   4.302   4.526   3.756 -0.1447  0.1420  1.5721
 6499SOL     OW30955   3.071   1.813  16.815  0.1889  0.0774  0.7908
 6499SOL    HW130956   2.979   1.835  16.801 -0.2433 -2.4466 -0.2306
 6499SOL    HW230957   3.097   1.758  16.742 -1.3033 -1.4998  1.4396
 6500SOL     OW30958   4.076   2.425   5.255 -0.2054 -0.2161  0.0281
 6500SOL    HW130959   4.058   2.467   5.171  0.0397 -0.9021 -0.3581
 6500SOL    HW230960   4.136   2.353   5.237 -0.0439 -0.0759 -0.0019
 6501SOL     OW30961   1.561   1.474   4.698  0.2871 -0.4662  0.0649
 6501SOL    HW130962   1.506   1.499   4.624  0.9935 -0.6616 -0.5258
 6501SOL    HW230963   1.595   1.562   4.717  0.5735 -0.2770 -1.3207
 6502SOL     OW30964   3.905   3.978  11.784 -0.2955 -0.1489 -0.1244
 6502SOL    HW130965   3.855   4.038  11.728 -0.3722 -1.0829 -1.0495
 6502SOL    HW230966   3.900   3.893  11.740 -0.4466 -1.0545  1.6702
 6503SOL     OW30967   3.132   2.292   5.630  0.3412 -0.3476  0.0916
 6503SOL    HW130968   3.093   2.212   5.664  1.0208 -1.6318 -2.2034
 6503SOL    HW230969   3.216   2.281   5.674 -0.3609 -0.1104  1.4838
 6504SOL     OW30970   3.963   2.905  14.776  0.7081 -0.5548 -0.2817
 6504SOL    HW130971   3.963   2.953  14.859  1.1875 -2.0727  0.5896
 6504SOL    HW230972   3.936   2.819  14.807 -0.9818  0.5133  1.2624
 6505SOL     OW30973   3.508   3.010  15.121  0.2596 -0.3191  0.1255
 6505SOL    HW130974   3.582   3.071  15.111  0.6774 -0.7963  0.3073
 6505SOL    HW230975   3.436   3.049  15.073  0.7641  1.5456  0.8705
 6506SOL     OW30976   2.090   0.266   1.046  0.6335  0.2864  0.1364
 6506SOL    HW130977   2.027   0.315   1.099  0.8120  0.8753 -0.2080
 6506SOL    HW230978   2.037   0.190   1.022  2.8229 -1.2977  0.3035
 6507SOL     OW30979   0.887   0.917  16.208 -0.5587  0.3792  0.0283
 6507SOL    HW130980   0.798   0.945  16.231 -0.0341  1.2409  0.9930
 6507SOL    HW230981   0.881   0.929  16.114 -2.5175 -2.1171 -0.1704
 6508SOL     OW30982   1.858   3.070   3.914  0.2536  0.5204 -0.1818
 6508SOL    HW130983   1.883   3.056   3.823  1.9757  0.6317  0.2659
 6508SOL    HW230984   1.777   3.118   3.897 -0.7202 -1.3497 -0.7588
 6509SOL     OW30985   0.451   2.828   8.916  0.5665 -0.2379  0.0110
 6509SOL    HW130986   0.516   2.896   8.901 -0.4408  0.8351  0.5592
 6509SOL    HW230987   0.488   2.756   8.864  0.9110 -0.7249  0.9276
 6510SOL     OW30988   4.235   2.939  15.259  0.2479  0.6821 -0.0816
 6510SOL    HW130989   4.243   3.008  15.325 -0.7653 -0.6154  1.4095
 6510SOL    HW230990   4.279   2.982  15.186 -2.8408  0.9538 -1.7583
 6511SOL     OW30991   3.728   2.971   5.489 -0.0873  0.3542 -0.0185
 6511SOL    HW130992   3.799   3.019   5.531 -0.0080  0.2476 -0.0300
 6511SOL    HW230993   3.654   3.012   5.534  0.3371  1.0157  0.0617
 6512SOL     OW30994   2.140   0.484   6.668 -0.6817 -0.0148 -0.5804
 6512SOL    HW130995   2.157   0.574   6.695  0.9287 -1.7121  4.1881
 6512SOL    HW230996   2.072   0.498   6.603  0.8481  3.7829 -1.3665
 6513SOL     OW30997   1.944   1.000   1.735  0.0627  0.0814 -0.3051
 6513SOL    HW130998   2.008   1.070   1.748  0.1795 -0.1550  0.3682
 6513SOL    HW230999   1.884   1.026   1.805 -0.0347 -1.8242  0.3185
 6514SOL     OW31000   4.355   2.367   4.873 -0.1363  0.1093 -0.4585
 6514SOL    HW131001   4.339   2.448   4.824 -0.4177  0.7119  0.6281
 6514SOL    HW231002   4.342   2.397   4.963 -0.3025 -0.2611 -0.3606
 6515SOL     OW31003   1.380   0.813   3.567 -0.0906  0.5334  0.0737
 6515SOL    HW131004   1.430   0.751   3.621  2.5898  3.1973  0.6804
 6515SOL    HW231005   1.449   0.875   3.543 -2.0270  2.2570 -0.9886
 6516SOL     OW31006   1.851   4.590  13.161 -0.0919  0.1021  0.7255
 6516SOL    HW131007   1.805   4.634  13.090  2.1004  0.0878 -0.7309
 6516SOL    HW231008   1.808   4.629  13.237 -0.8179  0.8825 -0.0896
 6517SOL     OW31009   4.012   4.189   2.935 -0.0869 -0.1138 -0.1310
 6517SOL    HW131010   4.049   4.268   2.896  0.5235  0.0318  0.7511
 6517SOL    HW231011   4.051   4.120   2.882 -0.2687 -0.5706  0.3222
 6518SOL     OW31012   3.538   2.076   3.801 -0.1106  0.3822  0.3165
 6518SOL    HW131013   3.498   2.162   3.791  1.5889  1.2287  0.6909
 6518SOL    HW231014   3.551   2.077   3.896  0.5004 -2.4686  0.2797
 6519SOL     OW31015   2.141   4.067   6.362 -0.5999  0.2054  0.0955
 6519SOL    HW131016   2.054   4.087   6.397 -0.4498  0.3396  0.3943
 6519SOL    HW231017   2.168   4.148   6.318 -1.0918  0.2517 -0.1269
 6520SOL     OW31018   2.521   4.099  14.697 -0.1348  0.5013 -0.3196
 6520SOL    HW131019   2.474   4.134  14.622 -0.7165 -1.3738 -0.8371
 6520SOL    HW231020   2.504   4.172  14.757  2.4922  1.8111 -1.1845
 6521SOL     OW31021   2.098   1.942  14.190  0.3382 -0.2971 -0.2837
 6521SOL    HW131022   2.084   2.033  14.163  0.3965  0.2682  1.6107
 6521SOL    HW231023   2.009   1.911  14.175  0.4609  0.0997 -1.8165
 6522SOL     OW31024   0.825   1.425   1.324 -0.1920 -0.5338 -0.2154
 6522SOL    HW131025   0.787   1.452   1.408 -0.6795 -1.9263  0.0213
 6522SOL    HW231026   0.897   1.372   1.360  0.6592  1.7654  1.4758
 6523SOL     OW31027   1.840   2.676   2.050 -0.1920  0.1241 -0.2398
 6523SOL    HW131028   1.933   2.694   2.043 -0.6274  2.5088  0.1029
 6523SOL    HW231029   1.809   2.717   1.970  2.9143  0.8528 -1.0698
 6524SOL     OW31030   2.179   2.588   8.769  0.3247 -0.1424 -0.3443
 6524SOL    HW131031   2.137   2.536   8.701  1.1657 -2.1330  0.6707
 6524SOL    HW231032   2.267   2.549   8.776  0.8545  1.1209  0.1347
 6525SOL     OW31033   2.781   2.097  13.795 -0.1939  0.1533 -0.9157
 6525SOL    HW131034   2.710   2.075  13.735 -0.7271 -2.8867  0.7984
 6525SOL    HW231035   2.826   2.013  13.797  0.6177  0.6358  1.2154
 6526SOL     OW31036   0.481   0.710   6.920  0.5330 -0.1363 -0.2759
 6526SOL    HW131037   0.549   0.645   6.939  1.6518  1.0736 -0.1142
 6526SOL    HW231038   0.410   0.647   6.935  0.2667  0.1939 -0.1580
 6527SOL     OW31039   3.254   0.913   6.296  0.0820  0.0053 -0.1106
 6527SOL    HW131040   3.241   0.836   6.351 -0.9788  2.3519  2.9427
 6527SOL    HW231041   3.289   0.981   6.354 -0.2967  2.0566 -2.3046
 6528SOL     OW31042   2.590   4.314   7.849 -0.2854 -0.0587  0.3752
 6528SOL    HW131043   2.600   4.406   7.874  1.1513 -0.3640  0.9050
 6528SOL    HW231044   2.598   4.280   7.938  1.1112  1.9333  1.0193
 6529SOL     OW31045   1.653   2.849   5.888  0.1360 -0.1400 -0.7983
 6529SOL    HW131046   1.615   2.840   5.800  0.0778 -0.6640 -0.7190
 6529SOL    HW231047   1.588   2.795   5.932  0.8258 -0.4400 -0.1586
 6530SOL     OW31048   1.742   0.508  10.559  0.0269 -0.2562  0.4401
 6530SOL    HW131049   1.734   0.589  10.508 -1.0762 -0.3712  0.4371
 6530SOL    HW231050   1.678   0.447  10.522  0.5260 -1.4177  1.5087
 6531SOL     OW31051   0.385   1.683   1.789 -0.3319  0.0661  0.1576
 6531SOL    HW131052   0.378   1.588   1.776  0.6085  0.2952 -1.9113
 6531SOL    HW231053   0.318   1.701   1.855 -0.8013  0.0157 -0.3099
 6532SOL     OW31054   1.378   3.994   1.796 -0.4691 -0.0453 -0.0751
 6532SOL    HW131055   1.381   3.990   1.700  0.1704 -0.2447 -0.0479
 6532SOL    HW231056   1.396   4.087   1.815  0.4173 -0.1035 -0.6112
 6533SOL     OW31057   2.070   3.923   1.906 -0.0870 -0.9605  0.0174
 6533SOL    HW131058   2.080   3.884   1.993  0.8471 -3.2999 -1.1470
 6533SOL    HW231059   2.002   3.990   1.916 -1.9147 -2.3071 -3.4525
 6534SOL     OW31060   0.130   3.619   4.926 -0.4138 -0.6321  0.3347
 6534SOL    HW131061   0.169   3.674   4.859 -1.6245  0.0057  0.1424
 6534SOL    HW231062   0.065   3.571   4.873  1.4148 -0.9555 -1.5940
 6535SOL     OW31063   0.663   0.257   1.317 -0.1304 -0.1806 -0.2980
 6535SOL    HW131064   0.688   0.224   1.230  0.9944 -0.5056  0.1505
 6535SOL    HW231065   0.614   0.337   1.299  1.3633  1.0093  0.9999
 6536SOL     OW31066   2.711   0.699   9.004 -0.6431 -0.0709 -0.3910
 6536SOL    HW131067   2.773   0.631   9.031  0.5725  1.7385  1.3941
 6536SOL    HW231068   2.761   0.779   9.023  0.7252 -0.6686 -1.5136
 6537SOL     OW31069   3.593   4.456   9.108  0.1447  0.5716  0.1775
 6537SOL    HW131070   3.614   4.531   9.164  1.5794  0.2371  0.0866
 6537SOL    HW231071   3.500   4.433   9.107  0.1269  0.7149 -1.3301
 6538SOL     OW31072   4.286   1.227   0.266  0.3091  0.3224 -0.8997
 6538SOL    HW131073   4.220   1.243   0.198  0.3566  0.6791 -0.8609
 6538SOL    HW231074   4.236   1.188   0.337  0.7236  0.5400 -0.4946
 6539SOL     OW31075   1.190   1.239   6.712  0.2729  0.2333 -0.6171
 6539SOL    HW131076   1.115   1.296   6.728 -0.3925 -0.9562  0.5519
 6539SOL    HW231077   1.186   1.236   6.617 -0.3964 -0.5528 -0.5686
 6540SOL     OW31078   1.781   2.609   4.135  0.4791  0.6081  0.1584
 6540SOL    HW131079   1.875   2.627   4.135  0.5326  0.3307  0.4031
 6540SOL    HW231080   1.778   2.514   4.143  3.4503  0.4939  0.0121
 6541SOL     OW31081   2.174   4.297   6.550 -0.2009 -0.2500 -0.0608
 6541SOL    HW131082   2.260   4.303   6.590  0.0331  1.6392 -0.8537
 6541SOL    HW231083   2.164   4.202   6.544 -0.9650 -0.0562 -1.8995
 6542SOL     OW31084   2.959   2.741   3.268 -0.1022 -0.4246  0.2545
 6542SOL    HW131085   2.943   2.796   3.344  1.7836  0.6258 -0.1093
 6542SOL    HW231086   2.898   2.673   3.296 -2.2033  0.9932 -0.8361
 6543SOL     OW31087   2.575   2.980   3.549  0.0948  1.2352 -0.2161
 6543SOL    HW131088   2.572   3.060   3.601 -0.8211  1.4092 -0.5387
 6543SOL    HW231089   2.606   3.016   3.466  1.7360  0.1610 -0.0692
 6544SOL     OW31090   4.714   4.233   4.359  0.0699  0.3503 -0.3655
 6544SOL    HW131091   0.061   4.260   4.418 -2.0320 -1.5582  2.9881
 6544SOL    HW231092   0.030   4.181   4.288 -1.2016  1.5373 -1.9252
 6545SOL     OW31093   3.812   3.743   3.267  0.5213  0.2933  0.2372
 6545SOL    HW131094   3.875   3.699   3.211  0.4926 -1.0252  1.2638
 6545SOL    HW231095   3.841   3.726   3.356 -1.0991  2.3518  1.1809
 6546SOL     OW31096   3.628   0.329   4.943  0.4336  0.0939  0.0356
 6546SOL    HW131097   3.544   0.311   4.984  0.7538 -2.4701 -0.3982
 6546SOL    HW231098   3.594   0.316   4.854  2.4963  0.5000 -0.8270
 6547SOL     OW31099   3.799   0.099   4.503 -0.2309 -0.4080 -0.5422
 6547SOL    HW131100   3.846   0.094   4.587 -1.5529 -0.4253  0.1895
 6547SOL    HW231101   3.712   0.068   4.529 -0.8224 -1.3203 -3.6642
 6548SOL     OW31102   4.181   4.095   2.199  0.4020 -0.1263 -0.2838
 6548SOL    HW131103   4.131   4.173   2.223  1.8230  0.1934  1.6178
 6548SOL    HW231104   4.245   4.132   2.137  1.0974 -0.0034  0.5040
 6549SOL     OW31105   0.269   0.549   5.530 -0.4270 -0.0076 -0.2421
 6549SOL    HW131106   0.256   0.643   5.541  2.3163  0.2970  0.4327
 6549SOL    HW231107   0.360   0.543   5.559  0.0887  0.6546 -1.7143
 6550SOL     OW31108   2.474   1.515   7.253 -0.0764  0.2105  0.1359
 6550SOL    HW131109   2.561   1.516   7.294 -0.3955  1.9733  0.7557
 6550SOL    HW231110   2.494   1.566   7.174 -0.1850 -0.4179 -0.2933
 6551SOL     OW31111   0.523   2.024   8.156 -0.0470  0.0286 -0.4147
 6551SOL    HW131112   0.615   2.009   8.135  0.7508  0.3016  2.9089
 6551SOL    HW231113   0.475   1.972   8.091 -1.2283  1.3065 -0.5578
 6552SOL     OW31114   2.358   0.953   6.974 -0.1673  0.3890  0.5860
 6552SOL    HW131115   2.363   0.880   6.913  0.2779  0.9099  0.0037
 6552SOL    HW231116   2.317   0.905   7.047 -1.2731 -0.2431 -0.4467
 6553SOL     OW31117   1.268   1.100  11.926  0.5159  0.0284 -0.3962
 6553SOL    HW131118   1.322   1.143  11.860  1.9374  1.3411  1.6331
 6553SOL    HW231119   1.185   1.136  11.896 -0.0646 -1.2027 -0.2595
 6554SOL     OW31120   0.734   4.707   8.617 -0.2543 -0.7436  0.4312
 6554SOL    HW131121   0.665   4.687   8.554 -0.1251 -4.0765  1.3404
 6554SOL    HW231122   0.697   0.030   8.693  0.9017 -0.4726  0.8271
 6555SOL     OW31123   2.021   0.515   7.086  0.2410 -0.1652 -0.1656
 6555SOL    HW131124   1.988   0.600   7.057 -2.2502 -1.1604 -0.2659
 6555SOL    HW231125   1.970   0.450   7.038  0.8444  0.7727 -2.0837
 6556SOL     OW31126   3.440   0.995   0.389 -0.0939 -0.3379 -0.1237
 6556SOL    HW131127   3.467   0.978   0.479 -0.1062 -2.4751 -0.5185
 6556SOL    HW231128   3.370   1.056   0.412 -1.0316 -1.8515  1.0562
 6557SOL     OW31129   4.593   2.403   7.549  0.2698 -0.3569 -0.8895
 6557SOL    HW131130   4.627   2.477   7.499  1.3321  0.1712  0.6329
 6557SOL    HW231131   4.501   2.426   7.535  0.0647 -0.3195  0.5554
 6558SOL     OW31132   4.321   1.989  17.190 -0.3269  0.5256  0.1672
 6558SOL    HW131133   4.341   2.061  17.130  1.9367  1.6711  2.2584
 6558SOL    HW231134   4.403   1.978  17.237 -0.6925  3.1376  1.4219
 6559SOL     OW31135   0.525   2.768   3.640  0.1826  0.1321  0.1216
 6559SOL    HW131136   0.441   2.764   3.593 -0.7650 -2.4900  1.9933
 6559SOL    HW231137   0.517   2.851   3.688  1.4732 -1.7724  3.6080
 6560SOL     OW31138   1.681   3.748  16.703  0.1030 -0.1278  0.4835
 6560SOL    HW131139   1.770   3.727  16.733  1.2559 -0.0104 -2.9350
 6560SOL    HW231140   1.684   3.810  16.630 -2.6274  1.4141  1.6780
 6561SOL     OW31141   2.878   4.691   6.827 -0.1624 -0.3590 -0.6642
 6561SOL    HW131142   2.867   0.058   6.858 -2.4031 -1.1337  0.7681
 6561SOL    HW231143   2.969   4.689   6.797 -0.8300  0.3554 -2.7016
 6562SOL     OW31144   2.982   4.408   2.967  0.0961  0.6932  0.1141
 6562SOL    HW131145   2.891   4.437   2.965  0.3531  1.5812  0.7776
 6562SOL    HW231146   3.020   4.434   2.883 -0.5220  1.3617  0.0455
 6563SOL     OW31147   1.870   0.147   8.426  0.0389 -0.1026 -0.0864
 6563SOL    HW131148   1.964   0.135   8.444  0.3257  1.0119 -0.8528
 6563SOL    HW231149   1.837   0.091   8.496  0.8101 -0.5536 -0.0772
 6564SOL     OW31150   2.733   1.371   2.655 -0.0760 -0.5924 -0.0911
 6564SOL    HW131151   2.736   1.409   2.567  2.4385 -1.9324 -0.5581
 6564SOL    HW231152   2.667   1.303   2.640 -0.9626  0.3074 -0.2608
 6565SOL     OW31153   0.710   1.377   9.561  0.1269 -0.2599 -0.1263
 6565SOL    HW131154   0.773   1.443   9.531 -1.4212  0.9380 -0.7439
 6565SOL    HW231155   0.736   1.376   9.653  1.6319 -2.8998 -0.5767
 6566SOL     OW31156   2.278   4.119   6.038 -0.3916 -1.0079 -0.4350
 6566SOL    HW131157   2.367   4.090   6.018 -0.2452 -0.8393 -0.0233
 6566SOL    HW231158   2.292   4.117   6.133 -1.3686 -0.3523 -0.2753
 6567SOL     OW31159   3.299   1.581   2.393  0.0474 -0.2285  0.1907
 6567SOL    HW131160   3.266   1.491   2.389 -0.5070  0.0053 -0.5860
 6567SOL    HW231161   3.309   1.582   2.488 -1.6083 -2.4124  0.3884
 6568SOL     OW31162   0.896   1.243   7.895  0.0869  0.3338  0.3579
 6568SOL    HW131163   0.831   1.179   7.865  1.0105  0.0572 -1.0528
 6568SOL    HW231164   0.967   1.198   7.941  2.3592 -0.4000 -3.8596
 6569SOL     OW31165   3.312   1.598   9.041  0.1450  0.0905 -0.4043
 6569SOL    HW131166   3.251   1.531   9.009  0.2500 -0.1066 -0.1945
 6569SOL    HW231167   3.255   1.662   9.085  2.6344  1.5829  0.6289
 6570SOL     OW31168   3.513   2.982   3.871  0.6866 -0.3248 -0.4886
 6570SOL    HW131169   3.600   2.990   3.910  0.5743 -0.1682 -0.2697
 6570SOL    HW231170   3.510   2.896   3.830 -0.3537 -0.8766  0.7733
 6571SOL     OW31171   1.455   3.588  16.636 -0.3652 -0.2184 -0.0492
 6571SOL    HW131172   1.542   3.618  16.609  0.2764 -0.8501  1.3299
 6571SOL    HW231173   1.397   3.640  16.581 -3.5389 -2.2091  1.4134
 6572SOL     OW31174   1.080   1.398   9.017 -0.1754  0.1813  0.7170
 6572SOL    HW131175   1.027   1.325   8.985 -1.6764  1.1646  0.9889
 6572SOL    HW231176   1.040   1.405   9.104 -0.5882  0.6719  0.4902
 6573SOL     OW31177   2.869   0.755   3.757  0.2179  0.0576 -0.3113
 6573SOL    HW131178   2.826   0.796   3.682 -1.1025 -0.3415  0.2291
 6573SOL    HW231179   2.887   0.831   3.813 -0.0174 -0.1571  0.0543
 6574SOL     OW31180   2.059   3.627   7.623 -0.3250  0.5131  0.0454
 6574SOL    HW131181   1.965   3.612   7.632 -0.5026  1.6691  0.0660
 6574SOL    HW231182   2.083   3.534   7.619  2.7881  1.4336 -2.7274
 6575SOL     OW31183   2.895   3.715   3.000  0.1263  0.2257 -0.2885
 6575SOL    HW131184   2.892   3.654   2.925  2.1577 -0.2438  0.0220
 6575SOL    HW231185   2.971   3.766   2.971  1.0322 -1.4596 -0.9220
 6576SOL     OW31186   4.431   2.155   5.065 -0.6901 -0.4190  0.9319
 6576SOL    HW131187   4.449   2.204   4.984 -1.4263 -1.3576  0.1925
 6576SOL    HW231188   4.518   2.165   5.104  0.0363 -1.4574 -0.3778
 6577SOL     OW31189   3.956   4.015   3.202  0.0837 -0.3689  0.1488
 6577SOL    HW131190   3.963   3.926   3.167 -0.3589  0.0430 -0.9711
 6577SOL    HW231191   3.999   4.063   3.132 -3.6386  1.9669 -0.5169
 6578SOL     OW31192   1.249   1.487  11.901  0.3361  0.2057 -0.0081
 6578SOL    HW131193   1.270   1.561  11.958 -0.7473 -0.3337  1.1178
 6578SOL    HW231194   1.336   1.461  11.871 -0.7142 -1.8871 -1.2288
 6579SOL     OW31195   3.299   4.698   1.885 -0.2870  0.4554  0.7109
 6579SOL    HW131196   3.236   0.042   1.856  0.0583  0.7196  0.5621
 6579SOL    HW231197   3.258   4.614   1.864 -1.2250  1.3325 -1.0117
 6580SOL     OW31198   3.663   4.458  14.265 -0.3609  0.1300  0.0836
 6580SOL    HW131199   3.590   4.518  14.278 -2.0874 -1.9886  0.2616
 6580SOL    HW231200   3.731   4.492  14.324  0.3147 -0.3648 -0.4033
 6581SOL     OW31201   4.420   3.047   8.759  0.0312  0.1416 -0.0257
 6581SOL    HW131202   4.377   3.129   8.784 -0.5569 -0.1839  0.0472
 6581SOL    HW231203   4.511   3.070   8.744  0.3428  0.3308  2.2291
 6582SOL     OW31204   4.039   3.066  13.140  0.0961  0.3006  0.4540
 6582SOL    HW131205   4.119   3.093  13.187  1.7285 -1.3413 -1.3738
 6582SOL    HW231206   4.009   3.156  13.129  0.7676  0.4929  0.1640
 6583SOL     OW31207   4.597   0.547   2.431 -0.3065  0.0936  0.0608
 6583SOL    HW131208   4.526   0.486   2.451 -0.2373  0.4609  1.4154
 6583SOL    HW231209   4.669   0.507   2.479 -0.4379 -1.4080 -0.9944
 6584SOL     OW31210   1.979   3.089   9.088  0.6612 -0.2944  0.4832
 6584SOL    HW131211   1.993   3.165   9.146 -3.5237  0.5857  0.3199
 6584SOL    HW231212   2.008   3.015   9.142  1.3360 -2.1223 -2.4219
 6585SOL     OW31213   0.277   2.154   6.008 -0.4141 -0.8414 -0.3411
 6585SOL    HW131214   0.316   2.232   6.047  2.2290 -2.3233 -0.0644
 6585SOL    HW231215   0.301   2.170   5.916 -2.0310  0.9742 -0.4710
 6586SOL     OW31216   1.770   2.311  10.888  0.0713  0.4929  0.4577
 6586SOL    HW131217   1.763   2.217  10.876 -1.8750  0.8613 -1.3392
 6586SOL    HW231218   1.689   2.323  10.938  0.4851 -1.3952  1.5429
 6587SOL     OW31219   2.263   3.476   9.195 -0.1592 -0.2974 -0.0436
 6587SOL    HW131220   2.358   3.490   9.188 -0.1215  0.1108  1.2943
 6587SOL    HW231221   2.232   3.559   9.232  3.1266  0.2371  1.5297
 6588SOL     OW31222   0.181   0.329   4.591  0.1159  0.2589  1.2461
 6588SOL    HW131223   0.218   0.374   4.515  0.7434 -0.1796  1.2905
 6588SOL    HW231224   0.219   0.242   4.576  0.3286  1.1044 -2.9778
 6589SOL     OW31225   4.199   1.762   6.722 -0.0545  0.0701  0.0681
 6589SOL    HW131226   4.135   1.834   6.720 -0.7542 -0.5245  1.3493
 6589SOL    HW231227   4.271   1.816   6.688  0.6537  0.5806  2.3892
 6590SOL     OW31228   1.619   0.650   4.350 -0.6674  0.2025 -0.8306
 6590SOL    HW131229   1.603   0.730   4.400 -1.1820  0.6304 -1.6687
 6590SOL    HW231230   1.558   0.584   4.383  1.5894 -2.4903 -2.0588
 6591SOL     OW31231   2.564   0.043  13.245 -0.4242  0.5532  0.4838
 6591SOL    HW131232   2.520   0.021  13.163  1.8236 -1.1587 -0.2771
 6591SOL    HW231233   2.654   0.018  13.227 -1.3993 -2.3194 -0.3562
 6592SOL     OW31234   4.262   1.309  13.909 -0.6523  0.8646 -0.4617
 6592SOL    HW131235   4.239   1.385  13.963 -0.6940 -0.0346  0.7830
 6592SOL    HW231236   4.327   1.265  13.963 -1.5850 -0.5295 -0.4956
 6593SOL     OW31237   0.969   0.473  11.121 -0.4203  0.5359  0.4700
 6593SOL    HW131238   0.881   0.435  11.125 -0.5327  0.7434 -0.1100
 6593SOL    HW231239   1.004   0.438  11.039 -0.0774  0.5507  0.6109
 6594SOL     OW31240   1.825   3.280   6.110 -0.1840 -0.3055  0.4325
 6594SOL    HW131241   1.769   3.233   6.048  1.6405 -0.3417 -1.2099
 6594SOL    HW231242   1.887   3.208   6.120 -0.1018 -0.1733  0.8945
 6595SOL     OW31243   0.210   0.948  14.885 -0.7752  0.6400  0.6200
 6595SOL    HW131244   0.146   0.906  14.943  1.1238 -0.6438  1.7864
 6595SOL    HW231245   0.243   1.011  14.948  1.6777  0.0722 -0.0987
 6596SOL     OW31246   2.526   4.129   1.244 -0.0975 -0.3619 -0.6682
 6596SOL    HW131247   2.478   4.053   1.211 -2.5666  0.1511  1.7818
 6596SOL    HW231248   2.513   4.133   1.339  2.2032 -0.9970 -0.3198
 6597SOL     OW31249   2.434   2.762   3.244  0.2275  0.4266  0.8480
 6597SOL    HW131250   2.364   2.707   3.210  0.4253  1.6000 -1.4761
 6597SOL    HW231251   2.489   2.774   3.167 -1.9896  2.5790 -0.4031
 6598SOL     OW31252   3.344   4.343  12.683  0.5066  0.0268 -0.0560
 6598SOL    HW131253   3.407   4.406  12.717 -0.0114  1.6267 -2.0597
 6598SOL    HW231254   3.383   4.312  12.601 -1.4861 -0.8580 -0.6662
 6599SOL     OW31255   2.631   2.631  12.739 -0.3310  0.5561 -0.6752
 6599SOL    HW131256   2.705   2.574  12.718  0.8343  1.8799 -0.1520
 6599SOL    HW231257   2.666   2.713  12.773  1.8461 -0.2381 -1.0324
 6600SOL     OW31258   4.389   4.425  14.537 -0.1125 -0.3606  0.4031
 6600SOL    HW131259   4.407   4.343  14.491  0.9205 -0.4210  0.9280
 6600SOL    HW231260   4.295   4.418  14.556  0.2697  0.0244  2.4292
 6601SOL     OW31261   2.267   0.238   6.718 -0.1804 -0.2342 -0.0101
 6601SOL    HW131262   2.330   0.235   6.789 -0.8671  0.0771  0.6109
 6601SOL    HW231263   2.237   0.329   6.724  2.6054  0.9439 -3.9109
 6602SOL     OW31264   2.483   2.216   7.460 -0.9563 -0.4202  0.2242
 6602SOL    HW131265   2.517   2.174   7.539  1.4673 -0.8703 -1.0628
 6602SOL    HW231266   2.564   2.239   7.414  0.4882 -2.6351  1.6712
 6603SOL     OW31267   3.264   2.426   3.336  0.1612  0.4279 -0.3880
 6603SOL    HW131268   3.175   2.393   3.343  1.1276 -1.3815  3.1940
 6603SOL    HW231269   3.312   2.368   3.395 -0.7108  0.7107  0.5909
 6604SOL     OW31270   4.340   2.413   3.316  0.0048  0.4419 -0.1933
 6604SOL    HW131271   4.284   2.489   3.304 -3.8747 -2.7718 -2.5570
 6604SOL    HW231272   4.344   2.381   3.226  1.1808  0.1421 -0.0319
 6605SOL     OW31273   2.813   2.187   2.872 -0.3259  0.7871 -0.0997
 6605SOL    HW131274   2.899   2.169   2.910  0.0690  1.5377 -0.6327
 6605SOL    HW231275   2.801   2.275   2.909 -0.7783 -0.0480  1.7293
 6606SOL     OW31276   3.986   3.595  15.442 -0.2503  0.1672  0.0682
 6606SOL    HW131277   4.041   3.573  15.517 -1.3241  1.1287  1.1404
 6606SOL    HW231278   3.951   3.680  15.472  3.3183  2.0002 -1.0501
 6607SOL     OW31279   0.675   0.047   5.470  0.1198  0.1031 -0.3657
 6607SOL    HW131280   0.767   0.023   5.480 -0.1545 -1.2535 -1.1877
 6607SOL    HW231281   0.658   0.040   5.564  0.6769  3.5536  0.0065
 6608SOL     OW31282   3.733   1.453   2.771  0.5601  0.1241 -0.3893
 6608SOL    HW131283   3.714   1.409   2.854 -0.1409 -1.6820 -1.5011
 6608SOL    HW231284   3.793   1.523   2.795  0.0583 -0.1328  1.6054
 6609SOL     OW31285   0.319   3.762   7.426 -0.5929  0.3839 -0.7652
 6609SOL    HW131286   0.270   3.686   7.458  0.1333 -0.4942 -1.7347
 6609SOL    HW231287   0.377   3.783   7.499  1.3452 -1.0497 -1.8988
 6610SOL     OW31288   0.950   1.915   0.030 -0.3187 -0.1319 -0.2945
 6610SOL    HW131289   0.901   1.940  17.644 -1.6112 -1.5153  0.0731
 6610SOL    HW231290   0.959   1.998   0.078 -1.4071 -1.5679  2.3923
 6611SOL     OW31291   1.756   3.496   9.378  0.5356  0.4517  0.2077
 6611SOL    HW131292   1.851   3.506   9.379  0.7606 -1.6406  0.1043
 6611SOL    HW231293   1.729   3.478   9.288  2.0981 -0.8814  0.0107
 6612SOL     OW31294   3.535   2.040   3.345 -0.4033 -0.1574 -0.0141
 6612SOL    HW131295   3.443   2.039   3.374 -0.8994  0.4337 -1.5301
 6612SOL    HW231296   3.527   1.974   3.275 -0.8890  0.7404 -0.8059
 6613SOL     OW31297   3.051   0.701   4.570  0.2585  0.2938 -0.3588
 6613SOL    HW131298   2.985   0.713   4.502 -0.8342 -0.9796  0.4964
 6613SOL    HW231299   3.129   0.726   4.520 -0.7509  0.9678 -1.6063
 6614SOL     OW31300   4.451   2.179  10.603 -0.0098 -0.3977  0.0265
 6614SOL    HW131301   4.479   2.269  10.620 -0.3755 -0.6624  2.0743
 6614SOL    HW231302   4.411   2.155  10.687  1.6469 -1.7531  0.4214
 6615SOL     OW31303   1.127   1.899  16.479  0.2939 -0.3115  0.0722
 6615SOL    HW131304   1.076   1.947  16.544 -0.7373 -1.8404  0.3883
 6615SOL    HW231305   1.080   1.815  16.473 -0.6070  0.3485 -1.9729
 6616SOL     OW31306   2.787   1.861  16.802 -0.2326  0.6405  0.1933
 6616SOL    HW131307   2.751   1.868  16.890 -2.3653 -1.4216 -0.5011
 6616SOL    HW231308   2.709   1.870  16.747  1.3068 -1.0510 -2.2690
 6617SOL     OW31309   0.638   1.618  16.501 -0.4584 -0.0632  0.1868
 6617SOL    HW131310   0.677   1.682  16.443 -0.3093  0.4102  0.8129
 6617SOL    HW231311   0.664   1.665  16.581 -0.6021  0.2933  0.0207
 6618SOL     OW31312   3.086   3.320   8.647 -0.4937  0.6245  0.1382
 6618SOL    HW131313   3.069   3.274   8.564  2.5442 -1.1468  0.5199
 6618SOL    HW231314   3.174   3.339   8.616  0.3429 -1.8399  0.9910
 6619SOL     OW31315   0.460   2.601   5.984  0.3418 -0.2525 -0.0735
 6619SOL    HW131316   0.518   2.676   5.976 -0.9308  0.7345 -0.0692
 6619SOL    HW231317   0.381   2.637   5.944  0.8520  1.7860  0.7868
 6620SOL     OW31318   0.926   2.334   6.522 -0.1598 -0.4406  0.4828
 6620SOL    HW131319   1.010   2.379   6.529  0.5216 -1.6305  0.0073
 6620SOL    HW231320   0.873   2.409   6.497 -0.8163 -0.7958  0.8234
 6621SOL     OW31321   3.406   1.383   3.001  0.2624  0.3721 -0.1460
 6621SOL    HW131322   3.348   1.325   2.951 -1.0480  1.7595 -0.2505
 6621SOL    HW231323   3.481   1.327   3.020  1.1159  1.5744  0.0152
 6622SOL     OW31324   2.628   4.008   8.975 -0.1767  0.0019 -0.2143
 6622SOL    HW131325   2.693   4.071   8.943 -0.7943  0.7315 -0.0291
 6622SOL    HW231326   2.562   4.016   8.906  0.8707  0.0950 -1.2237
 6623SOL     OW31327   2.080   2.610   4.088  0.7722 -0.1419  0.1158
 6623SOL    HW131328   2.106   2.683   4.031 -0.3819  0.2253  0.0517
 6623SOL    HW231329   2.099   2.531   4.037 -1.1204 -0.8181  0.4718
 6624SOL     OW31330   4.657   3.879  10.545 -0.5381 -0.1596  0.5191
 6624SOL    HW131331   4.588   3.932  10.505  0.4573  0.1778 -0.7367
 6624SOL    HW231332   0.002   3.932  10.587  0.5295  0.4033 -1.9487
 6625SOL     OW31333   1.042   4.143   4.915 -0.1542 -0.3704 -0.4995
 6625SOL    HW131334   1.045   4.049   4.931  0.0627 -0.4435 -0.9916
 6625SOL    HW231335   0.949   4.156   4.897 -0.4761 -1.0788  0.6365
 6626SOL     OW31336   3.807   3.060   7.148  0.0692 -0.1844 -0.2056
 6626SOL    HW131337   3.869   3.049   7.220 -1.3722 -1.9206  0.7769
 6626SOL    HW231338   3.852   3.130   7.101  3.1212 -0.3340  2.4833
 6627SOL     OW31339   3.621   1.017   2.026  0.0014  0.0815 -0.3417
 6627SOL    HW131340   3.716   1.016   2.030  0.0369 -1.5922 -1.4258
 6627SOL    HW231341   3.590   0.942   2.077  1.6588 -0.6455 -0.4220
 6628SOL     OW31342   0.433   0.543  15.668 -0.7332  0.1621  0.1379
 6628SOL    HW131343   0.432   0.525  15.574 -1.1149 -1.6741  0.4974
 6628SOL    HW231344   0.374   0.479  15.708 -0.5170  0.6080  1.1799
 6629SOL     OW31345   2.064   2.687   2.396 -0.5118 -0.5914 -0.2151
 6629SOL    HW131346   2.121   2.740   2.453  1.5491 -3.6847  0.5749
 6629SOL    HW231347   1.990   2.678   2.456 -0.9701  0.3339 -0.6229
 6630SOL     OW31348   4.327   2.547   8.172  0.5303 -0.3324  0.3983
 6630SOL    HW131349   4.319   2.543   8.077  0.6581 -0.2478  0.3844
 6630SOL    HW231350   4.412   2.505   8.185  1.9820  1.9018 -2.0056
 6631SOL     OW31351   2.270   1.221   6.863  0.4095  1.0067 -0.0281
 6631SOL    HW131352   2.177   1.230   6.846  0.1460  1.0485  1.4806
 6631SOL    HW231353   2.286   1.127   6.858 -1.6534  0.7105 -0.7116
 6632SOL     OW31354   3.400   1.669   8.652 -0.0069  0.3849 -0.4328
 6632SOL    HW131355   3.393   1.733   8.582 -3.5811 -0.0615 -0.4911
 6632SOL    HW231356   3.419   1.582   8.617 -0.8416  0.8066 -1.9079
 6633SOL     OW31357   4.267   3.512  10.264 -0.5373  0.5142  0.0481
 6633SOL    HW131358   4.253   3.497  10.358 -0.4134  0.4973  0.0639
 6633SOL    HW231359   4.255   3.421  10.237  3.0082  0.3703 -1.0248
 6634SOL     OW31360   3.736   4.528   3.868  0.7430  0.1619 -0.0299
 6634SOL    HW131361   3.673   4.468   3.829  0.6585  0.2954 -0.1001
 6634SOL    HW231362   3.800   4.474   3.914  0.4480 -0.3138 -0.1852
 6635SOL     OW31363   4.320   1.127   5.652 -0.0116 -0.0019 -0.5204
 6635SOL    HW131364   4.249   1.151   5.593  0.7699  2.7448 -0.3259
 6635SOL    HW231365   4.264   1.125   5.730 -0.3411  0.5524 -0.7425
 6636SOL     OW31366   0.504   3.169  15.391 -0.1659 -0.2573  0.5671
 6636SOL    HW131367   0.431   3.205  15.340  1.4923 -0.2537 -1.7850
 6636SOL    HW231368   0.468   3.084  15.417  0.6931 -0.3961  1.3172
 6637SOL     OW31369   2.204   1.507   7.184  0.1113 -0.3924 -0.2934
 6637SOL    HW131370   2.260   1.576   7.148  1.2446 -0.6864  0.9221
 6637SOL    HW231371   2.258   1.501   7.263 -1.1683  0.7839  0.6773
 6638SOL     OW31372   4.583   0.453  17.268 -0.1746 -0.0448 -0.3902
 6638SOL    HW131373   4.570   0.531  17.323 -1.3668  0.0304 -0.7696
 6638SOL    HW231374   4.515   0.464  17.201  0.4499 -0.3749 -1.0753
 6639SOL     OW31375   3.708   3.658   6.445  0.4530  0.5123  0.3162
 6639SOL    HW131376   3.735   3.746   6.418 -5.3768  1.7521 -1.6567
 6639SOL    HW231377   3.612   3.657   6.439  0.5108 -1.0829 -0.4489
 6640SOL     OW31378   2.884   2.379   9.940  0.1186 -0.6816  0.6993
 6640SOL    HW131379   2.972   2.343   9.933  0.0135 -1.0509  1.3197
 6640SOL    HW231380   2.866   2.408   9.850  0.1745 -1.1210  0.5459
 6641SOL     OW31381   4.383   3.938   4.714  0.4605 -0.2944  0.4629
 6641SOL    HW131382   4.347   3.983   4.638 -0.5145 -0.6781  0.7001
 6641SOL    HW231383   4.370   4.002   4.784 -2.9550 -0.3321 -0.1209
 6642SOL     OW31384   2.091   2.849   4.415  0.0356 -0.5917 -0.2243
 6642SOL    HW131385   2.062   2.921   4.471 -1.4078 -1.5225  0.2369
 6642SOL    HW231386   2.186   2.849   4.425 -0.0024 -0.3721  0.0999
 6643SOL     OW31387   0.820   1.764   3.086  0.4853  0.4303  0.3570
 6643SOL    HW131388   0.904   1.794   3.053 -0.3316 -0.6562 -2.7012
 6643SOL    HW231389   0.833   1.734   3.176  4.4453 -0.8008 -0.6439
 6644SOL     OW31390   3.502   0.764   2.479  0.2229 -0.1417  0.2725
 6644SOL    HW131391   3.516   0.677   2.516  0.2152  0.3062  1.3405
 6644SOL    HW231392   3.528   0.829   2.545  1.6223 -0.1467 -0.2692
 6645SOL     OW31393   3.591   2.758  12.981  0.2425  0.4326 -0.2434
 6645SOL    HW131394   3.603   2.813  12.903  1.0564  2.3040  1.2194
 6645SOL    HW231395   3.503   2.724  12.962  0.3812  0.5379 -1.0871
 6646SOL     OW31396   0.552   0.193   9.656  0.1978 -0.7744  0.1419
 6646SOL    HW131397   0.543   0.146   9.738 -1.1837 -0.8375 -0.0435
 6646SOL    HW231398   0.641   0.220   9.675 -0.1129  1.6886 -1.8412
 6647SOL     OW31399   4.265   1.762  10.056  0.0890  0.1661  0.3833
 6647SOL    HW131400   4.328   1.799  10.118  0.6692 -0.9245  0.4385
 6647SOL    HW231401   4.239   1.686  10.108  1.0762 -0.3785  0.0675
 6648SOL     OW31402   4.459   1.699  12.130  0.0299 -0.7087  0.2623
 6648SOL    HW131403   4.465   1.720  12.223  0.6482 -0.1499  0.0943
 6648SOL    HW231404   4.365   1.683  12.117 -0.5634  1.1497  2.2971
 6649SOL     OW31405   1.441   1.468   6.779 -0.6813  0.3877 -0.4306
 6649SOL    HW131406   1.501   1.400   6.747 -0.1058  1.3169 -1.3524
 6649SOL    HW231407   1.482   1.487   6.863 -0.2815 -1.3663 -0.2380
 6650SOL     OW31408   4.695   1.754   6.530 -1.0124  0.2608  0.3821
 6650SOL    HW131409   4.699   1.707   6.613  3.3477  2.6689  1.5505
 6650SOL    HW231410   4.605   1.734   6.503 -1.2080 -0.1962  1.3661
 6651SOL     OW31411   2.485   2.139   9.859  0.1110  0.9529  0.4462
 6651SOL    HW131412   2.571   2.181   9.860  2.8222 -4.4477 -1.7094
 6651SOL    HW231413   2.429   2.213   9.883 -1.2022  0.2658 -0.4942
 6652SOL     OW31414   4.053   0.881   4.984  0.1345 -0.7226  1.1682
 6652SOL    HW131415   4.122   0.826   5.021  1.3912  0.3431  0.3920
 6652SOL    HW231416   4.087   0.887   4.895 -3.1246  2.8809  0.1518
 6653SOL     OW31417   1.916   0.439   8.359  0.1551  0.2858 -0.3911
 6653SOL    HW131418   1.998   0.486   8.341 -1.4782  2.9376 -0.8410
 6653SOL    HW231419   1.956   0.378   8.421 -1.5090 -0.6921 -0.2929
 6654SOL     OW31420   3.744   2.833  14.430  0.3823  0.5898 -0.5619
 6654SOL    HW131421   3.829   2.788  14.426  0.2310  0.2071  0.4340
 6654SOL    HW231422   3.749   2.870  14.342  1.4423  2.9193  0.4765
 6655SOL     OW31423   0.377   1.009   8.373 -0.1929 -0.4022  0.0985
 6655SOL    HW131424   0.386   1.097   8.335  1.0224 -0.5520  0.0303
 6655SOL    HW231425   0.354   0.977   8.286 -1.6419 -2.9692  1.4340
 6656SOL     OW31426   0.919   1.956   7.085  0.3908 -0.0825  0.3002
 6656SOL    HW131427   0.996   1.929   7.135 -0.7657  0.6184  2.4904
 6656SOL    HW231428   0.915   2.046   7.119  2.2309 -1.5043  4.2741
 6657SOL     OW31429   4.669   0.740   7.219 -0.2787  0.0336 -0.1068
 6657SOL    HW131430   4.609   0.701   7.156 -0.1957  0.0713 -0.2089
 6657SOL    HW231431   4.673   0.672   7.287  0.8909  0.5248  0.3175
 6658SOL     OW31432   0.468   2.107   8.407  0.3306  0.6969  0.2418
 6658SOL    HW131433   0.493   2.072   8.322 -0.6780  1.2145 -0.2614
 6658SOL    HW231434   0.527   2.183   8.408  0.6664  0.4838 -2.9802
 6659SOL     OW31435   4.712   4.288   0.511  0.1113  0.0283 -0.1266
 6659SOL    HW131436   4.708   4.379   0.484 -0.9964 -0.5745 -1.9873
 6659SOL    HW231437   4.710   4.248   0.424 -3.8130  0.5755 -0.3077
 6660SOL     OW31438   2.027   3.309   7.848 -0.5843  0.4177 -0.0829
 6660SOL    HW131439   2.004   3.221   7.878  1.3617  0.1733  0.7080
 6660SOL    HW231440   2.012   3.359   7.928  0.6662  0.9621 -0.1841
 6661SOL     OW31441   1.984   1.595  10.092  0.4525 -0.0047  0.2902
 6661SOL    HW131442   1.920   1.627  10.028 -0.0036  1.0104  1.2526
 6661SOL    HW231443   2.057   1.645  10.055  0.4326  0.0597  0.3377
 6662SOL     OW31444   0.321   3.299   5.890  0.2493 -0.0821  1.0883
 6662SOL    HW131445   0.350   3.360   5.822  0.3123 -1.4429 -0.0984
 6662SOL    HW231446   0.395   3.292   5.949 -0.2670 -0.2925  1.7100
 6663SOL     OW31447   0.619   0.904  13.038  0.4315  0.2904  0.0092
 6663SOL    HW131448   0.678   0.832  13.019 -1.1058 -0.7075 -1.0168
 6663SOL    HW231449   0.573   0.863  13.112 -0.0111  2.8321  1.1560
 6664SOL     OW31450   0.432   2.458   5.498  0.5083  0.0997 -0.1924
 6664SOL    HW131451   0.404   2.471   5.407  1.2393  2.2060 -0.1149
 6664SOL    HW231452   0.426   2.541   5.544  1.1423  0.3034 -0.4726
 6665SOL     OW31453   3.460   1.804   4.122  0.4807  0.5585  0.7535
 6665SOL    HW131454   3.418   1.736   4.069  1.1842 -0.4578  1.4939
 6665SOL    HW231455   3.540   1.830   4.076  0.5762 -0.2560  0.4555
 6666SOL     OW31456   1.081   4.534   3.164 -0.1240 -0.6224  0.5158
 6666SOL    HW131457   1.137   4.513   3.089  1.4874  3.4839  0.5684
 6666SOL    HW231458   1.134   4.503   3.237  0.0361  1.3381  1.2337
 6667SOL     OW31459   1.954   0.747  13.080 -0.2488 -0.3153  0.3966
 6667SOL    HW131460   2.003   0.674  13.119 -1.0705 -1.0057  0.1322
 6667SOL    HW231461   1.879   0.699  13.043  0.7188 -2.9799  1.8484
 6668SOL     OW31462   2.480   1.047   3.601 -0.5495 -0.2021  0.5679
 6668SOL    HW131463   2.520   1.134   3.592 -0.9578 -0.0302  0.4028
 6668SOL    HW231464   2.410   1.064   3.664  0.4006 -0.6060  1.7218
 6669SOL     OW31465   4.010   3.685   1.267 -0.7674  0.2910  0.0705
 6669SOL    HW131466   3.951   3.741   1.216  0.3351 -0.8996 -2.4969
 6669SOL    HW231467   3.955   3.666   1.343 -3.1269 -1.4379 -2.0505
 6670SOL     OW31468   2.085   2.355  12.924 -1.0835  0.5820  0.9280
 6670SOL    HW131469   2.102   2.295  12.997  2.8515  0.1052 -0.3789
 6670SOL    HW231470   2.028   2.302  12.869  0.8770  1.8696 -2.3566
 6671SOL     OW31471   3.392   3.502   0.541  0.2957 -1.0455  0.7093
 6671SOL    HW131472   3.304   3.477   0.568 -0.3361 -0.3929 -0.7194
 6671SOL    HW231473   3.439   3.527   0.620 -1.2417  0.7826  1.0354
 6672SOL     OW31474   2.673   1.152   2.869 -0.3518  0.0759  0.0109
 6672SOL    HW131475   2.674   1.231   2.815 -0.2864 -0.7581 -1.2103
 6672SOL    HW231476   2.658   1.195   2.954 -2.6918  1.5113 -1.1387
 6673SOL     OW31477   2.874   4.497   8.637 -0.3573  0.0015  0.2264
 6673SOL    HW131478   2.782   4.470   8.632 -0.2691 -0.3889  0.8050
 6673SOL    HW231479   2.910   4.409   8.638  2.6586  1.2240 -1.9722
 6674SOL     OW31480   4.285   1.206   7.001  0.1104  0.3556  0.0774
 6674SOL    HW131481   4.263   1.113   6.997 -0.7268  0.6680 -2.8114
 6674SOL    HW231482   4.245   1.234   6.919  2.0902  0.3005 -0.9106
 6675SOL     OW31483   0.339   3.901   9.717  0.1815 -0.0132 -0.4324
 6675SOL    HW131484   0.330   3.983   9.765 -1.6099 -0.3144 -0.2427
 6675SOL    HW231485   0.395   3.860   9.783  2.6696  2.4772 -1.0109
 6676SOL     OW31486   2.140   1.119   6.194  0.2836  0.2206 -0.3706
 6676SOL    HW131487   2.060   1.168   6.211  1.1672  1.5982 -0.2516
 6676SOL    HW231488   2.181   1.177   6.130  1.1301  1.9811  1.7976
 6677SOL     OW31489   0.552   0.103  10.939 -0.8736 -0.1123  0.8639
 6677SOL    HW131490   0.626   0.137  10.889 -1.1020 -0.4333  0.3101
 6677SOL    HW231491   0.518   0.188  10.965 -0.8555  0.5300 -1.2265
 6678SOL     OW31492   2.290   3.314   2.271 -0.2743 -0.1436  0.2734
 6678SOL    HW131493   2.236   3.268   2.206 -1.2664  0.2619  0.8052
 6678SOL    HW231494   2.350   3.366   2.218 -1.0498  2.4123  1.9148
 6679SOL     OW31495   1.139   3.685   3.530 -0.1191 -0.0907 -0.3058
 6679SOL    HW131496   1.051   3.722   3.525 -0.3781 -0.9829 -2.1555
 6679SOL    HW231497   1.199   3.758   3.519 -0.5725  0.1560 -1.1672
 6680SOL     OW31498   3.913   2.284   8.275 -0.0469 -0.2430 -0.6486
 6680SOL    HW131499   3.909   2.242   8.361  0.1764  1.6449  0.2884
 6680SOL    HW231500   4.008   2.286   8.273  0.0095 -1.1516  0.9748
 6681SOL     OW31501   0.152   2.543   4.627  0.8040 -0.2421  0.7544
 6681SOL    HW131502   0.145   2.604   4.554  1.4504  0.7577  1.5123
 6681SOL    HW231503   0.229   2.494   4.600  1.2753 -0.5408  2.6033
 6682SOL     OW31504   0.070   4.530   6.858  0.2889  0.0058 -0.0393
 6682SOL    HW131505   4.717   4.520   6.916  0.2039  1.6408  0.1509
 6682SOL    HW231506   0.107   4.445   6.880  0.3007 -0.0141 -0.1363
 6683SOL     OW31507   1.537   2.401   6.149 -0.9383 -0.7230 -1.0519
 6683SOL    HW131508   1.622   2.361   6.131 -1.0825  0.0541 -3.5088
 6683SOL    HW231509   1.480   2.351   6.090 -1.1864  0.5293 -1.8629
 6684SOL     OW31510   2.320   3.425  17.122  0.6539 -0.2469 -0.0433
 6684SOL    HW131511   2.227   3.428  17.143  0.7580  2.8657  0.0028
 6684SOL    HW231512   2.349   3.368  17.193  1.5582  0.1490 -0.0923
 6685SOL     OW31513   1.166   1.960   8.051 -0.0673  0.0145  0.2912
 6685SOL    HW131514   1.084   1.998   8.020 -0.2426 -0.9141 -0.3648
 6685SOL    HW231515   1.152   1.871   8.018  0.7726  0.4663 -1.2722
 6686SOL     OW31516   3.625   1.081  13.051  0.2838 -0.1810 -0.0714
 6686SOL    HW131517   3.686   1.020  13.009  1.3312 -0.3820  1.7270
 6686SOL    HW231518   3.683   1.144  13.093  0.8530 -1.7340  1.4873
 6687SOL     OW31519   3.932   3.261   8.040 -0.4430  0.0024 -0.3639
 6687SOL    HW131520   3.926   3.345   8.085  0.9190  0.2112 -0.5562
 6687SOL    HW231521   3.980   3.294   7.964  2.4720 -1.2117  0.9238
 6688SOL     OW31522   1.626   3.849   2.665  0.1979  0.2618  0.0593
 6688SOL    HW131523   1.712   3.859   2.624  1.3581  1.7740  2.8726
 6688SOL    HW231524   1.643   3.872   2.756 -1.8488 -1.5555  0.9093
 6689SOL     OW31525   3.879   0.680   4.416  0.5183 -0.1590  0.1220
 6689SOL    HW131526   3.824   0.758   4.425  0.4954  0.1549 -2.6385
 6689SOL    HW231527   3.929   0.707   4.339 -1.2504  1.1130 -0.5661
 6690SOL     OW31528   0.312   1.489   8.081  0.4386  0.1287  0.0759
 6690SOL    HW131529   0.267   1.556   8.133  0.5953 -0.2281  0.6676
 6690SOL    HW231530   0.237   1.467   8.026  1.1388 -0.4058 -0.6649
 6691SOL     OW31531   3.461   3.693   5.852 -0.3443 -0.6451  0.5778
 6691SOL    HW131532   3.457   3.745   5.772 -0.0901 -3.2476 -1.1192
 6691SOL    HW231533   3.550   3.714   5.882 -0.6871  0.7502  0.6161
 6692SOL     OW31534   0.988   1.116   0.057  0.6342  0.2321 -0.1417
 6692SOL    HW131535   1.070   1.164   0.050  0.5789  0.1331 -1.3293
 6692SOL    HW231536   0.948   1.137  17.665 -1.4837 -1.3360  0.4694
 6693SOL     OW31537   0.520   3.443   2.996 -0.0958 -0.8925 -0.0979
 6693SOL    HW131538   0.479   3.471   3.078 -1.0276 -1.5668 -0.3426
 6693SOL    HW231539   0.584   3.386   3.038 -1.1494 -1.1807  1.1038
 6694SOL     OW31540   3.299   4.207   5.143 -0.0892  0.0391 -0.3525
 6694SOL    HW131541   3.341   4.121   5.144 -0.6705 -0.2433 -0.3267
 6694SOL    HW231542   3.226   4.196   5.204 -2.1705 -1.9283 -3.2173
 6695SOL     OW31543   4.120   2.171   6.762 -0.4538  0.6106  0.4565
 6695SOL    HW131544   4.087   2.110   6.696 -0.9807  0.7064  0.6331
 6695SOL    HW231545   4.035   2.206   6.789 -0.5770 -0.1459  1.0407
 6696SOL     OW31546   2.287   2.517   8.109 -0.3952  0.3173 -0.3300
 6696SOL    HW131547   2.219   2.505   8.043 -1.0623  0.8169  0.2735
 6696SOL    HW231548   2.270   2.432   8.150 -0.4878  0.8214  0.6623
 6697SOL     OW31549   1.973   3.667   6.912 -0.2780 -0.1485  0.4363
 6697SOL    HW131550   1.898   3.725   6.926 -0.4138 -0.3312  0.4723
 6697SOL    HW231551   1.961   3.623   6.996 -2.7817 -0.9214 -0.3165
 6698SOL     OW31552   1.378   0.576   4.490 -0.4447  0.4867 -0.1028
 6698SOL    HW131553   1.360   0.556   4.582 -0.0331  1.0103  0.0917
 6698SOL    HW231554   1.301   0.541   4.446 -0.1519 -0.7787  0.3902
 6699SOL     OW31555   4.670   4.083   8.791  0.4269 -0.4562 -0.5083
 6699SOL    HW131556   4.671   4.043   8.704 -0.1367  0.1165 -0.7764
 6699SOL    HW231557   4.671   4.176   8.768 -3.8003 -0.3461 -0.3680
 6700SOL     OW31558   2.545   2.600   7.910  0.0789 -0.3262 -0.1557
 6700SOL    HW131559   2.494   2.528   7.947  0.5886 -1.3000 -1.3763
 6700SOL    HW231560   2.484   2.673   7.922  0.0441  0.0926 -3.0266
 6701SOL     OW31561   0.581   0.744   7.349 -0.0736 -0.0643 -0.0497
 6701SOL    HW131562   0.676   0.754   7.344  0.1373 -1.3621  1.3342
 6701SOL    HW231563   0.570   0.684   7.423  1.6187  0.5935  0.7381
 6702SOL     OW31564   4.579   3.639   9.942 -0.6986 -0.1891  0.5384
 6702SOL    HW131565   4.543   3.677  10.022  0.9768  0.7401  0.8346
 6702SOL    HW231566   4.665   3.680   9.936 -0.8007 -0.0165  0.2261
 6703SOL     OW31567   0.815   0.166   1.584  0.1087  0.0617  0.4052
 6703SOL    HW131568   0.763   0.113   1.645 -0.4206 -0.0240 -0.1271
 6703SOL    HW231569   0.904   0.130   1.588 -0.7445 -2.0270  0.1852
 6704SOL     OW31570   3.647   2.613   7.943  0.3856 -0.4962  0.0721
 6704SOL    HW131571   3.731   2.641   7.908 -0.7283  0.8156 -1.5680
 6704SOL    HW231572   3.656   2.521   7.920 -0.5621 -0.1819 -1.5714
 6705SOL     OW31573   4.461   2.784  15.658 -0.5360  0.1648 -0.3542
 6705SOL    HW131574   4.371   2.784  15.626 -1.1401 -1.4110  1.3668
 6705SOL    HW231575   4.474   2.878  15.644 -1.0310  0.2986  0.0930
 6706SOL     OW31576   2.380   1.570   5.237  0.3449  0.2135  0.3877
 6706SOL    HW131577   2.472   1.597   5.235 -0.6815  3.7929  0.9826
 6706SOL    HW231578   2.342   1.591   5.322 -0.0119 -0.4697  0.3904
 6707SOL     OW31579   2.528   0.016   5.886  0.0891  0.0172  0.6199
 6707SOL    HW131580   2.437   4.710   5.894 -0.3353  0.8077 -1.2473
 6707SOL    HW231581   2.515   0.111   5.878 -2.7455 -0.4261 -0.3940
 6708SOL     OW31582   1.219   3.906  11.501 -0.2087 -0.1525 -0.7359
 6708SOL    HW131583   1.136   3.950  11.516 -1.2122 -0.7244 -4.7098
 6708SOL    HW231584   1.260   3.972  11.444 -0.1005  1.0194  0.7034
 6709SOL     OW31585   2.062   0.705   5.862  0.1133  0.4819  0.0038
 6709SOL    HW131586   2.053   0.781   5.805 -3.5161 -0.1531 -0.2674
 6709SOL    HW231587   2.157   0.699   5.867  0.0842  0.1171  0.1320
 6710SOL     OW31588   0.943   3.998   2.190  0.0972  0.2709 -0.1028
 6710SOL    HW131589   0.950   3.960   2.103  0.5680 -1.6189  0.7788
 6710SOL    HW231590   1.015   3.956   2.237 -1.3920 -2.1470  0.0151
 6711SOL     OW31591   2.787   4.325   8.359 -0.0326  0.0097  0.2847
 6711SOL    HW131592   2.863   4.307   8.414  0.8935 -0.6199 -1.1942
 6711SOL    HW231593   2.748   4.391   8.416 -2.4158 -0.9853 -0.2142
 6712SOL     OW31594   4.687   2.374  15.667  0.2783 -0.3107  0.3111
 6712SOL    HW131595   4.660   2.389  15.577 -0.8694  0.2179  0.7307
 6712SOL    HW231596   4.692   2.463  15.704 -1.8822 -0.1577  0.2651
 6713SOL     OW31597   1.106   2.979  15.168  0.4358 -0.3781 -0.1020
 6713SOL    HW131598   1.105   3.073  15.154  0.4769 -0.5461 -1.2649
 6713SOL    HW231599   1.034   2.973  15.231  0.1906 -3.3062 -0.6684
 6714SOL     OW31600   4.355   2.922   2.607 -0.1098 -0.0821 -0.0130
 6714SOL    HW131601   4.360   3.003   2.556 -0.6846 -0.3955 -0.5584
 6714SOL    HW231602   4.276   2.940   2.657 -0.4308  0.9805 -0.8944
 6715SOL     OW31603   0.876   3.534   1.592 -0.8943 -0.1933 -0.0426
 6715SOL    HW131604   0.784   3.531   1.566 -0.1370 -1.8774 -2.5848
 6715SOL    HW231605   0.890   3.445   1.626 -1.5415  0.2396  1.3315
 6716SOL     OW31606   0.723   0.345   2.627  0.0738 -0.1881 -0.5786
 6716SOL    HW131607   0.708   0.396   2.706 -0.2242 -1.3974  0.1581
 6716SOL    HW231608   0.632   0.327   2.605 -0.7608 -0.9212  3.4858
 6717SOL     OW31609   2.621   1.700   3.070  0.1493 -0.0551 -0.0103
 6717SOL    HW131610   2.657   1.674   2.985  3.0996 -0.1498  1.2760
 6717SOL    HW231611   2.571   1.619   3.080  1.1286 -0.3450  2.6730
 6718SOL     OW31612   0.076   4.243  14.468 -0.2408  0.1732  0.3498
 6718SOL    HW131613   0.155   4.241  14.414 -0.6844 -3.7275 -0.1717
 6718SOL    HW231614   0.047   4.334  14.469 -2.7140 -0.6165  0.8772
 6719SOL     OW31615   4.096   1.499   1.886  0.4269 -0.5344  0.0786
 6719SOL    HW131616   4.010   1.511   1.928  0.6613  0.0768  0.3751
 6719SOL    HW231617   4.103   1.574   1.827  1.7437 -1.5575 -1.0651
 6720SOL     OW31618   2.182   2.231   5.363 -0.2512  0.0174 -0.2114
 6720SOL    HW131619   2.211   2.204   5.276  1.2260  1.8680 -0.2889
 6720SOL    HW231620   2.244   2.299   5.390 -2.2814  1.0774  1.8521
 6721SOL     OW31621   2.458   2.472   6.328 -0.4874  0.3122  0.5303
 6721SOL    HW131622   2.377   2.505   6.289 -0.0636  1.2760  0.4667
 6721SOL    HW231623   2.520   2.541   6.307 -2.3999  1.8947  0.0523
 6722SOL     OW31624   4.320   2.037   1.720 -0.1737 -0.6099 -0.2076
 6722SOL    HW131625   4.406   1.998   1.709 -0.3385 -1.6388  2.1956
 6722SOL    HW231626   4.361   2.117   1.752 -1.2802  0.4858 -1.5635
 6723SOL     OW31627   1.942   4.457   4.863 -0.5579  0.0027  0.0304
 6723SOL    HW131628   1.869   4.507   4.900 -0.0381  0.7736  0.0015
 6723SOL    HW231629   1.906   4.417   4.783  1.9163  4.3733 -3.2774
 6724SOL     OW31630   0.811   0.813   9.857 -0.0520 -0.2211  0.1572
 6724SOL    HW131631   0.835   0.888   9.911 -3.5924  1.3898 -0.4956
 6724SOL    HW231632   0.794   0.748   9.925 -0.8388  2.4212  2.4756
 6725SOL     OW31633   3.417   0.286  11.875  0.2627 -0.1150  0.3862
 6725SOL    HW131634   3.382   0.212  11.925 -0.3286 -0.6598 -0.8223
 6725SOL    HW231635   3.510   0.284  11.897  0.3829 -0.0468 -0.1125
 6726SOL     OW31636   3.810   1.163  11.958  0.1083  0.0918  0.3177
 6726SOL    HW131637   3.726   1.182  12.001 -0.5979 -2.2334 -0.0628
 6726SOL    HW231638   3.851   1.247  11.939  0.7426 -0.6662 -1.6583
 6727SOL     OW31639   2.718   2.981   5.997  0.2824  0.2279 -0.0150
 6727SOL    HW131640   2.764   2.929   5.931  0.1543  0.2240 -0.1002
 6727SOL    HW231641   2.659   3.027   5.937 -1.0707 -1.7629 -0.2013
 6728SOL     OW31642   1.020   0.181   4.311 -0.0028  0.2799  0.1590
 6728SOL    HW131643   0.932   0.162   4.343 -1.0237 -0.6043 -3.1818
 6728SOL    HW231644   1.071   0.116   4.358  0.1607 -0.0642 -0.4960
 6729SOL     OW31645   2.822   2.508   0.270 -0.3327  0.1600  0.0749
 6729SOL    HW131646   2.779   2.427   0.244 -1.6282  2.0320 -3.6554
 6729SOL    HW231647   2.858   2.536   0.185  1.2450 -0.7567  0.4417
 6730SOL     OW31648   4.540   2.979   3.848 -0.1653  0.6746 -0.4943
 6730SOL    HW131649   4.488   3.037   3.793 -2.9197 -0.3754  1.0167
 6730SOL    HW231650   4.600   2.944   3.782  1.7455 -0.0180  1.5938
 6731SOL     OW31651   0.520   0.922   2.680 -0.1207  0.2803  0.0455
 6731SOL    HW131652   0.553   0.988   2.741  0.2220  0.3588 -0.2213
 6731SOL    HW231653   0.549   0.841   2.723 -0.9011 -0.9237 -1.6953
 6732SOL     OW31654   1.076   3.549   7.698 -0.2333 -0.0100  0.2133
 6732SOL    HW131655   1.172   3.556   7.691 -0.2342 -0.4378 -0.2179
 6732SOL    HW231656   1.061   3.547   7.604 -0.6316 -1.8103  0.3023
 6733SOL     OW31657   1.537   2.401  15.372  0.1285 -0.0651 -0.4581
 6733SOL    HW131658   1.511   2.430  15.285  0.7213  2.4398  0.2049
 6733SOL    HW231659   1.632   2.388  15.365  0.0587 -0.8175 -0.0624
 6734SOL     OW31660   3.277   4.409   1.873 -0.5717  0.0066  0.4860
 6734SOL    HW131661   3.316   4.330   1.910 -0.1573 -0.0635 -0.1088
 6734SOL    HW231662   3.188   4.392   1.904 -0.5094 -2.2489 -0.6063
 6735SOL     OW31663   2.773   3.044   4.062 -0.5017  0.6426 -0.4086
 6735SOL    HW131664   2.842   3.015   4.122 -0.6480 -0.2630 -0.6714
 6735SOL    HW231665   2.700   2.982   4.063 -0.0288  0.0870 -0.1917
 6736SOL     OW31666   0.804   2.659  12.589 -0.3688 -0.3945 -0.3423
 6736SOL    HW131667   0.855   2.729  12.630 -1.5682 -1.0996  2.3940
 6736SOL    HW231668   0.766   2.697  12.510  1.5320  1.0634 -0.5744
 6737SOL     OW31669   0.743   3.622   8.698  0.2495 -0.9878 -0.3888
 6737SOL    HW131670   0.827   3.636   8.654  0.2995 -3.7029 -1.2013
 6737SOL    HW231671   0.777   3.573   8.773 -0.9751 -1.4669 -0.1431
 6738SOL     OW31672   0.662   2.538   1.524 -0.9895 -0.0972  0.3390
 6738SOL    HW131673   0.582   2.494   1.553 -1.3082 -0.1638 -0.6540
 6738SOL    HW231674   0.691   2.587   1.601 -1.1382 -0.5110  0.6582
 6739SOL     OW31675   3.162   3.718  11.837 -0.1133  0.4858 -0.2654
 6739SOL    HW131676   3.162   3.736  11.743 -0.9414 -1.5656 -0.6525
 6739SOL    HW231677   3.084   3.764  11.866 -1.1702 -1.8904  0.6937
 6740SOL     OW31678   2.387   1.981   2.708  0.8510 -0.2349 -0.5155
 6740SOL    HW131679   2.469   1.997   2.754 -0.3347 -0.4501  1.7129
 6740SOL    HW231680   2.332   1.970   2.786  0.9646 -0.1001 -0.4147
 6741SOL     OW31681   1.883   3.175   6.682  0.0919  0.0026 -0.1722
 6741SOL    HW131682   1.840   3.205   6.602 -0.4578 -2.0546 -0.6624
 6741SOL    HW231683   1.842   3.089   6.693 -0.8697  0.6736  1.4894
 6742SOL     OW31684   2.212   2.609  13.157 -0.4951  0.2545 -0.0384
 6742SOL    HW131685   2.197   2.614  13.251  2.9078 -0.1235  0.5218
 6742SOL    HW231686   2.215   2.701  13.129 -0.8441  0.0412 -0.7985
 6743SOL     OW31687   1.898   0.072   4.354 -0.0116 -0.0600 -0.5138
 6743SOL    HW131688   1.986   0.053   4.322  0.5817  1.0860  0.4269
 6743SOL    HW231689   1.894   0.167   4.350  2.4290  0.1042  1.1306
 6744SOL     OW31690   1.111   0.965   5.105 -0.2145 -0.0985 -0.5009
 6744SOL    HW131691   1.141   0.982   5.195 -1.3143  2.0117 -0.5468
 6744SOL    HW231692   1.136   1.052   5.074 -3.0103  1.3274  1.2897
 6745SOL     OW31693   0.666   0.082   7.031  0.5215  0.0213 -0.3260
 6745SOL    HW131694   0.572   0.097   7.029  0.3810 -0.7416  0.8989
 6745SOL    HW231695   0.677   0.093   6.937 -0.9585  0.5823 -0.4227
 6746SOL     OW31696   3.635   4.080   2.849 -0.0597 -0.4125  0.1221
 6746SOL    HW131697   3.638   4.063   2.943 -0.3638 -1.8810 -0.1349
 6746SOL    HW231698   3.703   4.146   2.836 -0.2386 -0.3539 -0.4924
 6747SOL     OW31699   4.580   4.122   8.285  0.0491 -0.1921 -0.1003
 6747SOL    HW131700   4.496   4.127   8.239 -0.3387  0.5731  0.6822
 6747SOL    HW231701   4.641   4.099   8.216 -0.5182 -0.9847 -0.3424
 6748SOL     OW31702   3.476   1.195   8.644  0.0995  0.3038  0.2236
 6748SOL    HW131703   3.380   1.188   8.636  0.3576  0.0014 -2.5536
 6748SOL    HW231704   3.506   1.124   8.587  5.0777  1.1641  1.7917
 6749SOL     OW31705   4.580   2.913  10.836 -0.2822 -0.0871 -0.4787
 6749SOL    HW131706   4.643   2.875  10.775  0.5299 -1.6989  1.3783
 6749SOL    HW231707   4.621   2.933  10.920 -1.4349  1.6198 -0.3197
 6750SOL     OW31708   1.996   0.189   6.705  0.1945  0.0117 -0.5084
 6750SOL    HW131709   2.072   0.246   6.716  0.9119 -1.0254 -0.1896
 6750SOL    HW231710   2.013   0.167   6.614  2.2632  1.1733 -0.4011
 6751SOL     OW31711   4.618   3.193   6.078  0.0980 -0.0367  0.3932
 6751SOL    HW131712   4.532   3.222   6.109 -0.4406 -1.5531  0.3238
 6751SOL    HW231713   4.667   3.275   6.086 -1.2764  0.7754  0.4169
 6752SOL     OW31714   1.657   0.394   5.528  0.2008 -0.2108  0.0797
 6752SOL    HW131715   1.731   0.369   5.582  0.3858  0.6771  0.2339
 6752SOL    HW231716   1.688   0.374   5.439  0.5871  0.3694  0.0832
 6753SOL     OW31717   3.938   2.396   3.307  0.5000  0.1081  0.3733
 6753SOL    HW131718   3.863   2.412   3.251  2.6573 -0.4288 -2.6779
 6753SOL    HW231719   3.983   2.479   3.288  0.6801 -0.3858 -1.2909
 6754SOL     OW31720   2.277   0.514   6.977  0.0189  0.4769 -0.2391
 6754SOL    HW131721   2.311   0.434   7.017  1.5250  1.0457 -0.3710
 6754SOL    HW231722   2.184   0.514   6.999  0.4082  1.0573  1.4751
 6755SOL     OW31723   1.494   1.514  13.000  0.0726 -0.2647 -0.2813
 6755SOL    HW131724   1.408   1.522  13.042 -1.3548  1.8076 -3.6699
 6755SOL    HW231725   1.485   1.467  12.917  0.7559 -3.5853  1.5111
 6756SOL     OW31726   0.126   3.532   7.483 -0.5023  0.3371 -0.1607
 6756SOL    HW131727   0.096   3.453   7.527  0.3019 -1.1185 -2.2543
 6756SOL    HW231728   0.061   3.589   7.523 -0.8914 -0.6243  0.5715
 6757SOL     OW31729   2.635   4.688   3.400  0.0825 -0.3192 -0.4064
 6757SOL    HW131730   2.686   4.684   3.319  0.1260  3.0761 -0.5487
 6757SOL    HW231731   2.640   4.599   3.435 -0.8438 -1.0469 -2.0994
 6758SOL     OW31732   1.252   0.911   2.839 -0.1717 -0.2823 -0.3564
 6758SOL    HW131733   1.306   0.832   2.839  1.8450  1.1158 -0.4617
 6758SOL    HW231734   1.241   0.922   2.745  1.4275 -0.4949 -0.5674
 6759SOL     OW31735   0.458   1.224   5.650  0.0887  0.0067  0.0245
 6759SOL    HW131736   0.457   1.255   5.740 -0.3404 -1.3989  0.5015
 6759SOL    HW231737   0.415   1.139   5.656  0.2934  0.0953  2.5642
 6760SOL     OW31738   2.349   0.640   5.525  0.2145 -0.2321  0.0510
 6760SOL    HW131739   2.388   0.599   5.447 -0.2009  1.3771 -0.9994
 6760SOL    HW231740   2.343   0.733   5.503 -0.4485 -0.9444 -2.7477
 6761SOL     OW31741   0.661   2.319   5.550  0.1207 -0.3810 -0.4513
 6761SOL    HW131742   0.574   2.353   5.534  1.2350  3.4308  1.6820
 6761SOL    HW231743   0.651   2.234   5.507  1.5028 -0.7260 -0.0929
 6762SOL     OW31744   1.464   3.379   5.074 -0.3647 -0.4286  0.0528
 6762SOL    HW131745   1.441   3.378   5.167  0.2197  0.9980  0.2211
 6762SOL    HW231746   1.558   3.397   5.076  0.0537 -2.6570  0.4351
 6763SOL     OW31747   3.695   1.363   4.333  0.3565 -0.4790 -0.3930
 6763SOL    HW131748   3.664   1.273   4.340 -2.5657  0.5810  0.0707
 6763SOL    HW231749   3.681   1.395   4.244  0.2905 -0.9291 -0.5417
 6764SOL     OW31750   2.087   0.275  11.859  0.8312 -0.4162 -0.3836
 6764SOL    HW131751   2.008   0.280  11.914  0.2580 -2.1860 -1.0264
 6764SOL    HW231752   2.126   0.362  11.858 -0.4522  0.1788  1.1546
 6765SOL     OW31753   1.319   3.593  12.154 -0.5537 -0.9003  0.3780
 6765SOL    HW131754   1.291   3.667  12.208  1.3628 -0.2520  0.4878
 6765SOL    HW231755   1.357   3.641  12.080  1.2388 -0.2203  1.7291
 6766SOL     OW31756   2.821   1.083   4.516 -0.0942 -0.7964  0.1642
 6766SOL    HW131757   2.759   1.011   4.526 -1.9785  0.7859 -0.2766
 6766SOL    HW231758   2.773   1.143   4.460  1.2561  1.2204  1.1923
 6767SOL     OW31759   2.856   3.810   6.043  0.6020  0.6158  0.5988
 6767SOL    HW131760   2.764   3.791   6.024  0.6402  1.9368 -0.9868
 6767SOL    HW231761   2.864   3.894   5.997  0.8445  0.4010  0.2444
 6768SOL     OW31762   2.127   1.241   7.161  0.0017 -0.2853 -0.3447
 6768SOL    HW131763   2.214   1.207   7.182 -0.1865 -1.4334 -1.4446
 6768SOL    HW231764   2.153   1.333   7.153  1.6451 -0.7265  0.0343
 6769SOL     OW31765   3.093   2.473   6.285  0.5971  0.1629 -0.0916
 6769SOL    HW131766   3.176   2.425   6.292  1.3091  1.4512  0.1461
 6769SOL    HW231767   3.080   2.446   6.194  0.1284 -0.3445  0.1243
 6770SOL     OW31768   1.393   2.413   5.133 -0.4789  0.4441  0.8187
 6770SOL    HW131769   1.318   2.417   5.073  1.8630 -0.9606 -2.1811
 6770SOL    HW231770   1.424   2.503   5.143 -0.2933  0.2996  1.5322
 6771SOL     OW31771   4.339   0.138   3.182  0.1290  0.0857  0.0443
 6771SOL    HW131772   4.405   0.161   3.246 -0.3925 -0.2026  0.6847
 6771SOL    HW231773   4.314   0.052   3.216 -3.4251  1.3844  0.6940
 6772SOL     OW31774   3.401   1.430   4.835 -0.0663  0.5187  0.2074
 6772SOL    HW131775   3.424   1.337   4.832 -1.3045  0.2570 -1.2039
 6772SOL    HW231776   3.306   1.417   4.832  0.1970 -1.3763 -0.5415
 6773SOL     OW31777   0.310   3.203   7.575  0.9120 -0.4056  0.1231
 6773SOL    HW131778   0.265   3.282   7.546  2.2114  0.4679  0.4654
 6773SOL    HW231779   0.250   3.133   7.551  1.1686 -0.6998  0.3367
 6774SOL     OW31780   4.078   1.740  10.790  0.3944  0.4523 -0.0999
 6774SOL    HW131781   4.108   1.650  10.802  2.0559  0.8343 -1.4179
 6774SOL    HW231782   4.123   1.774  10.868 -0.8825  0.9588  0.4151
 6775SOL     OW31783   0.075   0.398   7.829  0.1328  0.0141  0.0124
 6775SOL    HW131784   0.165   0.426   7.841  0.5877 -0.3801 -2.4710
 6775SOL    HW231785   0.083   0.309   7.863  1.1114  0.5481  1.1757
 6776SOL     OW31786   2.482   3.791   4.778 -0.3392 -0.6242  0.2749
 6776SOL    HW131787   2.393   3.774   4.747 -1.5081  1.3214  2.6165
 6776SOL    HW231788   2.458   3.864   4.835 -2.7358 -0.3076 -1.1354
 6777SOL     OW31789   4.234   0.123   7.041 -0.2139 -0.2255 -0.2810
 6777SOL    HW131790   4.159   0.182   7.033 -2.0031 -2.8086 -2.3515
 6777SOL    HW231791   4.243   0.095   6.950  0.5312 -0.6184 -0.0864
 6778SOL     OW31792   4.436   1.425   3.466  0.2852 -0.0387 -0.1984
 6778SOL    HW131793   4.394   1.449   3.383  1.2999  0.9237 -0.4249
 6778SOL    HW231794   4.375   1.468   3.525 -0.2221 -3.0645  1.5155
 6779SOL     OW31795   1.480   1.477   2.107 -0.4878 -0.0084  0.0698
 6779SOL    HW131796   1.424   1.412   2.150  0.5944 -0.9156  0.1195
 6779SOL    HW231797   1.417   1.515   2.046 -0.7115  0.0157  0.3143
 6780SOL     OW31798   1.443   4.355  11.145  0.5153 -0.1117 -0.2392
 6780SOL    HW131799   1.536   4.340  11.126  0.8910 -0.2770  1.7199
 6780SOL    HW231800   1.454   4.431  11.202  2.8235  0.0483 -0.8970
 6781SOL     OW31801   3.322   3.829   7.533 -0.6607 -0.1643 -0.9792
 6781SOL    HW131802   3.274   3.861   7.456 -2.7198 -1.6010 -0.2984
 6781SOL    HW231803   3.381   3.904   7.537  0.6650 -1.3780  1.6649
 6782SOL     OW31804   2.022   0.528   3.791  0.3195  0.2718 -0.2654
 6782SOL    HW131805   2.055   0.480   3.867  0.9574  1.9607  0.5218
 6782SOL    HW231806   1.930   0.549   3.804 -0.5361 -2.8437 -1.0794
 6783SOL     OW31807   2.573   2.826  15.292  0.5690 -0.3518 -0.6537
 6783SOL    HW131808   2.622   2.745  15.302  0.1016 -0.8660 -2.5949
 6783SOL    HW231809   2.566   2.853  15.384  0.8860  0.8838 -0.9999
 6784SOL     OW31810   1.236   1.297  12.512  0.5336  0.7181 -0.4394
 6784SOL    HW131811   1.317   1.332  12.474  0.3390  1.3415 -0.2824
 6784SOL    HW231812   1.230   1.220  12.456 -0.5297 -1.1319  2.2088
 6785SOL     OW31813   1.289   3.230  11.702 -0.4406  0.5436 -0.2935
 6785SOL    HW131814   1.287   3.283  11.781  1.6128  0.1925 -0.0242
 6785SOL    HW231815   1.227   3.159  11.719  0.0455 -0.3441 -2.2314
 6786SOL     OW31816   1.814   1.711   5.516  0.1001  0.5547  0.5023
 6786SOL    HW131817   1.801   1.679   5.606  0.4316 -2.6446 -0.6041
 6786SOL    HW231818   1.904   1.733   5.541  0.6725 -0.6502 -0.5616
 6787SOL     OW31819   4.680   4.373  15.751  0.2225  0.6861 -0.1760
 6787SOL    HW131820   4.716   4.348  15.836  0.9968  0.3336 -0.6001
 6787SOL    HW231821   4.590   4.346  15.764  0.8835 -1.2174  0.4154
 6788SOL     OW31822   4.282   4.088   4.501 -0.3873  0.0178  0.6911
 6788SOL    HW131823   4.226   4.166   4.502 -0.0297  0.3029 -1.2238
 6788SOL    HW231824   4.248   4.059   4.417 -1.0504 -1.7149  1.5627
 6789SOL     OW31825   0.209   0.248   2.553  0.0668  0.3223  0.0072
 6789SOL    HW131826   0.135   0.277   2.606 -2.6633 -1.0861 -2.9604
 6789SOL    HW231827   0.161   0.225   2.473  0.8705 -3.6492  0.6558
 6790SOL     OW31828   0.001   0.997  15.289  0.0920  0.0585 -0.1383
 6790SOL    HW131829   0.031   1.075  15.243 -1.7417  1.0073  0.2656
 6790SOL    HW231830   4.695   0.944  15.214 -1.4334  0.9937 -0.2300
 6791SOL     OW31831   3.016   3.980   8.196 -0.0813 -0.1970  0.0572
 6791SOL    HW131832   3.110   3.981   8.177 -0.4263  1.9560 -1.4402
 6791SOL    HW231833   3.010   4.072   8.219  0.1895 -0.2463  0.3340
 6792SOL     OW31834   0.930   1.498   8.782  0.7966  0.1964 -0.1181
 6792SOL    HW131835   0.977   1.428   8.828 -2.7355 -1.8498  0.3916
 6792SOL    HW231836   0.977   1.504   8.699  1.4465 -0.4532  0.1984
 6793SOL     OW31837   1.416   1.641   7.022 -0.5720  0.0809  0.3736
 6793SOL    HW131838   1.358   1.566   7.006 -0.7075  0.0564  0.9932
 6793SOL    HW231839   1.368   1.709   6.975  0.0472  0.7459  0.7061
 6794SOL     OW31840   2.245   3.173   6.202  0.5026  0.5430 -0.4456
 6794SOL    HW131841   2.261   3.249   6.258 -0.1117  0.2514  0.1329
 6794SOL    HW231842   2.336   3.151   6.180 -0.1263 -1.3557 -1.1783
 6795SOL     OW31843   0.398   3.286  16.628  0.9840  0.1951 -0.1444
 6795SOL    HW131844   0.491   3.274  16.645  1.1246  1.5657  0.0491
 6795SOL    HW231845   0.357   3.205  16.657  2.4762 -0.9818 -1.3502
 6796SOL     OW31846   0.035   2.973   4.298  0.3458  0.0227  0.0471
 6796SOL    HW131847   0.009   3.034   4.229  2.0204 -0.3517 -0.9216
 6796SOL    HW231848   0.025   2.887   4.256 -1.3964 -0.1448  0.8127
 6797SOL     OW31849   3.734   1.326   5.650 -0.7350 -0.1738 -0.4518
 6797SOL    HW131850   3.823   1.315   5.615 -0.5640  0.4496 -0.2223
 6797SOL    HW231851   3.715   1.420   5.638  0.5017 -0.1290 -2.1130
 6798SOL     OW31852   2.698   2.953  14.605 -0.1810  0.2644  0.3073
 6798SOL    HW131853   2.751   3.031  14.585  0.5145  0.1698  1.7869
 6798SOL    HW231854   2.759   2.881  14.612  0.4272  0.8375  0.8512
 6799SOL     OW31855   1.215   3.918   5.972  0.7432  0.0015  0.3953
 6799SOL    HW131856   1.196   4.012   5.972  0.8833  0.0296  0.5791
 6799SOL    HW231857   1.271   3.917   5.894  0.7748 -0.2838  0.4222
 6800SOL     OW31858   2.612   2.205   8.199 -0.4202  0.1107 -0.8761
 6800SOL    HW131859   2.671   2.130   8.191  0.1751  0.6895 -1.9130
 6800SOL    HW231860   2.550   2.193   8.127  0.6325 -0.8951 -1.6126
 6801SOL     OW31861   2.731   0.765   7.386 -0.0284 -0.4810 -0.4168
 6801SOL    HW131862   2.655   0.709   7.366  0.0470 -0.8191  0.2210
 6801SOL    HW231863   2.720   0.778   7.480  2.2425 -1.1045 -0.0715
 6802SOL     OW31864   3.241   3.741   2.803 -0.2768  0.0581  0.0821
 6802SOL    HW131865   3.318   3.796   2.791 -0.5652  0.5160  0.3275
 6802SOL    HW231866   3.191   3.769   2.879 -0.4795  0.7632 -0.3091
 6803SOL     OW31867   0.320   0.755   4.720 -0.0491 -0.1575  0.2856
 6803SOL    HW131868   0.338   0.820   4.652  2.0720 -1.6057 -0.5195
 6803SOL    HW231869   0.382   0.684   4.705  0.6797  0.4982  0.1690
 6804SOL     OW31870   4.099   2.426   8.957  0.2461 -0.8033 -0.0173
 6804SOL    HW131871   4.124   2.372   8.881  0.3969 -1.9368  0.8345
 6804SOL    HW231872   4.030   2.367   8.987  1.3600 -2.0531  0.1128
 6805SOL     OW31873   0.007   1.245   8.600 -0.2778 -0.2476 -0.6183
 6805SOL    HW131874   0.052   1.187   8.663  0.1673  0.1276 -0.5965
 6805SOL    HW231875   0.065   1.317   8.578 -0.8395  0.8563  1.4234
 6806SOL     OW31876   3.369   0.449  12.301 -0.0726  0.6270 -0.3096
 6806SOL    HW131877   3.458   0.447  12.266  0.5694  1.0130  1.2592
 6806SOL    HW231878   3.339   0.366  12.265  1.2010 -0.4078  1.0319
 6807SOL     OW31879   4.292   0.411   3.174 -0.1164  0.6000  0.0230
 6807SOL    HW131880   4.291   0.317   3.193 -0.1705  0.3831 -1.1037
 6807SOL    HW231881   4.259   0.416   3.085 -1.6669 -1.9536  0.4387
 6808SOL     OW31882   2.127   3.882   5.488  0.5202 -0.0241 -0.1121
 6808SOL    HW131883   2.134   3.958   5.546 -2.5896 -0.7249  1.1767
 6808SOL    HW231884   2.144   3.813   5.552 -0.8958  0.8709  1.2383
 6809SOL     OW31885   0.266   2.362   7.453 -0.7918 -0.2095  0.1388
 6809SOL    HW131886   0.218   2.314   7.520  0.2726 -1.3478  0.1033
 6809SOL    HW231887   0.339   2.303   7.433 -1.9622 -1.2761 -1.0251
 6810SOL     OW31888   4.092   4.149   7.676 -0.0217  0.9185 -0.2477
 6810SOL    HW131889   4.129   4.169   7.590 -2.3877 -0.0513 -1.5047
 6810SOL    HW231890   4.003   4.176   7.655 -0.3809 -0.6039 -0.6795
 6811SOL     OW31891   1.805   1.446  17.476 -0.1871 -0.2225  0.2027
 6811SOL    HW131892   1.874   1.393  17.517 -0.5437 -0.2229  0.7936
 6811SOL    HW231893   1.793   1.522  17.533  1.4000  0.3935 -0.2778
 6812SOL     OW31894   4.079   2.474   3.900 -0.0605 -0.1655  0.0296
 6812SOL    HW131895   4.047   2.502   3.987  0.9970  0.6596  0.1466
 6812SOL    HW231896   4.082   2.380   3.919  0.5919 -0.3293 -0.8825
 6813SOL     OW31897   1.105   4.320   7.412 -0.2897  0.1298 -0.0278
 6813SOL    HW131898   1.144   4.281   7.334 -1.1588 -2.0218  0.6082
 6813SOL    HW231899   1.085   4.241   7.462 -0.2279 -0.0222 -0.2443
 6814SOL     OW31900   0.908   3.675   3.250 -0.0033 -0.6752  0.2582
 6814SOL    HW131901   0.885   3.719   3.332 -0.2132 -0.2376 -0.0349
 6814SOL    HW231902   0.829   3.681   3.197  0.2777 -1.9635 -0.2847
 6815SOL     OW31903   0.251   0.266  12.385  0.1104 -1.2663  0.4454
 6815SOL    HW131904   0.184   0.198  12.392 -0.0200 -1.0314  1.4213
 6815SOL    HW231905   0.199   0.345  12.396  0.6295 -0.7546 -0.7830
 6816SOL     OW31906   2.960   2.859  11.633  0.4048 -0.5917 -0.1203
 6816SOL    HW131907   3.016   2.895  11.701  0.8608 -1.4182 -0.0640
 6816SOL    HW231908   2.920   2.937  11.594 -0.3991 -1.2865 -0.6903
 6817SOL     OW31909   4.600   0.443   3.536  0.0478  0.8316 -0.0789
 6817SOL    HW131910   4.520   0.487   3.507 -1.5489 -2.0703  0.0200
 6817SOL    HW231911   4.638   0.504   3.600 -0.0399  0.1071  0.6626
 6818SOL     OW31912   3.669   2.555   7.166  0.8539  0.2788  0.5811
 6818SOL    HW131913   3.696   2.547   7.074 -0.9438 -1.3789  0.2207
 6818SOL    HW231914   3.667   2.651   7.162 -1.7470  0.2254  0.9362
 6819SOL     OW31915   1.212   3.165   7.865  0.9112  0.2062 -0.1153
 6819SOL    HW131916   1.297   3.168   7.908  0.4867 -0.8621  0.8005
 6819SOL    HW231917   1.162   3.216   7.929  2.4581  1.3978  0.1354
 6820SOL     OW31918   3.363   3.087   3.473  0.4302  0.1369  0.0407
 6820SOL    HW131919   3.321   3.141   3.540 -0.3337  2.3734 -2.2385
 6820SOL    HW231920   3.327   3.126   3.393 -0.4512  1.1205  0.9201
 6821SOL     OW31921   3.423   2.067   5.936 -0.0449  0.3944  0.2487
 6821SOL    HW131922   3.479   2.091   5.863  1.2239  0.6305  1.3095
 6821SOL    HW231923   3.422   1.974   5.911  1.0672  0.6941 -0.9314
 6822SOL     OW31924   4.237   2.918   5.888  0.5922  0.0686 -0.6598
 6822SOL    HW131925   4.249   2.835   5.841 -2.3339 -0.3226 -0.6910
 6822SOL    HW231926   4.152   2.947   5.855  0.2733  0.8116  0.7754
 6823SOL     OW31927   0.047   0.975  12.009  0.1284 -0.1012 -0.0219
 6823SOL    HW131928   4.675   0.967  11.995  0.0647  0.9041 -0.1698
 6823SOL    HW231929   0.086   0.953  11.924 -0.3235  1.1331 -0.5470
 6824SOL     OW31930   1.839   2.437   1.929  0.2595 -0.0404 -0.2383
 6824SOL    HW131931   1.889   2.499   1.982 -0.4355 -1.9396  2.6223
 6824SOL    HW231932   1.894   2.359   1.929  1.4512  0.7952  0.3024
 6825SOL     OW31933   1.320   2.233  16.498 -0.1074 -0.6977  0.5851
 6825SOL    HW131934   1.298   2.207  16.587  3.3811  0.1425  1.7155
 6825SOL    HW231935   1.237   2.228  16.451  0.1964  2.2588 -0.2680
 6826SOL     OW31936   2.724   4.144   6.756 -0.1546  0.0875  0.5079
 6826SOL    HW131937   2.685   4.232   6.749  0.3399  0.2948  0.3625
 6826SOL    HW231938   2.761   4.124   6.670  0.5442 -0.1319  0.8576
 6827SOL     OW31939   3.550   4.440   1.842  0.0365 -0.7427  0.3338
 6827SOL    HW131940   3.577   4.350   1.863 -5.3269 -2.6651 -0.9835
 6827SOL    HW231941   3.474   4.412   1.791  0.4112 -2.0913  0.5196
 6828SOL     OW31942   1.802   0.371   6.740  0.5265  0.4786  0.1839
 6828SOL    HW131943   1.861   0.304   6.705  0.3880  0.9216 -0.8906
 6828SOL    HW231944   1.840   0.391   6.825 -0.7433 -1.0122  1.1129
 6829SOL     OW31945   4.637   4.329   6.036 -0.2819 -0.2447 -0.3142
 6829SOL    HW131946   4.647   4.296   6.125  1.8042 -1.4711 -1.0036
 6829SOL    HW231947   4.640   4.424   6.048  0.3071 -0.5203  1.7623
 6830SOL     OW31948   2.926   1.683   6.831  0.0915  0.5173 -0.1488
 6830SOL    HW131949   2.907   1.746   6.762 -0.7069  1.0721  0.5757
 6830SOL    HW231950   3.013   1.647   6.816 -0.5177  0.2797 -3.1203
 6831SOL     OW31951   3.198   2.982   8.354  0.5373  1.2729 -0.3219
 6831SOL    HW131952   3.120   2.992   8.299 -0.3424  1.8020  1.0360
 6831SOL    HW231953   3.241   2.907   8.312 -0.7759 -0.1521  0.8887
 6832SOL     OW31954   0.925   1.166   0.865  0.0030  0.9263  0.3696
 6832SOL    HW131955   0.970   1.202   0.941  0.5621 -1.8709  1.3594
 6832SOL    HW231956   0.988   1.108   0.821  1.7392  3.1677 -0.0716
 6833SOL     OW31957   2.068   0.115   5.404  0.4927  0.1587  0.3995
 6833SOL    HW131958   2.105   0.086   5.488  1.6011 -0.5328 -0.3369
 6833SOL    HW231959   2.126   0.190   5.390 -3.3442  2.5916 -2.3622
 6834SOL     OW31960   0.197   1.647   9.274  0.6777  0.0491 -0.2029
 6834SOL    HW131961   0.253   1.703   9.328  2.9462 -1.5973 -0.8597
 6834SOL    HW231962   0.127   1.624   9.336  1.2952  0.1532  0.5358
 6835SOL     OW31963   3.452   1.440   8.530  0.6362 -0.0512 -0.3233
 6835SOL    HW131964   3.415   1.448   8.442  2.6371  1.4613 -1.0141
 6835SOL    HW231965   3.449   1.346   8.546  1.0739  0.3355  2.0582
 6836SOL     OW31966   1.971   1.518   7.338 -0.2198 -0.0150 -0.5611
 6836SOL    HW131967   2.038   1.520   7.270  1.4894  0.9896  1.1741
 6836SOL    HW231968   1.987   1.597   7.389 -1.5161  0.1893 -0.4673
 6837SOL     OW31969   3.521   1.153  10.893  0.3683 -0.7792  0.1152
 6837SOL    HW131970   3.507   1.134  10.800 -0.7495 -0.7885  0.2863
 6837SOL    HW231971   3.614   1.166  10.908  0.6277 -1.2697 -1.0144
 6838SOL     OW31972   1.777   2.115  10.324 -0.2244 -0.1417 -0.5755
 6838SOL    HW131973   1.757   2.082  10.412  2.6350 -0.5289 -0.0758
 6838SOL    HW231974   1.807   2.204  10.341 -0.4491 -0.1783  0.0354
 6839SOL     OW31975   3.841   1.133   2.891  0.1250  0.0471  0.0373
 6839SOL    HW131976   3.870   1.177   2.811 -0.5895  0.0532 -0.2210
 6839SOL    HW231977   3.857   1.041   2.870  1.5127  0.3336 -0.1419
 6840SOL     OW31978   4.312   1.815   8.524  0.0613  0.6666  0.0629
 6840SOL    HW131979   4.349   1.898   8.556 -1.0335  1.9159 -1.9193
 6840SOL    HW231980   4.234   1.842   8.477 -0.4218  1.0999  1.1179
 6841SOL     OW31981   1.310   3.156   3.944 -0.0001 -0.5974 -0.1690
 6841SOL    HW131982   1.332   3.105   4.022  0.4163 -2.0817 -1.2346
 6841SOL    HW231983   1.216   3.147   3.929 -0.5080  3.8929  0.5799
 6842SOL     OW31984   2.341   0.529  16.948  0.6458  0.5433  0.0515
 6842SOL    HW131985   2.432   0.499  16.952  0.7551  1.0383  1.2363
 6842SOL    HW231986   2.343   0.610  16.999  0.8721 -0.1359  1.1308
 6843SOL     OW31987   4.291   2.927   1.469  0.1799  0.2953 -0.4147
 6843SOL    HW131988   4.340   2.906   1.389 -0.6826 -0.2455 -0.7944
 6843SOL    HW231989   4.359   2.976   1.515 -1.5061  1.5165  0.7500
 6844SOL     OW31990   3.450   3.505   8.276  0.0560  0.5747 -0.5811
 6844SOL    HW131991   3.400   3.582   8.248  0.3538  1.6141  1.7330
 6844SOL    HW231992   3.485   3.538   8.359  2.4110 -0.8264 -1.0386
 6845SOL     OW31993   3.096   1.071   9.243  0.5159  0.1538 -0.1029
 6845SOL    HW131994   3.047   1.139   9.289  0.5607 -1.4138  2.2867
 6845SOL    HW231995   3.121   1.113   9.161 -0.6756  0.8085 -0.1190
 6846SOL     OW31996   3.910   3.265  11.496  0.0727 -0.6320 -0.0695
 6846SOL    HW131997   3.977   3.329  11.470  0.8141 -1.7906 -0.9981
 6846SOL    HW231998   3.863   3.322  11.557 -2.3079  0.1817 -2.6219
 6847SOL     OW31999   2.527   0.418   9.000  0.5428  0.6514  0.0091
 6847SOL    HW132000   2.477   0.428   9.081  0.2152  0.2691 -0.1452
 6847SOL    HW232001   2.607   0.470   9.008 -1.3510  3.6572 -0.4842
 6848SOL     OW32002   3.860   4.013   8.141 -0.6409 -0.4157  0.9849
 6848SOL    HW132003   3.838   3.986   8.230  1.1585 -0.6893  1.3635
 6848SOL    HW232004   3.792   3.968   8.090  0.4749  0.9983 -1.7572
 6849SOL     OW32005   1.727   0.742  11.236  0.3882  0.5756 -0.2746
 6849SOL    HW132006   1.751   0.660  11.193  0.5385  1.3241 -1.5955
 6849SOL    HW232007   1.767   0.806  11.177  2.2815 -0.5532 -0.2011
 6850SOL     OW32008   2.388   3.398   9.619  0.5225  0.1067  0.1423
 6850SOL    HW132009   2.450   3.405   9.546 -1.9334  0.1727 -1.9329
 6850SOL    HW232010   2.382   3.303   9.616 -0.5492  0.1313  1.3530
 6851SOL     OW32011   2.627   1.573   2.800  0.0820  0.2220 -0.0260
 6851SOL    HW132012   2.650   1.484   2.772 -3.1813 -0.0712 -1.8334
 6851SOL    HW232013   2.658   1.629   2.728  1.7324 -1.3709 -0.5344
 6852SOL     OW32014   0.449   0.386  12.222  0.2052  0.4976  0.1628
 6852SOL    HW132015   0.366   0.417  12.187  1.5633 -0.1231 -3.6181
 6852SOL    HW232016   0.412   0.313  12.271 -0.4616  1.7261  1.4628
 6853SOL     OW32017   3.106   0.937   4.257  0.2632  0.2014 -0.0829
 6853SOL    HW132018   3.020   0.959   4.292  0.0877  0.0681 -0.4230
 6853SOL    HW232019   3.116   0.843   4.267  1.4651  0.2974 -0.4545
 6854SOL     OW32020   2.849   1.870   4.599 -0.3528 -0.5564  0.2448
 6854SOL    HW132021   2.929   1.913   4.628 -0.9819  1.5998 -1.2781
 6854SOL    HW232022   2.830   1.895   4.509 -0.5133 -1.9733 -0.1258
 6855SOL     OW32023   2.551   4.033   0.065  0.0623 -0.1036  0.0199
 6855SOL    HW132024   2.617   4.038   0.134 -0.2894 -0.7091  0.4013
 6855SOL    HW232025   2.475   3.999   0.112  0.8109  0.8855  1.9335
 6856SOL     OW32026   3.674   4.304  14.047 -0.8137 -0.1454  0.2546
 6856SOL    HW132027   3.673   4.378  13.986 -0.6741  0.8144  1.4171
 6856SOL    HW232028   3.660   4.350  14.130 -0.7299 -0.3573  0.3862
 6857SOL     OW32029   0.041   0.789   0.480 -0.3146 -0.3265  0.1487
 6857SOL    HW132030   0.078   0.711   0.437 -1.2747 -1.6830  1.7599
 6857SOL    HW232031   4.714   0.740   0.546  1.8316 -1.1228  1.1719
 6858SOL     OW32032   2.117   0.638   7.692  0.9737  0.2269 -0.8480
 6858SOL    HW132033   2.105   0.665   7.783 -0.4285  0.2323 -1.0214
 6858SOL    HW232034   2.028   0.648   7.657  0.0194 -0.9769  1.2311
 6859SOL     OW32035   3.562   2.476  14.715 -0.1025  0.2669  0.7396
 6859SOL    HW132036   3.653   2.451  14.699  0.6018  2.0165  2.0089
 6859SOL    HW232037   3.556   2.571  14.704 -0.4621  0.2518  0.8081
 6860SOL     OW32038   0.815   4.061  16.235 -0.2342 -0.2536  0.1687
 6860SOL    HW132039   0.764   4.004  16.293 -1.7483  0.4982 -0.4368
 6860SOL    HW232040   0.897   4.013  16.239 -0.6266 -1.1425 -2.5124
 6861SOL     OW32041   1.838   1.979   7.852  0.7661 -0.2190 -0.3817
 6861SOL    HW132042   1.800   2.004   7.937 -0.4625  0.2157 -1.0610
 6861SOL    HW232043   1.760   1.971   7.797 -1.5528  1.9675  2.5781
 6862SOL     OW32044   2.256   2.413   3.061  0.3675 -0.0204  0.4344
 6862SOL    HW132045   2.260   2.412   2.965 -3.6670  0.3766  0.2493
 6862SOL    HW232046   2.187   2.478   3.078 -0.6868 -0.8851 -0.5119
 6863SOL     OW32047   0.288   2.897   7.117  0.0286 -0.2530  0.0056
 6863SOL    HW132048   0.282   2.880   7.023  1.3897 -0.0590 -0.1130
 6863SOL    HW232049   0.360   2.840   7.144  0.8395  1.5555  1.6066
 6864SOL     OW32050   2.381   3.292   8.196 -0.1832  0.5029  0.5892
 6864SOL    HW132051   2.326   3.370   8.201  0.7366  1.1128  1.3580
 6864SOL    HW232052   2.379   3.266   8.288  1.7623 -0.6313  0.3097
 6865SOL     OW32053   1.209   1.950   7.695 -0.8087 -0.0391 -0.5670
 6865SOL    HW132054   1.137   1.888   7.683 -2.5745  2.2540 -1.9204
 6865SOL    HW232055   1.163   2.033   7.683 -1.2162 -0.2446 -0.4210
 6866SOL     OW32056   1.123   1.613   3.017 -0.1675 -0.2449  0.1791
 6866SOL    HW132057   1.186   1.544   3.036  0.5547 -0.2029 -2.0267
 6866SOL    HW232058   1.135   1.620   2.922  0.0666  1.0484  0.2994
 6867SOL     OW32059   2.667   4.357   3.524  0.1532 -0.3059  0.3526
 6867SOL    HW132060   2.748   4.387   3.565  0.0259  1.9053 -1.0332
 6867SOL    HW232061   2.630   4.303   3.594 -0.3615  3.9176  3.3724
 6868SOL     OW32062   3.162   2.601   8.763 -0.1417 -0.4152 -0.3402
 6868SOL    HW132063   3.126   2.654   8.692 -0.2640 -0.2186 -0.1306
 6868SOL    HW232064   3.085   2.593   8.820 -0.2703 -1.0348 -0.5976
 6869SOL     OW32065   4.687   3.994   9.574  0.4874 -0.4084  0.4655
 6869SOL    HW132066   4.710   3.903   9.594  0.5269 -0.4375  0.2937
 6869SOL    HW232067   4.611   3.978   9.518  0.3187 -0.2717  0.6572
 6870SOL     OW32068   0.109   1.203   9.095 -0.3957  0.2049  0.0698
 6870SOL    HW132069   0.047   1.133   9.116  0.7286 -1.3288 -1.6921
 6870SOL    HW232070   0.091   1.206   9.001  3.8742  0.7678 -0.7405
 6871SOL     OW32071   0.111   0.360   2.084  0.9268 -0.4093 -0.0053
 6871SOL    HW132072   0.165   0.283   2.073  1.9339  0.8289 -3.5706
 6871SOL    HW232073   0.124   0.403   2.000 -1.6641 -1.4659 -0.9611
 6872SOL     OW32074   0.142   3.999   7.098 -0.4193 -0.3873 -0.1640
 6872SOL    HW132075   0.201   4.041   7.160 -0.4444  0.5360 -0.7597
 6872SOL    HW232076   0.155   3.906   7.113  3.2691  0.5148  2.2196
 6873SOL     OW32077   0.713   0.726   5.286  0.8363  0.8017  0.1079
 6873SOL    HW132078   0.710   0.706   5.192  1.0532 -1.5274  0.5993
 6873SOL    HW232079   0.703   0.820   5.296  0.6206  0.7178  0.6631
 6874SOL     OW32080   2.979   1.447   6.002  0.1721  0.0539 -0.2855
 6874SOL    HW132081   3.033   1.485   5.933  0.0423  0.8035  0.0261
 6874SOL    HW232082   2.949   1.366   5.960 -1.0089  0.9953 -1.2341
 6875SOL     OW32083   0.814   4.120   3.192  0.1713  0.7594  0.0349
 6875SOL    HW132084   0.826   4.065   3.115  0.7669 -0.1747  0.7988
 6875SOL    HW232085   0.908   4.129   3.210  0.8036 -0.4510 -2.5952
 6876SOL     OW32086   0.631   3.554   4.751 -0.3881 -0.2316 -0.1876
 6876SOL    HW132087   0.587   3.493   4.692 -0.8534  0.4085 -0.4959
 6876SOL    HW232088   0.611   3.531   4.842  0.4775  0.2194  0.1178
 6877SOL     OW32089   0.745   0.195   3.137  0.2821  0.3352 -0.5933
 6877SOL    HW132090   0.670   0.136   3.129  1.1089 -0.5558 -1.7223
 6877SOL    HW232091   0.776   0.176   3.225  1.7134 -2.8969 -1.7799
 6878SOL     OW32092   4.249   2.718   2.250 -0.0210  0.1837  0.4656
 6878SOL    HW132093   4.165   2.740   2.209  0.4725 -0.9900 -1.2173
 6878SOL    HW232094   4.281   2.801   2.284  1.4715 -1.1051  2.2464
 6879SOL     OW32095   3.924   0.845   0.839 -0.4555  0.1288 -0.1888
 6879SOL    HW132096   3.996   0.900   0.869  1.0480 -1.1354 -1.4974
 6879SOL    HW232097   3.881   0.809   0.917  3.4943  0.8190  2.2841
 6880SOL     OW32098   2.097   2.905  10.169  0.4786 -0.2832  0.3578
 6880SOL    HW132099   2.128   2.885  10.257  0.0120 -1.6444  0.2145
 6880SOL    HW232100   2.164   2.972  10.153 -0.0024 -0.5491 -2.7539
 6881SOL     OW32101   1.423   0.098  16.136  0.5126  0.3955  0.3837
 6881SOL    HW132102   1.512   0.077  16.165  1.1830  0.1042 -1.9015
 6881SOL    HW232103   1.382   0.104  16.222 -0.9145  1.4449 -0.3751
 6882SOL     OW32104   4.548   2.735  13.909 -0.3776 -0.2992  0.4438
 6882SOL    HW132105   4.459   2.702  13.894  0.6545 -1.7748 -2.3764
 6882SOL    HW232106   4.537   2.742  14.004 -0.4038  1.2059  0.3348
 6883SOL     OW32107   1.411   0.568   1.438 -0.0651 -0.6831 -0.9739
 6883SOL    HW132108   1.468   0.494   1.461 -1.6096 -1.0902  1.5963
 6883SOL    HW232109   1.405   0.618   1.519 -0.9172  1.3676 -2.3224
 6884SOL     OW32110   0.375   1.396   1.802  0.2475 -0.3147  0.1829
 6884SOL    HW132111   0.336   1.359   1.723 -0.6763  1.4702 -0.1790
 6884SOL    HW232112   0.448   1.335   1.811 -0.7034 -1.1100  2.6603
 6885SOL     OW32113   0.544   2.611   8.813  0.2561 -0.1184  0.7492
 6885SOL    HW132114   0.515   2.525   8.841  0.4666 -0.0047  1.3220
 6885SOL    HW232115   0.639   2.598   8.821  0.3265  0.6196  1.1826
 6886SOL     OW32116   0.390   3.888   3.558 -0.1679 -0.2166 -0.0115
 6886SOL    HW132117   0.349   3.821   3.503 -2.7468  0.5369  0.9660
 6886SOL    HW232118   0.481   3.880   3.530 -1.2900 -1.9008 -3.1045
 6887SOL     OW32119   3.612   1.157   7.061  0.0386  0.1048  0.3916
 6887SOL    HW132120   3.706   1.173   7.051  0.3277 -0.4349  2.2360
 6887SOL    HW232121   3.606   1.205   7.144  1.4411 -0.5372  0.8549
 6888SOL     OW32122   4.355   0.064   1.715  0.0735  0.1711  0.3485
 6888SOL    HW132123   4.294   0.134   1.689  0.6256  0.5391  0.0511
 6888SOL    HW232124   4.311   4.713   1.758 -0.1410 -0.4225 -0.8860
 6889SOL     OW32125   3.158   1.475  16.173  0.1411  0.7898 -0.1180
 6889SOL    HW132126   3.120   1.389  16.188 -0.1476  1.0889  0.8031
 6889SOL    HW232127   3.197   1.458  16.087  2.8775  1.8566  0.8902
 6890SOL     OW32128   3.247   2.560   2.359 -0.2869  0.1370 -0.3683
 6890SOL    HW132129   3.177   2.600   2.411  1.2218 -1.0606  2.6195
 6890SOL    HW232130   3.299   2.637   2.338 -0.4230 -0.0105 -1.2196
 6891SOL     OW32131   0.129   2.781   3.496  0.5926 -0.1268 -0.8362
 6891SOL    HW132132   0.076   2.707   3.466  2.1125 -1.1747 -0.8988
 6891SOL    HW232133   0.188   2.798   3.423  1.5898  2.9074  0.6582
 6892SOL     OW32134   1.424   2.328   1.278 -0.6147 -0.2488 -0.6082
 6892SOL    HW132135   1.354   2.384   1.246  1.2671  3.2570  1.4348
 6892SOL    HW232136   1.396   2.333   1.370 -0.0862  1.8415 -0.5555
 6893SOL     OW32137   3.790   1.146   7.948 -0.3350 -0.3258 -0.1016
 6893SOL    HW132138   3.806   1.188   7.863  0.6170 -0.4897  0.0003
 6893SOL    HW232139   3.698   1.124   7.931  0.0127 -0.1281 -2.2634
 6894SOL     OW32140   4.625   0.348   7.255 -0.4492  0.0373  0.7228
 6894SOL    HW132141   4.630   0.266   7.303  2.5190  0.1394  0.6151
 6894SOL    HW232142   4.614   0.414   7.323  2.8556  1.9407 -0.5870
 6895SOL     OW32143   2.269   3.453   6.789  0.1233  0.1024  0.1119
 6895SOL    HW132144   2.253   3.393   6.861  0.2121 -1.8831 -1.5195
 6895SOL    HW232145   2.357   3.483   6.810 -0.3547  0.9923  0.8687
 6896SOL     OW32146   2.418   0.241   6.296 -0.0601 -0.3099 -0.3510
 6896SOL    HW132147   2.441   0.290   6.375 -2.3178  1.3163 -0.7049
 6896SOL    HW232148   2.361   0.301   6.248 -0.9579  0.4229  1.6588
 6897SOL     OW32149   3.832   2.801   5.130 -0.1160  0.2130 -0.8456
 6897SOL    HW132150   3.796   2.888   5.111  0.4863  0.9151  1.2158
 6897SOL    HW232151   3.793   2.754   5.056 -1.3807  0.1677 -0.1455
 6898SOL     OW32152   4.213   3.723   3.002 -0.2007 -0.6196 -0.4311
 6898SOL    HW132153   4.283   3.770   3.046 -1.3828 -0.4219  1.2271
 6898SOL    HW232154   4.221   3.774   2.921  0.7648  2.2043  1.4650
 6899SOL     OW32155   2.659   0.925   6.030 -0.1392 -0.3895 -0.4130
 6899SOL    HW132156   2.581   0.920   6.085  1.1015 -1.4725  1.2547
 6899SOL    HW232157   2.696   0.838   6.047 -1.8740 -0.4204  3.1081
 6900SOL     OW32158   3.859   1.605   7.611  0.2596 -0.0270  0.3397
 6900SOL    HW132159   3.794   1.554   7.563  0.0091  0.4284  0.1868
 6900SOL    HW232160   3.894   1.536   7.667 -0.1452 -0.0994  0.5021
 6901SOL     OW32161   0.552   0.336   6.180 -0.3287  0.0673  0.0174
 6901SOL    HW132162   0.586   0.375   6.099 -0.1843  0.2005  0.1414
 6901SOL    HW232163   0.616   0.265   6.186 -2.3263 -1.6292  0.8916
 6902SOL     OW32164   2.579   3.583  14.605 -0.2190  0.5176 -0.1515
 6902SOL    HW132165   2.673   3.586  14.587 -0.3414 -0.6424 -0.9753
 6902SOL    HW232166   2.541   3.534  14.532  0.7274 -0.0322 -0.2814
 6903SOL     OW32167   3.451   2.801   7.926  0.1953 -0.5695  0.2545
 6903SOL    HW132168   3.506   2.880   7.924 -2.6024  1.4213  0.9338
 6903SOL    HW232169   3.514   2.731   7.941 -0.8754 -1.8403 -1.3253
 6904SOL     OW32170   3.795   4.459   4.907  0.0317 -0.0183 -0.2111
 6904SOL    HW132171   3.768   4.371   4.882 -0.1850 -0.4049  1.4286
 6904SOL    HW232172   3.710   4.504   4.915 -0.8101 -1.7182  0.4113
 6905SOL     OW32173   2.915   4.436   3.599 -0.5044 -0.1522  0.0665
 6905SOL    HW132174   2.900   4.433   3.693  0.5665 -1.0085  0.2209
 6905SOL    HW232175   2.946   4.526   3.592  0.2543 -0.3623  0.7854
 6906SOL     OW32176   4.317   2.277   5.598  0.1648  0.0475 -0.1781
 6906SOL    HW132177   4.375   2.254   5.671  1.1221  0.3141 -0.8499
 6906SOL    HW232178   4.374   2.253   5.525  0.0199 -0.1755 -0.2163
 6907SOL     OW32179   4.247   0.907   8.451 -0.0596 -0.3734 -0.2022
 6907SOL    HW132180   4.168   0.954   8.477  0.1705 -0.4646  0.6620
 6907SOL    HW232181   4.209   0.846   8.388 -2.7953 -0.0808  1.1629
 6908SOL     OW32182   0.271   2.793   7.505 -0.0028 -0.0981  0.7111
 6908SOL    HW132183   0.365   2.781   7.493  0.0029 -1.5616  2.2727
 6908SOL    HW232184   0.240   2.721   7.449  1.8717 -0.5247  0.2060
 6909SOL     OW32185   1.904   2.033   4.287 -0.1941 -0.6141 -0.0521
 6909SOL    HW132186   1.951   1.987   4.218  2.1627 -0.5030  1.4809
 6909SOL    HW232187   1.950   2.018   4.369  1.3725  1.0576 -0.6436
 6910SOL     OW32188   2.457   2.892   6.294 -0.2248  0.4019  0.7813
 6910SOL    HW132189   2.508   2.950   6.238 -2.1509  0.3933 -0.9847
 6910SOL    HW232190   2.531   2.837   6.321  0.1940  1.0607  0.9919
 6911SOL     OW32191   2.586   2.777   1.267 -0.5461  0.2428  0.4294
 6911SOL    HW132192   2.518   2.719   1.232  1.3285 -1.7910  0.1525
 6911SOL    HW232193   2.643   2.711   1.307  1.7022 -0.0055 -3.1942
 6912SOL     OW32194   1.931   3.139   6.964  0.0868 -0.1081  0.4839
 6912SOL    HW132195   1.985   3.068   6.930  0.4039  0.2368  0.2712
 6912SOL    HW232196   1.897   3.178   6.884 -1.0525  0.8863  1.4407
 6913SOL     OW32197   3.766   2.779   4.562  0.0163  0.3112  0.1513
 6913SOL    HW132198   3.703   2.851   4.568  1.2922  1.2868  1.7331
 6913SOL    HW232199   3.725   2.724   4.494  1.1552 -0.7751  0.3633
 6914SOL     OW32200   1.885   4.135   9.337 -0.5439  0.4085  0.5205
 6914SOL    HW132201   1.835   4.214   9.315 -1.1352  0.3423  1.6402
 6914SOL    HW232202   1.809   4.083   9.362 -1.2879  1.5055  0.5498
 6915SOL     OW32203   2.970   1.618  13.269 -0.1849  0.4788 -0.2778
 6915SOL    HW132204   3.040   1.590  13.328  0.8054 -0.1062 -1.7226
 6915SOL    HW232205   3.031   1.655  13.204  0.6708  3.0847  1.9812
 6916SOL     OW32206   3.802   0.821   4.933 -0.4930  0.5431 -0.1450
 6916SOL    HW132207   3.825   0.791   4.845  0.4008  0.3177  0.1626
 6916SOL    HW232208   3.887   0.859   4.955  0.2951 -0.1122 -2.1158
 6917SOL     OW32209   0.377   1.462  16.200  0.5785  0.2189  0.2434
 6917SOL    HW132210   0.450   1.523  16.185 -0.5111  0.9622 -2.0360
 6917SOL    HW232211   0.298   1.513  16.180 -1.6293 -3.0359  0.6781
 6918SOL     OW32212   2.479   3.434   3.698 -0.2265  0.4881  0.6014
 6918SOL    HW132213   2.413   3.408   3.763 -1.3375 -0.6990 -0.9985
 6918SOL    HW232214   2.443   3.403   3.615 -3.1754 -0.4489  2.2122
 6919SOL     OW32215   1.169   4.618   3.489  0.4162  0.1790 -0.6600
 6919SOL    HW132216   1.236   4.574   3.436  1.1628  1.5688 -0.8698
 6919SOL    HW232217   1.140   4.542   3.540  2.1080 -0.1555 -0.2047
 6920SOL     OW32218   0.427   3.928   2.454  0.0260 -0.2768 -0.3084
 6920SOL    HW132219   0.400   3.851   2.404  0.8972 -0.3794 -0.6151
 6920SOL    HW232220   0.511   3.898   2.489 -0.2410  0.9642  1.4129
 6921SOL     OW32221   1.253   1.703   1.782 -0.0117  0.3224  0.0231
 6921SOL    HW132222   1.345   1.726   1.789  0.2514 -1.1996  1.3994
 6921SOL    HW232223   1.255   1.631   1.845  1.4456  1.4166  1.2144
 6922SOL     OW32224   2.228   2.936  12.670  0.4422 -0.0374  0.1544
 6922SOL    HW132225   2.225   3.030  12.651 -0.3270  1.0697  5.9068
 6922SOL    HW232226   2.145   2.905  12.633 -0.7371  1.4198  1.5619
 6923SOL     OW32227   0.282   4.498  15.111 -0.4467  0.3231  0.0586
 6923SOL    HW132228   0.267   4.419  15.163  1.7964 -1.4493 -2.0171
 6923SOL    HW232229   0.260   4.562  15.179  0.5935 -0.1068  0.8059
 6924SOL     OW32230   1.333   3.212  11.249 -0.1323  0.0347  0.2126
 6924SOL    HW132231   1.317   3.118  11.244  0.7323 -0.1261  0.5551
 6924SOL    HW232232   1.271   3.241  11.182  0.8121 -0.7317 -0.9764
 6925SOL     OW32233   3.823   2.300   7.699  0.3861 -0.1421 -0.4673
 6925SOL    HW132234   3.893   2.356   7.730 -2.0630  1.3280  2.4293
 6925SOL    HW232235   3.871   2.234   7.649  1.2777  1.2648 -1.4474
 6926SOL     OW32236   2.997   4.640   7.876  0.6660  0.1137 -0.3058
 6926SOL    HW132237   2.957   4.657   7.961  1.7655 -1.3262  0.5075
 6926SOL    HW232238   3.034   0.002   7.852  0.1167  0.6796  0.8315
 6927SOL     OW32239   1.640   0.205   1.018 -0.3715  0.0690  0.1977
 6927SOL    HW132240   1.636   0.189   0.923 -2.3117  3.0101 -0.1947
 6927SOL    HW232241   1.652   0.299   1.025  0.2159  0.3082 -4.0928
 6928SOL     OW32242   4.507   4.621  14.399  0.4847  0.3399  0.1628
 6928SOL    HW132243   4.514   4.568  14.320  0.0838  1.5202 -0.6618
 6928SOL    HW232244   4.466   4.553  14.453 -0.9967 -0.3015 -1.7960
 6929SOL     OW32245   2.647   4.395   6.527 -0.8800 -0.0752 -0.0934
 6929SOL    HW132246   2.592   4.468   6.500  0.3007  0.2271 -1.6534
 6929SOL    HW232247   2.582   4.340   6.571 -1.2363 -0.4123 -1.0304
 6930SOL     OW32248   4.645   3.852   7.517  0.3996  0.2109 -0.1355
 6930SOL    HW132249   4.625   3.795   7.443  0.6663 -0.2154  0.1213
 6930SOL    HW232250   4.659   3.780   7.579  1.8249  1.6894  1.2470
 6931SOL     OW32251   3.816   2.103  14.015 -0.1687 -0.0017  0.4669
 6931SOL    HW132252   3.739   2.090  13.959 -0.6506 -0.5087  1.2446
 6931SOL    HW232253   3.808   2.197  14.031 -0.0323 -0.3109  2.2637
 6932SOL     OW32254   1.760   2.347   4.212  0.0130 -0.4365  0.0234
 6932SOL    HW132255   1.778   2.273   4.154 -0.8752 -0.0429 -0.7427
 6932SOL    HW232256   1.670   2.319   4.230 -0.3997  0.0474 -1.2910
 6933SOL     OW32257   1.579   2.498   2.641 -0.2038  0.7337 -0.4106
 6933SOL    HW132258   1.533   2.486   2.557 -0.1482 -2.2928 -0.0044
 6933SOL    HW232259   1.594   2.592   2.629  2.3815  0.4869  0.9308
 6934SOL     OW32260   0.039   0.904   8.440  0.2328 -0.0352 -0.0376
 6934SOL    HW132261   0.064   0.941   8.356  0.7761 -0.8917 -0.2432
 6934SOL    HW232262   4.684   0.954   8.468 -0.4047 -0.5353 -0.9276
 6935SOL     OW32263   0.678   1.658   6.704 -0.1707  0.3387 -0.3238
 6935SOL    HW132264   0.766   1.650   6.667  0.3107  1.4429  0.5834
 6935SOL    HW232265   0.680   1.747   6.738  1.0237 -1.3641  4.1305
 6936SOL     OW32266   3.504   3.444   0.291 -0.0027  0.5289  0.3559
 6936SOL    HW132267   3.442   3.479   0.354 -1.0002 -0.6091  0.0092
 6936SOL    HW232268   3.502   3.513   0.225 -1.5963  2.4929  2.4829
 6937SOL     OW32269   3.255   3.338   2.453  0.1965 -0.3384  0.7709
 6937SOL    HW132270   3.189   3.310   2.517 -1.6997 -0.8882 -1.4149
 6937SOL    HW232271   3.320   3.268   2.447  1.3894  0.7773  0.9083
 6938SOL     OW32272   4.611   2.237   0.937 -0.2519  0.1389 -0.4436
 6938SOL    HW132273   4.558   2.313   0.957 -1.1051 -1.1144  2.0211
 6938SOL    HW232274   4.642   2.258   0.849 -0.5526 -0.8998 -0.8031
 6939SOL     OW32275   1.602   2.769   8.878 -0.5023 -0.0055 -0.4275
 6939SOL    HW132276   1.645   2.717   8.946  0.4770  1.1027 -0.2007
 6939SOL    HW232277   1.620   2.854   8.918  2.0784 -0.8368  0.1600
 6940SOL     OW32278   2.181   2.402   8.546 -0.6036  0.3847 -0.0845
 6940SOL    HW132279   2.219   2.316   8.528  1.2574  1.1747  0.1572
 6940SOL    HW232280   2.140   2.430   8.464 -1.6475  1.4713  0.8099
 6941SOL     OW32281   2.626   0.836   1.168  0.2465  0.0165  0.5401
 6941SOL    HW132282   2.557   0.860   1.229 -0.3728  0.9059 -0.5185
 6941SOL    HW232283   2.705   0.877   1.204  1.1685 -1.4805  0.2778
 6942SOL     OW32284   1.069   1.356   7.610  0.2114 -0.2659 -0.7076
 6942SOL    HW132285   0.995   1.339   7.668  1.9960 -0.2168  1.5621
 6942SOL    HW232286   1.028   1.327   7.528  0.9282 -1.0074 -0.8080
 6943SOL     OW32287   3.720   2.672   1.909  0.2668  0.0371  0.0863
 6943SOL    HW132288   3.809   2.642   1.924  0.0208 -0.7360  0.0341
 6943SOL    HW232289   3.710   2.762   1.939  0.8965 -0.4066  1.5949
 6944SOL     OW32290   3.501   2.113   8.433 -0.4002 -0.0454 -0.3973
 6944SOL    HW132291   3.462   2.197   8.410 -1.0093 -0.0715  0.5562
 6944SOL    HW232292   3.582   2.128   8.482 -0.4817  2.4164 -1.0048
 6945SOL     OW32293   0.266   1.851   2.873 -0.4186 -0.8561  0.0783
 6945SOL    HW132294   0.201   1.861   2.943 -1.4817  2.0324 -1.3305
 6945SOL    HW232295   0.270   1.940   2.840 -2.3586  0.0339  2.2309
 6946SOL     OW32296   3.859   1.456   9.398 -0.0493 -0.6124 -0.7466
 6946SOL    HW132297   3.793   1.525   9.382  1.5368  1.0878  0.0583
 6946SOL    HW232298   3.895   1.433   9.313 -1.4573  3.0070 -2.3336
 6947SOL     OW32299   1.548   1.606  14.752 -0.3855  0.3012 -0.0887
 6947SOL    HW132300   1.564   1.521  14.794  0.2857  0.6711  0.4085
 6947SOL    HW232301   1.627   1.610  14.697 -0.8227 -2.3503 -0.9237
 6948SOL     OW32302   2.715   3.872   7.811 -0.2862 -0.2978 -0.0276
 6948SOL    HW132303   2.810   3.865   7.797 -0.5200  0.9237 -2.2647
 6948SOL    HW232304   2.712   3.901   7.902 -0.0813 -2.5482  0.7030
 6949SOL     OW32305   2.391   1.303  16.678 -0.3427 -0.2319  0.6245
 6949SOL    HW132306   2.465   1.354  16.711 -1.1143  1.5020 -0.3244
 6949SOL    HW232307   2.320   1.368  16.678 -0.0238  0.1293 -0.8996
 6950SOL     OW32308   3.142   0.176   1.790  0.1251  0.2161 -0.3123
 6950SOL    HW132309   3.115   0.169   1.699 -0.5487 -1.0050 -0.0199
 6950SOL    HW232310   3.086   0.250   1.813 -1.5380 -0.6470 -1.6034
 6951SOL     OW32311   0.379   1.404   9.638  0.5432  0.5895 -0.0343
 6951SOL    HW132312   0.409   1.481   9.686  2.4714  0.7443 -1.5029
 6951SOL    HW232313   0.334   1.364   9.713  2.5557 -0.1294  0.7750
 6952SOL     OW32314   1.358   1.892   5.690  0.3019  0.1810 -0.4042
 6952SOL    HW132315   1.370   1.801   5.661 -0.2128 -0.1624  0.4359
 6952SOL    HW232316   1.352   1.950   5.615 -0.3724 -1.8867 -1.9378
 6953SOL     OW32317   1.686   1.574   2.234  0.0005 -0.2705 -0.0652
 6953SOL    HW132318   1.683   1.662   2.270  0.9702 -0.3566  0.2205
 6953SOL    HW232319   1.604   1.565   2.185  0.9119 -1.4857 -1.3506
 6954SOL     OW32320   4.509   1.432   5.301 -0.1391  0.0941  0.7882
 6954SOL    HW132321   4.523   1.338   5.292 -3.5745 -0.3340 -0.0907
 6954SOL    HW232322   4.435   1.432   5.361 -1.0793  0.6786 -0.3752
 6955SOL     OW32323   1.895   4.149   9.756  0.1705  0.4656  0.1997
 6955SOL    HW132324   1.883   4.201   9.836  2.2585  2.1894 -0.6294
 6955SOL    HW232325   1.858   4.063   9.774  1.1305 -0.0706 -0.3896
 6956SOL     OW32326   4.663   3.542   9.099 -0.0520 -0.5411  0.2593
 6956SOL    HW132327   4.627   3.617   9.147  1.8781  0.6349 -0.1054
 6956SOL    HW232328   4.581   3.504   9.070 -1.1550  1.5173  0.6749
 6957SOL     OW32329   4.270   1.244   0.813  0.7666  0.2002 -0.3638
 6957SOL    HW132330   4.240   1.309   0.750 -0.4327 -0.0824 -0.0848
 6957SOL    HW232331   4.363   1.245   0.792  1.2807 -1.9069  1.6774
 6958SOL     OW32332   1.230   4.136   4.445  0.0681  0.7164  0.1274
 6958SOL    HW132333   1.224   4.164   4.536 -1.8510 -2.5811  0.9983
 6958SOL    HW232334   1.312   4.087   4.439 -1.2220 -1.3081 -0.6034
 6959SOL     OW32335   1.918   4.132   3.161  0.4062 -0.2437 -0.4558
 6959SOL    HW132336   1.882   4.122   3.073 -0.7799  3.3091 -0.3840
 6959SOL    HW232337   1.903   4.225   3.180 -0.4776 -0.6032  0.5833
 6960SOL     OW32338   0.670   1.920   9.741  0.8375 -0.4700  0.1436
 6960SOL    HW132339   0.712   1.925   9.827 -0.8705  0.5773  0.9259
 6960SOL    HW232340   0.652   2.013   9.724 -1.9427 -0.9278  0.4636
 6961SOL     OW32341   1.708   4.409   3.978 -0.1373 -0.1909  0.3766
 6961SOL    HW132342   1.770   4.469   3.937 -0.0358  0.5873  1.6720
 6961SOL    HW232343   1.768   4.335   3.987  0.4875  0.2619 -0.1148
 6962SOL     OW32344   0.400   4.407   4.075  0.0543  0.4209  0.8640
 6962SOL    HW132345   0.396   4.474   4.007 -1.2087 -0.0124  0.4987
 6962SOL    HW232346   0.445   4.335   4.030 -2.7654 -0.1291 -1.0857
 6963SOL     OW32347   1.008   2.317   3.851 -0.1334 -0.0623 -0.2941
 6963SOL    HW132348   0.945   2.365   3.798 -1.1080 -1.4740 -0.4020
 6963SOL    HW232349   1.052   2.273   3.778 -0.0989 -2.4892  1.2089
 6964SOL     OW32350   0.551   0.444   0.648 -0.0451  0.1407 -0.4279
 6964SOL    HW132351   0.490   0.504   0.689 -0.5366  0.3862 -1.5311
 6964SOL    HW232352   0.636   0.479   0.676 -1.0610  0.8472  1.7322
 6965SOL     OW32353   2.224   4.515  14.699  0.2407 -0.3052  0.0646
 6965SOL    HW132354   2.295   4.552  14.646  0.9652 -2.7350 -0.6640
 6965SOL    HW232355   2.151   4.571  14.676  0.2549  0.0457  0.8703
 6966SOL     OW32356   2.329   2.267   0.448 -0.1731  0.0421  0.8461
 6966SOL    HW132357   2.399   2.322   0.414 -0.3443 -1.6501 -2.1769
 6966SOL    HW232358   2.356   2.264   0.540  1.8367 -1.9119  0.1965
 6967SOL     OW32359   1.778   1.190   4.100  0.5812 -0.2857 -0.1321
 6967SOL    HW132360   1.808   1.166   4.188  0.7180 -1.4738 -0.5098
 6967SOL    HW232361   1.683   1.192   4.115  0.9402  4.9504  1.4513
 6968SOL     OW32362   3.927   2.238   1.917  0.4769  0.0028  0.0773
 6968SOL    HW132363   3.835   2.213   1.905  0.5014 -0.7650  1.5457
 6968SOL    HW232364   3.968   2.168   1.865 -1.3195 -1.2607  0.3514
 6969SOL     OW32365   1.253   3.609   5.857  0.0226  0.5110  0.3457
 6969SOL    HW132366   1.164   3.608   5.893  0.3463  1.0897  1.1700
 6969SOL    HW232367   1.234   3.684   5.800  0.5729  2.6878  3.0112
 6970SOL     OW32368   1.617   1.603   6.491  0.0400 -0.2115  0.2518
 6970SOL    HW132369   1.693   1.617   6.548 -1.2540  0.1855  1.8545
 6970SOL    HW232370   1.556   1.637   6.556  1.0558 -0.5188  1.3688
 6971SOL     OW32371   2.651   0.992   8.696 -0.2588 -0.3944  0.2877
 6971SOL    HW132372   2.672   1.030   8.611 -0.2168  1.6272  1.2221
 6971SOL    HW232373   2.731   0.943   8.714 -1.2175 -3.1176 -2.8216
 6972SOL     OW32374   0.874   0.153   2.751 -0.0872 -0.5799  0.2408
 6972SOL    HW132375   0.916   0.227   2.796  1.1967 -0.1535 -1.6804
 6972SOL    HW232376   0.837   0.206   2.680  0.7606 -2.0137 -1.2563
 6973SOL     OW32377   2.218   2.409   5.680 -0.0414  0.6583 -0.3306
 6973SOL    HW132378   2.272   2.444   5.751  1.8844  0.9328 -1.9321
 6973SOL    HW232379   2.173   2.486   5.645  0.8817  2.0110  1.4554
 6974SOL     OW32380   1.184   4.518   2.572  0.1207  0.2866 -0.1843
 6974SOL    HW132381   1.219   4.438   2.612  1.2108  0.2548 -1.2148
 6974SOL    HW232382   1.090   4.503   2.582  0.5958 -1.6839  1.4482
 6975SOL     OW32383   3.806   0.671  12.298 -0.3363  0.1247 -0.0809
 6975SOL    HW132384   3.794   0.692  12.206 -3.8578  2.0035  0.7936
 6975SOL    HW232385   3.786   0.753  12.344  2.1871  1.3980 -1.2529
 6976SOL     OW32386   4.313   4.590   9.392  0.2202 -0.1498  0.2325
 6976SOL    HW132387   4.404   4.601   9.362  0.5926 -1.4401  0.8918
 6976SOL    HW232388   4.313   4.604   9.486  0.7814  0.2892  0.1658
 6977SOL     OW32389   4.640   3.906  10.079  0.1243 -0.3271 -0.7291
 6977SOL    HW132390   4.582   3.979  10.061  0.6451  0.1890 -0.3300
 6977SOL    HW232391   0.002   3.951  10.083 -0.1102  0.2294 -2.0936
 6978SOL     OW32392   0.858   2.564   8.776 -0.2153 -0.1223 -0.1118
 6978SOL    HW132393   0.895   2.652   8.768 -0.0756 -0.2452 -0.8289
 6978SOL    HW232394   0.901   2.538   8.858  0.1197 -0.7429 -0.4855
 6979SOL     OW32395   4.174   4.057  10.103 -0.4168 -0.0229  0.1345
 6979SOL    HW132396   4.084   4.032  10.123 -0.5308 -0.2826 -0.7188
 6979SOL    HW232397   4.207   4.088  10.187  2.9847  0.6648 -1.4618
 6980SOL     OW32398   4.653   1.232   7.808 -0.2252 -0.4267  0.0585
 6980SOL    HW132399   4.578   1.206   7.861 -1.9874  2.0816 -1.1998
 6980SOL    HW232400   4.620   1.233   7.718  0.7829 -1.0605 -0.3156
 6981SOL     OW32401   2.978   0.451   5.911  0.2931 -0.0055 -0.4723
 6981SOL    HW132402   3.059   0.476   5.956  0.0974  0.0046 -0.1199
 6981SOL    HW232403   2.930   0.533   5.926 -1.4970 -0.9510 -0.9537
 6982SOL     OW32404   0.775   2.614   7.955 -0.3389  0.3747 -0.3188
 6982SOL    HW132405   0.836   2.664   8.009 -1.7765 -0.9413  2.4864
 6982SOL    HW232406   0.751   2.546   8.018 -1.3997  1.1659  0.1165
 6983SOL     OW32407   1.261   4.650   6.618 -0.6711 -0.0115  0.3820
 6983SOL    HW132408   1.259   4.557   6.641 -1.4168  0.4671  2.1912
 6983SOL    HW232409   1.343   4.676   6.660 -1.0161 -2.4793  2.5685
 6984SOL     OW32410   4.283   2.220  17.033 -0.5666 -0.3926  0.1822
 6984SOL    HW132411   4.325   2.304  17.017  1.3080 -1.4998 -0.6278
 6984SOL    HW232412   4.193   2.231  17.000  0.2291 -0.8662 -2.1846
 6985SOL     OW32413   1.898   1.331   7.554  0.2667 -0.2887 -0.0772
 6985SOL    HW132414   1.905   1.402   7.491 -1.2873 -1.6544 -1.7613
 6985SOL    HW232415   1.809   1.343   7.586  1.1978  0.0278  2.4078
 6986SOL     OW32416   4.327   3.180   0.836 -0.2104 -0.2009 -0.2076
 6986SOL    HW132417   4.286   3.238   0.772 -0.1712  1.0401  0.8875
 6986SOL    HW232418   4.417   3.207   0.817 -0.8194  0.3510 -2.2432
 6987SOL     OW32419   2.211   3.281  15.185 -0.4491 -0.6146  0.3499
 6987SOL    HW132420   2.229   3.248  15.097  1.6729 -0.5813  0.7718
 6987SOL    HW232421   2.257   3.365  15.183 -0.4145 -0.6143  1.4225
 6988SOL     OW32422   2.816   4.071  10.233 -0.2106 -0.0163 -0.0702
 6988SOL    HW132423   2.874   3.999  10.257 -0.4947  0.1938  1.2335
 6988SOL    HW232424   2.793   4.105  10.319  0.2698 -1.2087  0.5369
 6989SOL     OW32425   1.652   4.423  15.040 -0.6496 -0.1900 -0.0637
 6989SOL    HW132426   1.654   4.388  14.951 -0.5477 -1.6948  0.5278
 6989SOL    HW232427   1.605   4.351  15.082 -0.5697  0.4376  1.1048
 6990SOL     OW32428   0.651   1.381   3.498 -0.3052  0.4725  0.0709
 6990SOL    HW132429   0.729   1.327   3.494 -0.6824 -0.1545  1.0588
 6990SOL    HW232430   0.598   1.341   3.567 -0.3173 -2.1688 -1.4653
 6991SOL     OW32431   1.211   0.577   3.525 -0.9059 -0.3523 -0.7072
 6991SOL    HW132432   1.256   0.657   3.555 -1.0389 -0.4338 -0.2871
 6991SOL    HW232433   1.178   0.607   3.441 -0.9062 -1.5001 -1.1207
 6992SOL     OW32434   3.897   2.939   6.020  0.2366  0.3144 -0.2362
 6992SOL    HW132435   3.871   2.943   5.928 -1.4635  2.1658  0.3111
 6992SOL    HW232436   3.871   3.025   6.054  2.2569  0.7995  0.0416
 6993SOL     OW32437   3.585   0.598   7.989  0.2056 -0.8078  0.2620
 6993SOL    HW132438   3.622   0.685   8.003 -0.7630 -0.7221  2.2146
 6993SOL    HW232439   3.644   0.564   7.921  0.0177  0.1038 -0.3449
 6994SOL     OW32440   3.721   3.745   2.288 -0.2120 -0.5948 -0.0530
 6994SOL    HW132441   3.647   3.701   2.248 -2.1535  1.9531  0.7457
 6994SOL    HW232442   3.718   3.825   2.235 -0.6554 -0.5193  0.0852
 6995SOL     OW32443   0.655   1.846   7.038 -0.0125  0.6863 -0.1301
 6995SOL    HW132444   0.644   1.894   6.955 -0.1096  1.7466  0.4971
 6995SOL    HW232445   0.744   1.877   7.056  0.0399 -0.2768  1.2266
 6996SOL     OW32446   0.001   3.596   5.205  0.4183 -0.2939  0.4889
 6996SOL    HW132447   4.708   3.583   5.112  1.2325  0.6682  0.2259
 6996SOL    HW232448   4.721   3.507   5.242 -0.0698 -0.1221  0.8752
 6997SOL     OW32449   0.967   3.173   8.764  0.2132  0.5091 -0.3310
 6997SOL    HW132450   0.890   3.173   8.821  1.1124 -1.6392  0.8834
 6997SOL    HW232451   1.033   3.218   8.817  1.2562 -0.7180 -0.5767
 6998SOL     OW32452   1.430   4.208  14.137 -0.8619  0.2838  0.2303
 6998SOL    HW132453   1.453   4.272  14.204 -0.2456 -0.4533  0.7264
 6998SOL    HW232454   1.449   4.255  14.056  0.9062 -1.3817 -0.3433
 6999SOL     OW32455   3.923   0.281   6.078  0.0185  0.1825  0.3365
 6999SOL    HW132456   3.939   0.207   6.138 -3.1400 -0.6762  0.1413
 6999SOL    HW232457   3.921   0.359   6.132  1.7525  0.0688  0.5540
 7000SOL     OW32458   2.522   3.660   8.918 -0.9012  0.7446  0.1469
 7000SOL    HW132459   2.457   3.690   8.982 -0.1961  2.0812  0.2448
 7000SOL    HW232460   2.504   3.725   8.849 -3.1486 -0.7790 -0.6959
 7001SOL     OW32461   2.425   0.937   4.267  0.1021  0.0221 -0.2003
 7001SOL    HW132462   2.508   0.985   4.281 -0.7497  1.3939  0.1913
 7001SOL    HW232463   2.436   0.921   4.173  0.7444  0.0238 -0.1306
 7002SOL     OW32464   4.024   3.678   3.532  0.3829  0.0878 -0.3145
 7002SOL    HW132465   3.960   3.614   3.562  1.8990 -1.3295 -0.0949
 7002SOL    HW232466   4.009   3.750   3.593  0.0125 -1.5434  1.4885
 7003SOL     OW32467   2.773   1.861  13.202  0.4246  0.2799 -0.1547
 7003SOL    HW132468   2.846   1.923  13.206  0.9650 -0.2706 -1.5801
 7003SOL    HW232469   2.817   1.776  13.190 -0.1643 -0.0447  0.0016
 7004SOL     OW32470   2.056   2.094   0.454  0.2017 -0.0546 -0.0003
 7004SOL    HW132471   2.007   2.017   0.424 -0.9203  0.7685 -0.2842
 7004SOL    HW232472   2.021   2.118   0.540 -0.2683 -2.2120  0.4141
 7005SOL     OW32473   1.003   2.258   3.353  0.1900  0.0647  0.3893
 7005SOL    HW132474   0.974   2.209   3.276 -1.2806  1.1788  0.2279
 7005SOL    HW232475   0.922   2.306   3.370 -1.2887 -1.8131 -1.3222
 7006SOL     OW32476   2.142   0.028   0.163 -0.5055  0.3815  0.3486
 7006SOL    HW132477   2.063   0.038   0.217 -0.2289  1.3831  0.5744
 7006SOL    HW232478   2.189   0.105   0.195  0.4217  0.6737 -1.7548
 7007SOL     OW32479   1.000   1.387  11.556 -0.3526 -0.5694  0.1256
 7007SOL    HW132480   0.982   1.330  11.481  1.8136 -0.9163 -0.1368
 7007SOL    HW232481   1.084   1.356  11.589 -0.1996 -1.4095 -1.0728
 7008SOL     OW32482   2.429   3.230   8.493 -0.5402  0.1572 -0.3967
 7008SOL    HW132483   2.520   3.229   8.523 -1.9168 -3.3471  3.5834
 7008SOL    HW232484   2.408   3.137   8.493 -0.6032  0.1697 -5.2023
 7009SOL     OW32485   0.507   2.964   2.502  0.1575 -0.8748 -0.3808
 7009SOL    HW132486   0.558   3.005   2.571  0.2187  1.4162 -1.7836
 7009SOL    HW232487   0.544   3.012   2.427 -0.9728  1.2742  0.4593
 7010SOL     OW32488   0.416   1.954   9.595  0.2172 -0.2950 -0.1099
 7010SOL    HW132489   0.478   1.995   9.536  0.9839 -1.3135 -0.0177
 7010SOL    HW232490   0.351   2.023   9.607  0.2024  0.0455 -2.2463
 7011SOL     OW32491   0.148   2.381   8.955  0.3804 -0.3037 -0.0174
 7011SOL    HW132492   0.101   2.300   8.934  1.2854 -0.8483  0.0948
 7011SOL    HW232493   0.074   2.437   8.979  1.1981  0.1294  1.4464
 7012SOL     OW32494   0.624   1.504   6.464 -0.4862 -0.1647 -0.0812
 7012SOL    HW132495   0.632   1.527   6.556 -2.3322 -1.4686  0.4068
 7012SOL    HW232496   0.574   1.579   6.433  1.2992  1.1618  0.2118
 7013SOL     OW32497   1.785   1.244   8.443 -0.3324 -0.5056  0.1169
 7013SOL    HW132498   1.854   1.179   8.427  0.7196  1.0541 -1.6845
 7013SOL    HW232499   1.743   1.203   8.518 -3.1738 -3.0935 -2.9012
 7014SOL     OW32500   3.554   4.566   4.877 -0.3963  0.7085  0.0585
 7014SOL    HW132501   3.484   4.507   4.851  2.1707 -1.6267 -1.4974
 7014SOL    HW232502   3.518   4.611   4.954  0.1827  0.0858  0.6948
 7015SOL     OW32503   3.591   1.575  13.787 -0.0133  0.0886  0.0652
 7015SOL    HW132504   3.639   1.501  13.749 -1.3811 -0.7564  0.0166
 7015SOL    HW232505   3.659   1.640  13.765 -0.0678 -0.6850 -2.3060
 7016SOL     OW32506   0.503   4.220   3.894 -0.3575  0.0135  0.0964
 7016SOL    HW132507   0.448   4.209   3.816 -0.7111 -2.5038  0.7174
 7016SOL    HW232508   0.517   4.133   3.931 -0.9904 -0.1785 -0.1296
 7017SOL     OW32509   2.611   1.929   7.049 -0.1530 -0.3158  0.2226
 7017SOL    HW132510   2.663   2.009   7.044 -1.2487  0.4239  0.6533
 7017SOL    HW232511   2.542   1.965   6.994 -1.1129 -1.3628  0.7287
 7018SOL     OW32512   0.176   3.408   5.524  0.1025 -0.5626  0.1172
 7018SOL    HW132513   0.135   3.360   5.596 -1.4527 -0.8174 -0.9445
 7018SOL    HW232514   0.191   3.333   5.467 -1.8167 -0.1377 -0.9221
 7019SOL     OW32515   2.940   3.463   9.424  0.7001 -0.0118  0.0501
 7019SOL    HW132516   2.994   3.507   9.490  0.3695 -0.6987  0.7841
 7019SOL    HW232517   2.945   3.371   9.450  1.7118  0.5244  1.7158
 7020SOL     OW32518   1.554   0.373   6.707  0.5132 -0.7118 -0.3880
 7020SOL    HW132519   1.648   0.367   6.725  0.4750  1.4917  0.6490
 7020SOL    HW232520   1.543   0.467   6.724  0.6761 -1.1063  1.9256
 7021SOL     OW32521   0.024   4.240  10.095 -0.2316 -0.0268  0.7217
 7021SOL    HW132522   0.118   4.227  10.088 -0.6875 -2.1126 -1.3005
 7021SOL    HW232523   0.001   4.241  10.188 -2.2043 -1.3496  0.2631
 7022SOL     OW32524   2.958   2.694  16.005  0.6310 -0.5060  0.5812
 7022SOL    HW132525   2.992   2.750  16.075  0.3425  1.1511 -0.5960
 7022SOL    HW232526   2.874   2.732  15.978  0.6010 -2.2585 -1.7609
 7023SOL     OW32527   1.236   4.465   4.105  0.0896 -0.1707 -0.3099
 7023SOL    HW132528   1.319   4.512   4.094  0.1177 -0.1983 -0.2158
 7023SOL    HW232529   1.277   4.383   4.132  1.6062  0.3777 -0.9491
 7024SOL     OW32530   0.284   0.133   5.540  0.0375  0.1951  0.1926
 7024SOL    HW132531   0.285   0.041   5.515  2.8252  0.1098  0.7156
 7024SOL    HW232532   0.192   0.160   5.536  0.2204  0.8991  0.7832
 7025SOL     OW32533   4.078   2.940   5.010  0.2936  0.3818 -0.4556
 7025SOL    HW132534   4.017   2.919   5.080  1.6674 -1.8414  0.0731
 7025SOL    HW232535   4.013   2.964   4.945 -2.2071 -0.1516  1.8666
 7026SOL     OW32536   3.202   0.173   5.325 -0.0674  0.1410  0.4060
 7026SOL    HW132537   3.182   0.260   5.359 -1.0825  0.1637 -0.2472
 7026SOL    HW232538   3.157   0.174   5.241 -0.6932 -1.1250  0.7272
 7027SOL     OW32539   2.632   1.648   5.218  0.4006  0.1441  0.0879
 7027SOL    HW132540   2.653   1.622   5.308  5.0959 -0.8882 -1.3630
 7027SOL    HW232541   2.711   1.701   5.210  1.7019 -2.0794 -1.5947
 7028SOL     OW32542   0.477   0.506  14.585 -0.2806 -0.6100  0.0628
 7028SOL    HW132543   0.499   0.415  14.566  1.1021  0.0489 -1.5051
 7028SOL    HW232544   0.563   0.544  14.566  0.8180 -2.7594  0.7783
 7029SOL     OW32545   4.438   0.858   7.642 -0.3682  0.5079  0.5897
 7029SOL    HW132546   4.517   0.911   7.632  0.0494 -0.6750 -2.2031
 7029SOL    HW232547   4.372   0.913   7.685 -0.4380 -0.8700  2.2326
 7030SOL     OW32548   2.394   2.349   6.567 -0.1731  0.8143  0.5087
 7030SOL    HW132549   2.429   2.398   6.494 -0.0181  0.0767  0.0850
 7030SOL    HW232550   2.344   2.409   6.623 -2.3041  0.3890 -0.9321
 7031SOL     OW32551   0.721   0.507  15.293 -0.0561 -0.9023  0.6150
 7031SOL    HW132552   0.731   0.492  15.387  1.1563 -2.9353  0.1613
 7031SOL    HW232553   0.784   0.451  15.247  2.2455  2.5462 -0.4285
 7032SOL     OW32554   3.112   3.534   4.891  0.1657 -0.3060  0.4762
 7032SOL    HW132555   3.197   3.498   4.918  0.1783 -1.7782 -1.4725
 7032SOL    HW232556   3.060   3.481   4.952  1.0790 -0.1904  1.3587
 7033SOL     OW32557   3.353   0.658   1.819 -0.1844  0.1913 -0.1147
 7033SOL    HW132558   3.317   0.607   1.747  2.5356 -0.6729 -0.8773
 7033SOL    HW232559   3.296   0.735   1.824  2.4309  2.0850  0.3442
 7034SOL     OW32560   1.422   2.443   2.858  0.2646  0.0401  0.4023
 7034SOL    HW132561   1.487   2.429   2.928  0.2006  1.1973  0.6920
 7034SOL    HW232562   1.479   2.451   2.782  0.3232 -1.1164  0.3354
 7035SOL     OW32563   3.974   3.242   4.976 -0.2292 -0.6960  0.3792
 7035SOL    HW132564   3.904   3.190   4.935 -0.8643  1.4580 -1.2385
 7035SOL    HW232565   3.977   3.210   5.066  1.6553 -0.3558  0.4252
 7036SOL     OW32566   2.429   0.932   8.009 -0.2191  0.9016 -0.6626
 7036SOL    HW132567   2.336   0.950   8.026 -0.7686 -1.6117 -0.9531
 7036SOL    HW232568   2.467   0.948   8.095  1.8507  1.3952 -1.6742
 7037SOL     OW32569   0.304   0.295   3.024 -0.4236 -0.3296  0.3354
 7037SOL    HW132570   0.288   0.368   2.964  1.5802  1.0407  1.4754
 7037SOL    HW232571   0.244   0.319   3.094  0.0529 -0.0074  0.6302
 7038SOL     OW32572   4.695   4.259   3.433  0.2013  0.7002 -0.5768
 7038SOL    HW132573   4.621   4.202   3.412  0.0096 -0.4190  3.0060
 7038SOL    HW232574   0.041   4.220   3.380 -0.1234 -0.8913  0.1807
 7039SOL     OW32575   4.573   3.646   2.103 -0.3167  0.7447 -0.1800
 7039SOL    HW132576   4.510   3.607   2.163 -0.5149  1.1215 -0.1413
 7039SOL    HW232577   4.524   3.719   2.066 -0.0149  1.4488  0.7955
 7040SOL     OW32578   2.023   4.062   2.778  0.5836  0.2122  0.0102
 7040SOL    HW132579   1.978   4.029   2.701 -0.3137 -0.0086  0.6314
 7040SOL    HW232580   1.946   4.086   2.831  1.5622  0.3059  1.4032
 7041SOL     OW32581   3.558   1.599   6.351 -0.1624  0.1417 -0.4203
 7041SOL    HW132582   3.548   1.559   6.265 -1.0790  1.7652 -1.0536
 7041SOL    HW232583   3.584   1.687   6.327  0.7513 -0.2585 -0.8969
 7042SOL     OW32584   4.133   4.400   7.125  0.2184  0.0355 -0.4683
 7042SOL    HW132585   4.217   4.436   7.154  0.9697 -1.1509 -1.1977
 7042SOL    HW232586   4.081   4.462   7.177  0.5427  1.2785 -1.6158
 7043SOL     OW32587   2.531   0.050   8.341 -0.3642  0.6169  0.0372
 7043SOL    HW132588   2.524   0.062   8.436  1.3623  2.7537 -0.0981
 7043SOL    HW232589   2.440   0.032   8.319  0.4267 -0.9926 -1.8770
 7044SOL     OW32590   3.270   4.481   3.822 -0.2110  0.0664 -0.3618
 7044SOL    HW132591   3.322   4.447   3.750 -0.5847  0.7470 -0.9461
 7044SOL    HW232592   3.317   4.561   3.845  1.9071 -2.0448  2.8305
 7045SOL     OW32593   1.391   2.772   4.231 -0.3010  0.2613  0.0122
 7045SOL    HW132594   1.438   2.752   4.150 -1.1719 -1.4681 -0.0655
 7045SOL    HW232595   1.394   2.867   4.244  2.0279  0.1709  0.0875
 7046SOL     OW32596   1.816   1.981   7.406  0.3153  0.3316  0.7365
 7046SOL    HW132597   1.760   2.046   7.364 -0.8414 -1.3907 -0.3814
 7046SOL    HW232598   1.768   1.984   7.489  0.4566 -1.2988  0.8623
 7047SOL     OW32599   2.638   0.566   2.405  0.0031 -0.1288 -0.0264
 7047SOL    HW132600   2.568   0.502   2.392  0.1021  0.3139 -2.8773
 7047SOL    HW232601   2.590   0.645   2.379  0.1611  0.1362  0.4929
 7048SOL     OW32602   2.437   2.767   0.796  0.0909  0.1904  0.1842
 7048SOL    HW132603   2.516   2.785   0.847  1.0340  1.3079 -1.6715
 7048SOL    HW232604   2.371   2.752   0.863  0.0388  1.0284  0.3202
 7049SOL     OW32605   0.707   3.896   6.659 -0.4973  0.1295  0.2782
 7049SOL    HW132606   0.614   3.874   6.647 -0.1084 -1.0233 -0.6750
 7049SOL    HW232607   0.736   3.810   6.689  0.5590  0.0645 -0.9350
 7050SOL     OW32608   1.011   3.230  12.018  0.1519  0.2013 -0.0755
 7050SOL    HW132609   1.007   3.234  12.113  0.3211  0.4277 -0.0781
 7050SOL    HW232610   0.920   3.253  11.998 -0.3804 -2.5267 -0.8419
 7051SOL     OW32611   2.976   1.305   9.356 -0.8904 -0.0825  0.2612
 7051SOL    HW132612   2.882   1.313   9.375 -0.6578  0.2594  1.3029
 7051SOL    HW232613   3.011   1.305   9.446  0.1543  0.0252 -0.1499
 7052SOL     OW32614   4.470   4.392   3.166 -0.6131 -0.1094 -0.0072
 7052SOL    HW132615   4.475   4.305   3.126 -0.1333  0.5334 -1.3249
 7052SOL    HW232616   4.562   4.418   3.171 -0.4064 -0.4035 -2.5158
 7053SOL     OW32617   2.695   1.300   9.310  0.6180  0.7390  0.3482
 7053SOL    HW132618   2.613   1.349   9.322  0.3829  0.2312  0.8050
 7053SOL    HW232619   2.657   1.213   9.320 -1.6559  1.6188 -0.5282
 7054SOL     OW32620   0.920   2.472   1.376 -0.3861  0.0363 -0.4330
 7054SOL    HW132621   0.880   2.553   1.407 -2.5574 -1.4438  0.5570
 7054SOL    HW232622   0.863   2.403   1.408 -1.1523  0.9527  0.2043
 7055SOL     OW32623   2.383   1.854   9.050 -0.0246 -0.1819  0.1796
 7055SOL    HW132624   2.455   1.868   8.988  1.7690 -0.9262  2.1008
 7055SOL    HW232625   2.320   1.917   9.014 -0.0245  0.6930  1.7129
 7056SOL     OW32626   0.856   2.320   3.582  0.5455  0.2018 -0.4841
 7056SOL    HW132627   0.799   2.286   3.651  0.0753 -0.4695 -1.2042
 7056SOL    HW232628   0.843   2.414   3.586 -1.2316  0.0464 -2.6388
 7057SOL     OW32629   0.676   2.358  16.168  0.5320  0.3067  0.2156
 7057SOL    HW132630   0.677   2.357  16.263 -1.0028 -1.3306  0.2122
 7057SOL    HW232631   0.588   2.331  16.140  1.0012  0.7505 -1.6781
 7058SOL     OW32632   1.572   1.086   7.819 -0.5332 -0.4284 -0.2681
 7058SOL    HW132633   1.487   1.101   7.861 -0.5059 -0.6615 -0.1289
 7058SOL    HW232634   1.631   1.139   7.873 -1.7611  1.4748 -0.7743
 7059SOL     OW32635   1.408   1.204  11.686 -0.8995 -0.0196  0.2745
 7059SOL    HW132636   1.337   1.204  11.622  0.7466  1.3535 -1.5480
 7059SOL    HW232637   1.481   1.158  11.643 -0.4109  0.4291  0.6260
 7060SOL     OW32638   4.515   1.909  15.683 -0.0346  0.3282 -0.0215
 7060SOL    HW132639   4.566   1.885  15.606 -0.2843 -1.1801  0.2780
 7060SOL    HW232640   4.556   1.990  15.712  2.5351 -1.7635  2.1110
 7061SOL     OW32641   3.299   3.394   0.790 -0.2866 -0.2228  0.2718
 7061SOL    HW132642   3.268   3.455   0.857  1.2908  0.4603  0.3716
 7061SOL    HW232643   3.378   3.360   0.832 -0.0978 -1.3333 -0.9614
 7062SOL     OW32644   3.445   4.634   0.796  0.5591 -0.4666  0.3105
 7062SOL    HW132645   3.357   4.618   0.830  1.0904 -2.6441  0.6682
 7062SOL    HW232646   3.462   4.718   0.838 -0.3576  0.3341 -0.9320
 7063SOL     OW32647   0.969   1.096   9.332  0.1248 -0.4772  0.0743
 7063SOL    HW132648   0.886   1.089   9.285 -0.9080  2.7811  1.3557
 7063SOL    HW232649   1.029   1.079   9.259 -1.0315 -2.6308 -0.3534
 7064SOL     OW32650   1.115   2.892  12.227  0.1180 -0.4279 -0.0623
 7064SOL    HW132651   1.202   2.853  12.236 -0.3345 -1.0956  1.4888
 7064SOL    HW232652   1.144   2.982  12.237  0.3730 -0.7141  1.8859
 7065SOL     OW32653   2.175   1.464  12.311 -0.5260 -0.4192 -0.0228
 7065SOL    HW132654   2.176   1.371  12.330 -1.8069  0.0734  2.5681
 7065SOL    HW232655   2.267   1.481  12.293 -0.0666 -1.4801  1.3623
 7066SOL     OW32656   0.257   1.377  15.147 -0.4408  0.1340 -0.2050
 7066SOL    HW132657   0.321   1.377  15.075 -0.6251  1.4403 -0.3655
 7066SOL    HW232658   0.279   1.292  15.187 -0.6550  0.1591 -0.0339
 7067SOL     OW32659   1.551   4.026  11.593 -0.0396 -0.3977  0.2483
 7067SOL    HW132660   1.641   3.996  11.603  0.1118  0.8025  2.4363
 7067SOL    HW232661   1.535   4.089  11.663 -0.8202  0.3904 -0.6304
 7068SOL     OW32662   0.754   0.399   6.460  0.0908 -1.1494 -0.2024
 7068SOL    HW132663   0.695   0.464   6.500 -0.4979  0.6140 -3.8935
 7068SOL    HW232664   0.799   0.380   6.541 -0.7384  1.2898  0.8436
 7069SOL     OW32665   1.755   1.458   7.155  0.6188  0.2073  0.0527
 7069SOL    HW132666   1.809   1.395   7.108  3.0640  2.3163 -0.0007
 7069SOL    HW232667   1.830   1.486   7.208  1.6338  1.5937 -2.0859
 7070SOL     OW32668   3.624   2.764   2.788  0.2978  0.0141  0.3907
 7070SOL    HW132669   3.622   2.670   2.810  0.2628 -0.2059 -0.5431
 7070SOL    HW232670   3.553   2.779   2.725  0.1211 -1.0993  0.3093
 7071SOL     OW32671   3.301   3.438   7.638 -1.0092 -0.0877  0.2740
 7071SOL    HW132672   3.242   3.369   7.668 -2.3412 -0.5994 -3.5389
 7071SOL    HW232673   3.247   3.515   7.652 -0.9571  0.0082 -0.0671
 7072SOL     OW32674   2.416   0.392  14.305 -0.2403 -0.2137 -0.1641
 7072SOL    HW132675   2.460   0.310  14.280  0.6018  0.4460 -0.8470
 7072SOL    HW232676   2.333   0.355  14.333 -0.2641  1.1088  1.5163
 7073SOL     OW32677   2.218   1.189  12.277 -0.1942  0.4185 -0.0364
 7073SOL    HW132678   2.226   1.187  12.182  0.7008 -1.0306  0.0713
 7073SOL    HW232679   2.135   1.142  12.289  1.4291 -2.2261  0.9209
 7074SOL     OW32680   0.236   3.776   6.477  0.1730  0.4027  0.3487
 7074SOL    HW132681   0.143   3.785   6.455  0.5959  0.4287 -1.4411
 7074SOL    HW232682   0.284   3.834   6.418  0.5610 -0.4004 -0.1287
 7075SOL     OW32683   2.285   1.049   4.806 -0.0440 -0.1788  0.7217
 7075SOL    HW132684   2.282   1.016   4.896  0.5146 -0.5289  0.6038
 7075SOL    HW232685   2.287   0.973   4.747 -3.3734  0.8587 -0.7293
 7076SOL     OW32686   3.891   0.988   8.452  0.4300 -0.1456  0.3309
 7076SOL    HW132687   3.847   1.041   8.386 -0.8369  1.3511  2.3893
 7076SOL    HW232688   3.953   1.054   8.484 -0.0438 -0.2617  1.4599
 7077SOL     OW32689   2.245   3.783   7.802 -0.2406  0.1750 -0.0467
 7077SOL    HW132690   2.247   3.878   7.811  2.0328  0.2379 -1.0984
 7077SOL    HW232691   2.177   3.778   7.735 -0.2953 -1.4454  0.1210
 7078SOL     OW32692   3.799   4.501  11.562  0.2258  0.2892  0.2430
 7078SOL    HW132693   3.847   4.422  11.535 -1.2251 -0.6727  0.4775
 7078SOL    HW232694   3.722   4.506  11.506  0.1710 -0.0360  0.2871
 7079SOL     OW32695   1.366   0.967   6.402 -0.2561 -0.3694  0.2669
 7079SOL    HW132696   1.344   1.060   6.400  1.5015  0.0104 -2.2915
 7079SOL    HW232697   1.366   0.964   6.497 -2.8764  1.4472  0.3052
 7080SOL     OW32698   4.270   1.053   7.738 -0.5334  0.1159 -0.5261
 7080SOL    HW132699   4.273   1.113   7.664 -0.1460  0.7074 -0.0297
 7080SOL    HW232700   4.176   1.040   7.725 -0.4970 -0.8988  0.1353
 7081SOL     OW32701   3.572   0.862   2.763  0.3126  0.0312  0.4757
 7081SOL    HW132702   3.500   0.913   2.800 -1.6036 -1.2517 -1.4753
 7081SOL    HW232703   3.618   0.930   2.715 -0.2662 -1.7140 -2.5835
 7082SOL     OW32704   3.553   2.338   1.641  0.1954 -0.3025  0.0343
 7082SOL    HW132705   3.530   2.429   1.623 -2.3002 -1.8683 -4.8168
 7082SOL    HW232706   3.500   2.299   1.571 -0.5639 -0.9891  0.9912
 7083SOL     OW32707   1.607   1.720   2.847  0.1905  0.2541  0.5899
 7083SOL    HW132708   1.657   1.797   2.820  0.1341 -0.0521 -0.3907
 7083SOL    HW232709   1.588   1.743   2.938 -0.3043  0.3691  0.4586
 7084SOL     OW32710   1.558   4.158   6.114 -0.5518  0.2045  0.1662
 7084SOL    HW132711   1.571   4.203   6.030 -2.0930  0.6060  0.1564
 7084SOL    HW232712   1.503   4.221   6.160 -0.1276  1.9746 -1.7402
 7085SOL     OW32713   2.313   2.947   8.420 -0.5222  0.3365 -0.7310
 7085SOL    HW132714   2.278   2.920   8.505 -1.5884  1.3385 -0.8502
 7085SOL    HW232715   2.399   2.907   8.432 -1.2114 -1.5010 -2.0030
 7086SOL     OW32716   3.437   1.433   6.832  0.1874  0.0642  0.2221
 7086SOL    HW132717   3.522   1.443   6.790 -0.1281  2.3222  0.1330
 7086SOL    HW232718   3.382   1.463   6.760  0.2199 -1.4959 -0.4630
 7087SOL     OW32719   1.498   4.451   0.355 -0.1309 -0.3362  0.5664
 7087SOL    HW132720   1.515   4.448   0.449  2.0875 -1.5720  0.1237
 7087SOL    HW232721   1.493   4.355   0.354  1.2021 -0.4109  1.6035
 7088SOL     OW32722   4.264   4.593   5.399  0.0930 -0.2305 -0.1268
 7088SOL    HW132723   4.233   4.680   5.425  1.1268  0.6545 -1.8995
 7088SOL    HW232724   4.277   4.544   5.480  2.0446  0.7088  0.1090
 7089SOL     OW32725   2.748   2.308  12.021  0.1866 -0.3324  0.1053
 7089SOL    HW132726   2.705   2.227  11.993 -0.1532 -0.4700  1.0293
 7089SOL    HW232727   2.777   2.286  12.109 -0.7491 -0.2063  0.4487
 7090SOL     OW32728   1.202   4.550  16.710 -0.3169 -0.2109 -0.0608
 7090SOL    HW132729   1.229   4.459  16.704  0.0180  0.0227 -1.9361
 7090SOL    HW232730   1.159   4.557  16.795  0.0157 -1.1114  0.1739
 7091SOL     OW32731   1.237   2.168   4.000 -0.2964 -0.2071  0.5378
 7091SOL    HW132732   1.328   2.139   4.007  0.2044  1.2132 -0.0932
 7091SOL    HW232733   1.240   2.226   3.924  4.2357  1.1147  1.7141
 7092SOL     OW32734   2.629   4.383   8.615  0.3440 -0.1942 -0.1524
 7092SOL    HW132735   2.567   4.333   8.562  0.6668 -1.5325  0.7221
 7092SOL    HW232736   2.621   4.360   8.708  0.6110  3.1699  0.6902
 7093SOL     OW32737   4.397   4.545   8.158  0.3791 -0.3403 -0.2560
 7093SOL    HW132738   4.365   4.635   8.168 -0.0767 -0.3330 -1.7493
 7093SOL    HW232739   4.484   4.547   8.199 -1.1251  0.3193  2.8337
 7094SOL     OW32740   4.442   1.888   6.973 -0.5119 -0.2513  0.5337
 7094SOL    HW132741   4.520   1.943   6.971 -0.0060 -1.0148 -1.4317
 7094SOL    HW232742   4.486   1.812   7.010 -0.2372 -0.5253 -0.3507
 7095SOL     OW32743   0.475   3.636   0.393 -0.0259  0.2610  0.1448
 7095SOL    HW132744   0.454   3.655   0.484 -0.8985 -0.8529  0.1838
 7095SOL    HW232745   0.428   3.552   0.390  0.8003 -0.1423 -1.2921
 7096SOL     OW32746   2.981   0.090   5.576  0.3133 -0.3211 -0.0894
 7096SOL    HW132747   2.988   0.017   5.637  2.2232 -0.8211 -0.9001
 7096SOL    HW232748   3.019   0.159   5.630 -1.4425  1.0880 -0.6391
 7097SOL     OW32749   4.722   0.704   2.202  0.4768  0.1638  0.9235
 7097SOL    HW132750   0.011   0.636   2.135 -1.1808  0.1851  0.6102
 7097SOL    HW232751   4.704   0.649   2.278 -0.9444  1.3168  1.4218
 7098SOL     OW32752   1.815   3.200  13.586  0.3741 -0.1519 -0.4080
 7098SOL    HW132753   1.841   3.292  13.587 -0.6487  0.1304 -0.5520
 7098SOL    HW232754   1.722   3.204  13.565  0.0128 -0.0951  1.2491
 7099SOL     OW32755   0.820   2.899   7.359 -0.2301  0.4377 -0.0687
 7099SOL    HW132756   0.863   2.862   7.436  0.3902 -0.7615 -0.9966
 7099SOL    HW232757   0.895   2.908   7.300 -0.9767 -2.1175 -1.4054
 7100SOL     OW32758   2.148   2.580  11.000  0.1203  0.4836 -0.0182
 7100SOL    HW132759   2.100   2.573  11.083  1.3863 -0.0379  0.6607
 7100SOL    HW232760   2.210   2.509  11.013  0.2737  0.9869  2.0754
 7101SOL     OW32761   1.130   3.278   8.955 -0.2164 -0.0092  0.2008
 7101SOL    HW132762   1.059   3.310   9.011  1.8095  3.1941  0.9315
 7101SOL    HW232763   1.209   3.282   9.010  0.3006 -0.6995 -0.4867
 7102SOL     OW32764   2.233   2.277   2.679  0.2052  0.0508 -0.5297
 7102SOL    HW132765   2.227   2.364   2.718  1.8083  0.0923 -0.3883
 7102SOL    HW232766   2.162   2.287   2.616  0.8024 -0.7240 -1.3221
 7103SOL     OW32767   2.445   3.709   9.712 -0.0780 -0.4632  0.5145
 7103SOL    HW132768   2.422   3.762   9.788 -0.4424 -0.7801  0.6206
 7103SOL    HW232769   2.408   3.628   9.746  0.2949 -0.7564  0.2242
 7104SOL     OW32770   0.634   4.315   9.105 -0.0326  0.0140 -0.1830
 7104SOL    HW132771   0.659   4.244   9.045  0.2537 -0.6888  0.7759
 7104SOL    HW232772   0.619   4.383   9.039  2.4895  0.7111 -0.0295
 7105SOL     OW32773   0.095   1.341   3.895  0.0524 -0.2679  0.2504
 7105SOL    HW132774   0.161   1.410   3.899  0.1719 -0.4036  0.7231
 7105SOL    HW232775   0.141   1.271   3.849 -0.0969  0.8160 -1.5481
 7106SOL     OW32776   1.279   2.721   8.130 -0.0413 -0.2587  0.4093
 7106SOL    HW132777   1.310   2.676   8.209  0.7230 -2.9202 -1.3836
 7106SOL    HW232778   1.353   2.781   8.120  0.5876 -1.0759  0.1408
 7107SOL     OW32779   3.674   3.248   0.240 -0.5167  0.0969 -0.2080
 7107SOL    HW132780   3.674   3.236   0.335  1.6685  1.0192 -0.0754
 7107SOL    HW232781   3.622   3.326   0.220 -0.8974  0.3203  1.6571
 7108SOL     OW32782   2.063   0.863   6.437  0.3213  0.4363  0.3791
 7108SOL    HW132783   2.113   0.862   6.355  0.6327 -2.3755  0.6038
 7108SOL    HW232784   2.134   0.875   6.500  1.1034 -2.5475  0.1032
 7109SOL     OW32785   3.368   4.644   3.594  0.1930 -0.9427 -0.1256
 7109SOL    HW132786   3.445   4.678   3.638  0.4273 -1.5331 -0.0821
 7109SOL    HW232787   3.366   4.688   3.509 -1.7195 -1.0802 -0.1587
 7110SOL     OW32788   3.588   1.367  17.069 -0.1675 -0.0480 -0.2002
 7110SOL    HW132789   3.669   1.318  17.083  0.8980  2.2604  1.6733
 7110SOL    HW232790   3.527   1.293  17.061  1.1921 -1.4174  2.0261
 7111SOL     OW32791   1.338   3.807   7.415  0.8953  0.4037  0.4650
 7111SOL    HW132792   1.391   3.794   7.337 -0.7265  1.5782 -0.8176
 7111SOL    HW232793   1.283   3.886   7.409  0.0780  0.0287  2.7485
 7112SOL     OW32794   2.777   3.283   6.320  0.1292  0.2627  0.4512
 7112SOL    HW132795   2.690   3.274   6.359  0.6888 -1.2425  1.3252
 7112SOL    HW232796   2.826   3.230   6.382  0.7561 -0.5775 -0.7776
 7113SOL     OW32797   0.748   2.094   7.738  0.1578 -0.2793 -0.0327
 7113SOL    HW132798   0.715   2.005   7.724  0.0843 -0.1825 -0.4685
 7113SOL    HW232799   0.675   2.146   7.770  0.9150  1.8097 -1.7009
 7114SOL     OW32800   3.565   0.137   6.370 -0.2565 -0.0186 -0.3728
 7114SOL    HW132801   3.634   0.158   6.432 -0.9426  4.8844 -1.3141
 7114SOL    HW232802   3.532   0.054   6.405 -0.9216  0.3162 -0.1974
 7115SOL     OW32803   2.870   3.281   4.253  0.3079 -0.9861 -0.0011
 7115SOL    HW132804   2.860   3.189   4.277 -3.1684 -0.6702 -0.2714
 7115SOL    HW232805   2.806   3.276   4.182  0.6158 -2.4513 -0.1646
 7116SOL     OW32806   3.765   2.884   2.202  0.0183  0.6134  0.1059
 7116SOL    HW132807   3.719   2.850   2.279 -0.4174  1.6236  0.2855
 7116SOL    HW232808   3.693   2.928   2.156 -0.5212 -2.2261 -1.8030
 7117SOL     OW32809   0.653   1.124   0.834 -0.1977 -0.0272 -0.4001
 7117SOL    HW132810   0.748   1.135   0.826 -0.0492 -1.7673 -0.9337
 7117SOL    HW232811   0.629   1.189   0.768  0.5876 -1.2459 -1.8880
 7118SOL     OW32812   0.608   2.427   1.291 -0.0445  0.2924 -0.3213
 7118SOL    HW132813   0.630   2.488   1.362  0.7072 -1.9039  1.3201
 7118SOL    HW232814   0.540   2.371   1.327  0.0225 -0.1430 -0.8789
 7119SOL     OW32815   1.452   2.204  16.796  0.0349 -0.2803  0.1293
 7119SOL    HW132816   1.461   2.173  16.886 -0.4970 -1.0749 -0.0913
 7119SOL    HW232817   1.358   2.203  16.777 -0.2016 -0.8017  1.3522
 7120SOL     OW32818   3.623   4.054  16.787  0.2270  0.1269  0.0236
 7120SOL    HW132819   3.718   4.048  16.776  0.0816 -2.1553 -0.1102
 7120SOL    HW232820   3.613   4.077  16.695 -2.0293 -2.4797 -0.3939
 7121SOL     OW32821   0.622   1.503   5.962 -0.0661  0.1151  0.3864
 7121SOL    HW132822   0.640   1.551   6.042  1.2720  1.2520 -0.5887
 7121SOL    HW232823   0.699   1.445   5.969 -0.1419 -0.0469 -0.0970
 7122SOL     OW32824   1.386   1.957   4.461 -0.0382 -0.0735  0.1607
 7122SOL    HW132825   1.459   1.976   4.402 -0.0884  1.6819  0.6735
 7122SOL    HW232826   1.370   1.865   4.439 -1.0176  0.1018  0.1142
 7123SOL     OW32827   3.803   0.248   0.495  0.2364 -0.2593 -0.2068
 7123SOL    HW132828   3.761   0.203   0.422  1.1907 -0.3180 -0.7234
 7123SOL    HW232829   3.896   0.246   0.472  0.6746  0.2873  1.5303
 7124SOL     OW32830   3.401   3.217  10.956  0.4939 -0.0837 -0.3013
 7124SOL    HW132831   3.429   3.133  10.993 -1.7345 -0.1081  1.3779
 7124SOL    HW232832   3.342   3.250  11.024  0.0173 -2.7804  0.5875
 7125SOL     OW32833   2.205   3.193  13.774  0.0322  0.3926 -0.3792
 7125SOL    HW132834   2.177   3.169  13.863 -2.4060  1.8494 -0.7400
 7125SOL    HW232835   2.207   3.102  13.745 -0.4925  0.0529  0.6365
 7126SOL     OW32836   1.492   1.724   9.448  0.0830 -0.5205  0.3567
 7126SOL    HW132837   1.439   1.794   9.486 -1.4317 -0.7458 -1.3141
 7126SOL    HW232838   1.445   1.702   9.367 -2.1341 -0.0511  1.5110
 7127SOL     OW32839   0.174   3.340  10.390  0.4104  0.9008 -0.6499
 7127SOL    HW132840   0.177   3.435  10.398 -1.5638  0.9665 -0.6099
 7127SOL    HW232841   0.079   3.328  10.387  0.7253 -1.6879  0.0321
 7128SOL     OW32842   4.164   0.393   0.444 -0.3899  0.5724  0.3516
 7128SOL    HW132843   4.207   0.418   0.525  2.9222 -2.1752 -0.5284
 7128SOL    HW232844   4.241   0.352   0.405 -0.7322 -1.7355  2.1178
 7129SOL     OW32845   0.482   4.709   6.039  0.2588 -0.1478 -0.5155
 7129SOL    HW132846   0.524   0.062   6.081 -0.7822  0.4029 -0.4492
 7129SOL    HW232847   0.452   0.030   5.959  2.1379  1.5173 -0.2965
 7130SOL     OW32848   3.716   1.038   2.585 -0.5724  0.4128 -0.3724
 7130SOL    HW132849   3.794   0.987   2.562 -1.0734 -1.1704  1.4113
 7130SOL    HW232850   3.753   1.126   2.585  0.0003  0.1734 -0.3450
 7131SOL     OW32851   1.373   2.430   2.426  0.2965 -0.1385 -0.2496
 7131SOL    HW132852   1.326   2.458   2.504  1.7239  0.7316  0.3173
 7131SOL    HW232853   1.303   2.410   2.365  1.2399 -0.4605 -1.2241
 7132SOL     OW32854   1.931   4.243   1.537  0.6839 -0.3981  0.4298
 7132SOL    HW132855   1.946   4.269   1.446 -1.6818  1.1905  0.4945
 7132SOL    HW232856   1.981   4.300   1.595  0.8973 -1.3470  1.1832
 7133SOL     OW32857   1.281   3.255   5.909  0.0758 -0.1540  0.0745
 7133SOL    HW132858   1.328   3.321   5.961 -0.8887  0.6282 -0.0394
 7133SOL    HW232859   1.333   3.267   5.830 -1.7466 -1.3393 -1.2937
 7134SOL     OW32860   3.536   3.824  16.889  0.3362 -0.1760  0.1761
 7134SOL    HW132861   3.494   3.806  16.804 -0.9889 -3.1587  1.4755
 7134SOL    HW232862   3.576   3.906  16.861  0.3567 -0.2278  0.0538
 7135SOL     OW32863   4.454   0.426   3.859 -0.0246  0.1370 -0.2596
 7135SOL    HW132864   4.430   0.518   3.873  0.9933  0.3530  0.0686
 7135SOL    HW232865   4.549   0.425   3.842  0.0620  1.3954  0.1600
 7136SOL     OW32866   3.417   3.619   2.602  0.3245 -0.1106 -0.1933
 7136SOL    HW132867   3.334   3.657   2.632 -0.0874 -1.0503 -0.1384
 7136SOL    HW232868   3.485   3.680   2.631  0.6795 -0.9106  0.6657
 7137SOL     OW32869   3.034   1.149   2.575  0.7408 -0.3057  0.6590
 7137SOL    HW132870   2.986   1.087   2.629  0.1614 -0.8362 -0.4499
 7137SOL    HW232871   3.044   1.224   2.633 -0.0117  0.6395 -0.4247
 7138SOL     OW32872   2.157   2.700  12.122 -0.3999  0.0251  0.0821
 7138SOL    HW132873   2.142   2.773  12.062  0.4401  1.6106  1.8203
 7138SOL    HW232874   2.159   2.620  12.068  0.8113  0.1281 -0.0356
 7139SOL     OW32875   2.533   3.606   8.388  0.5386  0.1527 -0.1848
 7139SOL    HW132876   2.523   3.562   8.303  0.5798 -0.1266 -0.0450
 7139SOL    HW232877   2.540   3.535   8.452  0.4251  0.3883  0.0887
 7140SOL     OW32878   3.461   0.463   8.203 -0.2778 -0.4516 -0.5125
 7140SOL    HW132879   3.455   0.400   8.131  2.5801  0.2682 -1.3428
 7140SOL    HW232880   3.526   0.525   8.172 -0.2178 -0.8980 -1.2769
 7141SOL     OW32881   4.143   0.897   6.180  0.6294  0.1172  0.5651
 7141SOL    HW132882   4.052   0.881   6.155  1.0112 -2.6531  0.9509
 7141SOL    HW232883   4.146   0.993   6.177  0.1395  0.1393  0.7694
 7142SOL     OW32884   2.943   1.616  10.312  0.1448  0.4136 -0.5087
 7142SOL    HW132885   2.982   1.558  10.377 -1.6467  0.1884  0.3612
 7142SOL    HW232886   2.983   1.589  10.229  2.0237 -1.4299  0.9859
 7143SOL     OW32887   0.980   1.310   4.515  0.3628  1.0933 -0.4819
 7143SOL    HW132888   0.979   1.375   4.445  0.2368  0.2094 -1.3208
 7143SOL    HW232889   0.885   1.304   4.524  0.2608  0.1295 -2.1320
 7144SOL     OW32890   0.485   0.478   1.396  0.1073  0.6224  0.3058
 7144SOL    HW132891   0.539   0.537   1.345 -1.6044 -0.2591 -2.5007
 7144SOL    HW232892   0.420   0.439   1.338 -0.1027  0.5198  0.6062
 7145SOL     OW32893   3.653   0.813   4.063 -0.1902 -0.0872  0.7096
 7145SOL    HW132894   3.665   0.725   4.027  1.6688  1.0096 -1.3483
 7145SOL    HW232895   3.570   0.837   4.023 -0.4476 -1.4680  0.4177
 7146SOL     OW32896   0.214   0.006  15.334 -1.3105  0.2186 -0.6134
 7146SOL    HW132897   0.242   0.075  15.394 -0.7020 -0.8799  0.3749
 7146SOL    HW232898   0.219   0.048  15.248  1.0753  2.0759  0.4496
 7147SOL     OW32899   0.947   0.497   3.847  0.2480 -0.6906  0.0255
 7147SOL    HW132900   1.006   0.429   3.813  1.1175 -0.7936  1.7504
 7147SOL    HW232901   0.913   0.529   3.763  1.3692  1.8342  0.5458
 7148SOL     OW32902   0.375   0.495   1.655  0.0692  0.0435  0.1362
 7148SOL    HW132903   0.403   0.587   1.654  1.2900 -0.3313  0.2954
 7148SOL    HW232904   0.405   0.451   1.576 -2.6772  0.9257 -1.4254
 7149SOL     OW32905   3.938   2.964   4.386  0.4651 -0.0194 -0.0657
 7149SOL    HW132906   4.000   2.999   4.450  0.5137 -0.0431 -0.1004
 7149SOL    HW232907   3.939   2.870   4.407 -2.4676 -0.2120 -0.7895
 7150SOL     OW32908   4.527   0.321   1.456 -0.4287  0.3902 -0.0062
 7150SOL    HW132909   4.529   0.226   1.467 -2.5745  0.2027 -1.2295
 7150SOL    HW232910   4.436   0.335   1.430 -0.5112 -1.4973 -0.7035
 7151SOL     OW32911   2.167   1.313   9.042 -0.1653  0.1345 -0.0219
 7151SOL    HW132912   2.130   1.396   9.071 -0.5573 -1.0446  2.7647
 7151SOL    HW232913   2.221   1.344   8.968 -0.2160 -0.5395 -0.3419
 7152SOL     OW32914   4.398   3.160   1.083 -0.1751 -0.4052 -0.1966
 7152SOL    HW132915   4.373   3.251   1.099  0.4275 -0.0439 -1.3255
 7152SOL    HW232916   4.385   3.159   0.988 -0.2527  1.5657 -0.2096
 7153SOL     OW32917   0.600   3.888  14.919 -0.4710 -0.1639 -0.1759
 7153SOL    HW132918   0.528   3.847  14.968 -0.1876  0.2232  0.5719
 7153SOL    HW232919   0.577   3.857  14.832 -1.6298 -2.2303  0.8533
 7154SOL     OW32920   4.559   3.635   0.623  0.3192 -0.0066 -0.1019
 7154SOL    HW132921   4.511   3.607   0.544 -1.1223  0.0525  0.7513
 7154SOL    HW232922   4.491   3.615   0.687  1.2319 -1.2335  0.4766
 7155SOL     OW32923   0.012   3.776   9.750  0.0152  0.3340 -0.0851
 7155SOL    HW132924   4.661   3.715   9.755  1.1928 -1.1430 -0.6533
 7155SOL    HW232925   0.082   3.714   9.731  0.9748  0.9181  1.4928
 7156SOL     OW32926   2.048   1.277   0.369  0.5236  0.3010  0.2854
 7156SOL    HW132927   2.138   1.276   0.401  0.6944 -0.2510 -0.2162
 7156SOL    HW232928   2.012   1.355   0.412 -2.0747  0.2252 -1.7675
 7157SOL     OW32929   2.847   3.157  14.525 -0.0264  0.3523  0.1844
 7157SOL    HW132930   2.843   3.118  14.438  0.7540 -0.6170  0.5760
 7157SOL    HW232931   2.870   3.247  14.506 -1.9042  1.0078  0.9305
 7158SOL     OW32932   0.971   3.890   0.891  0.6163  0.4210  0.2559
 7158SOL    HW132933   1.012   3.976   0.897  0.0840  0.7380 -0.6925
 7158SOL    HW232934   1.029   3.843   0.952  0.3177  0.5933  0.6702
 7159SOL     OW32935   1.480   0.207  15.324  0.2046  0.2215  0.4123
 7159SOL    HW132936   1.445   0.281  15.273  1.7993 -0.0816 -1.1079
 7159SOL    HW232937   1.571   0.222  15.301  0.3442 -0.2830  0.6563
 7160SOL     OW32938   1.418   0.812   5.800  0.3045 -1.0764 -0.0989
 7160SOL    HW132939   1.472   0.790   5.875  1.2175  1.5969  0.0271
 7160SOL    HW232940   1.452   0.742   5.744 -0.6403 -1.2329 -0.4865
 7161SOL     OW32941   3.212   3.472   5.784 -0.0302 -0.2341 -0.6012
 7161SOL    HW132942   3.239   3.383   5.805  1.2224  0.2667 -0.1225
 7161SOL    HW232943   3.244   3.479   5.694 -0.5265  2.3551 -0.5742
 7162SOL     OW32944   1.139   3.700  13.551  0.2124  0.3085  0.0878
 7162SOL    HW132945   1.063   3.665  13.598  0.4829  0.1458  0.4088
 7162SOL    HW232946   1.191   3.706  13.631 -1.4331  0.0392  1.1761
 7163SOL     OW32947   2.136   4.212  11.965  0.4466  0.4306  0.5851
 7163SOL    HW132948   2.065   4.199  12.028  0.7557  1.8098  1.2160
 7163SOL    HW232949   2.214   4.216  12.021  0.2223 -3.2939  1.1467
 7164SOL     OW32950   0.121   2.232   2.483  0.1631 -0.1896  0.4083
 7164SOL    HW132951   0.049   2.230   2.547 -0.2563 -0.6431 -0.0807
 7164SOL    HW232952   0.171   2.302   2.524  0.6961 -0.1847 -0.2561
 7165SOL     OW32953   2.404   0.311   2.068  0.7619  0.5017 -0.4999
 7165SOL    HW132954   2.411   0.218   2.050 -1.3644 -0.3120  2.8406
 7165SOL    HW232955   2.359   0.342   1.989 -1.1032  1.2165  0.8450
 7166SOL     OW32956   0.058   3.244   6.857  0.1391 -0.1066  0.0907
 7166SOL    HW132957   0.051   3.267   6.765  1.7155  2.6968  0.6812
 7166SOL    HW232958   0.148   3.212   6.850  0.5552  1.0676  0.2262
 7167SOL     OW32959   3.895   2.280   9.031  0.0439 -0.1066 -0.8558
 7167SOL    HW132960   3.807   2.271   8.994  0.0655 -1.0966 -0.6739
 7167SOL    HW232961   3.877   2.225   9.107  0.4959 -1.4603 -1.7290
 7168SOL     OW32962   2.294   3.204   9.262  0.1300  0.2326  0.1729
 7168SOL    HW132963   2.350   3.206   9.185 -3.2202  0.6692 -2.2409
 7168SOL    HW232964   2.259   3.293   9.270  0.7223  0.6498 -1.8720
 7169SOL     OW32965   0.796   4.139  10.402 -0.6700 -0.0512 -0.4931
 7169SOL    HW132966   0.728   4.112  10.341  1.1934 -0.8968 -2.1837
 7169SOL    HW232967   0.755   4.167  10.484  0.1562  1.5046 -0.5950
 7170SOL     OW32968   3.422   0.790   5.138 -1.0549  0.1643 -0.0348
 7170SOL    HW132969   3.491   0.852   5.113  0.8064 -1.9308 -0.0259
 7170SOL    HW232970   3.409   0.741   5.056 -0.1146 -0.5913  0.2799
 7171SOL     OW32971   1.592   1.384  12.142  0.3503  0.7986  0.2023
 7171SOL    HW132972   1.534   1.369  12.067  2.4950  0.7274 -1.4429
 7171SOL    HW232973   1.578   1.478  12.153 -0.5823  0.7964 -0.9783
 7172SOL     OW32974   0.482   0.554   4.731  0.5286  0.1860  0.0807
 7172SOL    HW132975   0.472   0.459   4.730  0.6157  0.1739  0.5098
 7172SOL    HW232976   0.564   0.557   4.681 -1.6022  0.7828 -3.4572
 7173SOL     OW32977   0.684   2.230  10.649  0.2686  0.1361 -0.1450
 7173SOL    HW132978   0.696   2.136  10.660 -0.6814 -0.0067 -0.3828
 7173SOL    HW232979   0.601   2.242  10.695 -0.4204 -0.2622 -1.2918
 7174SOL     OW32980   3.513   0.779  16.947 -0.5411 -0.1816 -0.0018
 7174SOL    HW132981   3.563   0.793  17.028  0.5361 -0.2515 -0.6488
 7174SOL    HW232982   3.520   0.861  16.898 -0.2630  0.3448  0.9055
 7175SOL     OW32983   1.152   3.179   1.964  0.5672 -0.6899  0.6712
 7175SOL    HW132984   1.145   3.131   2.047 -0.7898 -1.3517  0.1632
 7175SOL    HW232985   1.158   3.273   1.982 -1.4916 -0.5833  0.7680
 7176SOL     OW32986   1.722   4.431   3.547 -0.4973  0.3351 -0.4443
 7176SOL    HW132987   1.631   4.435   3.579 -0.1359  2.4459  0.2861
 7176SOL    HW232988   1.744   4.524   3.552  2.1618 -0.1405 -3.6981
 7177SOL     OW32989   0.802   2.815   8.288 -0.0755 -0.1294  0.3013
 7177SOL    HW132990   0.759   2.874   8.226 -0.6759  1.1878  1.9592
 7177SOL    HW232991   0.775   2.848   8.374 -1.6595 -0.7839  0.0492
 7178SOL     OW32992   0.387   1.305  12.147  0.2510 -0.1177  0.1522
 7178SOL    HW132993   0.369   1.265  12.061  2.5460 -1.3685  0.2506
 7178SOL    HW232994   0.481   1.289  12.150  0.8039  2.6744 -1.6714
 7179SOL     OW32995   0.114   3.277   6.581 -0.4275 -0.2014 -0.0938
 7179SOL    HW132996   0.033   3.264   6.530  0.8445 -2.7829 -1.4644
 7179SOL    HW232997   0.154   3.357   6.549  1.6616 -0.9408  0.6812
 7180SOL     OW32998   0.178   3.974   5.491  0.0070 -0.6394 -0.2490
 7180SOL    HW132999   0.145   3.990   5.580 -1.1081  1.9799 -1.1508
 7180SOL    HW233000   0.272   3.970   5.505 -0.3383 -3.0541  1.4126
 7181SOL     OW33001   0.606   0.270   1.748  0.2237  0.2863  0.4641
 7181SOL    HW133002   0.683   0.288   1.694 -0.7434 -0.0559 -1.0294
 7181SOL    HW233003   0.537   0.288   1.684  1.3858 -1.6177 -1.3069
 7182SOL     OW33004   0.832   2.531   5.477  0.0717 -0.3714 -0.9279
 7182SOL    HW133005   0.774   2.459   5.504 -1.8575  1.0870 -1.1515
 7182SOL    HW233006   0.776   2.608   5.486 -1.0595 -1.5353  2.0317
 7183SOL     OW33007   1.613   3.643   6.096  0.1761  0.2090  0.1052
 7183SOL    HW133008   1.703   3.633   6.065  0.0460  0.8267 -0.4775
 7183SOL    HW233009   1.588   3.728   6.059 -1.8812  0.8173  2.8754
 7184SOL     OW33010   3.008   4.590   5.741 -0.1432  0.0184  0.1091
 7184SOL    HW133011   2.923   4.569   5.779  0.4057 -0.7404  0.9244
 7184SOL    HW233012   3.063   4.543   5.804  0.3155  1.6148  0.9022
 7185SOL     OW33013   3.940   4.704  11.678  0.7875 -0.6451  0.3271
 7185SOL    HW133014   4.023   4.672  11.714  1.0577 -1.0113 -0.6127
 7185SOL    HW233015   3.887   4.625  11.682  1.0703 -0.7563  1.9345
 7186SOL     OW33016   3.200   3.331   7.342  0.6586  0.0861 -0.0314
 7186SOL    HW133017   3.255   3.256   7.366  2.9439  1.3442 -1.3894
 7186SOL    HW233018   3.141   3.349   7.416  0.2800 -1.9037  0.1662
 7187SOL     OW33019   1.400   4.241  15.532 -0.2290  0.5304 -0.3483
 7187SOL    HW133020   1.453   4.190  15.471 -2.0411 -1.8455  0.0328
 7187SOL    HW233021   1.422   4.330  15.505 -0.1125  1.2771  2.1620
 7188SOL     OW33022   4.114   1.485   5.708  0.2839  0.6372 -0.0486
 7188SOL    HW133023   4.181   1.473   5.776 -0.3093  0.2392  0.4614
 7188SOL    HW233024   4.097   1.395   5.678 -1.3517  0.1924  2.1658
 7189SOL     OW33025   0.996   0.723  11.855 -0.5531 -0.0799  0.0640
 7189SOL    HW133026   0.940   0.647  11.837 -4.3242  2.8492 -0.6170
 7189SOL    HW233027   0.953   0.791  11.804  1.9614  0.8083 -0.8664
 7190SOL     OW33028   1.867   4.412   1.951  0.3326  0.3895 -0.6155
 7190SOL    HW133029   1.851   4.319   1.934 -0.2995  0.3151  0.4136
 7190SOL    HW233030   1.808   4.447   1.884 -1.6862 -0.4647  0.7210
 7191SOL     OW33031   2.261   1.979   4.575  0.3537  0.4813 -0.8798
 7191SOL    HW133032   2.273   1.923   4.652  1.2231  2.6044  0.5632
 7191SOL    HW233033   2.168   1.963   4.560  0.5145 -0.7039 -0.5970
 7192SOL     OW33034   3.286   2.685  13.525  0.1767  0.3561  0.1875
 7192SOL    HW133035   3.267   2.777  13.541 -1.8373 -0.4907  2.6890
 7192SOL    HW233036   3.306   2.687  13.431  3.5502  0.7679  0.9226
 7193SOL     OW33037   2.143   1.425   2.667  0.0253  0.6129 -0.0129
 7193SOL    HW133038   2.219   1.466   2.625 -0.3780  1.0396 -0.3241
 7193SOL    HW233039   2.075   1.492   2.670  2.3140  2.9740 -0.8235
 7194SOL     OW33040   3.251   0.768  15.042 -0.0452 -0.2670  0.2428
 7194SOL    HW133041   3.181   0.747  15.103 -0.2926  0.7957  0.3209
 7194SOL    HW233042   3.323   0.730  15.093 -2.1290 -2.4253  1.5505
 7195SOL     OW33043   2.157   0.487   8.957  0.1488  0.0961  0.4264
 7195SOL    HW133044   2.123   0.501   9.046 -0.2236  0.5587  0.2110
 7195SOL    HW233045   2.157   0.392   8.963  2.3503 -0.0108 -1.1442
 7196SOL     OW33046   3.262   3.516  16.722  0.8352 -0.3153 -0.7778
 7196SOL    HW133047   3.269   3.420  16.716  0.8920 -0.2895 -1.1181
 7196SOL    HW233048   3.196   3.518  16.792  0.5925  0.7510 -1.0537
 7197SOL     OW33049   1.254   0.072  12.028 -1.0593  0.2464  0.6035
 7197SOL    HW133050   1.285   0.061  12.118 -0.0374 -1.6695  0.0122
 7197SOL    HW233051   1.162   0.094  12.038 -1.5170 -0.9788 -0.9490
 7198SOL     OW33052   1.063   4.198   8.892 -0.2729  0.1352 -0.0681
 7198SOL    HW133053   0.989   4.218   8.835  0.8569  2.6445 -0.6430
 7198SOL    HW233054   1.056   4.242   8.977 -0.1440  0.4003 -0.1950
 7199SOL     OW33055   4.354   3.230   2.742  0.3899  0.0892  0.2143
 7199SOL    HW133056   4.346   3.322   2.718 -1.4516 -0.2419 -0.4674
 7199SOL    HW233057   4.322   3.228   2.832 -2.3272  1.1561 -0.7149
 7200SOL     OW33058   2.367   4.103   4.278  0.0614 -0.2982 -0.3083
 7200SOL    HW133059   2.355   4.011   4.256 -1.6584  0.0087 -0.6370
 7200SOL    HW233060   2.439   4.127   4.219  0.3409 -1.9532 -0.6186
 7201SOL     OW33061   1.144   1.164   2.154  0.2159 -0.3232  0.0279
 7201SOL    HW133062   1.058   1.156   2.194  0.1024  1.9365  0.2626
 7201SOL    HW233063   1.114   1.177   2.064 -0.5963 -2.9700 -0.0772
 7202SOL     OW33064   1.749   1.312   4.564  0.4009 -0.2675 -0.1965
 7202SOL    HW133065   1.686   1.358   4.620  1.1082  1.5661 -0.9140
 7202SOL    HW233066   1.792   1.383   4.516  0.0178 -0.7460 -1.2503
 7203SOL     OW33067   3.403   3.005   4.836  0.0306  0.7202 -0.2817
 7203SOL    HW133068   3.465   3.075   4.854  0.5208  0.6277 -1.6102
 7203SOL    HW233069   3.463   2.930   4.827 -0.4067  0.6734 -2.6842
 7204SOL     OW33070   0.708   4.573   5.968 -0.2069  0.1006  0.6478
 7204SOL    HW133071   0.768   4.630   6.017 -1.1610  1.7904 -0.1644
 7204SOL    HW233072   0.633   4.633   5.964 -0.6775 -0.4159  1.6133
 7205SOL     OW33073   1.178   0.456   6.981  0.4393  0.3165  0.4816
 7205SOL    HW133074   1.204   0.522   7.045 -2.0938  1.5238  0.2610
 7205SOL    HW233075   1.226   0.378   7.008  0.1716 -0.2620 -0.7157
 7206SOL     OW33076   2.288   2.620   1.473  0.2754 -0.0437 -0.5561
 7206SOL    HW133077   2.242   2.536   1.464 -0.1140  0.2430 -1.2461
 7206SOL    HW233078   2.279   2.647   1.565  0.2431 -2.5439  0.1878
 7207SOL     OW33079   2.155   4.644   6.190 -0.6665 -0.7848 -0.2562
 7207SOL    HW133080   2.078   4.610   6.236  0.2749 -1.3957  0.8771
 7207SOL    HW233081   2.118   0.004   6.160 -1.9464 -0.5637  1.9121
 7208SOL     OW33082   2.856   0.674   7.965  0.5212 -0.3384 -0.5604
 7208SOL    HW133083   2.857   0.578   7.970  1.7040 -0.3522 -1.0804
 7208SOL    HW233084   2.763   0.696   7.974  0.2845 -0.2098 -3.4105
 7209SOL     OW33085   3.094   2.840   7.522  0.0250 -0.5508  0.4533
 7209SOL    HW133086   3.146   2.781   7.468  1.2790  0.1672  0.8886
 7209SOL    HW233087   3.126   2.803   7.605 -2.7301 -0.0816  1.7519
 7210SOL     OW33088   2.067   3.376  13.128 -0.2244  0.2468 -0.6024
 7210SOL    HW133089   2.142   3.371  13.186 -0.2713  2.8983 -0.3118
 7210SOL    HW233090   2.098   3.436  13.060 -0.2202  1.0634  0.1313
 7211SOL     OW33091   0.818   3.115  14.497 -0.0807  0.1305  0.0484
 7211SOL    HW133092   0.890   3.177  14.500  0.3957 -0.3735 -1.1412
 7211SOL    HW233093   0.876   3.039  14.497  1.4769  1.3296  0.6273
 7212SOL     OW33094   0.690   3.416   6.185 -0.4399  0.0967  0.5319
 7212SOL    HW133095   0.722   3.500   6.151  0.4706 -1.3808 -2.2526
 7212SOL    HW233096   0.762   3.355   6.170  0.3321  1.4798 -1.2968
 7213SOL     OW33097   1.176   2.474   1.277 -0.1879  0.2453 -0.1153
 7213SOL    HW133098   1.231   2.535   1.326  1.0519 -2.3771  1.7899
 7213SOL    HW233099   1.093   2.483   1.323 -0.9490  1.2634 -1.6806
 7214SOL     OW33100   0.611   2.816   7.826  0.0746 -0.1703 -0.8563
 7214SOL    HW133101   0.691   2.847   7.783  0.4317 -2.1008 -1.5732
 7214SOL    HW233102   0.641   2.728   7.846 -0.7095 -0.3769 -0.5789
 7215SOL     OW33103   0.928   2.501   9.019 -0.6137  0.1563 -0.2023
 7215SOL    HW133104   0.986   2.516   9.094 -0.9905 -0.7669  0.2760
 7215SOL    HW233105   0.850   2.476   9.068  0.0400 -0.2010  0.6589
 7216SOL     OW33106   0.731   3.673   6.062  0.3654  0.0019  0.0554
 7216SOL    HW133107   0.708   3.676   5.969  0.2453 -0.9381  0.0552
 7216SOL    HW233108   0.825   3.687   6.049  0.1876  2.6748  1.6613
 7217SOL     OW33109   3.840   3.264   8.410  0.2936  0.1987 -0.3021
 7217SOL    HW133110   3.896   3.188   8.421 -0.2056  0.0261  1.0983
 7217SOL    HW233111   3.878   3.322   8.475  1.4672 -1.1232  0.1902
 7218SOL     OW33112   3.059   4.208   7.413  0.0566  0.3886 -0.5882
 7218SOL    HW133113   3.134   4.268   7.413 -0.0169  0.4681  2.3322
 7218SOL    HW233114   2.981   4.261   7.399 -1.3861 -1.3570  0.8857
 7219SOL     OW33115   1.118   1.009   2.606 -0.5758 -0.9901  0.1587
 7219SOL    HW133116   1.072   0.939   2.560  2.0722 -1.9490 -1.0137
 7219SOL    HW233117   1.053   1.073   2.635 -0.5312 -1.2216  0.7709
 7220SOL     OW33118   4.130   3.091   4.577  0.2419  0.2375  0.2841
 7220SOL    HW133119   4.108   3.009   4.621 -1.0629  0.1294 -0.5723
 7220SOL    HW233120   4.224   3.084   4.592  0.3673 -1.1994 -1.2481
 7221SOL     OW33121   1.376   3.461  14.488  0.1034  0.2550 -0.0173
 7221SOL    HW133122   1.454   3.428  14.442 -1.2733 -0.7977 -1.5652
 7221SOL    HW233123   1.367   3.550  14.452  1.3318 -0.0031 -1.0012
 7222SOL     OW33124   0.667   1.748   4.157 -0.5744  0.4258 -0.0051
 7222SOL    HW133125   0.709   1.746   4.243  2.9861  0.9198 -1.7386
 7222SOL    HW233126   0.584   1.770   4.197  0.7908  2.5513  1.6804
 7223SOL     OW33127   1.094   3.665  14.876  0.3942  0.2690  0.2211
 7223SOL    HW133128   1.013   3.714  14.865  0.7733  0.3705 -2.3099
 7223SOL    HW233129   1.068   3.588  14.927  0.3266  0.4590  0.4663
 7224SOL     OW33130   1.079   0.010  17.558 -0.2167 -0.1621 -0.2819
 7224SOL    HW133131   1.010   4.667  17.556 -0.5962  0.2153  0.4718
 7224SOL    HW233132   1.103   0.011  17.465  0.8205 -1.3127 -0.0177
 7225SOL     OW33133   1.442   0.964   2.148 -0.4262  0.1425  0.6023
 7225SOL    HW133134   1.507   1.026   2.181 -1.7142  1.1538  1.2035
 7225SOL    HW233135   1.415   1.019   2.075 -0.4236 -0.6557 -0.0015
 7226SOL     OW33136   4.078   0.540   7.283 -0.2332  0.1741 -0.0694
 7226SOL    HW133137   4.157   0.498   7.249 -0.9289 -0.3326 -1.0535
 7226SOL    HW233138   4.054   0.593   7.207  1.5547  0.7342 -0.2334
 7227SOL     OW33139   3.467   1.765   7.618  0.8083  0.0632 -0.6344
 7227SOL    HW133140   3.557   1.792   7.601  0.6876  0.3525 -0.8389
 7227SOL    HW233141   3.437   1.809   7.697 -2.2281 -1.5027 -0.8824
 7228SOL     OW33142   1.613   0.387   1.328 -0.2390 -0.3842  0.1130
 7228SOL    HW133143   1.697   0.410   1.367  0.5377  1.6319 -2.7694
 7228SOL    HW233144   1.594   0.468   1.281 -1.1190 -1.1274 -0.8039
 7229SOL     OW33145   1.723   0.881  15.634 -0.0897 -0.2361 -0.2694
 7229SOL    HW133146   1.737   0.910  15.725 -1.8348 -2.6092  0.7354
 7229SOL    HW233147   1.776   0.939  15.579  1.5335 -2.3537 -0.9342
 7230SOL     OW33148   4.197   4.217   5.449  0.3080  0.4019 -0.3435
 7230SOL    HW133149   4.248   4.174   5.518 -1.1168 -0.2927  0.2710
 7230SOL    HW233150   4.125   4.156   5.432 -0.3962  0.7788  1.3241
 7231SOL     OW33151   2.981   1.386  12.305  0.2914  0.1429  0.2139
 7231SOL    HW133152   3.003   1.331  12.380 -0.2874  0.6665  0.7629
 7231SOL    HW233153   2.891   1.364  12.279 -0.2429 -0.6502  2.7729
 7232SOL     OW33154   3.277   1.405   7.735  0.4372  0.2762 -0.3672
 7232SOL    HW133155   3.218   1.329   7.728  0.0298  0.6769 -1.2514
 7232SOL    HW233156   3.216   1.477   7.719  0.4711  0.6606  1.2329
 7233SOL     OW33157   2.508   1.527   7.960 -0.3470  0.5708 -0.2182
 7233SOL    HW133158   2.472   1.537   7.872  0.1916 -2.3677 -0.7685
 7233SOL    HW233159   2.429   1.558   8.004  0.4814 -2.6419  3.5538
 7234SOL     OW33160   1.785   1.311   2.696  0.1939 -0.3796  0.7654
 7234SOL    HW133161   1.776   1.397   2.737 -1.3456 -0.3764  0.4007
 7234SOL    HW233162   1.785   1.256   2.774 -0.6696  0.2812  1.2287
 7235SOL     OW33163   1.813   2.029  16.811 -0.2147  0.8686  0.2291
 7235SOL    HW133164   1.737   2.078  16.781  0.1963  0.4175 -1.5665
 7235SOL    HW233165   1.888   2.049  16.755 -0.1459 -3.8525 -1.3830
 7236SOL     OW33166   1.149   0.423   1.464  0.7277  0.1557 -0.0210
 7236SOL    HW133167   1.086   0.471   1.517  1.2382 -0.2382  0.9576
 7236SOL    HW233168   1.218   0.401   1.527  0.1196 -0.2496  0.5049
 7237SOL     OW33169   3.915   2.171   3.571 -1.4596 -0.3228 -0.7295
 7237SOL    HW133170   4.002   2.212   3.567 -1.4381 -0.5320 -2.1233
 7237SOL    HW233171   3.856   2.245   3.562 -1.2257 -0.4698 -3.2321
 7238SOL     OW33172   3.775   0.676  16.504  0.0433 -0.3288 -0.4060
 7238SOL    HW133173   3.788   0.685  16.409  0.0024 -0.1561 -0.3941
 7238SOL    HW233174   3.851   0.723  16.535  0.8041 -1.2572 -0.8621
 7239SOL     OW33175   3.941   2.081   5.138 -0.2917  0.1542 -0.1383
 7239SOL    HW133176   3.944   2.124   5.053 -0.4580  2.2608  0.9076
 7239SOL    HW233177   4.009   2.134   5.181  0.7349 -0.2067 -1.3251
 7240SOL     OW33178   3.788   2.469   2.603 -0.3136  0.1119  0.1087
 7240SOL    HW133179   3.864   2.488   2.549 -0.6807 -1.1188 -0.8545
 7240SOL    HW233180   3.735   2.548   2.601 -0.7216 -0.1171  2.2788
 7241SOL     OW33181   0.697   0.237   4.954  0.4847  0.6224  0.1415
 7241SOL    HW133182   0.626   0.258   5.015  2.1838 -1.4837  2.7910
 7241SOL    HW233183   0.657   0.191   4.880  4.6406 -2.1965 -0.3179
 7242SOL     OW33184   3.775   3.210   6.079  0.2000 -0.2235 -0.0237
 7242SOL    HW133185   3.771   3.284   6.140 -0.5931 -0.2224 -0.0694
 7242SOL    HW233186   3.680   3.200   6.064 -0.0120  1.3449  0.2761
 7243SOL     OW33187   2.062   1.827   2.302  0.2424 -0.4230 -0.1652
 7243SOL    HW133188   2.093   1.746   2.344 -1.3452 -0.2130  1.4146
 7243SOL    HW233189   2.109   1.810   2.220  1.4731  2.4848 -0.0322
 7244SOL     OW33190   3.900   4.386   5.195  0.1139  0.4901 -0.5658
 7244SOL    HW133191   3.968   4.409   5.258 -0.8474 -2.4634  1.5988
 7244SOL    HW233192   3.933   4.302   5.163 -0.5000  0.2657 -0.6122
 7245SOL     OW33193   1.282   3.777   4.165  0.4866  0.5137  0.1039
 7245SOL    HW133194   1.189   3.768   4.182  0.7643  0.4156  1.5472
 7245SOL    HW233195   1.277   3.859   4.116 -1.6682 -0.5539 -1.4808
 7246SOL     OW33196   3.693   4.378  14.859  0.4426  0.5647 -0.0410
 7246SOL    HW133197   3.786   4.392  14.845  0.8835 -1.0694  1.3201
 7246SOL    HW233198   3.682   4.453  14.918  0.7893  0.5011  0.1018
 7247SOL     OW33199   0.143   1.782   5.780 -0.5039 -0.5595 -0.1239
 7247SOL    HW133200   0.217   1.766   5.839  0.2032 -0.4855 -0.9887
 7247SOL    HW233201   0.139   1.875   5.758  2.0026 -0.3878  0.1219
 7248SOL     OW33202   2.238   3.399   8.920  0.5801  0.1773  0.4961
 7248SOL    HW133203   2.304   3.341   8.957 -0.0414 -0.5114  0.5102
 7248SOL    HW233204   2.243   3.474   8.979  1.6334 -0.2216  0.9185
 7249SOL     OW33205   0.462   1.487  11.300 -0.0387 -0.7120 -0.5047
 7249SOL    HW133206   0.382   1.513  11.254  0.3049  0.6449 -0.3186
 7249SOL    HW233207   0.520   1.504  11.226 -1.3489 -2.5205 -1.9409
 7250SOL     OW33208   3.479   1.770  14.265  0.0084 -0.1475  0.0286
 7250SOL    HW133209   3.567   1.773  14.303 -0.6676 -1.8564  1.7207
 7250SOL    HW233210   3.482   1.844  14.205 -0.8211 -2.1002 -2.3976
 7251SOL     OW33211   3.350   1.379   4.509  0.2192  0.2769  0.1257
 7251SOL    HW133212   3.410   1.444   4.473 -0.2052  1.3395  1.3175
 7251SOL    HW233213   3.415   1.324   4.553  0.3582  1.1619  1.0244
 7252SOL     OW33214   2.074   4.705   4.948 -0.1384  0.1313 -0.2916
 7252SOL    HW133215   2.101   4.676   5.035  1.4937  0.0170 -0.8345
 7252SOL    HW233216   2.057   4.621   4.904  2.5515 -0.1705 -0.7952
 7253SOL     OW33217   2.078   3.510   4.565  0.0034  0.0863 -0.2782
 7253SOL    HW133218   2.144   3.445   4.541  0.7109 -0.3735  2.9185
 7253SOL    HW233219   1.999   3.455   4.568 -1.5971  2.4098 -0.1941
 7254SOL     OW33220   1.446   3.433   2.809 -0.1606  0.4640  0.1480
 7254SOL    HW133221   1.460   3.339   2.799 -1.8482  0.1735  0.4254
 7254SOL    HW233222   1.500   3.467   2.738 -0.3952  1.4525  0.4426
 7255SOL     OW33223   3.406   1.363  14.235  0.5397 -0.4229 -0.1252
 7255SOL    HW133224   3.325   1.355  14.185  1.0851  2.1237 -1.4252
 7255SOL    HW233225   3.451   1.429  14.182 -0.9233 -0.9626 -2.0604
 7256SOL     OW33226   3.203   3.497   2.031  0.1080 -0.2841 -0.2773
 7256SOL    HW133227   3.272   3.562   2.013 -0.9645  0.8961 -0.1303
 7256SOL    HW233228   3.129   3.557   2.031  0.3205 -0.0229  0.2960
 7257SOL     OW33229   3.623   4.047   2.323  0.5991 -0.2587 -0.0832
 7257SOL    HW133230   3.551   3.993   2.355  1.5385 -1.3481  0.2088
 7257SOL    HW233231   3.640   4.099   2.402  3.6084 -1.7343  0.2486
 7258SOL     OW33232   1.861   1.599   5.771  0.0552  0.6576  0.2689
 7258SOL    HW133233   1.886   1.509   5.749 -1.0977  0.2987  0.4669
 7258SOL    HW233234   1.916   1.628   5.844  0.9450  1.7397 -0.8300
 7259SOL     OW33235   1.411   2.061   7.873 -0.2383 -0.4492  0.3568
 7259SOL    HW133236   1.326   2.021   7.854 -0.5974  1.2939 -1.7575
 7259SOL    HW233237   1.406   2.140   7.819 -2.2039 -1.7724 -1.4177
 7260SOL     OW33238   2.114   2.682   2.074  0.5987  0.2654  0.2602
 7260SOL    HW133239   2.174   2.616   2.040 -0.4494 -0.1279 -0.8332
 7260SOL    HW233240   2.128   2.676   2.168  0.5136  3.4429  0.4860
 7261SOL     OW33241   2.477   3.967  10.696 -0.4750 -0.4695  0.1381
 7261SOL    HW133242   2.563   3.980  10.656 -1.5240  3.1379 -1.0122
 7261SOL    HW233243   2.474   4.047  10.749  0.0335  0.0905 -0.6815
 7262SOL     OW33244   1.972   0.790   2.750 -0.2313  0.0049  0.4250
 7262SOL    HW133245   1.994   0.803   2.843 -0.6007 -0.3595  0.5608
 7262SOL    HW233246   1.958   0.884   2.735 -2.7076 -0.4368  0.0456
 7263SOL     OW33247   0.130   4.215   7.758 -0.1629  0.5325  0.1531
 7263SOL    HW133248   0.036   4.233   7.766  0.2102  1.5337  2.0114
 7263SOL    HW233249   0.133   4.150   7.687  2.7658  1.9495 -1.0051
 7264SOL     OW33250   3.227   2.102   5.333  0.0207 -0.2143  0.1949
 7264SOL    HW133251   3.322   2.091   5.324 -0.1446 -1.9496  0.4256
 7264SOL    HW233252   3.204   2.011   5.311 -0.7343  0.0160  0.0666
 7265SOL     OW33253   1.832   0.173   8.128 -0.1635 -0.2792 -0.0853
 7265SOL    HW133254   1.748   0.164   8.082  0.8377  1.0926 -2.1455
 7265SOL    HW233255   1.806   0.172   8.220 -1.2303 -1.8688 -0.3858
 7266SOL     OW33256   4.330   3.149   5.723  0.0875  0.4007  0.0290
 7266SOL    HW133257   4.281   3.091   5.781  1.8997 -0.2399  0.9105
 7266SOL    HW233258   4.315   3.224   5.780  0.4533  0.1037  0.5127
 7267SOL     OW33259   1.106   3.466  14.538  0.3468  0.4109 -0.1403
 7267SOL    HW133260   1.101   3.389  14.595 -0.4003  0.8494  0.3859
 7267SOL    HW233261   1.200   3.462  14.519  0.1962 -3.1696 -0.0480
 7268SOL     OW33262   2.983   3.645  16.258  0.1958 -0.6394 -0.2419
 7268SOL    HW133263   2.937   3.591  16.194 -3.1125  0.3467  1.3152
 7268SOL    HW233264   3.075   3.627  16.238  0.7189 -0.3856  1.8537
 7269SOL     OW33265   2.174   4.049  15.209  0.0792  0.2269 -0.3447
 7269SOL    HW133266   2.099   4.098  15.243  1.0819  1.8731 -0.4795
 7269SOL    HW233267   2.223   4.122  15.169  2.7976 -1.4649 -0.1304
 7270SOL     OW33268   2.216   3.379   3.033  0.6399  0.0341 -0.3552
 7270SOL    HW133269   2.190   3.297   2.992  0.2769  1.6297 -3.3803
 7270SOL    HW233270   2.309   3.371   3.012  0.9887 -1.1501  1.6783
 7271SOL     OW33271   2.588   3.818   2.076  0.1210 -0.0616  0.1959
 7271SOL    HW133272   2.529   3.882   2.116  1.1836  0.2452  1.2794
 7271SOL    HW233273   2.549   3.797   1.991 -0.6184  1.2275  0.2323
 7272SOL     OW33274   4.291   0.738   6.021 -0.2705  0.0246  0.0698
 7272SOL    HW133275   4.252   0.801   6.083 -2.3162  0.0343 -1.2450
 7272SOL    HW233276   4.223   0.672   6.009 -0.1937 -0.3121  1.4421
 7273SOL     OW33277   3.618   0.755   2.209  0.1157  0.0598 -0.3498
 7273SOL    HW133278   3.547   0.735   2.269 -1.9147  3.4468 -1.6322
 7273SOL    HW233279   3.698   0.749   2.261 -0.5997  1.9283  0.9599
 7274SOL     OW33280   4.622   3.667   7.318 -0.5414 -0.6227 -0.8029
 7274SOL    HW133281   4.555   3.689   7.253  0.2378  0.8872 -1.0854
 7274SOL    HW233282   4.692   3.616   7.277 -1.4448 -1.1102 -1.7514
 7275SOL     OW33283   3.452   0.660   8.872 -0.1818  0.6962 -0.6206
 7275SOL    HW133284   3.446   0.756   8.872 -1.9709  0.5897 -1.5411
 7275SOL    HW233285   3.532   0.647   8.923  0.2569  0.8055 -1.2952
 7276SOL     OW33286   4.303   3.118  14.640 -0.1338  0.0270 -0.7562
 7276SOL    HW133287   4.292   3.213  14.635 -0.2485  0.0550 -0.0615
 7276SOL    HW233288   4.211   3.094  14.644  0.0830 -0.6283  0.5460
 7277SOL     OW33289   1.389   1.126   2.529 -0.5518  0.1029 -0.1963
 7277SOL    HW133290   1.311   1.073   2.547 -0.1284 -0.7230 -0.8046
 7277SOL    HW233291   1.445   1.119   2.607 -1.0742  2.1006  0.3689
 7278SOL     OW33292   4.004   2.075   8.509  0.0433 -0.1015 -0.6270
 7278SOL    HW133293   4.065   2.064   8.581 -0.4108  0.4619 -0.1573
 7278SOL    HW233294   4.023   1.997   8.456 -2.2794 -1.0997  0.0361
 7279SOL     OW33295   4.707   0.499   3.908  0.0822  0.1440 -0.1885
 7279SOL    HW133296   4.662   0.575   3.947 -0.5329 -0.6320  0.6161
 7279SOL    HW233297   0.076   0.513   3.933  0.3399 -0.2992 -0.8897
 7280SOL     OW33298   3.725   2.602   8.849 -0.0075  0.0828 -0.7758
 7280SOL    HW133299   3.730   2.512   8.816  2.2028 -0.5860  1.3480
 7280SOL    HW233300   3.632   2.623   8.840  0.1476  1.8241  1.7553
 7281SOL     OW33301   3.636   3.250   6.674  0.2850 -0.3013  0.0972
 7281SOL    HW133302   3.724   3.280   6.696 -0.0650  0.7408  0.0698
 7281SOL    HW233303   3.640   3.162   6.710 -0.9730 -0.5067 -0.2726
 7282SOL     OW33304   4.008   2.250  11.277 -0.3149 -1.0379  0.1747
 7282SOL    HW133305   3.950   2.177  11.258  0.8135 -1.7501 -0.5618
 7282SOL    HW233306   4.073   2.217  11.339 -0.1993 -0.3192  0.4355
 7283SOL     OW33307   3.770   2.002   5.336 -0.1437  0.5445 -0.0838
 7283SOL    HW133308   3.821   2.038   5.264  0.0201 -2.4747 -1.4738
 7283SOL    HW233309   3.839   2.000   5.402  0.7682  1.8634 -0.9916
 7284SOL     OW33310   0.609   0.841   9.659  0.1399 -0.1831 -0.1486
 7284SOL    HW133311   0.526   0.806   9.690  0.1040  1.4922  1.6725
 7284SOL    HW233312   0.659   0.838   9.741  1.2067  0.1504 -0.7812
 7285SOL     OW33313   0.893   3.376   2.880  0.3946 -0.1452  0.1386
 7285SOL    HW133314   0.830   3.349   2.947 -0.9530  1.2626 -0.5704
 7285SOL    HW233315   0.975   3.358   2.926  0.4120 -2.4602 -0.8264
 7286SOL     OW33316   1.999   3.679   3.760  0.2192 -0.2831 -0.2571
 7286SOL    HW133317   1.949   3.739   3.705 -0.9011 -1.6406 -0.7099
 7286SOL    HW233318   2.075   3.686   3.703  0.0118  0.4113 -0.4462
 7287SOL     OW33319   2.852   4.112  13.278  0.1759 -0.8432 -0.1426
 7287SOL    HW133320   2.851   4.071  13.192 -1.0427  0.9446 -1.0016
 7287SOL    HW233321   2.945   4.116  13.299 -0.0100  1.0312  0.3726
 7288SOL     OW33322   4.360   2.045   3.931 -0.3861  0.1535  0.0351
 7288SOL    HW133323   4.389   2.060   3.841  0.3673  0.3053  0.3064
 7288SOL    HW233324   4.429   1.984   3.957 -1.2402 -0.6412  0.4316
 7289SOL     OW33325   1.519   1.078  14.567 -0.5345  0.4250  0.0139
 7289SOL    HW133326   1.612   1.065  14.553 -1.2214 -2.4647 -1.9715
 7289SOL    HW233327   1.487   0.993  14.537 -0.2405  0.7192 -1.1220
 7290SOL     OW33328   4.187   3.230   7.140  0.2450 -0.2479  0.0001
 7290SOL    HW133329   4.162   3.232   7.232  0.5983 -1.6354  0.1249
 7290SOL    HW233330   4.270   3.277   7.146  0.2545 -0.4377  1.2751
 7291SOL     OW33331   3.063   1.560   7.676 -0.4146  0.6315  0.2453
 7291SOL    HW133332   3.022   1.606   7.750  0.3700  0.6175  0.6879
 7291SOL    HW233333   2.990   1.556   7.614 -0.3511  0.4788  0.1818
 7292SOL     OW33334   3.194   3.760  15.646  0.5907  0.5470  0.0230
 7292SOL    HW133335   3.157   3.718  15.568 -0.4337  0.4283  0.5720
 7292SOL    HW233336   3.282   3.788  15.621  1.9291 -0.0261  4.0879
 7293SOL     OW33337   3.816   4.537   1.066 -0.1313  0.3042 -0.2214
 7293SOL    HW133338   3.786   4.578   0.985 -2.5621  0.3241  0.6712
 7293SOL    HW233339   3.863   4.611   1.104  0.8874 -0.8605  0.8137
 7294SOL     OW33340   0.933   4.684   7.943 -0.1861  0.6704  0.1782
 7294SOL    HW133341   0.966   4.653   7.859  2.2088  3.2616  0.1213
 7294SOL    HW233342   0.916   4.609   7.999  1.3219  0.8530  0.8707
 7295SOL     OW33343   1.523   2.465   3.447 -0.2057  0.4332  0.2657
 7295SOL    HW133344   1.557   2.375   3.449 -2.5313 -0.4622 -0.3940
 7295SOL    HW233345   1.445   2.459   3.391  0.4092  2.5250 -0.8125
 7296SOL     OW33346   3.223   3.306   5.387  0.0906  0.2869 -0.3426
 7296SOL    HW133347   3.224   3.367   5.461 -2.3267 -0.2775  0.1474
 7296SOL    HW233348   3.303   3.335   5.343  0.2915  0.2005 -0.0313
 7297SOL     OW33349   1.510   3.046  17.588  0.2417  0.1137 -0.2208
 7297SOL    HW133350   1.530   3.063  17.680  1.1723  0.3589 -0.4760
 7297SOL    HW233351   1.508   2.950  17.586 -0.4084  0.1254 -0.0662
 7298SOL     OW33352   4.258   1.403  10.576  0.3100 -0.0590 -0.5828
 7298SOL    HW133353   4.181   1.432  10.529  0.2769  1.5994  0.5071
 7298SOL    HW233354   4.275   1.316  10.540  1.9158 -0.8714  2.0872
 7299SOL     OW33355   1.859   1.076   8.891 -0.6475 -0.0971 -0.3166
 7299SOL    HW133356   1.939   1.054   8.939 -0.5821  0.9622  0.0588
 7299SOL    HW233357   1.844   0.993   8.846  2.6597 -0.9369  0.1105
 7300SOL     OW33358   1.884   4.653   7.740 -0.4461  0.2939  0.5111
 7300SOL    HW133359   1.857   4.719   7.677 -0.7455  1.3431  1.7488
 7300SOL    HW233360   1.907   4.581   7.681  0.0852  1.5964 -0.8656
 7301SOL     OW33361   3.955   4.426   6.697 -0.2811  0.6551 -0.0770
 7301SOL    HW133362   3.911   4.435   6.613 -1.9467 -0.9054  0.6167
 7301SOL    HW233363   4.032   4.372   6.678 -0.6691 -0.0077  0.2220
 7302SOL     OW33364   0.644   0.664  15.078  0.2036 -0.2164  0.5317
 7302SOL    HW133365   0.630   0.592  15.017  0.6979 -0.5471  0.8146
 7302SOL    HW233366   0.686   0.613  15.147 -1.6240 -0.0870  1.7568
 7303SOL     OW33367   4.696   4.441  13.654 -0.3426  0.3283  0.4348
 7303SOL    HW133368   0.043   4.484  13.705 -1.6277  0.4706  2.0742
 7303SOL    HW233369   0.022   4.365  13.622 -2.0365  0.0041 -1.3430
 7304SOL     OW33370   0.635   2.785   2.846 -0.0036  0.0997 -0.7317
 7304SOL    HW133371   0.723   2.819   2.863 -1.2588  3.1190 -0.2032
 7304SOL    HW233372   0.572   2.855   2.827 -0.9574 -0.5701 -0.0321
 7305SOL     OW33373   2.985   1.043   1.612  0.2548 -0.0392  0.5546
 7305SOL    HW133374   3.071   1.086   1.605 -0.4461  1.2995  0.1077
 7305SOL    HW233375   2.925   1.117   1.614 -1.4120 -1.3239 -2.4821
 7306SOL     OW33376   3.678   2.085   1.086  0.3774  0.1492  0.0808
 7306SOL    HW133377   3.761   2.095   1.133  0.1233 -2.2629  1.0065
 7306SOL    HW233378   3.645   1.999   1.112 -0.2762  0.6239  0.8161
 7307SOL     OW33379   3.131   3.527   1.148  0.0188 -0.3020  0.3776
 7307SOL    HW133380   3.041   3.505   1.173 -0.4629  0.2467 -0.8402
 7307SOL    HW233381   3.178   3.451   1.182  0.1242 -0.6356 -0.5090
 7308SOL     OW33382   2.459   1.111  17.347 -0.3659  0.1254  0.0964
 7308SOL    HW133383   2.459   1.071  17.260 -1.3865  2.0252 -0.7816
 7308SOL    HW233384   2.507   1.190  17.321 -2.6326  2.2062  2.3592
 7309SOL     OW33385   2.974   2.203   9.155 -0.1589 -0.0523 -0.1747
 7309SOL    HW133386   2.923   2.189   9.235  0.4012 -1.6529 -0.0902
 7309SOL    HW233387   2.951   2.124   9.107  0.6714 -0.3344 -0.1160
 7310SOL     OW33388   1.427   2.255  11.999 -0.0513 -0.0181 -0.6796
 7310SOL    HW133389   1.357   2.234  12.060 -0.7559 -0.0826 -1.5015
 7310SOL    HW233390   1.449   2.168  11.964 -0.1671 -0.3658  0.1237
 7311SOL     OW33391   0.653   0.485   2.974  0.4819 -0.4438 -0.3617
 7311SOL    HW133392   0.579   0.441   2.932 -0.9894  0.3007  1.4850
 7311SOL    HW233393   0.625   0.491   3.065 -0.2831 -1.2539 -0.5474
 7312SOL     OW33394   0.398   4.623   8.429  0.3575 -1.0442  0.6360
 7312SOL    HW133395   0.359   4.678   8.497  1.0264  0.1480  0.0557
 7312SOL    HW233396   0.472   4.576   8.469  1.9973 -0.0904 -1.2623
 7313SOL     OW33397   3.247   2.862   3.610 -0.5305 -0.1882 -0.0389
 7313SOL    HW133398   3.258   2.768   3.597  0.9519 -0.3421  2.4538
 7313SOL    HW233399   3.306   2.893   3.542 -0.8111 -2.3580 -1.2924
 7314SOL     OW33400   0.011   2.268  16.682 -0.1900 -0.1895 -0.3645
 7314SOL    HW133401   0.041   2.354  16.710  2.3721 -0.3144 -2.7867
 7314SOL    HW233402   4.684   2.247  16.762 -0.2931  1.5061  0.0048
 7315SOL     OW33403   2.472   3.933   3.399 -0.1301  0.0799  0.1838
 7315SOL    HW133404   2.564   3.958   3.408 -0.2929  0.7061  0.1042
 7315SOL    HW233405   2.483   3.856   3.343 -1.1043  0.4637 -0.5323
 7316SOL     OW33406   3.899   3.544   5.474  0.1319 -0.4175  0.1592
 7316SOL    HW133407   3.986   3.577   5.450 -0.0251  0.6806  1.1117
 7316SOL    HW233408   3.905   3.557   5.568 -4.5457  0.4692  0.2980
 7317SOL     OW33409   1.759   4.670  11.560  0.8040 -0.1113 -0.2013
 7317SOL    HW133410   1.854   4.664  11.566  0.9718  3.1777  0.5063
 7317SOL    HW233411   1.726   4.587  11.595 -2.1441  1.3253  0.4530
 7318SOL     OW33412   0.660   0.946   1.906 -0.4481  0.3477 -0.0104
 7318SOL    HW133413   0.618   0.862   1.924  0.0412  0.4204  1.4797
 7318SOL    HW233414   0.728   0.940   1.973 -0.5151 -1.4691 -0.1169
 7319SOL     OW33415   2.684   0.326   7.529 -0.1760 -0.2432 -0.6949
 7319SOL    HW133416   2.716   0.304   7.616 -1.4068  0.9596  0.0498
 7319SOL    HW233417   2.606   0.376   7.554  1.9554  3.4197 -1.3111
 7320SOL     OW33418   0.742   0.102   6.246 -0.6118 -0.2946  0.0572
 7320SOL    HW133419   0.823   0.065   6.210  0.1081 -1.2140  2.5985
 7320SOL    HW233420   0.757   0.061   6.331 -2.0346 -0.5153  0.2019
 7321SOL     OW33421   1.369   0.293  14.604  0.0866 -0.2206  0.7942
 7321SOL    HW133422   1.276   0.295  14.628 -0.0467 -1.2859  0.3320
 7321SOL    HW233423   1.382   0.199  14.597  1.0104  0.0718 -1.2298
 7322SOL     OW33424   2.038   2.301   3.466  0.3496  0.2159  0.4616
 7322SOL    HW133425   2.007   2.308   3.376  0.7567  0.0927  0.3133
 7322SOL    HW233426   2.056   2.392   3.489  0.7217  0.2897 -0.1293
 7323SOL     OW33427   2.879   1.432   6.556  0.1908 -0.2822  0.0521
 7323SOL    HW133428   2.810   1.385   6.509 -1.0844 -0.4696  2.1124
 7323SOL    HW233429   2.866   1.511   6.503  0.1009 -1.4375 -1.6597
 7324SOL     OW33430   2.514   2.782   4.700  0.2962  0.1913  0.1348
 7324SOL    HW133431   2.598   2.736   4.700 -0.1706 -0.6209  1.9172
 7324SOL    HW233432   2.477   2.727   4.769  0.9502 -0.2735  0.1133
 7325SOL     OW33433   1.171   0.513   2.224  0.2802 -0.1689 -0.1399
 7325SOL    HW133434   1.229   0.588   2.211 -1.6976  1.3263 -0.2942
 7325SOL    HW233435   1.106   0.531   2.156  0.3760  1.3633  0.1677
 7326SOL     OW33436   2.898   0.925   6.905  0.1074 -0.8009  0.2797
 7326SOL    HW133437   2.915   1.014   6.873  1.2346 -1.0914  0.0489
 7326SOL    HW233438   2.812   0.909   6.868  0.4099  0.2116 -0.8690
 7327SOL     OW33439   1.591   3.437   1.475  0.2991  0.6182  0.6411
 7327SOL    HW133440   1.666   3.380   1.460 -1.9433 -3.0205  3.1643
 7327SOL    HW233441   1.569   3.456   1.384  2.3811  1.4526  0.3274
 7328SOL     OW33442   1.287   0.154   8.471 -0.1653  0.2131 -0.2470
 7328SOL    HW133443   1.223   0.191   8.533  0.7970 -0.4175  1.1209
 7328SOL    HW233444   1.243   0.158   8.386 -2.6158 -1.5614  0.9366
 7329SOL     OW33445   0.639   4.442   8.182  0.2661 -0.0083  0.2657
 7329SOL    HW133446   0.622   4.536   8.179  0.9671  0.1331  0.8094
 7329SOL    HW233447   0.570   4.416   8.243  0.3902 -2.6705 -0.7415
 7330SOL     OW33448   3.866   0.709   8.489 -0.5040 -0.9043  0.2348
 7330SOL    HW133449   3.843   0.799   8.465 -1.0739 -0.7940  1.1650
 7330SOL    HW233450   3.940   0.723   8.547 -3.0056  2.6919  2.5729
 7331SOL     OW33451   0.846   2.809   2.197  0.0406 -0.1847  0.0979
 7331SOL    HW133452   0.774   2.851   2.244  0.6813  0.0712  0.8476
 7331SOL    HW233453   0.886   2.767   2.273 -2.1902 -0.8772  0.8897
 7332SOL     OW33454   0.091   4.291  15.992  0.5179  0.2328  0.4778
 7332SOL    HW133455   0.059   4.344  16.064 -0.4726 -0.5318  0.5958
 7332SOL    HW233456   0.184   4.295  16.014  0.9730 -0.0182 -1.3964
 7333SOL     OW33457   1.189   0.994  11.435  0.2791  0.4303 -0.8133
 7333SOL    HW133458   1.210   1.071  11.382 -1.7076  1.0858 -0.6417
 7333SOL    HW233459   1.270   0.997  11.486  0.6829 -1.0831 -1.3534
 7334SOL     OW33460   3.219   4.036   8.741 -0.5937 -0.5727 -0.3092
 7334SOL    HW133461   3.211   4.074   8.829 -1.6773 -1.0854 -0.1931
 7334SOL    HW233462   3.200   3.946   8.767 -0.8958 -0.9106 -1.7536
 7335SOL     OW33463   4.271   2.765   1.716  0.3019  0.6748 -0.3284
 7335SOL    HW133464   4.247   2.837   1.658  0.9826  3.2342  2.5685
 7335SOL    HW233465   4.292   2.805   1.800  0.2557 -0.5274  0.2620
 7336SOL     OW33466   3.442   2.551   6.870  0.4355 -0.1038  0.5494
 7336SOL    HW133467   3.444   2.635   6.916 -1.7368 -0.1660  0.7589
 7336SOL    HW233468   3.354   2.518   6.890  1.0095 -0.2410  2.8910
 7337SOL     OW33469   2.281   1.755   6.779 -0.2489  0.1086 -0.7275
 7337SOL    HW133470   2.217   1.697   6.820 -2.5846  2.8427 -0.5176
 7337SOL    HW233471   2.366   1.731   6.815 -0.3936  0.2307 -0.3092
 7338SOL     OW33472   4.127   4.320  14.293 -0.0882 -0.3468 -0.4995
 7338SOL    HW133473   4.049   4.287  14.248 -0.0021 -0.1002 -0.8339
 7338SOL    HW233474   4.143   4.393  14.233  1.4388 -0.6522 -0.4642
 7339SOL     OW33475   3.402   2.235   6.905  0.0828  0.2110  0.3470
 7339SOL    HW133476   3.406   2.141   6.885  1.2537 -0.2815  2.8635
 7339SOL    HW233477   3.479   2.253   6.960  1.2755  1.3648 -1.7195
 7340SOL     OW33478   2.240   1.262   5.973  0.0291 -0.0748  0.2954
 7340SOL    HW133479   2.237   1.354   5.946  0.6744 -0.1181  0.0696
 7340SOL    HW233480   2.330   1.243   5.945  0.1034  0.0072  0.4784
 7341SOL     OW33481   0.196   2.418   3.934  0.2325  0.2489  0.2911
 7341SOL    HW133482   0.115   2.414   3.983 -1.6000  0.1292 -2.7489
 7341SOL    HW233483   0.177   2.352   3.866 -2.3674  1.3119  0.0136
 7342SOL     OW33484   2.886   4.648   1.851 -0.4318  0.2149  0.0993
 7342SOL    HW133485   2.952   4.649   1.921 -0.9042  0.0629  0.5438
 7342SOL    HW233486   2.818   4.703   1.890 -0.5377 -0.4766  0.8847
 7343SOL     OW33487   0.171   2.359   0.228  0.2095 -0.1643 -1.2148
 7343SOL    HW133488   0.087   2.333   0.265  0.5886  1.4340  0.8123
 7343SOL    HW233489   0.195   2.423   0.295 -0.4056 -0.8375 -0.3572
 7344SOL     OW33490   4.072   3.909   8.643  0.1738 -0.2233  0.6550
 7344SOL    HW133491   4.150   3.880   8.596  1.0507  2.8102  0.2099
 7344SOL    HW233492   4.058   3.834   8.701 -1.1667 -1.0874 -0.7676
 7345SOL     OW33493   3.943   1.847   4.252 -0.1038 -0.6155 -0.3428
 7345SOL    HW133494   4.016   1.791   4.278 -0.5884 -0.9606  0.2841
 7345SOL    HW233495   3.974   1.900   4.179 -0.4277 -0.8854 -0.6776
 7346SOL     OW33496   0.986   3.854   4.564 -1.0584  0.4606 -0.1840
 7346SOL    HW133497   1.039   3.785   4.605 -0.7255  1.1744  0.5957
 7346SOL    HW233498   0.940   3.885   4.642 -1.5312  1.7323 -0.9703
 7347SOL     OW33499   4.411   2.997  13.035  0.1819 -0.3830 -0.1266
 7347SOL    HW133500   4.360   3.065  13.079 -1.7169 -2.9093  1.5753
 7347SOL    HW233501   4.454   3.039  12.960 -1.8597 -0.9174 -1.5808
 7348SOL     OW33502   4.226   1.453   0.634  0.1041 -0.3626  0.1276
 7348SOL    HW133503   4.279   1.424   0.560 -0.0969 -0.5496  0.0560
 7348SOL    HW233504   4.193   1.535   0.598  1.8515  0.0040 -0.6339
 7349SOL     OW33505   1.583   1.831   5.455  1.6989 -0.0421  0.5566
 7349SOL    HW133506   1.674   1.801   5.458  2.2193  1.5553  0.3658
 7349SOL    HW233507   1.598   1.925   5.458  1.0076  0.1022 -0.8295
 7350SOL     OW33508   1.360   2.611   5.352  0.2093 -0.3302 -0.5611
 7350SOL    HW133509   1.276   2.630   5.394  0.2342 -0.5149 -0.4268
 7350SOL    HW233510   1.360   2.515   5.352  0.6119 -0.3267  0.4411
 7351SOL     OW33511   2.552   0.666   7.000  0.1026 -0.3136  0.9342
 7351SOL    HW133512   2.593   0.640   7.082 -3.8035 -2.0712  2.3287
 7351SOL    HW233513   2.464   0.659   7.036 -0.0765 -2.9696 -0.0486
 7352SOL     OW33514   1.750   3.562   9.665  0.4658 -0.9302 -0.2519
 7352SOL    HW133515   1.750   3.524   9.577  0.9721 -2.1721  0.2842
 7352SOL    HW233516   1.659   3.550   9.692  0.3689  0.1812 -0.0925
 7353SOL     OW33517   3.297   0.618   3.707 -0.0694 -0.5530 -0.2446
 7353SOL    HW133518   3.315   0.663   3.624  0.2426  2.6461  1.5827
 7353SOL    HW233519   3.388   0.602   3.733 -0.0581  0.5889  0.4041
 7354SOL     OW33520   1.530   4.535  10.897  0.3240 -0.6096 -0.2127
 7354SOL    HW133521   1.595   4.511  10.963  1.7891  1.9150 -0.7541
 7354SOL    HW233522   1.528   4.630  10.905  0.3516 -0.4228 -2.4366
 7355SOL     OW33523   2.653   2.423   4.884  0.3451 -0.7946 -0.0706
 7355SOL    HW133524   2.724   2.400   4.944  0.9563  5.0218  1.3596
 7355SOL    HW233525   2.580   2.404   4.942 -1.1711  0.4755 -1.5919
 7356SOL     OW33526   1.150   4.262   2.126  0.5681 -0.0477 -0.1302
 7356SOL    HW133527   1.181   4.227   2.210  2.0363 -0.0784 -0.6742
 7356SOL    HW233528   1.199   4.344   2.133  0.8199 -0.1526 -0.6931
 7357SOL     OW33529   3.661   0.022   7.781 -0.3180 -0.0993 -0.0535
 7357SOL    HW133530   3.739   4.691   7.773  0.6589  1.0846  1.6127
 7357SOL    HW233531   3.609   4.682   7.832  0.3510 -1.8447 -1.4944
 7358SOL     OW33532   0.802   1.917   5.340 -0.9440 -0.7217  0.0453
 7358SOL    HW133533   0.770   1.997   5.299 -0.7726 -1.4290 -1.4555
 7358SOL    HW233534   0.787   1.843   5.281 -0.7435 -1.0167  0.3702
 7359SOL     OW33535   4.716   2.752   4.153 -0.1851  0.2624 -0.2894
 7359SOL    HW133536   0.055   2.713   4.090  1.0601  0.7486  0.6099
 7359SOL    HW233537   4.684   2.673   4.197  1.1597  1.2756  2.4832
 7360SOL     OW33538   2.665   0.677   4.834 -0.8178 -0.4666 -0.5876
 7360SOL    HW133539   2.586   0.688   4.780 -0.7529 -0.5882 -0.7073
 7360SOL    HW233540   2.643   0.615   4.903 -0.2487  1.7339  1.5461
 7361SOL     OW33541   3.871   4.286  14.507 -0.4452 -0.1999 -0.0161
 7361SOL    HW133542   3.840   4.291  14.417 -0.2359  0.9588 -0.0233
 7361SOL    HW233543   3.865   4.378  14.532  2.1366 -0.1483  0.4268
 7362SOL     OW33544   4.240   1.881  14.698  0.9085  0.0361  0.1359
 7362SOL    HW133545   4.322   1.922  14.725  0.7867 -0.7343  1.6920
 7362SOL    HW233546   4.264   1.788  14.693 -1.2766 -0.5011 -0.1486
 7363SOL     OW33547   2.167   4.336   3.454 -0.4590 -0.1054  0.4637
 7363SOL    HW133548   2.258   4.363   3.459 -0.4984 -0.0551  0.9307
 7363SOL    HW233549   2.175   4.242   3.466  3.0230 -0.0424 -1.6413
 7364SOL     OW33550   2.418   4.421   8.298  0.2135 -0.8629  0.4763
 7364SOL    HW133551   2.440   4.351   8.236 -2.7086  0.3591 -1.9226
 7364SOL    HW233552   2.491   4.483   8.290  1.3188 -2.4790 -2.1728
 7365SOL     OW33553   0.723   3.092  15.218 -0.3739 -0.1027  0.4982
 7365SOL    HW133554   0.797   3.063  15.271 -0.6067 -1.3507  0.1246
 7365SOL    HW233555   0.667   3.135  15.283  0.2350  1.0836  0.2493
 7366SOL     OW33556   2.349   2.324   6.125  0.0559 -0.4761  0.0625
 7366SOL    HW133557   2.302   2.245   6.153  0.3940 -0.4577  0.6698
 7366SOL    HW233558   2.386   2.360   6.205 -1.3654  1.8685 -0.3368
 7367SOL     OW33559   1.542   2.067  12.370  0.3208  0.1341 -0.3139
 7367SOL    HW133560   1.630   2.030  12.365  1.3155  2.3564  1.1110
 7367SOL    HW233561   1.487   2.001  12.329  0.8885 -0.9389  0.6397
 7368SOL     OW33562   4.660   3.526   6.328  0.4588  0.0369 -0.6040
 7368SOL    HW133563   4.688   3.528   6.236  1.8662 -2.0358 -0.2276
 7368SOL    HW233564   4.709   3.445   6.342 -1.1315 -0.8087  0.1079
 7369SOL     OW33565   0.540   2.945   0.353  0.0864  0.7918  0.6138
 7369SOL    HW133566   0.512   2.854   0.367  1.0257  0.3819 -0.1711
 7369SOL    HW233567   0.617   2.936   0.298  0.3696  2.1517  0.7825
 7370SOL     OW33568   4.215   4.555  14.149  0.6539  0.0666  0.3703
 7370SOL    HW133569   4.293   4.498  14.154  1.1309  0.6960  0.1283
 7370SOL    HW233570   4.248   4.644  14.162 -0.0362  0.6818 -2.0775
 7371SOL     OW33571   4.514   3.194   4.890  0.4606  0.3567  0.0192
 7371SOL    HW133572   4.553   3.142   4.960 -1.9384 -1.8804 -0.3059
 7371SOL    HW233573   4.451   3.246   4.940  0.8637 -1.8345  2.8080
 7372SOL     OW33574   1.201   3.086  17.464  0.1674  0.4791  0.1292
 7372SOL    HW133575   1.256   3.008  17.457  2.7545  2.3857 -0.4014
 7372SOL    HW233576   1.151   3.076  17.383 -0.7544  0.3830  0.7039
 7373SOL     OW33577   0.864   0.388   6.147  0.2637 -0.2542 -0.0669
 7373SOL    HW133578   0.905   0.458   6.197 -2.3775  0.9556  0.3974
 7373SOL    HW233579   0.840   0.327   6.217  0.3827 -1.5346 -1.1511
 7374SOL     OW33580   3.061   3.628   6.032  0.5462 -0.2703  0.9285
 7374SOL    HW133581   3.022   3.562   6.089  0.1035  0.0919  1.0419
 7374SOL    HW233582   2.989   3.691   6.031 -0.6580 -1.6974 -2.1941
 7375SOL     OW33583   1.882   1.904   3.813  0.5971  0.1353 -0.6878
 7375SOL    HW133584   1.901   1.926   3.722 -1.5183  2.1638 -0.6273
 7375SOL    HW233585   1.955   1.951   3.853  1.5167  0.7133 -3.0463
 7376SOL     OW33586   4.089   2.476   2.913  0.1737 -0.2747 -0.3994
 7376SOL    HW133587   4.088   2.433   2.827 -0.7445 -0.4060 -0.3150
 7376SOL    HW233588   3.995   2.479   2.927  0.6788  0.9854  2.7775
 7377SOL     OW33589   3.471   3.315   9.569  0.1749 -0.5773  0.1128
 7377SOL    HW133590   3.500   3.405   9.559 -2.1531  0.4425  2.4875
 7377SOL    HW233591   3.496   3.273   9.487 -0.2547  0.4885 -0.5549
 7378SOL     OW33592   2.317   3.690  16.026 -0.1702 -0.1437 -0.7385
 7378SOL    HW133593   2.381   3.635  15.981 -3.4033 -3.6113 -1.0168
 7378SOL    HW233594   2.369   3.771  16.028  0.4092 -0.5837  1.6970
 7379SOL     OW33595   3.394   2.977   5.841 -0.2046  0.3272  0.3918
 7379SOL    HW133596   3.442   2.928   5.908 -1.0278 -0.0103  0.7253
 7379SOL    HW233597   3.353   2.914   5.782 -3.0996  1.7684  0.8457
 7380SOL     OW33598   2.418   0.001   6.213  0.7465 -0.4467  0.1742
 7380SOL    HW133599   2.324   4.705   6.213 -0.0217  3.3434  0.4631
 7380SOL    HW233600   2.412   0.090   6.248  0.4725  1.1233 -3.8438
 7381SOL     OW33601   1.181   1.914  14.226 -0.9189 -0.2745  0.4566
 7381SOL    HW133602   1.185   1.914  14.131  1.9515 -0.4001  0.5841
 7381SOL    HW233603   1.091   1.888  14.248 -0.7103 -0.3434  1.2338
 7382SOL     OW33604   1.232   1.332   8.758 -0.3301 -1.0065 -0.6189
 7382SOL    HW133605   1.190   1.295   8.835  0.8914 -0.3327  0.3548
 7382SOL    HW233606   1.322   1.319   8.785 -0.0154 -1.7305 -1.9980
 7383SOL     OW33607   2.056   1.201   8.682  0.5656 -0.6759  0.3534
 7383SOL    HW133608   1.978   1.225   8.732 -0.7454 -0.7665 -1.6410
 7383SOL    HW233609   2.125   1.250   8.727 -1.5846  1.9945  0.6929
 7384SOL     OW33610   1.095   2.491  14.180 -0.5680 -0.8551 -0.7709
 7384SOL    HW133611   1.084   2.582  14.209  0.3497 -1.5380  1.7769
 7384SOL    HW233612   1.136   2.510  14.096  0.0051 -1.0991 -0.5495
 7385SOL     OW33613   1.996   1.023  14.037  1.0545 -0.0262  0.3728
 7385SOL    HW133614   1.947   0.947  14.067 -0.4283  0.8289  0.1160
 7385SOL    HW233615   1.984   1.026  13.942  2.7785 -0.9788  0.1171
 7386SOL     OW33616   0.105   3.116  11.224  0.2773 -0.1465 -0.0058
 7386SOL    HW133617   0.051   3.059  11.170  1.4216 -2.6301  1.4725
 7386SOL    HW233618   0.126   3.055  11.295  1.6182 -0.9927 -1.1172
 7387SOL     OW33619   2.064   1.580   8.941 -0.3023 -0.2352  0.3253
 7387SOL    HW133620   1.996   1.647   8.944 -1.2128 -1.0819 -1.1267
 7387SOL    HW233621   2.070   1.565   8.846  0.4671  1.4813  0.1007
 7388SOL     OW33622   2.644   0.119   3.694 -0.0588  0.2963 -0.4326
 7388SOL    HW133623   2.612   0.192   3.747 -3.4681 -1.8387  0.4321
 7388SOL    HW233624   2.651   0.165   3.610  0.5380 -0.4848 -0.8207
 7389SOL     OW33625   3.373   2.404   7.891  0.7476  0.3083  0.3649
 7389SOL    HW133626   3.449   2.427   7.837  2.2825  1.8180  3.1433
 7389SOL    HW233627   3.405   2.410   7.981 -1.2370 -0.2651  1.1164
 7390SOL     OW33628   1.133   3.215   7.238 -0.2247 -0.1891 -0.1520
 7390SOL    HW133629   1.201   3.236   7.174 -0.2385  1.9549  0.5466
 7390SOL    HW233630   1.078   3.148   7.196  2.0078 -3.3903  2.0326
 7391SOL     OW33631   1.144   2.227  16.732  0.0851 -0.2585 -0.4237
 7391SOL    HW133632   1.099   2.311  16.725 -3.0657 -1.8590  0.3917
 7391SOL    HW233633   1.089   2.158  16.695 -1.5190 -0.6859  2.7308
 7392SOL     OW33634   3.837   1.735  15.442 -0.6513  0.1532 -0.5041
 7392SOL    HW133635   3.931   1.720  15.436 -0.2515  2.9434 -1.4800
 7392SOL    HW233636   3.836   1.831  15.437  2.7085  0.2493  0.6423
 7393SOL     OW33637   4.528   0.470   9.787 -0.0090 -0.0098 -0.5167
 7393SOL    HW133638   4.480   0.441   9.865  0.4478 -0.6329 -0.4693
 7393SOL    HW233639   4.613   0.483   9.830  0.5306 -1.0269 -1.2949
 7394SOL     OW33640   0.095   0.160   3.597 -0.0446  0.1010 -0.7310
 7394SOL    HW133641   0.124   0.227   3.535  0.1365  0.9551  0.2685
 7394SOL    HW233642   0.174   0.105   3.597 -0.1021  0.0111 -1.9303
 7395SOL     OW33643   1.367   2.471   5.778 -0.0527  0.1486  0.2455
 7395SOL    HW133644   1.344   2.381   5.753  1.6480 -0.4740  0.9391
 7395SOL    HW233645   1.454   2.477   5.740 -0.4509 -2.3161 -1.0652
 7396SOL     OW33646   1.453   4.707   3.095  0.1180 -0.5895  0.3944
 7396SOL    HW133647   1.528   0.004   3.151  1.0893  0.6684 -1.3597
 7396SOL    HW233648   1.491   4.649   3.029 -0.1585  0.2997 -0.5512
 7397SOL     OW33649   1.188   1.193   8.512 -0.5484  0.2038  0.4245
 7397SOL    HW133650   1.194   1.247   8.591 -2.7206  0.1144  0.6522
 7397SOL    HW233651   1.262   1.133   8.517 -1.5606 -1.1218 -0.3841
 7398SOL     OW33652   2.980   0.310   2.439  0.2935 -0.0245 -0.0961
 7398SOL    HW133653   2.967   0.403   2.418  2.2815  0.6137  1.5442
 7398SOL    HW233654   2.888   0.290   2.424  0.2803 -0.2386  0.2806
 7399SOL     OW33655   1.830   2.635   2.534 -0.2180  0.0783 -0.0449
 7399SOL    HW133656   1.813   2.567   2.470 -3.0958 -0.3003  1.1328
 7399SOL    HW233657   1.743   2.674   2.540  0.1697  1.1083 -1.1701
 7400SOL     OW33658   1.684   2.483  15.072  0.3672 -0.2222  0.1520
 7400SOL    HW133659   1.742   2.414  15.041  1.8360  0.2229  1.8825
 7400SOL    HW233660   1.713   2.559  15.021  0.4585 -1.0531 -1.0287
 7401SOL     OW33661   1.998   4.230  15.321 -0.1344  0.0644  0.1761
 7401SOL    HW133662   1.930   4.197  15.263  0.8810  0.6503 -1.3498
 7401SOL    HW233663   1.976   4.323  15.327  0.3520  0.1988 -0.1019
 7402SOL     OW33664   4.373   0.819   4.729 -0.5353 -0.1077 -0.3219
 7402SOL    HW133665   4.432   0.787   4.661 -0.8456  0.2561 -0.7696
 7402SOL    HW233666   4.433   0.846   4.798  0.5382  0.0169 -1.3060
 7403SOL     OW33667   3.906   2.164   2.987  0.2535  0.2175 -0.3312
 7403SOL    HW133668   3.831   2.164   3.046  2.3512 -0.7008  2.3596
 7403SOL    HW233669   3.861   2.164   2.903 -3.3831  0.1521  1.6127
 7404SOL     OW33670   3.576   1.608  15.477 -0.7002  0.4139 -0.4869
 7404SOL    HW133671   3.578   1.561  15.394 -1.5657  0.1870 -0.3730
 7404SOL    HW233672   3.667   1.637  15.478 -0.7066  0.3498  1.0093
 7405SOL     OW33673   2.514   2.873   5.171 -0.7656 -0.0778 -0.0272
 7405SOL    HW133674   2.453   2.880   5.243 -0.7016 -1.7602  0.1935
 7405SOL    HW233675   2.513   2.965   5.142 -1.6167 -0.5817 -1.6023
 7406SOL     OW33676   0.306   2.483   5.062 -0.4495  0.7657  0.4537
 7406SOL    HW133677   0.311   2.395   5.100 -3.2933 -0.1820 -1.2737
 7406SOL    HW233678   0.228   2.463   5.009  0.8054  0.4843 -1.2685
 7407SOL     OW33679   0.111   2.558  10.876 -0.1828  0.1695 -0.3342
 7407SOL    HW133680   0.108   2.498  10.801  1.3650  0.6039 -0.7257
 7407SOL    HW233681   0.020   2.559  10.905  0.2777 -2.0223  1.2385
 7408SOL     OW33682   3.141   2.274   0.681  1.0619  0.2571 -0.1661
 7408SOL    HW133683   3.210   2.341   0.688  0.0900  0.9946  2.0615
 7408SOL    HW233684   3.122   2.288   0.588  0.3175 -0.1120 -0.0612
 7409SOL     OW33685   0.737   2.593   7.091  0.0954 -0.3930  0.3437
 7409SOL    HW133686   0.653   2.565   7.127 -0.4640  1.7896  0.7412
 7409SOL    HW233687   0.727   2.582   6.996  1.0439  1.3327  0.0430
 7410SOL     OW33688   3.873   1.807   1.366 -0.0757  0.5883  0.4418
 7410SOL    HW133689   3.945   1.749   1.341 -1.7209 -1.2380 -0.0894
 7410SOL    HW233690   3.802   1.745   1.346  1.3659 -0.9942  0.2485
 7411SOL     OW33691   2.964   1.878   2.893  0.3200  0.3239 -0.1103
 7411SOL    HW133692   3.057   1.892   2.875 -0.3802  2.4709 -1.9317
 7411SOL    HW233693   2.925   1.912   2.813  0.4848 -1.2225 -0.8623
 7412SOL     OW33694   2.013   4.080  11.679 -0.0363  0.8252  0.3995
 7412SOL    HW133695   2.085   4.038  11.724 -0.4692 -0.1125  0.2245
 7412SOL    HW233696   2.046   4.091  11.590  2.6423 -0.1515  1.2831
 7413SOL     OW33697   4.523   1.282   7.542  0.0507 -0.1770 -0.1702
 7413SOL    HW133698   4.429   1.264   7.538 -0.4901  2.3109  1.2995
 7413SOL    HW233699   4.530   1.368   7.503 -0.2520  0.2668  0.7438
 7414SOL     OW33700   0.468   0.296   5.088  0.1779  0.6320  0.1809
 7414SOL    HW133701   0.441   0.309   5.179 -0.7389 -1.5783  0.2260
 7414SOL    HW233702   0.380   0.290   5.053  0.2801  1.9464 -0.2740
 7415SOL     OW33703   1.929   2.793   3.712  0.1487 -0.0511 -0.5930
 7415SOL    HW133704   1.855   2.746   3.750 -0.4785  0.9932 -0.5061
 7415SOL    HW233705   1.981   2.819   3.788 -1.8076 -3.8252  2.0291
 7416SOL     OW33706   1.562   0.096  10.855  0.5441  0.0451  0.2925
 7416SOL    HW133707   1.633   0.154  10.828 -0.6333  1.0989 -0.4830
 7416SOL    HW233708   1.512   0.082  10.775  1.6854 -0.8091 -0.2697
 7417SOL     OW33709   3.041   1.039   6.640 -0.3837  0.2592 -0.1349
 7417SOL    HW133710   3.055   0.945   6.642 -1.7646  0.0381 -0.4952
 7417SOL    HW233711   2.987   1.051   6.562 -0.0627  0.9780 -0.2485
 7418SOL     OW33712   2.779   0.140   0.396  1.1902 -0.3621  0.3103
 7418SOL    HW133713   2.777   0.052   0.357 -0.6894  0.6068 -1.7789
 7418SOL    HW233714   2.688   0.168   0.402  0.8286 -1.0546 -1.8929
 7419SOL     OW33715   0.988   0.464  15.122  0.4265 -0.7870 -0.0130
 7419SOL    HW133716   1.036   0.476  15.204 -0.1666  2.0030 -0.0648
 7419SOL    HW233717   1.033   0.382  15.100  0.9749  0.4566 -3.4782
 7420SOL     OW33718   1.006   1.392   9.268  0.0021  0.0160  0.0453
 7420SOL    HW133719   0.957   1.445   9.331  2.6022 -0.0760  2.1452
 7420SOL    HW233720   0.977   1.304   9.291  0.3664  0.0055  0.4734
 7421SOL     OW33721   4.605   2.636  10.558 -0.0594  0.2459  0.6735
 7421SOL    HW133722   4.655   2.560  10.585 -2.8303 -0.7774  2.8994
 7421SOL    HW233723   4.652   2.709  10.598  2.1492 -0.4470 -0.6657
 7422SOL     OW33724   3.684   0.834   7.643 -0.1552 -0.7973  0.7905
 7422SOL    HW133725   3.633   0.800   7.716  0.7445  0.1289  1.8521
 7422SOL    HW233726   3.682   0.927   7.667  2.6187 -1.0360  2.0210
 7423SOL     OW33727   2.628   1.296   8.549  0.0648 -0.4006 -0.3417
 7423SOL    HW133728   2.659   1.226   8.492 -0.0284 -1.1399  0.5364
 7423SOL    HW233729   2.533   1.289   8.549 -0.0419  1.1684  0.7264
 7424SOL     OW33730   1.240   1.332  17.188  0.1754  0.6293 -0.1203
 7424SOL    HW133731   1.251   1.306  17.096  0.0249  2.3056 -0.6129
 7424SOL    HW233732   1.285   1.255  17.223 -0.4670  0.6682  0.7791
 7425SOL     OW33733   1.048   0.214   1.872  0.2427 -0.5621 -0.0716
 7425SOL    HW133734   1.049   0.310   1.872  2.3398 -0.5826 -0.0790
 7425SOL    HW233735   1.116   0.193   1.937  1.7251 -0.7352 -1.6726
 7426SOL     OW33736   4.550   0.173   8.656 -0.3221  0.0714 -0.1374
 7426SOL    HW133737   4.580   0.150   8.568 -2.0755 -0.4565 -0.6056
 7426SOL    HW233738   4.509   0.257   8.635 -1.4593 -0.8442 -1.6687
 7427SOL     OW33739   0.216   2.916  13.181  0.3481 -0.6882 -0.6632
 7427SOL    HW133740   0.170   2.928  13.264  4.6448  1.7105  1.4000
 7427SOL    HW233741   0.304   2.894  13.213 -0.2409 -3.2438 -0.8106
 7428SOL     OW33742   4.503   1.791   4.047  0.7915 -0.0340  0.7523
 7428SOL    HW133743   4.420   1.753   4.075 -0.8711  1.6350 -1.9993
 7428SOL    HW233744   4.554   1.711   4.062 -1.1876 -1.5526 -0.7040
 7429SOL     OW33745   1.199   2.512  12.857 -0.1433  0.0287  0.7505
 7429SOL    HW133746   1.130   2.483  12.917  0.2149  1.0544  1.6678
 7429SOL    HW233747   1.258   2.441  12.879  1.4209  0.9392 -0.5207
 7430SOL     OW33748   0.678   1.810   7.780  0.4982  0.2912 -0.3241
 7430SOL    HW133749   0.710   1.785   7.867  0.6238  0.2597 -0.3796
 7430SOL    HW233750   0.588   1.776   7.782  0.3930  0.7554  4.1099
 7431SOL     OW33751   2.720   1.226   3.529 -0.0199  0.2112  0.2127
 7431SOL    HW133752   2.797   1.183   3.492  0.0521 -0.5039  1.2117
 7431SOL    HW233753   2.735   1.224   3.624 -1.5167  0.0819  0.4447
 7432SOL     OW33754   2.347   3.040   7.730  0.3733 -0.2707 -0.2232
 7432SOL    HW133755   2.256   3.060   7.750 -0.2814 -1.1242 -2.3331
 7432SOL    HW233756   2.381   3.129   7.736  0.8034 -0.3404 -1.7409
 7433SOL     OW33757   4.582   3.038   6.899 -0.2420  0.3112 -0.1091
 7433SOL    HW133758   4.558   3.049   6.991  0.6329  1.4650 -0.0142
 7433SOL    HW233759   4.667   3.082   6.902  0.0457 -0.1569 -1.6736
 7434SOL     OW33760   2.537   0.176  15.146  0.5912 -0.0508  0.5237
 7434SOL    HW133761   2.469   0.158  15.210 -2.0717  0.4582 -2.1961
 7434SOL    HW233762   2.490   0.196  15.066  1.7193  2.3214  0.4362
 7435SOL     OW33763   0.830   4.199   8.472 -0.1583 -0.1368  0.0906
 7435SOL    HW133764   0.816   4.181   8.379 -0.5400 -1.2191  0.3604
 7435SOL    HW233765   0.926   4.192   8.473 -0.2123 -0.8584  0.3724
 7436SOL     OW33766   4.252   0.874   2.581  0.0543  0.2482  0.2551
 7436SOL    HW133767   4.298   0.805   2.532  1.3384  1.4603 -0.2357
 7436SOL    HW233768   4.237   0.941   2.514 -1.7297 -1.6793 -1.2650
 7437SOL     OW33769   3.081   0.847   7.893 -0.0536  0.1904  0.5233
 7437SOL    HW133770   3.133   0.770   7.913  0.9244  1.0291  1.1923
 7437SOL    HW233771   2.995   0.816   7.921  0.3398 -1.0724  0.3213
 7438SOL     OW33772   1.258   3.355  11.921  0.2785  0.0935  0.1306
 7438SOL    HW133773   1.310   3.401  11.988 -0.8487  3.4757 -1.3206
 7438SOL    HW233774   1.182   3.328  11.973  1.8861 -0.9972  1.9020
 7439SOL     OW33775   3.438   3.749   5.468 -0.3881  0.4497 -0.8139
 7439SOL    HW133776   3.531   3.729   5.457 -0.5892 -1.4141  0.8124
 7439SOL    HW233777   3.434   3.840   5.496  0.2872  1.0931 -2.8115
 7440SOL     OW33778   4.615   0.934  12.857  0.2239  0.4025 -0.0668
 7440SOL    HW133779   4.705   0.940  12.890  0.9077  0.8342 -1.9982
 7440SOL    HW233780   4.633   0.903  12.768  1.5888 -0.5889  0.5475
 7441SOL     OW33781   2.046   4.228   7.974  0.0368  0.1518  0.0720
 7441SOL    HW133782   2.036   4.319   7.946  2.2870  0.6469  0.7864
 7441SOL    HW233783   2.103   4.243   8.050  0.7240  2.8822 -0.9835
 7442SOL     OW33784   4.395   4.617   3.340  0.5457  0.0677  0.2510
 7442SOL    HW133785   4.473   4.656   3.378  1.8385 -3.1018  0.8477
 7442SOL    HW233786   4.427   4.547   3.283 -0.4178  0.0704 -0.2945
 7443SOL     OW33787   0.219   1.834   2.472 -0.3345  0.0964  0.4781
 7443SOL    HW133788   0.211   1.924   2.503  1.2529  0.8495 -1.3122
 7443SOL    HW233789   0.150   1.799   2.528 -1.9307  0.3092 -1.3408
 7444SOL     OW33790   3.226   3.474   9.372 -0.3777  0.2269 -0.3548
 7444SOL    HW133791   3.190   3.469   9.461 -2.6842 -2.2312 -1.4331
 7444SOL    HW233792   3.318   3.482   9.394 -0.2172  1.9810 -1.6520
 7445SOL     OW33793   1.438   3.100   5.694  0.0093 -0.0710  0.0556
 7445SOL    HW133794   1.509   3.061   5.643  0.9582  0.9240  0.6188
 7445SOL    HW233795   1.436   3.054   5.778 -2.0358 -2.8928 -1.5539
 7446SOL     OW33796   0.232   3.026   5.888 -0.1324  0.3803 -0.1349
 7446SOL    HW133797   0.179   3.029   5.968 -0.1896 -2.8464 -0.0544
 7446SOL    HW233798   0.266   3.115   5.873  1.9566 -0.2824  0.7124
 7447SOL     OW33799   3.597   1.053   9.684 -0.2329 -0.3580 -0.1774
 7447SOL    HW133800   3.623   1.124   9.625 -1.1050  0.3577  0.2945
 7447SOL    HW233801   3.674   1.042   9.740  0.5560 -0.7825 -1.3458
 7448SOL     OW33802   2.447   0.338   2.349  0.2418  0.2172 -0.5133
 7448SOL    HW133803   2.476   0.329   2.258  1.9991 -2.9450  0.3376
 7448SOL    HW233804   2.353   0.321   2.351  0.0963  1.0084 -0.3810
 7449SOL     OW33805   4.575   1.927   5.912  0.5407  0.4116 -0.2298
 7449SOL    HW133806   4.655   1.945   5.962  0.9339 -0.1717 -0.6358
 7449SOL    HW233807   4.530   2.009   5.930 -0.2906 -0.4208  1.4957
 7450SOL     OW33808   3.126   2.754   6.307 -0.2351  0.0621 -0.2489
 7450SOL    HW133809   3.106   2.661   6.297  0.0314  0.0835 -1.0060
 7450SOL    HW233810   3.042   2.798   6.291 -0.5359 -0.0203  1.1217
 7451SOL     OW33811   0.588   2.524   2.383 -0.1352 -0.1365  0.1683
 7451SOL    HW133812   0.521   2.571   2.432  0.8823  2.2793 -0.7368
 7451SOL    HW233813   0.524   2.485   2.324  1.2513  1.5172 -2.4406
 7452SOL     OW33814   2.999   1.356   2.748  0.2995 -0.4194 -0.0682
 7452SOL    HW133815   2.927   1.380   2.690 -0.2088  0.6848  1.0223
 7452SOL    HW233816   2.999   1.429   2.810 -2.1996 -0.6595  0.1790
 7453SOL     OW33817   0.440   2.862  16.080 -0.8060 -0.1800 -0.1845
 7453SOL    HW133818   0.451   2.768  16.094 -0.2850 -0.2091 -0.7569
 7453SOL    HW233819   0.513   2.903  16.126 -1.5985  0.1108  0.7934
 7454SOL     OW33820   3.082   3.331   9.010  0.5009  0.0445 -0.5332
 7454SOL    HW133821   3.087   3.423   9.037  0.5403  0.4528 -1.8884
 7454SOL    HW233822   3.029   3.324   8.930 -1.4957  0.9928  0.6990
 7455SOL     OW33823   0.869   1.728   4.917 -0.1872 -0.3875  0.0564
 7455SOL    HW133824   0.949   1.761   4.877 -2.0619  2.1688 -1.5632
 7455SOL    HW233825   0.870   1.637   4.887 -2.8580 -0.9529  1.7111
 7456SOL     OW33826   2.929   0.603   4.773 -0.3821 -0.1845 -0.2436
 7456SOL    HW133827   2.976   0.665   4.716 -0.6962  0.7670  0.5320
 7456SOL    HW233828   2.848   0.652   4.786 -0.3045 -0.5248  1.5022
 7457SOL     OW33829   1.674   1.827   7.057 -0.1580 -0.2853  0.5546
 7457SOL    HW133830   1.630   1.899   7.103  0.9556  0.3632  0.6223
 7457SOL    HW233831   1.635   1.841   6.971 -1.1793  1.0948  1.2396
 7458SOL     OW33832   1.145   3.537  15.715  0.7027  0.8912 -0.3748
 7458SOL    HW133833   1.105   3.618  15.683 -2.6806 -0.8807 -0.6807
 7458SOL    HW233834   1.232   3.570  15.734 -0.0020  1.2645  2.1211
 7459SOL     OW33835   2.917   0.656  17.449 -0.2555  0.4161 -0.0429
 7459SOL    HW133836   2.946   0.571  17.416 -1.7467 -1.1554  2.7801
 7459SOL    HW233837   2.999   0.694  17.482 -0.7580  0.6255  0.9534
 7460SOL     OW33838   4.069   4.664  14.503  0.2357  0.5922  0.0639
 7460SOL    HW133839   4.111   4.705  14.427 -0.5365  0.6541 -0.3241
 7460SOL    HW233840   4.067   0.019  14.559  2.2724  0.8564 -0.2162
 7461SOL     OW33841   4.028   0.012   1.914  0.6557 -0.3242 -0.2144
 7461SOL    HW133842   4.032   0.093   1.965 -0.3423 -0.4139 -0.0055
 7461SOL    HW233843   3.956   4.690   1.958 -0.0804  1.4667  0.3952
 7462SOL     OW33844   2.729   0.409  16.596  0.3384 -0.4041  0.4115
 7462SOL    HW133845   2.801   0.347  16.585  0.5520 -0.0579 -0.1414
 7462SOL    HW233846   2.668   0.381  16.527  1.3516 -1.8398  0.0869
 7463SOL     OW33847   4.168   3.422   2.614  0.3371 -0.4481 -0.3693
 7463SOL    HW133848   4.115   3.382   2.683  1.5197 -0.8409  0.3176
 7463SOL    HW233849   4.134   3.371   2.541 -2.0565  2.0231 -0.9759
 7464SOL     OW33850   1.897   1.331   6.023  0.3473  0.2014 -0.4524
 7464SOL    HW133851   1.842   1.406   5.999 -0.5175 -0.5072 -0.6687
 7464SOL    HW233852   1.877   1.268   5.954  0.9104 -1.2719  0.7310
 7465SOL     OW33853   0.159   1.919  15.199 -0.2379 -0.5740 -0.0231
 7465SOL    HW133854   0.129   1.828  15.197 -2.2710  0.0991 -0.5241
 7465SOL    HW233855   0.227   1.912  15.266  0.1999 -2.2588 -0.6470
 7466SOL     OW33856   3.965   0.759  10.255 -0.0866 -0.0023 -0.1126
 7466SOL    HW133857   3.980   0.852  10.236 -4.0733  0.7312  0.2641
 7466SOL    HW233858   3.958   0.722  10.167 -0.4442 -0.6995  0.2081
 7467SOL     OW33859   3.172   4.230   6.542 -0.1916 -0.6986  0.3361
 7467SOL    HW133860   3.087   4.199   6.512 -0.4571 -2.1828  2.6885
 7467SOL    HW233861   3.156   4.256   6.632 -3.1347 -2.2364  0.2282
 7468SOL     OW33862   3.614   2.426   6.694  0.1725 -0.2434  0.3887
 7468SOL    HW133863   3.551   2.448   6.762 -0.1874 -2.0813  0.6383
 7468SOL    HW233864   3.681   2.380   6.744  1.6042  0.2089 -1.0961
 7469SOL     OW33865   2.555   2.204   4.717 -0.3970  0.0430 -0.4181
 7469SOL    HW133866   2.482   2.200   4.655 -2.1599 -1.3560  1.7207
 7469SOL    HW233867   2.542   2.289   4.759 -1.6635  0.1477 -1.0345
 7470SOL     OW33868   3.523   3.212   8.957 -0.3525  0.6453  0.3715
 7470SOL    HW133869   3.481   3.289   8.919  0.7629  1.9472  1.7775
 7470SOL    HW233870   3.462   3.142   8.934 -1.8325  1.7072  1.0912
 7471SOL     OW33871   0.741   2.363   8.606  0.1421 -0.1695 -0.3875
 7471SOL    HW133872   0.690   2.422   8.551 -1.3314 -1.6548 -0.5943
 7471SOL    HW233873   0.790   2.427   8.658  1.8924 -0.4538 -1.6761
 7472SOL     OW33874   3.472   1.130  10.628  0.0078  0.2426 -0.1512
 7472SOL    HW133875   3.380   1.158  10.626  0.0731  0.4351 -0.4711
 7472SOL    HW233876   3.505   1.205  10.579 -0.1791  0.2246 -0.3042
 7473SOL     OW33877   1.973   3.918   7.678 -0.7067 -0.1924  0.0052
 7473SOL    HW133878   1.959   3.962   7.761  0.5396  1.0630 -0.4460
 7473SOL    HW233879   1.925   3.840   7.706 -1.6761 -0.1587 -1.5631
 7474SOL     OW33880   4.558   2.015   7.821  0.0126  0.5886 -0.2483
 7474SOL    HW133881   4.581   2.097   7.863 -1.3214  1.6029 -1.4866
 7474SOL    HW233882   4.472   2.024   7.780  0.7410  2.1937 -1.4301
 7475SOL     OW33883   3.303   1.194   3.396 -0.1088 -0.0026  0.2590
 7475SOL    HW133884   3.245   1.229   3.328  0.6488  2.3143  0.8242
 7475SOL    HW233885   3.359   1.271   3.406 -2.5291  1.4472  2.3992
 7476SOL     OW33886   2.155   0.152   1.887 -0.1254  0.0916 -0.2850
 7476SOL    HW133887   2.100   0.127   1.812 -0.4207 -0.2159  0.0318
 7476SOL    HW233888   2.200   0.231   1.857 -1.6988  1.1309  0.0983
 7477SOL     OW33889   3.532   0.376   5.641  0.5780 -0.2008 -0.4038
 7477SOL    HW133890   3.546   0.388   5.735  0.0103 -2.2384 -0.0762
 7477SOL    HW233891   3.621   0.393   5.609 -0.1513  0.0193 -2.3142
 7478SOL     OW33892   2.814   1.587   3.561  0.2631  0.2222 -0.2095
 7478SOL    HW133893   2.743   1.532   3.594  2.0850 -2.0920 -0.1391
 7478SOL    HW233894   2.879   1.524   3.531 -0.2680 -0.5690  0.3103
 7479SOL     OW33895   2.174   1.448  16.690  0.1842 -0.6675 -0.1352
 7479SOL    HW133896   2.171   1.525  16.746  1.2597 -0.5142 -0.2909
 7479SOL    HW233897   2.082   1.436  16.668  0.2897  3.8223 -2.8483
 7480SOL     OW33898   1.673   1.171  11.880  0.2819  0.2836 -0.5821
 7480SOL    HW133899   1.644   1.115  11.808 -3.2199  1.1570  0.1441
 7480SOL    HW233900   1.726   1.109  11.929 -0.8375 -0.0518  0.1901
 7481SOL     OW33901   2.836   1.261   2.068  0.2543  0.1578 -0.3313
 7481SOL    HW133902   2.922   1.302   2.079  0.4381 -0.2805 -0.1517
 7481SOL    HW233903   2.850   1.171   2.095 -2.7317 -0.4318 -0.6959
 7482SOL     OW33904   0.763   0.364  15.517 -0.0853 -0.2833  0.3223
 7482SOL    HW133905   0.831   0.332  15.458 -1.4251 -0.0684 -1.3757
 7482SOL    HW233906   0.705   0.288  15.523  1.2727 -1.1217  2.7429
 7483SOL     OW33907   3.996   0.953   1.235 -0.6018 -0.1111 -0.0355
 7483SOL    HW133908   4.050   1.030   1.251  0.0791 -0.1793 -1.9955
 7483SOL    HW233909   4.064   0.893   1.204  0.4379  0.2285  1.5866
 7484SOL     OW33910   3.683   2.815   7.208  0.0196  0.0193 -0.0724
 7484SOL    HW133911   3.702   2.905   7.179 -1.8787  1.1510  2.2408
 7484SOL    HW233912   3.641   2.832   7.292 -0.2598 -1.0413 -0.0021
 7485SOL     OW33913   4.391   0.987   0.610 -0.7393 -0.0020  0.5105
 7485SOL    HW133914   4.325   1.056   0.612 -1.1277 -0.3721  0.6035
 7485SOL    HW233915   4.333   0.911   0.624 -0.2927 -0.2520  0.9927
 7486SOL     OW33916   3.998   3.891   9.242  0.7975  0.4488  0.9008
 7486SOL    HW133917   3.993   3.959   9.308 -2.5176  1.5345 -0.4932
 7486SOL    HW233918   4.087   3.861   9.261  0.6586 -0.6099 -0.0512
 7487SOL     OW33919   3.543   4.318  13.454  0.0332  0.0659 -0.4367
 7487SOL    HW133920   3.587   4.396  13.488 -1.6460  0.3838  1.0056
 7487SOL    HW233921   3.575   4.311  13.363 -0.1068  0.0328 -0.4827
 7488SOL     OW33922   4.615   3.779   6.981  0.0322  0.2062  0.3288
 7488SOL    HW133923   4.694   3.823   7.010  0.1614  1.4264 -1.8582
 7488SOL    HW233924   4.644   3.689   6.963 -2.9976 -0.7844  0.4166
 7489SOL     OW33925   3.088   0.793   5.152  0.2446 -0.8414  0.4925
 7489SOL    HW133926   3.111   0.737   5.077  0.5286  0.6079 -0.4920
 7489SOL    HW233927   2.996   0.806   5.129  0.4005 -1.3636 -0.4542
 7490SOL     OW33928   0.437   1.726  14.223  0.5247 -0.0503 -0.6781
 7490SOL    HW133929   0.407   1.800  14.276 -1.3559 -0.8988 -0.5714
 7490SOL    HW233930   0.391   1.748  14.142  1.3463  0.2088 -1.0810
 7491SOL     OW33931   0.077   1.560  13.605 -0.2219  0.3529  0.5929
 7491SOL    HW133932   0.101   1.539  13.695  0.3480 -3.9920 -0.6036
 7491SOL    HW233933   0.035   1.476  13.584 -0.5637  0.3916  1.1124
 7492SOL     OW33934   2.735   0.827   3.292  0.0903  0.1385  0.0272
 7492SOL    HW133935   2.682   0.750   3.275 -1.1060  0.8410  0.5449
 7492SOL    HW233936   2.715   0.878   3.213  1.4735  1.3937  0.4727
 7493SOL     OW33937   4.289   0.337   3.646  0.1314 -0.6035  0.3887
 7493SOL    HW133938   4.304   0.242   3.638 -1.4435 -0.8668  0.6409
 7493SOL    HW233939   4.364   0.359   3.701  0.7734  2.6740 -1.8161
 7494SOL     OW33940   2.735   4.289   2.619  0.7093 -0.5654 -0.0371
 7494SOL    HW133941   2.662   4.334   2.663  1.2226 -2.6880  2.9445
 7494SOL    HW233942   2.721   4.199   2.646 -0.6158 -0.5320 -0.5876
 7495SOL     OW33943   0.456   4.169   5.056  0.0686 -0.1711 -0.0317
 7495SOL    HW133944   0.376   4.182   5.106 -0.3744 -0.6398 -0.6253
 7495SOL    HW233945   0.521   4.198   5.121  0.4723 -1.5908  0.1898
 7496SOL     OW33946   4.709   2.887  16.363 -0.3327 -0.0666  0.2284
 7496SOL    HW133947   4.666   2.953  16.416 -0.3759 -0.7049  0.9988
 7496SOL    HW233948   0.042   2.943  16.309 -0.1563 -2.0743 -1.7103
 7497SOL     OW33949   1.793   3.005  17.530 -0.1815 -0.7718  0.2531
 7497SOL    HW133950   1.823   3.027  17.618 -0.2864 -0.0694  0.1188
 7497SOL    HW233951   1.870   2.967  17.487 -0.0896 -1.1723  0.7789
 7498SOL     OW33952   4.082   0.403   3.883 -0.0408 -0.1261  0.1882
 7498SOL    HW133953   4.095   0.342   3.811  1.6386 -1.9356  2.0343
 7498SOL    HW233954   4.137   0.474   3.851  0.2403 -0.4435 -0.0208
 7499SOL     OW33955   2.797   1.397   7.671 -0.3132  0.2582  1.3156
 7499SOL    HW133956   2.720   1.440   7.708 -0.4947 -0.3147  1.5955
 7499SOL    HW233957   2.755   1.345   7.603  2.8588  0.7204 -1.0051
 7500SOL     OW33958   0.414   3.855  15.726 -0.0677 -0.3534 -0.2925
 7500SOL    HW133959   0.396   3.936  15.775  0.9104  1.3136 -2.6781
 7500SOL    HW233960   0.458   3.797  15.788  0.9064  0.5963 -0.0928
 7501SOL     OW33961   4.327   2.268   2.636 -0.3786 -0.3000 -0.5725
 7501SOL    HW133962   4.245   2.249   2.682  0.5396 -1.1833  0.7047
 7501SOL    HW233963   4.291   2.327   2.570 -0.4048  1.1215  0.7188
 7502SOL     OW33964   2.147   2.540  15.184 -0.0155  0.2259 -0.3817
 7502SOL    HW133965   2.190   2.461  15.152 -3.1539 -1.5299 -0.2402
 7502SOL    HW233966   2.061   2.502  15.206 -0.2906  0.2750 -1.3598
 7503SOL     OW33967   0.832   0.244  13.753  0.5677 -0.1526  0.4293
 7503SOL    HW133968   0.806   0.154  13.771 -0.5856  0.1227  0.1033
 7503SOL    HW233969   0.924   0.231  13.779  1.0475  1.0820 -0.6372
 7504SOL     OW33970   4.108   3.876   1.583 -0.0488 -0.3174  0.2217
 7504SOL    HW133971   4.169   3.901   1.513  1.0276  1.0786  1.6517
 7504SOL    HW233972   4.025   3.896   1.540  0.9022 -0.9275 -1.9123
 7505SOL     OW33973   0.233   1.564   2.781 -0.4322  0.5882 -0.6061
 7505SOL    HW133974   0.251   1.649   2.820 -0.4825 -1.1513  3.1868
 7505SOL    HW233975   0.180   1.592   2.706  1.2596  2.6976 -1.0204
 7506SOL     OW33976   3.758   2.611   7.585  0.1899  0.0710 -0.1375
 7506SOL    HW133977   3.803   2.625   7.502  1.9188  2.3270  1.1447
 7506SOL    HW233978   3.815   2.637   7.658 -1.8704  0.9656  1.1602
 7507SOL     OW33979   0.043   2.000  17.536 -0.0042 -0.5128 -0.6266
 7507SOL    HW133980   0.016   1.975  17.624 -1.4985  3.0012 -0.0876
 7507SOL    HW233981   0.130   2.027  17.567 -1.1411  2.0494  0.2950
 7508SOL     OW33982   4.354   0.948  11.017  1.0263 -0.0272  0.0143
 7508SOL    HW133983   4.320   1.011  10.953 -0.0024  1.8053  2.4011
 7508SOL    HW233984   4.444   0.964  10.989  1.5181 -0.9963  1.0753
 7509SOL     OW33985   2.763   4.150   6.287  0.2211  0.1514  0.0485
 7509SOL    HW133986   2.825   4.082   6.259  0.9822  0.7404  0.3125
 7509SOL    HW233987   2.735   4.122   6.374  0.9981  1.8850  0.8414
 7510SOL     OW33988   2.704   2.153   4.201 -0.8649  0.3068 -0.3014
 7510SOL    HW133989   2.644   2.137   4.128 -1.1821  1.4485 -0.2832
 7510SOL    HW233990   2.662   2.232   4.236  0.3322  0.5483  0.6130
 7511SOL     OW33991   0.780   4.486   4.915  0.0701 -0.4574  0.5278
 7511SOL    HW133992   0.717   4.520   4.979  0.0188  2.0992 -0.8897
 7511SOL    HW233993   0.833   4.566   4.908  0.7632 -0.7581  2.3488
 7512SOL     OW33994   0.391   1.874   1.481  0.2936  0.3415 -0.1850
 7512SOL    HW133995   0.386   1.928   1.402 -1.4313 -1.4237 -1.2991
 7512SOL    HW233996   0.486   1.866   1.487 -0.0942 -2.8710  1.8623
 7513SOL     OW33997   3.697   4.173  14.670  0.0838 -0.3707  0.1252
 7513SOL    HW133998   3.689   4.238  14.740  0.4024  2.0172 -2.0666
 7513SOL    HW233999   3.757   4.207  14.604  0.3968 -2.8524 -0.8579
 7514SOL     OW34000   4.277   3.134   8.131  0.3272 -0.2293 -0.1092
 7514SOL    HW134001   4.248   3.071   8.197  1.0657 -0.4280  0.0258
 7514SOL    HW234002   4.291   3.072   8.060 -1.5879  1.3081 -1.8151
 7515SOL     OW34003   0.476   2.870   5.268 -0.1810 -0.1429 -0.1500
 7515SOL    HW134004   0.452   2.882   5.176 -1.3063  1.7289  0.3920
 7515SOL    HW234005   0.480   2.958   5.305 -2.1424 -0.6669  1.3116
 7516SOL     OW34006   0.239   4.469   3.275  0.3372 -0.0990  0.0164
 7516SOL    HW134007   0.315   4.443   3.328 -1.3936 -0.2441  2.4434
 7516SOL    HW234008   0.210   4.385   3.240  0.8287 -0.3742  0.2738
 7517SOL     OW34009   3.217   1.088   3.638  0.4857 -0.0644  0.5712
 7517SOL    HW134010   3.292   1.056   3.689  0.1051 -0.7273  0.7041
 7517SOL    HW234011   3.263   1.092   3.554 -1.0122  0.8266 -0.1987
 7518SOL     OW34012   0.520   0.276   5.400 -0.5054  0.2699 -0.1923
 7518SOL    HW134013   0.561   0.191   5.415  0.2439  1.0676  2.3322
 7518SOL    HW234014   0.433   0.255   5.432  0.0021 -0.7080  0.5385
 7519SOL     OW34015   3.484   3.071   5.580 -0.0369 -0.1467  0.0246
 7519SOL    HW134016   3.437   3.008   5.526 -0.6181 -2.9383  3.8019
 7519SOL    HW234017   3.453   3.057   5.669  0.7117  1.9518  0.6088
 7520SOL     OW34018   3.920   0.514   2.831  0.0014  0.1759  0.0890
 7520SOL    HW134019   3.998   0.552   2.870 -0.7410 -0.0391  1.8038
 7520SOL    HW234020   3.954   0.493   2.744 -0.7916 -0.7901  0.0105
 7521SOL     OW34021   1.021   2.082   2.408 -0.2163 -0.2509  0.3164
 7521SOL    HW134022   1.034   2.024   2.482  0.5016  1.0238  1.1775
 7521SOL    HW234023   0.965   2.036   2.344 -0.3023 -0.0338  0.2332
 7522SOL     OW34024   1.642   0.614   6.977 -0.4753 -0.4036 -0.1198
 7522SOL    HW134025   1.646   0.662   7.060  1.7366 -1.1112  0.1917
 7522SOL    HW234026   1.610   0.527   7.001 -0.3755 -0.6059 -0.7161
 7523SOL     OW34027   1.549   2.828   5.632  0.3137 -0.2283  0.0443
 7523SOL    HW134028   1.552   2.773   5.554 -1.4687  2.1614 -1.6999
 7523SOL    HW234029   1.609   2.897   5.606 -0.3913  0.2208 -0.4018
 7524SOL     OW34030   1.049   0.811  15.267 -0.3236 -0.2163 -0.3684
 7524SOL    HW134031   0.971   0.844  15.311 -0.3243 -2.8426  1.5705
 7524SOL    HW234032   1.111   0.883  15.257 -0.4313 -0.0223  0.3613
 7525SOL     OW34033   2.896   0.984   5.302  0.0306 -0.1963 -0.0360
 7525SOL    HW134034   2.801   0.972   5.296  0.0000 -0.6741  1.3334
 7525SOL    HW234035   2.900   1.068   5.256  1.8015 -0.9586 -1.2960
 7526SOL     OW34036   3.897   2.771   5.378 -0.3308 -0.4122 -0.2550
 7526SOL    HW134037   3.823   2.825   5.407 -0.5300 -0.4293 -0.7356
 7526SOL    HW234038   3.891   2.770   5.283 -1.1899  2.3767 -0.2464
 7527SOL     OW34039   2.928   2.085  13.514 -0.0702 -0.0998  0.0384
 7527SOL    HW134040   2.947   2.085  13.420 -0.6787  2.6974 -0.0971
 7527SOL    HW234041   2.835   2.061  13.511 -0.3748  0.9755  0.7509
 7528SOL     OW34042   0.634   1.377  16.355 -0.5995 -0.0095 -0.1020
 7528SOL    HW134043   0.573   1.441  16.319 -0.8136 -0.0595  0.1693
 7528SOL    HW234044   0.672   1.421  16.432  1.6584 -1.2793 -0.4777
 7529SOL     OW34045   0.456   1.297   6.798 -0.2812 -0.7842  0.2108
 7529SOL    HW134046   0.437   1.292   6.892  0.3492 -1.2510  0.3128
 7529SOL    HW234047   0.403   1.374   6.777  0.3951 -0.4939 -0.4231
 7530SOL     OW34048   3.026   1.677   3.720 -0.3818 -0.6500 -0.4905
 7530SOL    HW134049   2.974   1.655   3.798 -3.5118  3.0904 -1.5501
 7530SOL    HW234050   2.963   1.641   3.657  0.2569 -1.1879 -0.8272
 7531SOL     OW34051   0.674   1.349   8.892  0.0838 -1.1652 -0.0911
 7531SOL    HW134052   0.685   1.403   8.970 -1.7713 -0.1239 -0.5626
 7531SOL    HW234053   0.681   1.414   8.822  1.2363 -0.6456  0.5081
 7532SOL     OW34054   4.323   0.759   6.377 -0.0414  0.0232  0.1417
 7532SOL    HW134055   4.266   0.810   6.320 -0.1414 -1.0135 -0.6866
 7532SOL    HW234056   4.405   0.757   6.327  0.3130 -0.2884  0.7376
 7533SOL     OW34057   2.879   0.551  11.972 -0.5654 -0.2737  0.7114
 7533SOL    HW134058   2.955   0.576  12.023  1.4050 -1.3291 -1.7386
 7533SOL    HW234059   2.891   0.572  11.879 -0.2406  0.0203  0.8198
 7534SOL     OW34060   0.380   3.460  15.056 -0.1005 -0.1047 -0.1933
 7534SOL    HW134061   0.473   3.441  15.059  0.3748  1.9032 -1.6346
 7534SOL    HW234062   0.378   3.466  14.960  0.4043 -1.8417 -0.3050
 7535SOL     OW34063   1.740   0.727   0.239 -0.0194 -0.5270  0.8792
 7535SOL    HW134064   1.778   0.640   0.225 -1.1393 -0.8153 -0.3329
 7535SOL    HW234065   1.649   0.700   0.247  0.7521 -2.4122  3.3759
 7536SOL     OW34066   4.042   1.920   4.002  0.4510  0.5515 -0.3454
 7536SOL    HW134067   4.131   1.888   4.011  0.7743  1.0507 -1.7864
 7536SOL    HW234068   4.018   1.862   3.929  1.4906 -2.1598  1.4933
 7537SOL     OW34069   3.764   1.735   3.444 -0.3029  0.0410  0.0524
 7537SOL    HW134070   3.725   1.745   3.357 -1.7258 -0.3598  0.6430
 7537SOL    HW234071   3.846   1.783   3.431  0.9899 -2.0175  0.5700
 7538SOL     OW34072   0.832   1.918   8.405 -0.2336 -0.2569 -0.2671
 7538SOL    HW134073   0.821   2.012   8.416 -0.3219 -0.4684  1.6168
 7538SOL    HW234074   0.837   1.903   8.311  0.0657 -4.1196  0.3579
 7539SOL     OW34075   3.491   4.460   2.779  0.1124 -0.1475 -0.0349
 7539SOL    HW134076   3.410   4.503   2.808  0.3536  1.4521 -1.7509
 7539SOL    HW234077   3.458   4.380   2.738  1.2122  0.8865 -2.9689
 7540SOL     OW34078   1.852   0.244   5.815 -0.3167  0.0988  0.2047
 7540SOL    HW134079   1.777   0.288   5.855 -0.6139  1.4169 -1.8180
 7540SOL    HW234080   1.845   0.153   5.842  3.0745 -1.3009 -3.6157
 7541SOL     OW34081   3.948   3.806  11.094  0.6962 -0.5828 -0.0326
 7541SOL    HW134082   4.009   3.878  11.110  0.4652 -0.6626  1.1586
 7541SOL    HW234083   4.009   3.753  11.041  0.0220  0.3225 -1.6964
 7542SOL     OW34084   4.607   3.894   9.183 -0.2687 -0.5809 -0.1877
 7542SOL    HW134085   4.578   3.803   9.186  0.9121 -0.8933  1.4224
 7542SOL    HW234086   4.584   3.922   9.272  1.4325  2.0541 -0.5963
 7543SOL     OW34087   0.109   3.593  10.401 -0.1910 -0.9282 -0.4961
 7543SOL    HW134088   0.163   3.638  10.466  0.0809 -1.6562 -0.2180
 7543SOL    HW234089   0.042   3.660  10.389  1.0356  0.4792  0.5559
 7544SOL     OW34090   2.010   2.536   7.352  0.6731  0.2436 -0.1984
 7544SOL    HW134091   2.082   2.544   7.415 -0.0745 -0.3585  0.7232
 7544SOL    HW234092   2.024   2.624   7.316  0.1649 -0.0211 -1.0474
 7545SOL     OW34093   2.872   2.150   3.210 -0.0414  0.1194 -0.4490
 7545SOL    HW134094   2.890   2.139   3.303  2.5164  0.2620 -0.9245
 7545SOL    HW234095   2.837   2.064   3.188 -3.2704  1.5811 -0.9874
 7546SOL     OW34096   4.294   2.559   9.794 -0.1978 -0.1346 -0.0751
 7546SOL    HW134097   4.366   2.498   9.808  0.0820  0.5510  1.4706
 7546SOL    HW234098   4.288   2.548   9.699 -0.5897 -1.1100  0.0690
 7547SOL     OW34099   2.658   2.295  12.328  0.5562  0.0538  0.7550
 7547SOL    HW134100   2.708   2.374  12.346 -1.9716  1.7198  0.4415
 7547SOL    HW234101   2.714   2.239  12.274  2.6732  1.2896  1.6931
 7548SOL     OW34102   0.102   0.164   1.274  0.4026  0.2232  0.3383
 7548SOL    HW134103   0.125   0.136   1.362  0.2294  0.5669  0.4914
 7548SOL    HW234104   0.144   0.095   1.221  0.3981 -0.2822  1.0003
 7549SOL     OW34105   0.843   2.974  12.720  0.0287 -0.0113 -0.3752
 7549SOL    HW134106   0.887   2.944  12.641 -1.2280 -0.2424 -0.9910
 7549SOL    HW234107   0.898   3.047  12.748  0.3841  0.0527 -1.2386
 7550SOL     OW34108   2.259   0.456   6.161  0.0189  0.2190 -0.3232
 7550SOL    HW134109   2.241   0.451   6.067  0.5041  1.9247 -0.5008
 7550SOL    HW234110   2.179   0.479   6.209 -0.8094  0.4255 -1.8178
 7551SOL     OW34111   0.394   4.667   2.082  0.3520 -0.0098 -0.4715
 7551SOL    HW134112   0.484   4.635   2.088  0.6122  1.1799  1.9935
 7551SOL    HW234113   0.367   4.643   2.170 -1.8850  1.6500 -0.7209
 7552SOL     OW34114   3.954   2.682   1.465 -0.1359 -0.2237 -0.0691
 7552SOL    HW134115   3.999   2.605   1.499  0.4656 -0.2083 -0.8275
 7552SOL    HW234116   3.920   2.650   1.382 -2.9769 -0.5947  1.2550
 7553SOL     OW34117   2.922   4.391  13.519 -0.2316  0.0429 -0.3417
 7553SOL    HW134118   2.840   4.434  13.496 -0.9022 -2.0584 -1.9055
 7553SOL    HW234119   2.988   4.458  13.533  0.5716 -0.4684 -1.6327
 7554SOL     OW34120   1.188   2.074  15.651  0.2713  0.4673  0.3444
 7554SOL    HW134121   1.177   2.105  15.561  0.5388  1.4580  0.6503
 7554SOL    HW234122   1.247   2.145  15.677  1.4642 -0.7209  0.8647
 7555SOL     OW34123   1.473   3.025   6.065  0.0372  0.0423 -0.1494
 7555SOL    HW134124   1.544   3.064   6.015  0.1453 -0.3364 -0.2914
 7555SOL    HW234125   1.411   3.010   5.994 -0.7129  2.3434  0.0181
 7556SOL     OW34126   2.640   3.400   7.132 -0.1618  0.0993  0.3250
 7556SOL    HW134127   2.575   3.332   7.116  1.3471 -0.7752 -2.0422
 7556SOL    HW234128   2.604   3.480   7.094 -0.9336 -1.5048 -2.3186
 7557SOL     OW34129   3.379   3.741   1.980  0.1850 -0.0126 -0.0599
 7557SOL    HW134130   3.305   3.775   1.929  0.7579  0.3240 -0.6667
 7557SOL    HW234131   3.450   3.747   1.916 -1.1955 -1.1287 -1.7348
 7558SOL     OW34132   1.980   4.180   7.229  0.0295 -0.4035  0.0483
 7558SOL    HW134133   1.950   4.116   7.165  0.0525 -0.9482  0.5840
 7558SOL    HW234134   2.053   4.221   7.183 -0.3359  1.0627  0.7432
 7559SOL     OW34135   2.708   4.660   5.104  0.1989  0.2590  0.3817
 7559SOL    HW134136   2.801   4.678   5.090  0.0264  1.4114  0.7138
 7559SOL    HW234137   2.686   0.012   5.161  0.1897  1.5194 -1.2702
 7560SOL     OW34138   0.897   4.519   9.010 -0.5760  0.7923 -0.2249
 7560SOL    HW134139   0.888   4.451   9.076  0.7233 -1.2893 -2.1816
 7560SOL    HW234140   0.811   4.515   8.969 -0.0587 -3.0492 -0.9206
 7561SOL     OW34141   1.239   0.098   2.096  0.7235 -0.1111 -0.5565
 7561SOL    HW134142   1.283   0.173   2.135 -1.1536  0.7738 -0.1741
 7561SOL    HW234143   1.210   0.047   2.172  0.9300 -1.1653 -1.1887
 7562SOL     OW34144   2.659   4.126   3.681 -0.1298  0.6023 -0.0956
 7562SOL    HW134145   2.731   4.137   3.744  0.4303  2.5593 -1.0744
 7562SOL    HW234146   2.599   4.076   3.736 -0.5293  1.5114  0.2962
 7563SOL     OW34147   4.572   4.165  17.374  0.0753  0.3731 -0.7622
 7563SOL    HW134148   4.548   4.164  17.281  0.3333  0.6424 -0.8303
 7563SOL    HW234149   4.662   4.134  17.369  0.5774  1.1830  3.4971
 7564SOL     OW34150   3.603   2.287  13.204  0.0966  0.0628  0.0310
 7564SOL    HW134151   3.640   2.331  13.127  3.0961 -1.5318  0.5655
 7564SOL    HW234152   3.626   2.352  13.271  0.1806  1.3539 -1.2620
 7565SOL     OW34153   2.842   3.611   9.800  0.9042  1.1469  0.0445
 7565SOL    HW134154   2.914   3.584   9.743 -0.2765 -1.3349 -0.2262
 7565SOL    HW234155   2.847   3.544   9.868 -0.5243  1.3286  0.3226
 7566SOL     OW34156   4.699   4.329   7.354  0.1295 -0.6543  0.2566
 7566SOL    HW134157   4.693   4.235   7.338 -2.6201 -0.4667  0.2434
 7566SOL    HW234158   4.616   4.336   7.401 -0.1207 -2.9454  0.1753
 7567SOL     OW34159   2.223   4.587   7.727 -0.3132  0.8370  0.3998
 7567SOL    HW134160   2.316   4.609   7.715  0.4290 -1.7265  1.3573
 7567SOL    HW234161   2.184   4.673   7.739 -2.8089  0.1345 -2.6865
 7568SOL     OW34162   4.111   0.889   4.459 -0.6068  0.2489  0.5130
 7568SOL    HW134163   4.192   0.928   4.424 -1.0281 -1.0522 -1.8940
 7568SOL    HW234164   4.050   0.927   4.396 -2.9902 -2.8318  0.9827
 7569SOL     OW34165   4.535   0.285   2.087 -0.0777  0.7641  0.1559
 7569SOL    HW134166   4.615   0.313   2.132  0.2775 -0.0966  0.0656
 7569SOL    HW234167   4.469   0.327   2.142  0.6353  1.9441  0.1090
 7570SOL     OW34168   4.267   0.873   3.697  0.0619 -0.3757  0.2117
 7570SOL    HW134169   4.234   0.933   3.630  1.0021 -0.8632 -0.6923
 7570SOL    HW234170   4.344   0.839   3.652 -0.4285 -0.6378 -0.4185
 7571SOL     OW34171   3.598   4.660  12.580  0.0452 -0.0833  0.4466
 7571SOL    HW134172   3.670   4.715  12.550  0.3168 -0.1559  0.9678
 7571SOL    HW234173   3.523   4.719  12.575 -0.7436 -1.3137 -2.2818
 7572SOL     OW34174   2.477   2.283   7.182 -0.3846  0.5219  0.0450
 7572SOL    HW134175   2.540   2.262   7.251  1.3371  1.6049 -1.2187
 7572SOL    HW234176   2.402   2.301   7.239  0.1180  0.6195  0.6673
 7573SOL     OW34177   3.700   0.058   9.878  0.0822 -0.7871  0.2430
 7573SOL    HW134178   3.752   0.129   9.917  2.9346 -2.0872 -1.1445
 7573SOL    HW234179   3.762   0.014   9.819  0.4208 -1.0460  0.7869
 7574SOL     OW34180   1.195   1.027  12.390 -0.1459  0.0650  0.1278
 7574SOL    HW134181   1.159   0.952  12.439 -1.5533 -1.0405 -2.5715
 7574SOL    HW234182   1.257   0.978  12.336  2.0077  1.9891  0.8927
 7575SOL     OW34183   4.302   4.675   8.716 -0.0030  0.0970  0.6322
 7575SOL    HW134184   4.387   4.719   8.714 -1.3656  2.7214  0.0996
 7575SOL    HW234185   4.324   4.606   8.778  2.8507 -1.0448 -1.6113
 7576SOL     OW34186   0.687   1.712  17.671 -0.1140 -0.2816 -0.9916
 7576SOL    HW134187   0.768   1.764  17.672  0.8164 -1.7275 -0.2255
 7576SOL    HW234188   0.695   1.696   0.074  1.0243  0.7451 -0.9077
 7577SOL     OW34189   1.764   3.484   9.081 -0.2704 -0.2006  0.0601
 7577SOL    HW134190   1.718   3.501   8.999  1.0357  0.1878 -0.5853
 7577SOL    HW234191   1.810   3.567   9.087 -2.2423  0.7410  2.1448
 7578SOL     OW34192   3.042   4.653   1.638 -0.3198 -0.3976 -0.3031
 7578SOL    HW134193   3.000   4.627   1.556  0.4006 -0.7266 -0.5772
 7578SOL    HW234194   2.979   4.626   1.705  0.0501  1.3994  0.7691
 7579SOL     OW34195   0.895   3.096   1.849 -0.2390 -0.5728  0.3038
 7579SOL    HW134196   0.936   3.165   1.796 -0.5769  0.0876  0.9010
 7579SOL    HW234197   0.926   3.113   1.938 -0.8275 -2.3119  0.8284
 7580SOL     OW34198   0.972   1.950  15.509 -0.4180  0.0096 -0.5191
 7580SOL    HW134199   0.888   1.995  15.521 -0.6808 -0.2084 -1.5255
 7580SOL    HW234200   1.028   2.009  15.458  0.7928 -1.1873 -0.5628
 7581SOL     OW34201   4.527   1.434   6.903  0.0845 -0.4235  0.3464
 7581SOL    HW134202   4.541   1.458   6.995  1.3940 -1.1084  0.3256
 7581SOL    HW234203   4.505   1.341   6.905 -1.5599 -0.0625 -1.1648
 7582SOL     OW34204   3.619   2.829   7.495 -0.2307  0.3234 -0.6052
 7582SOL    HW134205   3.661   2.905   7.535  1.0607 -0.9990  0.5434
 7582SOL    HW234206   3.656   2.753   7.541 -0.8971  1.2286  1.4482
 7583SOL     OW34207   1.197   3.463  16.072 -0.1848 -0.3207  0.4415
 7583SOL    HW134208   1.115   3.434  16.033 -0.2192 -0.4915  0.6470
 7583SOL    HW234209   1.230   3.509  15.994  1.7527 -1.2976  0.6944
 7584SOL     OW34210   2.964   4.273  13.804  0.2111 -0.3854 -0.0075
 7584SOL    HW134211   2.870   4.278  13.820 -0.1026 -1.1961 -1.5382
 7584SOL    HW234212   2.971   4.307  13.715 -0.4364 -1.1082 -0.3420
 7585SOL     OW34213   4.506   3.031   7.963 -0.3695  0.3907 -0.2735
 7585SOL    HW134214   4.507   3.119   7.927 -1.7054 -0.0317 -1.3676
 7585SOL    HW234215   4.581   2.999   7.914 -0.9563 -0.2667 -0.7457
 7586SOL     OW34216   0.541   1.028  13.707  0.7477 -0.0007 -0.2945
 7586SOL    HW134217   0.516   0.955  13.764  0.9765  1.6993  1.9589
 7586SOL    HW234218   0.589   1.082  13.769  0.8848  1.1434 -1.4093
 7587SOL     OW34219   2.568   3.482  17.647  0.0552 -0.4233 -0.0366
 7587SOL    HW134220   2.590   3.574  17.660 -1.2786 -0.1538  0.2907
 7587SOL    HW234221   2.606   3.457  17.563 -0.9298 -1.2894 -0.2313
 7588SOL     OW34222   3.314   4.690   2.901  0.1056 -0.0337 -0.2915
 7588SOL    HW134223   3.252   4.665   2.833 -3.5570  2.1928  2.2598
 7588SOL    HW234224   3.270   4.646   2.974  0.1671 -0.1536 -0.3274
 7589SOL     OW34225   0.372   3.755   8.377 -0.0325  0.1072 -0.1953
 7589SOL    HW134226   0.418   3.674   8.398 -1.1346 -0.4182  0.1859
 7589SOL    HW234227   0.302   3.752   8.442 -0.8320  2.9157 -0.9234
 7590SOL     OW34228   3.364   3.508  15.492  0.2496 -0.6662 -0.1026
 7590SOL    HW134229   3.428   3.578  15.504  0.3225 -0.8073  0.3519
 7590SOL    HW234230   3.396   3.469  15.410  0.6181  2.0236 -1.2429
 7591SOL     OW34231   0.124   0.495   0.393 -0.2703  0.4224 -0.1088
 7591SOL    HW134232   0.179   0.424   0.360  0.9419  1.1515  0.3540
 7591SOL    HW234233   0.173   0.531   0.467  0.4896 -0.4791 -0.1620
 7592SOL     OW34234   4.515   2.685   5.431  0.1349 -0.4490  0.0544
 7592SOL    HW134235   4.452   2.613   5.421 -2.1022  1.6377 -0.8112
 7592SOL    HW234236   4.510   2.684   5.527  3.2910 -1.4991  0.2255
 7593SOL     OW34237   0.795   0.654  11.499 -0.0101  0.7457 -0.5030
 7593SOL    HW134238   0.802   0.619  11.588 -1.3723 -1.4197 -1.2813
 7593SOL    HW234239   0.884   0.672  11.468  0.1828  1.2596  0.3320
 7594SOL     OW34240   1.145   0.463  11.344  0.2002  0.7641 -0.1078
 7594SOL    HW134241   1.085   0.487  11.274 -0.4733 -1.9315 -0.4533
 7594SOL    HW234242   1.120   0.371  11.350 -1.1060  1.1230 -0.0355
 7595SOL     OW34243   1.902   4.539  17.333  0.0829 -0.3290 -0.2244
 7595SOL    HW134244   1.933   4.510  17.419  1.6582  0.3347 -0.5855
 7595SOL    HW234245   1.974   4.514  17.277 -0.3138  1.2504 -1.4359
 7596SOL     OW34246   1.780   2.673  10.405 -0.4694 -0.3274 -0.2055
 7596SOL    HW134247   1.812   2.762  10.420 -0.1331 -0.7386  1.5352
 7596SOL    HW234248   1.838   2.618  10.458  0.7021  1.3034  0.2150
 7597SOL     OW34249   3.428   1.593   5.647  0.2553 -0.6747  0.4069
 7597SOL    HW134250   3.406   1.676   5.605  2.6454 -0.5202 -0.5365
 7597SOL    HW234251   3.410   1.609   5.740 -2.8039 -1.9213  0.0326
 7598SOL     OW34252   0.761   3.603   7.474  0.0263 -0.5271 -0.2258
 7598SOL    HW134253   0.849   3.628   7.445  0.3781 -0.2822  1.0390
 7598SOL    HW234254   0.710   3.671   7.431  0.0184 -1.0688 -1.0584
 7599SOL     OW34255   1.263   3.241  13.386  0.2378 -0.8136 -0.4908
 7599SOL    HW134256   1.268   3.200  13.300  0.8807 -1.8230  0.0390
 7599SOL    HW234257   1.266   3.335  13.365 -0.3422 -0.4581  1.0399
 7600SOL     OW34258   3.716   3.310  12.210 -0.2327  0.0553 -0.0922
 7600SOL    HW134259   3.766   3.373  12.262 -1.6260  0.4458  0.7616
 7600SOL    HW234260   3.630   3.335  12.243  1.2267  0.0893  3.6926
 7601SOL     OW34261   4.213   3.353   0.325 -0.9436  0.4132  0.4897
 7601SOL    HW134262   4.119   3.343   0.339 -0.6951 -1.7233  0.5773
 7601SOL    HW234263   4.230   3.279   0.267  2.4060  0.8474  0.8998
 7602SOL     OW34264   3.669   4.187   4.837 -0.2397 -0.1884 -0.5423
 7602SOL    HW134265   3.684   4.101   4.796 -1.1384  0.1144 -1.4937
 7602SOL    HW234266   3.611   4.224   4.770 -1.5053 -1.9090 -0.3929
 7603SOL     OW34267   1.676   3.878  16.478 -0.4300 -0.3331  0.0186
 7603SOL    HW134268   1.594   3.864  16.432  0.3613 -1.4316 -1.0902
 7603SOL    HW234269   1.717   3.935  16.413  1.3353 -1.7263 -0.0980
 7604SOL     OW34270   1.650   3.395   4.461  0.6366  0.5812 -0.1886
 7604SOL    HW134271   1.720   3.441   4.414 -1.0411  2.0729 -1.2190
 7604SOL    HW234272   1.667   3.303   4.442 -1.3151  0.2730 -0.4076
 7605SOL     OW34273   1.265   0.805   2.332  0.4800 -0.1924 -0.3267
 7605SOL    HW134274   1.358   0.827   2.338  1.1735 -3.4095  0.5426
 7605SOL    HW234275   1.245   0.858   2.254  1.1215 -1.0413 -1.0628
 7606SOL     OW34276   1.414   3.266   2.513  0.2007 -0.3971 -0.1833
 7606SOL    HW134277   1.508   3.250   2.521  0.5890  1.3733 -1.1888
 7606SOL    HW234278   1.409   3.360   2.528 -0.1068 -0.3717 -0.4588
 7607SOL     OW34279   2.994   2.549   3.930 -0.6905  0.3107 -0.1890
 7607SOL    HW134280   2.963   2.581   4.014  1.9662 -1.3417  1.4168
 7607SOL    HW234281   2.933   2.593   3.870  0.3238 -0.7474 -1.9918
 7608SOL     OW34282   1.849   4.224   5.949  0.4186 -0.2105  0.5913
 7608SOL    HW134283   1.900   4.144   5.937 -0.6104 -0.8496  0.5320
 7608SOL    HW234284   1.805   4.223   5.864 -1.2644 -0.4418  1.4707
 7609SOL     OW34285   2.708   1.537   5.448 -0.2125  0.2357 -0.4360
 7609SOL    HW134286   2.759   1.574   5.521 -0.4681  0.3050 -0.2943
 7609SOL    HW234287   2.713   1.444   5.470  0.4080  0.1746 -0.8309
 7610SOL     OW34288   3.375   4.366   8.005  0.4328  0.3012 -0.0094
 7610SOL    HW134289   3.289   4.381   7.966  0.0422 -0.7090  0.4618
 7610SOL    HW234290   3.360   4.369   8.100  1.5298 -0.6463  0.1904
 7611SOL     OW34291   1.876   0.441  11.308  0.4237  0.0510  0.4358
 7611SOL    HW134292   1.930   0.363  11.294  1.7408  0.8384  1.1007
 7611SOL    HW234293   1.870   0.471  11.217 -0.9164 -0.9378  0.1997
 7612SOL     OW34294   1.538   1.554  17.576 -0.6269 -0.3467  0.5367
 7612SOL    HW134295   1.474   1.624  17.594 -1.0864 -1.3874  3.0691
 7612SOL    HW234296   1.507   1.499  17.648 -2.6734 -1.0796 -0.9092
 7613SOL     OW34297   3.244   4.095   5.910 -0.0118 -0.8559 -0.2754
 7613SOL    HW134298   3.274   4.180   5.944 -1.9288  0.0012 -0.6886
 7613SOL    HW234299   3.223   4.116   5.819  1.8885 -0.7340 -0.6794
 7614SOL     OW34300   1.700   3.166   7.730 -0.2486  0.1154  0.0443
 7614SOL    HW134301   1.663   3.253   7.713 -0.0561 -0.0850 -1.4513
 7614SOL    HW234302   1.788   3.179   7.693  0.4770 -3.1063  0.6645
 7615SOL     OW34303   1.702   4.006   0.410 -0.5358  0.1499  0.0771
 7615SOL    HW134304   1.785   4.020   0.364  0.3865 -0.3112  1.5940
 7615SOL    HW234305   1.683   3.913   0.410 -0.6597  0.1678  1.9489
 7616SOL     OW34306   3.957   4.060   6.143  0.0591  0.0177  0.4447
 7616SOL    HW134307   4.037   4.067   6.195  1.0018 -0.7561 -0.8772
 7616SOL    HW234308   3.886   4.018   6.192  1.3240 -0.1362  2.1677
 7617SOL     OW34309   2.275   2.932  14.252  0.3018 -0.0060  0.0139
 7617SOL    HW134310   2.287   2.997  14.321  1.9750 -2.1801  1.7674
 7617SOL    HW234311   2.236   2.986  14.183  1.3668  1.2134  0.3650
 7618SOL     OW34312   0.074   1.856  16.307 -0.0394  0.0527  0.2356
 7618SOL    HW134313   0.078   1.762  16.289  1.1832 -0.2518  2.0821
 7618SOL    HW234314   0.103   1.892  16.223  1.2779 -1.6011 -0.0198
 7619SOL     OW34315   0.215   2.469  14.181  0.1253 -1.0980 -0.5768
 7619SOL    HW134316   0.152   2.489  14.111 -0.3967  0.4203  0.3193
 7619SOL    HW234317   0.186   2.519  14.257  0.3505  0.7052 -1.6868
 7620SOL     OW34318   2.278   3.354   4.492 -1.1794 -0.7624  0.1969
 7620SOL    HW134319   2.340   3.330   4.424  1.4196 -0.1250  2.3000
 7620SOL    HW234320   2.296   3.287   4.559  0.1288 -1.2548 -0.6436
 7621SOL     OW34321   4.593   4.487   4.379 -0.1737 -0.5374 -0.4686
 7621SOL    HW134322   4.661   4.492   4.311  0.7071 -0.9193  0.3934
 7621SOL    HW234323   4.604   4.396   4.407 -0.3922  0.3232  2.3427
 7622SOL     OW34324   0.003   1.541   9.735  0.6360  0.1604 -0.0650
 7622SOL    HW134325   0.084   1.518   9.781  1.5034  0.5446 -1.4126
 7622SOL    HW234326   4.655   1.510   9.792  0.0231 -0.3686 -1.1177
 7623SOL     OW34327   3.354   1.147  11.419 -0.5933 -0.5877 -0.1131
 7623SOL    HW134328   3.364   1.155  11.514 -2.5407  0.3719 -0.0017
 7623SOL    HW234329   3.444   1.118  11.400  0.2395  0.9667  1.4116
 7624SOL     OW34330   3.471   0.143  15.000 -0.1917 -0.9309  0.2714
 7624SOL    HW134331   3.398   0.151  14.938 -2.7339  1.6618  3.5948
 7624SOL    HW234332   3.479   0.233  15.031  0.4474 -0.8261 -0.2102
 7625SOL     OW34333   4.137   4.452  11.707 -0.4545  0.3271  0.0845
 7625SOL    HW134334   4.133   4.445  11.612  0.2328  2.5375 -0.1024
 7625SOL    HW234335   4.221   4.418  11.739  0.1751  2.7629  1.0046
 7626SOL     OW34336   4.437   2.463  12.091 -0.6450 -0.3599 -0.1535
 7626SOL    HW134337   4.414   2.383  12.044  1.0163 -0.7921 -0.2387
 7626SOL    HW234338   4.378   2.521  12.042  0.2446  1.7106  1.2036
 7627SOL     OW34339   1.009   2.091   7.402 -0.1920  0.5193 -0.1798
 7627SOL    HW134340   1.060   2.098   7.483  1.6437 -3.9384 -0.9208
 7627SOL    HW234341   1.071   2.049   7.341  1.5020  2.9087 -0.1019
 7628SOL     OW34342   1.484   3.433   7.234  0.3139 -0.1897 -0.0106
 7628SOL    HW134343   1.551   3.427   7.167 -0.0811  0.5977 -0.4779
 7628SOL    HW234344   1.495   3.521   7.272 -0.3165 -0.9741  1.9836
 7629SOL     OW34345   1.810   4.488   2.968 -0.3821 -0.1688 -0.2295
 7629SOL    HW134346   1.832   4.581   2.959  0.2717 -0.2145  0.8791
 7629SOL    HW234347   1.898   4.451   2.977 -1.6907 -3.1722  0.3012
 7630SOL     OW34348   3.807   3.257  15.345  0.5819 -0.5267 -0.3002
 7630SOL    HW134349   3.781   3.202  15.419 -2.8047  1.1099 -0.2623
 7630SOL    HW234350   3.771   3.210  15.270 -1.4928  0.1323  0.2867
 7631SOL     OW34351   1.330   2.259   3.779  0.0262 -0.5163  0.2667
 7631SOL    HW134352   1.319   2.241   3.686  0.6295 -3.3296  0.7712
 7631SOL    HW234353   1.322   2.355   3.785  1.6321 -0.2522 -1.8078
 7632SOL     OW34354   3.999   3.914   9.566  0.0646 -0.3026 -0.4980
 7632SOL    HW134355   3.980   4.004   9.541  0.8416  0.6766  2.3837
 7632SOL    HW234356   3.974   3.922   9.658 -0.2016  1.1073 -0.7067
 7633SOL     OW34357   1.248   0.861   3.988 -0.1782  0.5593  0.1779
 7633SOL    HW134358   1.161   0.852   4.027 -0.0738 -0.2308  0.2352
 7633SOL    HW234359   1.235   0.870   3.894  0.0756 -0.4439  0.0497
 7634SOL     OW34360   0.263   4.218   0.236 -0.0617  0.0683  0.0153
 7634SOL    HW134361   0.262   4.262   0.151 -0.6185  1.8472  0.9430
 7634SOL    HW234362   0.322   4.145   0.216  0.1146  0.1459  0.2503
 7635SOL     OW34363   0.357   4.164  11.346  0.2152 -0.2861  0.5858
 7635SOL    HW134364   0.362   4.243  11.292  0.3742 -1.6873 -1.4595
 7635SOL    HW234365   0.446   4.132  11.336 -0.2282 -1.7695  1.5003
 7636SOL     OW34366   0.012   4.114   6.282  0.7246  0.7413 -0.7486
 7636SOL    HW134367   0.105   4.104   6.261  0.6090 -1.1980 -0.3806
 7636SOL    HW234368   0.016   4.110   6.377 -0.0653  0.9836 -0.7063
 7637SOL     OW34369   3.953   3.533   7.047  0.0101  0.0927  0.0174
 7637SOL    HW134370   3.902   3.503   7.123 -2.4918 -1.7152 -2.3544
 7637SOL    HW234371   3.974   3.625   7.064 -3.3915  0.7975  0.4443
 7638SOL     OW34372   0.946   2.017   3.946  0.1640 -0.3623 -0.3745
 7638SOL    HW134373   0.895   1.938   3.930 -0.3212 -0.2738  0.7449
 7638SOL    HW234374   0.984   2.040   3.861  2.0616 -0.4920  0.4431
 7639SOL     OW34375   1.443   1.170   4.473 -0.1551  0.0135 -0.1327
 7639SOL    HW134376   1.517   1.230   4.483  0.4198 -0.5420 -1.0327
 7639SOL    HW234377   1.375   1.220   4.519 -0.9153  0.1837 -1.4292
 7640SOL     OW34378   3.537   4.330   7.431  0.2530  0.6302  0.4299
 7640SOL    HW134379   3.515   4.402   7.490 -2.9048 -0.2273  0.3206
 7640SOL    HW234380   3.545   4.365   7.342 -0.6459 -0.3105 -0.0182
 7641SOL     OW34381   4.098   2.886   3.100  0.3950  0.0187 -0.0313
 7641SOL    HW134382   4.084   2.981   3.100  2.4044  0.3287  0.1257
 7641SOL    HW234383   4.183   2.886   3.055  0.5370 -1.3596  0.2383
 7642SOL     OW34384   0.730   1.414   0.207  0.5760 -0.2324  0.3624
 7642SOL    HW134385   0.732   1.490   0.265 -0.5986  1.8285 -2.2969
 7642SOL    HW234386   0.653   1.365   0.236  0.2267  0.6745  0.9698
 7643SOL     OW34387   3.601   2.546   4.574 -0.0606  0.1659 -0.5492
 7643SOL    HW134388   3.648   2.561   4.492  0.4472  0.9046 -0.1187
 7643SOL    HW234389   3.574   2.455   4.560 -1.6093  0.7327 -1.2298
 7644SOL     OW34390   0.217   2.005   8.415  0.2616 -0.3968 -0.3571
 7644SOL    HW134391   0.251   1.996   8.504  1.4197 -2.0601 -0.9703
 7644SOL    HW234392   0.290   2.050   8.374 -0.3066  1.0753  0.2512
 7645SOL     OW34393   0.476   3.089   3.029 -0.4831  0.2639 -0.0879
 7645SOL    HW134394   0.396   3.126   3.065 -0.5657 -0.7954  0.8403
 7645SOL    HW234395   0.473   2.998   3.059 -0.5370 -0.4673 -2.3111
 7646SOL     OW34396   2.627   1.302   0.862 -0.1939  0.0056  0.1020
 7646SOL    HW134397   2.632   1.207   0.853  0.2733 -0.0470  0.8790
 7646SOL    HW234398   2.536   1.308   0.890 -0.2866 -2.8715  0.4120
 7647SOL     OW34399   0.158   1.798   9.595  0.2612  0.5457 -0.1017
 7647SOL    HW134400   0.204   1.814   9.678  2.2268 -1.2785 -0.8501
 7647SOL    HW234401   0.069   1.816   9.624  0.7924  0.1735  1.8058
 7648SOL     OW34402   4.698   2.003   9.115 -0.1332  0.3134 -0.3244
 7648SOL    HW134403   0.063   1.966   9.128  0.0365  0.8820  0.1823
 7648SOL    HW234404   4.689   2.055   9.195  0.7950  0.7481 -0.4967
 7649SOL     OW34405   1.751   0.717   5.351  0.1197  0.0676  0.4027
 7649SOL    HW134406   1.669   0.675   5.325  0.2413 -0.0215  0.1648
 7649SOL    HW234407   1.718   0.805   5.369  0.7066  0.4975 -0.6317
 7650SOL     OW34408   2.051   0.436   3.212  0.0856 -0.1754  0.7072
 7650SOL    HW134409   2.123   0.373   3.224 -0.2192 -0.6525 -0.0030
 7650SOL    HW234410   2.055   0.460   3.120 -0.5058  0.7703  0.9222
 7651SOL     OW34411   3.486   4.602   9.940 -0.0815  0.4971  0.3268
 7651SOL    HW134412   3.556   4.668   9.938 -0.2300  0.5824 -1.6631
 7651SOL    HW234413   3.485   4.569   9.851  0.6700 -1.2584  0.9661
 7652SOL     OW34414   1.288   3.792   4.462  0.1681 -0.3966  0.8395
 7652SOL    HW134415   1.368   3.821   4.417  1.2982 -1.0377  2.4365
 7652SOL    HW234416   1.228   3.770   4.391  0.8834  2.4635 -0.6773
 7653SOL     OW34417   4.092   2.659   6.701  0.8511  0.1712 -0.2331
 7653SOL    HW134418   4.095   2.755   6.701 -1.1345  0.2364  0.8353
 7653SOL    HW234419   3.997   2.648   6.689  0.7962  1.3563 -0.9108
 7654SOL     OW34420   1.176   1.044   5.361  0.7005 -0.1611  0.4775
 7654SOL    HW134421   1.253   1.041   5.419 -0.0284  1.3037  1.5205
 7654SOL    HW234422   1.103   1.047   5.422  0.1043  0.2570 -0.2629
 7655SOL     OW34423   2.599   3.328  10.747 -0.0285 -0.2230  0.0103
 7655SOL    HW134424   2.609   3.311  10.654 -2.5451  0.6364 -0.4212
 7655SOL    HW234425   2.690   3.352  10.766 -0.4049  1.0370  0.2460
 7656SOL     OW34426   1.914   2.220   5.439  0.3804  0.3250  0.3166
 7656SOL    HW134427   1.889   2.304   5.401 -1.7827 -0.0191  1.0068
 7656SOL    HW234428   2.009   2.228   5.432  0.4437 -0.5733  0.0977
 7657SOL     OW34429   0.094   4.034  15.907  0.9623 -0.1943  0.2839
 7657SOL    HW134430   0.188   4.042  15.892  0.8268 -1.0001 -1.0367
 7657SOL    HW234431   0.071   4.118  15.946 -0.7279 -2.1122  3.4021
 7658SOL     OW34432   3.061   4.137   5.707 -0.5094 -0.3255 -0.4902
 7658SOL    HW134433   3.112   4.151   5.627 -1.8613  0.1952 -1.2555
 7658SOL    HW234434   2.979   4.124   5.660 -0.4421 -0.5520 -0.5465
 7659SOL     OW34435   2.578   1.431  13.687 -0.1482 -0.4732  0.5733
 7659SOL    HW134436   2.489   1.438  13.652  0.4716  0.7802 -0.7306
 7659SOL    HW234437   2.580   1.349  13.737 -1.0484 -0.4897  0.5867
 7660SOL     OW34438   0.723   0.515   8.620 -0.1186 -0.3555  0.0081
 7660SOL    HW134439   0.809   0.489   8.588 -0.7868 -0.2314 -1.8841
 7660SOL    HW234440   0.678   0.431   8.612 -0.3079 -0.3023  0.4983
 7661SOL     OW34441   1.913   0.097   0.640  0.3303  0.7899 -0.9027
 7661SOL    HW134442   1.953   0.019   0.602  0.5893 -0.4670  2.0103
 7661SOL    HW234443   1.923   0.152   0.562 -0.7346 -1.4795 -2.6494
 7662SOL     OW34444   1.080   0.940  10.133 -0.2098 -0.0185  0.5625
 7662SOL    HW134445   1.134   0.911  10.059 -0.7565  2.5864 -0.8562
 7662SOL    HW234446   1.131   0.984  10.200  0.9664  0.4366 -0.6352
 7663SOL     OW34447   2.227   3.948  11.819  0.5455  0.1874  0.1083
 7663SOL    HW134448   2.301   4.007  11.828  1.0448 -0.6142  1.3340
 7663SOL    HW234449   2.204   3.952  11.912  0.9000 -0.7653  0.2404
 7664SOL     OW34450   1.839   2.974   5.359 -0.0195  0.8278 -0.5055
 7664SOL    HW134451   1.904   3.041   5.337  0.0143  1.4903  1.5945
 7664SOL    HW234452   1.851   2.910   5.290 -1.1094 -0.1916  0.2413
 7665SOL     OW34453   4.020   4.561   5.964  0.2896 -0.0025 -0.2491
 7665SOL    HW134454   4.032   4.654   5.942  0.8285 -0.2601 -1.0480
 7665SOL    HW234455   4.089   4.536   6.025  1.2550 -0.5940 -1.5723
 7666SOL     OW34456   0.578   4.383   4.712  0.2948  0.0138 -0.3411
 7666SOL    HW134457   0.597   4.423   4.627 -0.5244  1.0503 -0.0234
 7666SOL    HW234458   0.653   4.411   4.765  0.0264 -0.6567  0.3971
 7667SOL     OW34459   4.244   2.818   8.740  0.8109 -0.1321  0.4035
 7667SOL    HW134460   4.155   2.852   8.740  1.3950  1.4229  1.6331
 7667SOL    HW234461   4.294   2.899   8.728 -0.7487  0.6716 -0.6496
 7668SOL     OW34462   1.864   1.406   8.733  0.0448  0.1697  0.4875
 7668SOL    HW134463   1.801   1.391   8.803  0.8282 -3.1829  0.4413
 7668SOL    HW234464   1.859   1.502   8.733  0.1247  0.1733  1.3684
 7669SOL     OW34465   1.328   3.502   2.340 -0.5617 -0.0342 -0.1869
 7669SOL    HW134466   1.290   3.503   2.428  0.0381  1.1709  0.0489
 7669SOL    HW234467   1.368   3.586   2.318 -0.4833 -0.0532 -0.1161
 7670SOL     OW34468   0.692   4.207   1.379  0.2541  0.1956  0.1539
 7670SOL    HW134469   0.678   4.284   1.434  0.4386  0.7445 -0.5720
 7670SOL    HW234470   0.784   4.224   1.360  0.2711 -0.2792 -0.1901
 7671SOL     OW34471   2.908   0.351   8.064 -0.2866  0.2061  0.5881
 7671SOL    HW134472   2.839   0.307   8.013 -0.0358 -0.5420  0.9012
 7671SOL    HW234473   2.859   0.373   8.143 -2.2077  1.5980 -0.9633
 7672SOL     OW34474   0.965   3.889  14.203  0.3725  0.8610  0.0135
 7672SOL    HW134475   0.893   3.827  14.191  3.0111 -1.7502 -2.1334
 7672SOL    HW234476   1.047   3.839  14.199  0.5692  1.2648 -1.1504
 7673SOL     OW34477   1.971   2.801  12.802 -0.0737 -0.1375 -0.2138
 7673SOL    HW134478   1.964   2.895  12.818  0.5073  0.0628 -1.1175
 7673SOL    HW234479   1.886   2.762  12.822  0.5433 -1.0642  0.6484
 7674SOL     OW34480   1.125   4.115   0.865  0.1963  0.2852  0.2338
 7674SOL    HW134481   1.131   4.206   0.894 -1.1847  0.0870  1.1782
 7674SOL    HW234482   1.197   4.081   0.918 -0.2656  3.5440  2.9776
 7675SOL     OW34483   3.827   2.560   9.104  0.0069 -0.0194 -0.4705
 7675SOL    HW134484   3.883   2.485   9.086 -0.6344 -0.7623  0.6462
 7675SOL    HW234485   3.809   2.584   9.013 -1.5313  3.8208  0.8496
 7676SOL     OW34486   1.664   1.211   2.436  0.3018 -0.2107 -0.1734
 7676SOL    HW134487   1.720   1.236   2.509 -1.1156 -1.2986  1.2851
 7676SOL    HW234488   1.590   1.177   2.487 -0.2473  1.0599 -0.1092
 7677SOL     OW34489   0.510   3.130   8.884 -0.2366 -0.3925  0.3227
 7677SOL    HW134490   0.537   3.222   8.880 -1.3607 -0.0783 -0.1026
 7677SOL    HW234491   0.485   3.121   8.792  2.1443 -0.1576 -0.3510
 7678SOL     OW34492   2.509   1.157   3.929 -0.3265 -0.0775  0.2205
 7678SOL    HW134493   2.462   1.082   3.965 -0.0357 -1.2896 -1.9400
 7678SOL    HW234494   2.455   1.229   3.964  0.1506  1.2343 -1.7405
 7679SOL     OW34495   4.299   1.671   3.517 -0.1465  0.2783  0.4788
 7679SOL    HW134496   4.391   1.696   3.527  0.8693 -2.0814 -2.7108
 7679SOL    HW234497   4.286   1.617   3.595 -0.3493  1.1642  1.0573
 7680SOL     OW34498   1.872   4.435   7.577  0.7201 -0.2005  0.1963
 7680SOL    HW134499   1.863   4.422   7.482  0.0981  4.2435 -0.3650
 7680SOL    HW234500   1.962   4.405   7.589  1.0383 -0.2691 -2.3318
 7681SOL     OW34501   1.678   0.362   6.454 -0.2775 -0.1321  0.7370
 7681SOL    HW134502   1.647   0.376   6.543  1.8307  4.0469  0.8424
 7681SOL    HW234503   1.673   0.267   6.448 -0.0868 -0.1387  0.6829
 7682SOL     OW34504   0.572   1.977  16.027 -1.2539 -0.2470 -0.0846
 7682SOL    HW134505   0.532   2.016  15.949 -1.0156  0.3152  0.0822
 7682SOL    HW234506   0.662   1.978  15.993 -0.8359 -0.9801  1.0256
 7683SOL     OW34507   3.691   3.529  15.277 -0.2807  0.3129 -0.5356
 7683SOL    HW134508   3.650   3.569  15.354  0.8758 -1.1948  0.8557
 7683SOL    HW234509   3.628   3.458  15.263 -0.2917 -0.3889  3.0507
 7684SOL     OW34510   1.937   2.213  12.273 -0.0006  0.1772 -0.2269
 7684SOL    HW134511   1.957   2.126  12.309  1.7550  1.3021  1.5759
 7684SOL    HW234512   2.010   2.263  12.311  1.4167 -2.8188  1.0409
 7685SOL     OW34513   3.439   1.422  10.306  0.6508 -0.7063 -0.4120
 7685SOL    HW134514   3.475   1.423  10.394 -2.7850 -0.6240  0.9574
 7685SOL    HW234515   3.459   1.338  10.266  0.1779 -1.1162  0.2203
 7686SOL     OW34516   0.064   1.914   3.039  0.1950  0.2458 -0.7642
 7686SOL    HW134517   0.030   2.003   3.030 -0.1047  0.0287 -1.7919
 7686SOL    HW234518   4.707   1.860   3.043 -0.4967  1.4549  2.4081
 7687SOL     OW34519   3.924   3.196   1.812 -0.8508 -0.1534  0.1959
 7687SOL    HW134520   3.999   3.160   1.859 -0.8559  2.1234  1.9760
 7687SOL    HW234521   3.905   3.268   1.873 -1.8364 -0.5552  0.3705
 7688SOL     OW34522   1.830   0.546   6.169 -0.6317 -0.4077  0.0303
 7688SOL    HW134523   1.910   0.596   6.156 -0.4440 -0.2228  1.9719
 7688SOL    HW234524   1.772   0.607   6.215 -1.3247 -1.3902  0.4642
 7689SOL     OW34525   0.735   2.131   5.824  0.0381 -0.2317  0.3548
 7689SOL    HW134526   0.729   2.083   5.742  2.3858 -2.3822  1.4174
 7689SOL    HW234527   0.812   2.184   5.804 -0.2679  0.5769  1.2888
 7690SOL     OW34528   3.119   1.472   8.030 -0.0892  0.2230 -0.7120
 7690SOL    HW134529   3.072   1.507   8.105 -0.6188 -1.4254 -0.2842
 7690SOL    HW234530   3.064   1.512   7.962 -2.1582  1.3465  1.6053
 7691SOL     OW34531   2.001   3.448   8.312 -0.7397 -0.4727 -0.1569
 7691SOL    HW134532   2.031   3.437   8.402 -0.5329 -0.2763 -0.2012
 7691SOL    HW234533   1.919   3.496   8.322 -0.7479 -0.1824 -1.6186
 7692SOL     OW34534   3.113   2.552   0.835  0.2812 -0.1033 -0.2006
 7692SOL    HW134535   3.129   2.471   0.882  1.7117  0.0915 -0.3498
 7692SOL    HW234536   3.078   2.614   0.900 -1.1476  0.7916 -1.8058
 7693SOL     OW34537   2.010   1.899  15.426 -0.1041  0.3435  0.0015
 7693SOL    HW134538   2.081   1.835  15.421 -1.9614 -1.7071 -0.4546
 7693SOL    HW234539   1.995   1.914  15.333  2.6674  4.2970  0.2014
 7694SOL     OW34540   3.134   0.258  16.322 -0.8583  0.5241  0.2101
 7694SOL    HW134541   3.160   0.317  16.250 -4.2813  1.8664  0.0770
 7694SOL    HW234542   3.174   0.176  16.294 -0.6987  1.3039 -1.8974
 7695SOL     OW34543   1.421   3.881   3.544 -0.1387  0.1262 -0.4187
 7695SOL    HW134544   1.421   3.937   3.466  2.0712  1.1085  0.2753
 7695SOL    HW234545   1.465   3.802   3.513 -0.3170 -0.3451  0.5348
 7696SOL     OW34546   0.174   2.435  16.225  0.0713 -0.3488 -0.3839
 7696SOL    HW134547   0.084   2.401  16.225  0.6194 -1.7975 -0.6151
 7696SOL    HW234548   0.203   2.394  16.306  1.0608  0.8142 -0.1459
 7697SOL     OW34549   2.528   0.499  12.419 -0.2654  0.2837  0.2696
 7697SOL    HW134550   2.502   0.407  12.429  1.7375 -0.3242 -0.1903
 7697SOL    HW234551   2.620   0.488  12.395 -0.3330 -0.0812  0.1749
 7698SOL     OW34552   4.203   3.071   3.863 -0.0935  0.1505  0.4046
 7698SOL    HW134553   4.193   2.976   3.868 -1.1013  0.2955  1.1619
 7698SOL    HW234554   4.136   3.092   3.928  0.5276 -1.4330  1.5431
 7699SOL     OW34555   4.467   4.508  13.572  0.2443  0.5754 -0.4816
 7699SOL    HW134556   4.489   4.495  13.480 -1.7144  1.5072 -1.0925
 7699SOL    HW234557   4.545   4.469  13.611  1.7556  1.7388 -2.3314
 7700SOL     OW34558   1.746   3.106   4.509  0.5577 -0.0178  0.1619
 7700SOL    HW134559   1.804   3.046   4.556 -0.7409 -0.2545  1.4452
 7700SOL    HW234560   1.758   3.064   4.424  1.3537  1.1256 -0.2886
 7701SOL     OW34561   0.896   4.451   1.695 -0.3936  0.4198 -0.4483
 7701SOL    HW134562   0.972   4.428   1.642  1.5770  0.2969  2.3806
 7701SOL    HW234563   0.911   4.544   1.710 -0.0614  0.4344 -0.8922
 7702SOL     OW34564   2.151   4.002   0.067 -0.2766  0.6114  0.2883
 7702SOL    HW134565   2.158   3.976  17.667 -2.2968  1.0536  0.0045
 7702SOL    HW234566   2.222   3.951   0.106 -2.1004 -2.5016 -0.4370
 7703SOL     OW34567   1.603   3.352   8.448 -0.1818  0.0367 -0.1093
 7703SOL    HW134568   1.535   3.381   8.508  1.2238  1.4442  0.8092
 7703SOL    HW234569   1.598   3.257   8.458 -1.7349  0.0524 -0.7265
 7704SOL     OW34570   3.193   3.344   3.331 -0.7834 -0.1651 -0.2960
 7704SOL    HW134571   3.101   3.323   3.315 -0.8073 -0.1230 -0.2144
 7704SOL    HW234572   3.228   3.347   3.241 -1.2924  1.1538 -0.4447
 7705SOL     OW34573   3.096   3.117   9.149  0.5105 -0.3009 -0.1590
 7705SOL    HW134574   3.101   3.202   9.104  0.2947 -0.5421 -0.6356
 7705SOL    HW234575   3.172   3.129   9.206  0.1317  0.9652  0.0733
 7706SOL     OW34576   3.364   1.778   7.356  0.2769  0.0914  0.4214
 7706SOL    HW134577   3.403   1.783   7.443  1.2333 -0.2498  0.0070
 7706SOL    HW234578   3.278   1.800   7.392  0.2428  1.0244 -0.2271
 7707SOL     OW34579   1.993   2.402  10.777  0.0246  0.4150 -0.0117
 7707SOL    HW134580   2.027   2.369  10.860  1.5744  0.3805 -0.6651
 7707SOL    HW234581   1.902   2.372  10.784 -0.2800  1.4205  0.4120
 7708SOL     OW34582   3.638   3.916   6.687  0.3288  0.1874  0.0425
 7708SOL    HW134583   3.656   3.849   6.753  0.1475 -0.9174 -1.0532
 7708SOL    HW234584   3.703   3.887   6.623  0.8320  0.8057  0.2695
 7709SOL     OW34585   1.589   4.004  15.244 -0.3279  0.7047 -0.4497
 7709SOL    HW134586   1.658   3.979  15.305 -2.3342 -0.3133  1.4337
 7709SOL    HW234587   1.529   3.931  15.262 -0.4483  0.0409 -3.6928
 7710SOL     OW34588   1.416   1.223  10.408 -0.1770 -0.4893  0.4349
 7710SOL    HW134589   1.360   1.238  10.484 -1.4260  0.7383 -0.7204
 7710SOL    HW234590   1.473   1.300  10.406  2.7382 -2.6397 -0.5149
 7711SOL     OW34591   3.201   2.836  14.087 -0.3476 -1.0308 -0.3408
 7711SOL    HW134592   3.280   2.885  14.110 -1.8595  1.3194 -0.2128
 7711SOL    HW234593   3.153   2.900  14.035  0.5918  0.1039  0.1840
 7712SOL     OW34594   3.424   3.521  16.228  0.0667  0.6031  0.3996
 7712SOL    HW134595   3.379   3.555  16.305 -2.5147 -0.0183 -0.8528
 7712SOL    HW234596   3.357   3.534  16.160 -0.7516 -1.9431  0.7107
 7713SOL     OW34597   2.039   3.007   3.077 -0.1921  0.6700 -0.4669
 7713SOL    HW134598   2.065   3.065   3.006  0.8111 -1.1165 -1.5641
 7713SOL    HW234599   2.072   3.051   3.156 -1.1385  0.1454  0.2221
 7714SOL     OW34600   2.799   3.072   3.090  0.3953  0.5578  0.3229
 7714SOL    HW134601   2.782   3.003   3.026  1.0704 -0.3530  1.1245
 7714SOL    HW234602   2.718   3.074   3.141  0.6145 -0.4020  0.7096
 7715SOL     OW34603   2.199   1.687   4.028 -0.2882 -0.1220 -0.0390
 7715SOL    HW134604   2.238   1.631   4.095 -0.6708  1.3320  1.3943
 7715SOL    HW234605   2.206   1.640   3.945  0.8777  1.6414 -0.9381
 7716SOL     OW34606   0.264   3.625   3.181 -0.5450  0.1530 -1.1889
 7716SOL    HW134607   0.286   3.710   3.143  1.5800 -0.6641 -1.8307
 7716SOL    HW234608   0.178   3.610   3.142  0.2039  2.4597 -3.7415
 7717SOL     OW34609   2.775   0.503  12.291 -0.1248  0.1748  0.3726
 7717SOL    HW134610   2.847   0.448  12.258  0.4974  1.1927  0.0403
 7717SOL    HW234611   2.830   0.568  12.335  0.9792 -1.0459  0.8264
 7718SOL     OW34612   0.471   3.647  15.926 -0.1202  0.2418  0.2799
 7718SOL    HW134613   0.401   3.589  15.956  1.2211 -1.0695  0.8973
 7718SOL    HW234614   0.539   3.581  15.944  0.3945  0.5010 -0.6892
 7719SOL     OW34615   3.143   4.124  17.447 -0.0684  0.0021 -0.0382
 7719SOL    HW134616   3.050   4.125  17.469  0.0495 -1.1985  0.5446
 7719SOL    HW234617   3.146   4.102  17.354 -1.2246  1.7133 -0.4650
 7720SOL     OW34618   0.658   0.611   1.223 -0.1574  0.0802 -0.2185
 7720SOL    HW134619   0.733   0.622   1.281 -0.3324 -0.4609  0.1098
 7720SOL    HW234620   0.654   0.700   1.189  0.8483 -0.5517 -1.9530
 7721SOL     OW34621   2.930   2.316  13.031 -0.3983  0.3956  0.0011
 7721SOL    HW134622   3.014   2.333  12.990 -0.1942 -0.8387 -0.0903
 7721SOL    HW234623   2.860   2.339  12.970 -0.1965  0.5405 -0.1755
 7722SOL     OW34624   3.738   3.658   8.712  0.0568 -0.2931 -0.5017
 7722SOL    HW134625   3.709   3.727   8.772  2.4274  0.6300 -0.4429
 7722SOL    HW234626   3.827   3.654   8.746 -0.7824 -1.3151  1.6269
 7723SOL     OW34627   2.535   4.410   4.271  0.1648 -0.2085 -0.0196
 7723SOL    HW134628   2.526   4.322   4.235  1.0082  0.1108 -1.0303
 7723SOL    HW234629   2.630   4.409   4.280  0.0983 -1.0247  0.5849
 7724SOL     OW34630   0.179   4.457  14.671  0.7516 -0.2744  0.5116
 7724SOL    HW134631   0.125   4.488  14.598 -0.2533 -0.3249  1.2430
 7724SOL    HW234632   0.265   4.475  14.632  0.1628 -1.6696 -1.4618
 7725SOL     OW34633   3.536   1.812   9.612  0.2651  0.3444  0.1970
 7725SOL    HW134634   3.522   1.906   9.601  0.7826  0.6391  2.0587
 7725SOL    HW234635   3.444   1.785   9.605  0.3850 -0.1349  0.4800
 7726SOL     OW34636   2.498   3.466   6.157 -0.0491  0.3315 -0.2721
 7726SOL    HW134637   2.523   3.421   6.237  0.2407 -0.1136 -0.6159
 7726SOL    HW234638   2.546   3.549   6.158  0.9954 -0.2888  0.5869
 7727SOL     OW34639   0.546   0.425  13.008 -0.1100 -0.4714 -0.1989
 7727SOL    HW134640   0.593   0.454  12.930 -0.1791 -1.9049 -0.7799
 7727SOL    HW234641   0.473   0.377  12.969  0.1394 -1.7519  0.8944
 7728SOL     OW34642   1.881   1.192   6.261 -0.8554  0.5707 -0.2794
 7728SOL    HW134643   1.886   1.273   6.313  1.3196 -0.5320  1.2497
 7728SOL    HW234644   1.874   1.240   6.178 -1.2056  0.6139 -0.2231
 7729SOL     OW34645   1.662   3.057   3.159  0.2162 -0.1738 -0.6904
 7729SOL    HW134646   1.662   2.961   3.159  0.0313 -0.1721 -1.0881
 7729SOL    HW234647   1.683   3.068   3.067 -0.0270 -1.9273 -0.9444
 7730SOL     OW34648   2.535   2.459  15.832 -0.1297 -0.3316  0.4928
 7730SOL    HW134649   2.539   2.427  15.922 -1.3834 -1.1113  0.2665
 7730SOL    HW234650   2.496   2.388  15.781 -0.0919 -0.3453  0.4831
 7731SOL     OW34651   0.723   4.142   6.528 -0.4141 -0.0893  0.0047
 7731SOL    HW134652   0.631   4.133   6.502 -0.3635 -0.1891 -0.1419
 7731SOL    HW234653   0.738   4.062   6.578 -1.0496 -0.5732 -0.5629
 7732SOL     OW34654   1.803   1.930  12.352  0.0379 -0.4667 -0.0797
 7732SOL    HW134655   1.872   1.974  12.403 -0.0019  0.4506 -0.8109
 7732SOL    HW234656   1.770   1.855  12.401 -0.2659  0.7080  1.5243
 7733SOL     OW34657   4.002   0.384  10.478 -0.3262 -0.2287  0.2191
 7733SOL    HW134658   3.980   0.335  10.558 -0.0342  1.6172  1.4273
 7733SOL    HW234659   4.095   0.360  10.474 -1.0365 -2.7399 -1.2684
 7734SOL     OW34660   0.165   0.857   7.351  0.2218  0.5871  0.2749
 7734SOL    HW134661   0.102   0.804   7.303 -0.6607  1.1944  0.7705
 7734SOL    HW234662   0.109   0.881   7.425 -1.4389 -0.9589 -0.4877
 7735SOL     OW34663   3.723   1.622  14.254 -0.1121 -0.7396 -0.1167
 7735SOL    HW134664   3.680   1.565  14.317 -0.0438 -0.5644  0.0903
 7735SOL    HW234665   3.704   1.578  14.171 -1.4573  0.6648 -0.5525
 7736SOL     OW34666   1.402   2.995  13.988  0.5504  0.3872 -0.0570
 7736SOL    HW134667   1.311   3.022  13.971  0.7138  0.4978 -0.7574
 7736SOL    HW234668   1.412   2.993  14.083 -1.1287  3.6253  0.1900
 7737SOL     OW34669   0.984   2.502   6.131 -0.1834 -0.3252 -0.4284
 7737SOL    HW134670   1.076   2.525   6.124 -0.6326  1.9106  0.8945
 7737SOL    HW234671   0.956   2.566   6.196 -2.5961 -0.1798 -1.6192
 7738SOL     OW34672   1.967   2.858   7.579 -0.0547 -0.1519 -0.0147
 7738SOL    HW134673   1.885   2.838   7.534  0.8302  0.4022 -1.8512
 7738SOL    HW234674   1.993   2.931   7.523 -0.8822 -0.3403 -0.6372
 7739SOL     OW34675   3.305   2.653   2.907  0.2346 -0.4982 -0.1435
 7739SOL    HW134676   3.320   2.638   2.814  0.0951 -1.9295  0.0655
 7739SOL    HW234677   3.241   2.724   2.906  1.1148  0.2420 -2.4456
 7740SOL     OW34678   4.287   4.402   4.751 -0.3417  0.1466 -0.1025
 7740SOL    HW134679   4.321   4.489   4.768  0.2574 -0.0473 -0.3266
 7740SOL    HW234680   4.324   4.384   4.664 -1.9211  1.4247 -1.0466
 7741SOL     OW34681   2.790   2.471   3.341 -0.2093 -0.5382 -0.1975
 7741SOL    HW134682   2.739   2.481   3.261 -0.2244  2.4909  0.1852
 7741SOL    HW234683   2.868   2.432   3.302 -0.2156 -0.7401 -0.0086
 7742SOL     OW34684   0.085   1.415   3.579  0.3159 -0.4802 -0.0040
 7742SOL    HW134685   0.155   1.477   3.598 -1.7818  1.9838 -0.3448
 7742SOL    HW234686   0.086   1.427   3.484  0.2603  1.3710  0.2324
 7743SOL     OW34687   0.044   2.181   8.631 -0.1292 -0.0191  0.0299
 7743SOL    HW134688   0.003   2.132   8.703  0.2486 -2.8480 -1.7085
 7743SOL    HW234689   0.127   2.134   8.642 -0.4211 -0.2135  1.4154
 7744SOL     OW34690   2.886   0.180  16.401  0.3502 -0.3143 -0.3852
 7744SOL    HW134691   2.969   0.213  16.367  0.8775 -1.2516 -0.0293
 7744SOL    HW234692   2.918   0.166  16.491  2.0943 -1.4271 -1.1822
 7745SOL     OW34693   3.838   2.934   2.746  0.3858 -0.0363 -0.5490
 7745SOL    HW134694   3.753   2.899   2.773 -0.2716  0.2698 -2.2203
 7745SOL    HW234695   3.840   2.918   2.652 -0.1200  0.8826 -0.7231
 7746SOL     OW34696   0.453   2.567  16.085  0.1769  0.0160  0.1520
 7746SOL    HW134697   0.488   2.482  16.057 -1.3299 -0.5961  0.1206
 7746SOL    HW234698   0.376   2.542  16.136  0.6117 -2.4651 -0.3844
 7747SOL     OW34699   2.275   0.642   3.240  0.1213 -0.5238  0.1928
 7747SOL    HW134700   2.308   0.666   3.154  1.9349  2.0042  1.5819
 7747SOL    HW234701   2.234   0.558   3.221 -0.0597 -0.8753  2.1114
 7748SOL     OW34702   4.338   2.865   7.822 -0.0976 -0.0903 -0.0541
 7748SOL    HW134703   4.384   2.919   7.887 -1.0679 -1.1256  1.4892
 7748SOL    HW234704   4.411   2.807   7.800 -1.7977 -2.1004 -0.3143
 7749SOL     OW34705   2.599   2.477   8.987  0.5983 -0.4349  0.3039
 7749SOL    HW134706   2.553   2.522   9.058  1.7213 -1.0506  1.4368
 7749SOL    HW234707   2.687   2.513   9.003  1.4566 -1.4547 -2.0877
 7750SOL     OW34708   3.809   3.163   4.249  0.3206 -0.0899 -0.3477
 7750SOL    HW134709   3.854   3.244   4.272  2.1656 -1.6164  1.3487
 7750SOL    HW234710   3.867   3.097   4.286  2.5552  0.9537 -2.0332
 7751SOL     OW34711   0.157   2.236  14.591 -0.4516 -0.2249 -0.0077
 7751SOL    HW134712   0.199   2.242  14.505 -0.7268  1.1768 -0.0417
 7751SOL    HW234713   0.219   2.295  14.635  1.1822 -0.5214 -1.8790
 7752SOL     OW34714   3.604   1.507  14.040 -0.2273  0.5464  0.3523
 7752SOL    HW134715   3.589   1.546  13.954  1.6656 -0.7022 -0.5473
 7752SOL    HW234716   3.623   1.417  14.015 -2.4404 -0.9539  4.0134
 7753SOL     OW34717   0.649   3.566   7.716  0.1452  0.3748  0.0315
 7753SOL    HW134718   0.687   3.559   7.629  1.5768 -0.3447  0.7081
 7753SOL    HW234719   0.609   3.480   7.729  0.8882  0.0276  0.0315
 7754SOL     OW34720   3.026   0.354   6.589 -0.5630 -0.0824 -0.0054
 7754SOL    HW134721   2.983   0.395   6.514 -0.2945  0.8293  0.3501
 7754SOL    HW234722   3.075   0.285   6.545  0.2876 -1.6684  3.4228
 7755SOL     OW34723   1.652   2.832   8.581  0.3305  0.0120 -0.3181
 7755SOL    HW134724   1.652   2.827   8.676  0.7063 -3.7013 -0.5330
 7755SOL    HW234725   1.594   2.758   8.565  1.3662 -0.8215 -0.2253
 7756SOL     OW34726   2.777   4.495  16.224 -0.1681  0.4598  0.7098
 7756SOL    HW134727   2.783   4.419  16.282 -0.2652  1.1841  1.6618
 7756SOL    HW234728   2.717   4.459  16.158  0.1321 -0.0592  0.7220
 7757SOL     OW34729   3.013   2.391   3.180  0.5322 -0.4972  0.0931
 7757SOL    HW134730   2.978   2.302   3.180 -1.3432  0.2480 -0.0948
 7757SOL    HW234731   3.022   2.410   3.087  1.2498  0.6689  0.3933
 7758SOL     OW34732   2.703   2.340  10.575 -0.4784  0.4517 -0.0653
 7758SOL    HW134733   2.753   2.308  10.650  1.0192 -1.8538 -2.0550
 7758SOL    HW234734   2.711   2.435  10.581  0.4581  0.3837 -0.1450
 7759SOL     OW34735   0.238   2.247   7.046  0.1826 -0.3999  0.0639
 7759SOL    HW134736   0.204   2.175   6.993  0.6765  0.5901 -1.5868
 7759SOL    HW234737   0.301   2.197   7.099 -0.2376 -1.7124 -0.6660
 7760SOL     OW34738   1.095   1.110   6.059 -0.6076  0.8260  0.5122
 7760SOL    HW134739   1.177   1.093   6.012 -0.8977  2.2992 -0.5221
 7760SOL    HW234740   1.061   1.021   6.066  1.1221  0.0993 -0.1325
 7761SOL     OW34741   4.249   0.620   8.566  0.0317  0.4896  0.1109
 7761SOL    HW134742   4.286   0.708   8.574  0.3969  0.1686  1.8642
 7761SOL    HW234743   4.186   0.637   8.496 -0.1932  0.2706  0.2599
 7762SOL     OW34744   0.576   3.720   3.405 -0.4223  0.0446 -0.6930
 7762SOL    HW134745   0.662   3.726   3.447 -0.4979 -0.2305 -0.5004
 7762SOL    HW234746   0.581   3.781   3.331  1.2577  0.3301 -0.3659
 7763SOL     OW34747   3.758   4.331   6.859 -0.6201  0.2526  0.3741
 7763SOL    HW134748   3.808   4.389   6.802 -1.6896 -0.4456 -1.2686
 7763SOL    HW234749   3.794   4.246   6.834  0.3825  0.1593  2.0844
 7764SOL     OW34750   2.553   0.334  16.415  0.3298  0.0861 -0.0866
 7764SOL    HW134751   2.499   0.260  16.444  1.5505 -0.8967 -0.3201
 7764SOL    HW234752   2.533   0.340  16.322 -0.9506  1.2574  0.2708
 7765SOL     OW34753   4.446   3.766   8.282 -0.4245  0.3310 -0.3686
 7765SOL    HW134754   4.536   3.770   8.313 -1.2640  0.1426  2.1430
 7765SOL    HW234755   4.447   3.827   8.208  0.6468  0.9215  0.1331
 7766SOL     OW34756   2.239   3.516   8.220  0.3262 -0.1573  0.3700
 7766SOL    HW134757   2.208   3.606   8.219 -0.4370 -0.4046  0.9081
 7766SOL    HW234758   2.159   3.479   8.259 -0.5949  0.9156 -0.5185
 7767SOL     OW34759   4.207   3.403   4.980  0.0015  0.2949  0.3494
 7767SOL    HW134760   4.189   3.471   4.915 -0.2122 -1.2634 -1.2390
 7767SOL    HW234761   4.129   3.347   4.970  0.4123  0.0174 -1.2477
 7768SOL     OW34762   1.215   3.639   8.096  0.4911 -0.3961 -0.2997
 7768SOL    HW134763   1.134   3.684   8.073  0.2786 -0.4411  0.3556
 7768SOL    HW234764   1.181   3.575   8.158  0.9553  0.0426  0.4065
 7769SOL     OW34765   0.889   0.070   8.961  0.4783  0.1941  0.0333
 7769SOL    HW134766   0.797   0.070   8.936  0.5865 -0.0876 -0.3609
 7769SOL    HW234767   0.904   4.698   8.969  1.5616  0.1576 -2.5121
 7770SOL     OW34768   2.070   3.786   2.691 -0.2787 -0.3843 -0.2046
 7770SOL    HW134769   2.086   3.691   2.691 -1.4285 -0.5832 -0.7008
 7770SOL    HW234770   1.977   3.786   2.715 -0.2531 -1.9194 -0.1056
 7771SOL     OW34771   4.586   4.721   7.629  0.9238 -0.1866  0.2338
 7771SOL    HW134772   4.552   0.034   7.711  0.7945 -1.8142  0.8736
 7771SOL    HW234773   4.669   4.683   7.658  0.8067 -0.0263  0.7667
 7772SOL     OW34774   1.679   4.119   7.871  0.1271 -0.2277  0.0369
 7772SOL    HW134775   1.771   4.103   7.850 -0.1853 -0.1892 -1.3897
 7772SOL    HW234776   1.634   4.120   7.786  0.7325 -2.2048 -0.3036
 7773SOL     OW34777   3.663   3.745   4.349  0.1827 -0.9473 -0.3744
 7773SOL    HW134778   3.755   3.767   4.356  0.3133 -1.9366  1.0514
 7773SOL    HW234779   3.618   3.826   4.323  0.6137  0.0806  2.1655
 7774SOL     OW34780   1.709   0.877   2.536  0.2079 -0.0131 -0.0680
 7774SOL    HW134781   1.676   0.838   2.456 -0.5599 -1.5150  0.9888
 7774SOL    HW234782   1.798   0.898   2.508 -0.3742  0.6211 -1.4430
 7775SOL     OW34783   1.326   1.483   6.016 -0.3521 -0.0699 -0.2498
 7775SOL    HW134784   1.262   1.427   5.973 -1.3707  1.1414 -0.2802
 7775SOL    HW234785   1.379   1.516   5.943  0.7489 -0.0892  0.5304
 7776SOL     OW34786   4.352   2.642   4.735  0.3229 -0.0488 -0.2616
 7776SOL    HW134787   4.356   2.689   4.818  0.5200  0.5452 -0.6017
 7776SOL    HW234788   4.446   2.627   4.721  0.0622 -2.8993  1.0311
 7777SOL     OW34789   1.441   0.180   1.227 -0.2887 -0.3646  0.4538
 7777SOL    HW134790   1.492   0.250   1.268 -0.1539 -0.9114  1.2396
 7777SOL    HW234791   1.491   0.167   1.147 -1.1031 -3.0972  0.3729
 7778SOL     OW34792   4.354   2.449   3.833  0.3000  0.0991 -0.9239
 7778SOL    HW134793   4.261   2.425   3.821  0.6486 -1.0999 -1.2583
 7778SOL    HW234794   4.362   2.422   3.924 -0.5271 -1.0463 -1.1783
 7779SOL     OW34795   0.731   0.580  14.420  0.0064 -0.1029 -0.0106
 7779SOL    HW134796   0.702   0.540  14.338 -2.5730  0.3028  0.6753
 7779SOL    HW234797   0.707   0.670  14.399  1.4127  0.0942 -0.7661
 7780SOL     OW34798   3.501   4.406   8.307 -0.0593  0.7247 -0.0958
 7780SOL    HW134799   3.558   4.392   8.383 -0.9425 -0.4946  0.3354
 7780SOL    HW234800   3.417   4.363   8.325  0.3550  0.1336  0.4416
 7781SOL     OW34801   2.984   1.527   9.125 -0.1622 -0.7655  0.8287
 7781SOL    HW134802   3.048   1.481   9.179  0.2168  0.1815  1.1782
 7781SOL    HW234803   2.943   1.458   9.072  1.1878 -0.1091 -1.0882
 7782SOL     OW34804   4.161   4.342   4.099  1.0907  0.2723  0.5673
 7782SOL    HW134805   4.205   4.297   4.026 -1.3794  0.0535 -0.7855
 7782SOL    HW234806   4.238   4.389   4.130  0.9256 -0.2521  1.7479
 7783SOL     OW34807   4.232   1.614  14.890 -0.3995 -0.0332 -0.1053
 7783SOL    HW134808   4.321   1.649  14.886 -0.9905  1.5861  0.7990
 7783SOL    HW234809   4.241   1.524  14.860  0.4124 -0.0850  0.2807
 7784SOL     OW34810   2.149   4.553   3.202  0.0312 -0.2566  0.3505
 7784SOL    HW134811   2.059   4.568   3.230  0.2008 -0.8780  1.2401
 7784SOL    HW234812   2.191   4.526   3.284 -1.4257  0.5708  1.3673
 7785SOL     OW34813   0.557   2.139   5.397  0.4624 -0.1151  0.6840
 7785SOL    HW134814   0.464   2.159   5.387  0.5536  0.2747  0.6166
 7785SOL    HW234815   0.584   2.161   5.307 -1.1597  0.3066  0.2937
 7786SOL     OW34816   1.351   2.382   8.091 -0.1294 -0.2868  0.1977
 7786SOL    HW134817   1.256   2.381   8.088 -0.1655 -0.1383  1.2938
 7786SOL    HW234818   1.364   2.432   8.171 -1.7361 -0.0611  0.3093
 7787SOL     OW34819   3.462   0.442   7.766  0.4352 -0.1924 -0.5628
 7787SOL    HW134820   3.557   0.428   7.765  0.2568 -1.3877 -0.0723
 7787SOL    HW234821   3.426   0.382   7.830  1.3015  0.2788  0.3647
 7788SOL     OW34822   0.691   2.491   6.427 -0.1074 -0.1867 -0.8698
 7788SOL    HW134823   0.641   2.572   6.414  0.3776  0.0784 -1.1006
 7788SOL    HW234824   0.776   2.518   6.392  0.5313  0.8774  1.4415
 7789SOL     OW34825   2.393   0.040   3.227 -0.4283 -0.0731 -0.8105
 7789SOL    HW134826   2.328   4.692   3.229  0.9750 -1.3532 -0.2094
 7789SOL    HW234827   2.472   0.005   3.270 -0.3823  1.0816  0.0423
 7790SOL     OW34828   0.167   4.288   5.912  1.1123  0.0272 -0.0171
 7790SOL    HW134829   0.134   4.320   5.829 -1.9564 -0.9211  0.8381
 7790SOL    HW234830   0.086   4.294   5.962  1.7731 -1.3014  1.2192
 7791SOL     OW34831   0.376   2.109   7.603  0.1226  0.1163  0.2278
 7791SOL    HW134832   0.389   2.167   7.678  0.9517 -0.2973  0.3969
 7791SOL    HW234833   0.465   2.114   7.570 -0.8697  0.4556 -2.4195
 7792SOL     OW34834   2.559   0.076   2.212  0.4261  0.2003  0.0770
 7792SOL    HW134835   2.577   0.107   2.124 -0.9421 -0.1208 -0.3146
 7792SOL    HW234836   2.480   0.022   2.200  0.8766 -0.6905  1.1147
 7793SOL     OW34837   2.760   1.458  13.362 -0.2614 -0.1780  0.2434
 7793SOL    HW134838   2.831   1.498  13.311 -0.9552  0.9829  0.1744
 7793SOL    HW234839   2.704   1.417  13.296  0.6080  2.1804 -1.9819
 7794SOL     OW34840   2.167   2.718  15.432  0.1505  0.4169 -0.3794
 7794SOL    HW134841   2.174   2.780  15.505  1.2256  0.2265 -0.3254
 7794SOL    HW234842   2.258   2.690  15.440 -0.1354 -0.4385 -0.0418
 7795SOL     OW34843   0.276   4.402   6.648 -0.8925 -0.5905  0.3874
 7795SOL    HW134844   0.347   4.430   6.706 -3.9560  1.6778  3.0155
 7795SOL    HW234845   0.290   4.460   6.573  0.9444 -2.2785 -0.6014
 7796SOL     OW34846   2.772   3.727   6.585 -0.3746 -0.3142  0.0854
 7796SOL    HW134847   2.761   3.672   6.662 -1.3663 -0.4896 -0.1819
 7796SOL    HW234848   2.862   3.705   6.563 -0.0680 -0.3919  1.4224
 7797SOL     OW34849   4.636   2.051   1.922 -0.1121 -0.0137 -0.0833
 7797SOL    HW134850   4.662   2.133   1.880  0.7281  0.0474  0.5414
 7797SOL    HW234851   4.656   1.983   1.859  0.3423  2.2531 -2.3977
 7798SOL     OW34852   0.783   2.055   3.486  0.3659  0.1898 -0.2942
 7798SOL    HW134853   0.866   2.018   3.458 -0.8117 -2.5163 -0.2222
 7798SOL    HW234854   0.814   2.137   3.524 -1.9762  0.7959  0.3039
 7799SOL     OW34855   1.503   4.181   6.435  0.5774  0.1513 -0.0614
 7799SOL    HW134856   1.456   4.102   6.459  0.5373  0.5280  1.1002
 7799SOL    HW234857   1.559   4.201   6.510 -1.8821  1.0787  1.5306
 7800SOL     OW34858   2.367   0.942   5.874 -0.3466  0.4597  0.3108
 7800SOL    HW134859   2.335   0.875   5.934  0.8626  0.3772  0.8437
 7800SOL    HW234860   2.281   0.978   5.851 -0.0239 -2.0145 -4.6876
 7801SOL     OW34861   3.692   1.495   6.780  0.2891 -0.5913 -0.5889
 7801SOL    HW134862   3.764   1.557   6.786  0.2268 -0.4760 -1.0340
 7801SOL    HW234863   3.724   1.439   6.710 -1.7206 -1.1672 -1.0446
 7802SOL     OW34864   0.040   1.919  13.978 -0.0552 -0.2997  0.0279
 7802SOL    HW134865   4.689   1.889  13.924 -0.5764  0.9357  0.0385
 7802SOL    HW234866   4.719   1.976  14.042  0.1664 -0.3159  0.1910
 7803SOL     OW34867   1.356   1.659  14.125  0.6435  0.0097  0.1315
 7803SOL    HW134868   1.338   1.739  14.075 -0.8635 -1.3284 -1.4473
 7803SOL    HW234869   1.403   1.611  14.056 -0.4127 -2.5468  1.1926
 7804SOL     OW34870   3.407   0.909   9.777  0.7005  0.6455  0.3124
 7804SOL    HW134871   3.467   0.959   9.721 -0.6390  1.3050 -0.5509
 7804SOL    HW234872   3.453   0.826   9.790 -2.8996 -1.0209  2.3251
 7805SOL     OW34873   0.942   2.345   2.436  0.2136 -0.2298 -0.6362
 7805SOL    HW134874   0.986   2.261   2.422  2.6278  1.2607 -2.0349
 7805SOL    HW234875   0.890   2.353   2.355 -1.8017  2.2957  0.9038
 7806SOL     OW34876   4.128   2.587   3.220  0.2061 -0.4380  0.1848
 7806SOL    HW134877   4.110   2.607   3.129  2.3662 -0.4240 -0.2371
 7806SOL    HW234878   4.135   2.677   3.253 -0.0116  0.3667 -1.9803
 7807SOL     OW34879   4.489   0.759   6.593  0.2411 -0.4304  0.4559
 7807SOL    HW134880   4.418   0.779   6.654 -0.7152 -0.4975 -0.6586
 7807SOL    HW234881   4.435   0.761   6.515  1.3400 -1.4658 -0.3196
 7808SOL     OW34882   3.711   0.703   7.144  0.3911  0.3080  0.1037
 7808SOL    HW134883   3.675   0.726   7.230  0.3757 -0.4244  0.2935
 7808SOL    HW234884   3.633   0.693   7.089  0.2716 -0.8878  0.4832
 7809SOL     OW34885   3.038   4.177   5.242 -0.0036  0.2838  0.0141
 7809SOL    HW134886   3.007   4.112   5.305  2.5626 -2.3556 -1.4700
 7809SOL    HW234887   2.982   4.253   5.259  0.7099  0.5314  1.2536
 7810SOL     OW34888   1.642   3.675   3.845  0.2253  0.4557  0.4885
 7810SOL    HW134889   1.572   3.626   3.801 -0.8792  0.2459  2.5279
 7810SOL    HW234890   1.721   3.630   3.812 -0.2030  1.4479 -1.9292
 7811SOL     OW34891   0.897   2.887   8.739 -0.0539 -0.1704  0.0810
 7811SOL    HW134892   0.972   2.944   8.722 -1.4194  1.3336 -0.8752
 7811SOL    HW234893   0.923   2.862   8.828 -1.7050  0.9708  0.8944
 7812SOL     OW34894   2.670   0.833   7.642 -0.0121 -0.3893  0.1914
 7812SOL    HW134895   2.691   0.774   7.714 -0.1986  0.9131  1.3108
 7812SOL    HW234896   2.697   0.914   7.685  1.7094  0.4438 -2.5008
 7813SOL     OW34897   1.198   4.148   2.401 -0.2043  0.0794 -0.2135
 7813SOL    HW134898   1.230   4.060   2.384  1.8827  1.0085 -1.0495
 7813SOL    HW234899   1.103   4.134   2.409  0.0119 -2.0904 -1.5262
 7814SOL     OW34900   0.997   0.348  11.969 -0.1628 -0.3133  0.4471
 7814SOL    HW134901   1.051   0.420  12.000  0.0712  0.3596 -1.5202
 7814SOL    HW234902   0.911   0.390  11.964  0.0101 -0.2284 -1.9623
 7815SOL     OW34903   1.407   1.326   8.981  0.5034 -0.1011  0.1475
 7815SOL    HW134904   1.419   1.391   9.050  1.8771  0.1657 -0.3387
 7815SOL    HW234905   1.485   1.275   9.003  1.0772 -0.6267 -3.1029
 7816SOL     OW34906   3.015   1.295   6.250  0.0181 -0.2054  0.4922
 7816SOL    HW134907   3.005   1.356   6.177  2.0873 -0.6838 -0.1923
 7816SOL    HW234908   3.078   1.330   6.312  1.0339  0.1462 -0.7350
 7817SOL     OW34909   1.584   0.277  10.505 -0.0670  0.2940 -0.6756
 7817SOL    HW134910   1.557   0.196  10.547  1.3251  0.8316  1.2661
 7817SOL    HW234911   1.639   0.239  10.436  0.0183  1.5306 -1.2951
 7818SOL     OW34912   0.593   2.263   1.767 -0.1335 -0.3221  0.3664
 7818SOL    HW134913   0.638   2.182   1.746 -1.7923 -0.6936 -1.7800
 7818SOL    HW234914   0.540   2.291   1.692 -0.3250  1.8374  1.3028
 7819SOL     OW34915   4.363   3.752  13.887  0.0178 -0.1398 -0.4214
 7819SOL    HW134916   4.290   3.798  13.929 -1.1700 -1.7170 -0.7511
 7819SOL    HW234917   4.405   3.708  13.961  0.5202  1.2816  0.1305
 7820SOL     OW34918   3.274   0.545   5.641  0.5822 -0.5481 -0.6214
 7820SOL    HW134919   3.358   0.510   5.670  1.0050  1.7765  0.9495
 7820SOL    HW234920   3.312   0.626   5.605  0.6914 -0.7159 -0.8808
 7821SOL     OW34921   1.197   1.238  12.196  0.7078  0.4608  0.4447
 7821SOL    HW134922   1.209   1.163  12.254  0.6510  0.1286  0.0298
 7821SOL    HW234923   1.250   1.214  12.120 -1.5989  1.4406 -1.4517
 7822SOL     OW34924   3.865   1.533  10.957 -0.2624  0.0532 -0.0047
 7822SOL    HW134925   3.882   1.447  10.996  1.5902  1.3173  1.9845
 7822SOL    HW234926   3.938   1.536  10.896 -0.7471 -2.2587 -0.6834
 7823SOL     OW34927   4.712   4.507   8.016 -0.7848 -0.5366  0.0503
 7823SOL    HW134928   4.680   4.505   8.106  0.3136  3.1157  0.5411
 7823SOL    HW234929   4.632   4.476   7.975 -0.7396  1.2493 -1.3529
 7824SOL     OW34930   1.199   3.215   3.552  0.7082  0.1794  0.2485
 7824SOL    HW134931   1.274   3.157   3.537 -0.6147 -1.8128  1.2999
 7824SOL    HW234932   1.240   3.280   3.609 -1.4425  1.0312  0.8038
 7825SOL     OW34933   1.526   1.549  13.952  0.7959 -0.7554 -0.3719
 7825SOL    HW134934   1.575   1.631  13.964  1.1847 -1.2394  1.2764
 7825SOL    HW234935   1.578   1.491  14.007  0.2189 -1.7893 -0.9263
 7826SOL     OW34936   0.469   3.750   9.904 -0.1386  0.7917 -0.4395
 7826SOL    HW134937   0.422   3.679   9.948  1.4447  0.1288  0.1716
 7826SOL    HW234938   0.555   3.708   9.898 -0.4172 -0.1671  2.2110
 7827SOL     OW34939   3.649   0.453   0.252 -0.0532  0.2329  0.4025
 7827SOL    HW134940   3.704   0.443   0.329 -0.5892 -0.2996  0.7163
 7827SOL    HW234941   3.565   0.480   0.288 -0.9398 -1.2266 -0.5680
 7828SOL     OW34942   3.554   1.241  17.371 -0.3902  0.3283  0.0231
 7828SOL    HW134943   3.505   1.258  17.291  0.6179 -1.2153 -0.9242
 7828SOL    HW234944   3.496   1.180  17.418  1.2939 -3.0270 -2.2213
 7829SOL     OW34945   2.684   2.425   4.020  0.0372  0.2932 -0.5839
 7829SOL    HW134946   2.643   2.466   3.944  0.6954 -0.5533 -1.4071
 7829SOL    HW234947   2.637   2.475   4.086 -1.8333 -1.4811 -0.5709
 7830SOL     OW34948   0.096   0.098   1.533 -0.1336  0.3703  0.3196
 7830SOL    HW134949   0.064   0.182   1.566 -0.3480  0.6720 -0.6563
 7830SOL    HW234950   0.010   0.055   1.537 -1.2397  2.5232 -0.4270
 7831SOL     OW34951   4.249   3.399   5.235  0.3494 -0.5757  0.3944
 7831SOL    HW134952   4.234   3.415   5.142 -1.0141 -1.7298  0.4234
 7831SOL    HW234953   4.328   3.345   5.229 -0.9880 -2.4605 -0.1862
 7832SOL     OW34954   0.270   3.566   6.792 -0.1023  0.1873 -0.2617
 7832SOL    HW134955   0.186   3.582   6.835 -0.2355  0.2234 -0.5346
 7832SOL    HW234956   0.240   3.552   6.702 -1.6292 -0.6100  0.3744
 7833SOL     OW34957   0.769   4.409   5.752 -0.3270  0.0774  0.9703
 7833SOL    HW134958   0.777   4.453   5.837  0.8900 -0.2252  1.0068
 7833SOL    HW234959   0.687   4.361   5.768  0.7748 -1.8256  0.9171
 7834SOL     OW34960   4.598   2.149   6.689 -0.4069  0.5789 -0.0686
 7834SOL    HW134961   4.536   2.174   6.757 -2.3342 -0.7112 -1.3540
 7834SOL    HW234962   4.541   2.147   6.613  0.9227  0.0335 -1.0489
 7835SOL     OW34963   0.667   0.573   7.604 -0.4254 -0.0698 -0.0974
 7835SOL    HW134964   0.735   0.568   7.536  1.3195  0.9955  1.5483
 7835SOL    HW234965   0.673   0.482   7.631  1.5293  0.2117  0.4373
 7836SOL     OW34966   4.118   2.096   8.751 -0.3891  0.3044 -0.3847
 7836SOL    HW134967   4.157   2.180   8.727 -1.3575  0.5477 -1.0856
 7836SOL    HW234968   4.150   2.091   8.841 -0.5268 -0.4722 -0.3858
 7837SOL     OW34969   0.679   0.048   7.382  0.3151  0.4090  0.8526
 7837SOL    HW134970   0.606   0.081   7.329  0.8397  0.4974  0.1800
 7837SOL    HW234971   0.735   0.124   7.368 -1.0479  1.7561  2.7339
 7838SOL     OW34972   0.381   1.527  14.383 -0.2015  0.4604 -0.9647
 7838SOL    HW134973   0.286   1.517  14.371 -0.5890  1.3751  1.4632
 7838SOL    HW234974   0.393   1.614  14.345 -0.0559  1.5644  1.6840
 7839SOL     OW34975   3.972   1.419   3.456  0.2932 -0.3698 -0.3434
 7839SOL    HW134976   3.895   1.416   3.400  0.4592  1.5478 -0.6672
 7839SOL    HW234977   4.004   1.508   3.442 -0.0355 -0.3754 -1.0985
 7840SOL     OW34978   4.541   1.667   6.135  0.6055  0.0589 -0.6491
 7840SOL    HW134979   4.626   1.648   6.095  0.0981 -2.7412 -0.3914
 7840SOL    HW234980   4.488   1.698   6.061  0.5360 -0.8650 -0.9910
 7841SOL     OW34981   3.510   4.372   6.709  0.3924  0.6200 -0.0419
 7841SOL    HW134982   3.456   4.293   6.710  1.3096 -0.0261 -1.2777
 7841SOL    HW234983   3.593   4.342   6.746  0.6509  3.1194  1.3703
 7842SOL     OW34984   1.451   1.336   8.172  0.4390 -0.0452 -0.3790
 7842SOL    HW134985   1.455   1.420   8.127  1.5789  0.5307  0.7865
 7842SOL    HW234986   1.420   1.355   8.261  0.8455 -0.1079 -0.2212
 7843SOL     OW34987   0.928   1.236   4.173  0.9579 -0.5231 -0.3430
 7843SOL    HW134988   0.947   1.284   4.092  0.2935 -0.2993 -0.3666
 7843SOL    HW234989   0.870   1.167   4.141  0.3719  1.3547 -3.3892
 7844SOL     OW34990   0.823   0.352   7.665 -0.1244  0.5136 -0.2083
 7844SOL    HW134991   0.918   0.348   7.655 -0.3171 -0.6772 -1.6954
 7844SOL    HW234992   0.805   0.383   7.753  2.1347 -1.5723  1.0001
 7845SOL     OW34993   4.508   2.710   7.519 -0.7382  0.3272 -0.4817
 7845SOL    HW134994   4.513   2.680   7.429 -0.5404 -0.1705 -0.3083
 7845SOL    HW234995   4.530   2.802   7.505  4.8374 -1.0272 -0.7589
 7846SOL     OW34996   3.112   0.263   0.688 -0.1445 -0.2117  0.4011
 7846SOL    HW134997   3.181   0.249   0.753 -1.7621 -2.4510  1.6462
 7846SOL    HW234998   3.145   0.330   0.628  2.2614  0.6589  2.7190
 7847SOL     OW34999   3.715   1.317   5.186 -0.1012 -0.4772  0.0258
 7847SOL    HW135000   3.794   1.267   5.205  0.8636  1.0611  0.1105
 7847SOL    HW235001   3.729   1.318   5.091 -0.8158  0.9143 -0.0613
 7848SOL     OW35002   3.380   2.966  13.739 -0.6351  0.5236  0.4948
 7848SOL    HW135003   3.353   2.876  13.760  1.6606 -0.0512  0.9541
 7848SOL    HW235004   3.321   2.990  13.667  1.5476 -0.8193 -1.7565
 7849SOL     OW35005   0.009   2.055   0.296 -0.4344 -0.1356  0.4898
 7849SOL    HW135006   0.026   2.004   0.217 -0.8901 -1.3695  1.1829
 7849SOL    HW235007   4.641   2.035   0.322 -0.5464  1.1417  1.0641
 7850SOL     OW35008   0.245   1.370   8.461  0.1967  0.3955 -0.0642
 7850SOL    HW135009   0.290   1.294   8.423 -1.2276 -0.6829  0.4075
 7850SOL    HW235010   0.175   1.386   8.399 -0.2117  4.2113  1.3928
 7851SOL     OW35011   2.387   2.220   4.509 -0.0282  0.5667  0.5180
 7851SOL    HW135012   2.354   2.130   4.514 -0.3971  0.6142 -0.9743
 7851SOL    HW235013   2.313   2.276   4.489 -1.1571 -0.8686  0.6483
 7852SOL     OW35014   0.222   2.636  15.738 -0.4767  0.3941 -0.0496
 7852SOL    HW135015   0.126   2.635  15.732 -0.5362  2.5079  0.6057
 7852SOL    HW235016   0.232   2.724  15.775 -0.5430 -0.0247  0.9823
 7853SOL     OW35017   3.597   3.397   2.617 -0.7491 -0.5440  0.2820
 7853SOL    HW135018   3.538   3.473   2.617 -0.1749 -0.1062  0.7734
 7853SOL    HW235019   3.646   3.404   2.698 -2.8614  1.2577  1.4014
 7854SOL     OW35020   1.266   4.015  10.747 -0.3755  0.3317  1.1344
 7854SOL    HW135021   1.183   4.044  10.708  1.0473  1.0304 -1.4200
 7854SOL    HW235022   1.281   3.925  10.715  1.6616  0.7389  0.9689
 7855SOL     OW35023   0.392   1.548   1.383  0.0220  0.2847 -0.4298
 7855SOL    HW135024   0.421   1.632   1.347  2.0831 -0.4026 -0.3631
 7855SOL    HW235025   0.299   1.560   1.362  0.1832  3.3992  0.7170
 7856SOL     OW35026   0.840   3.740  14.846  0.0165 -0.2384 -0.5445
 7856SOL    HW135027   0.763   3.706  14.800 -1.5363  0.5621  1.4867
 7856SOL    HW235028   0.805   3.826  14.865  1.9532  0.4100  0.0865
 7857SOL     OW35029   1.545   4.625   5.944  0.1082 -0.1990  0.5819
 7857SOL    HW135030   1.472   4.589   5.995  0.7370  1.2079  2.4919
 7857SOL    HW235031   1.499   4.701   5.908  0.9083 -0.7542 -1.6131
 7858SOL     OW35032   4.673   4.373   7.067  0.2859 -0.4864  0.2010
 7858SOL    HW135033   4.685   4.286   7.027 -0.8482  0.0657 -1.3730
 7858SOL    HW235034   4.688   4.356   7.160 -0.6503 -0.1080  0.4209
 7859SOL     OW35035   1.642   3.763   4.684  0.0802 -0.1116  0.2239
 7859SOL    HW135036   1.662   3.856   4.685 -1.8361  0.3405 -2.7341
 7859SOL    HW235037   1.550   3.761   4.656  0.6275 -1.8693 -1.4623
 7860SOL     OW35038   0.365   2.836   6.859 -0.2718 -0.8171  0.7383
 7860SOL    HW135039   0.330   2.748   6.870  2.0309 -1.8269  0.1060
 7860SOL    HW235040   0.458   2.812   6.851 -0.5789 -1.9546  0.6169
 7861SOL     OW35041   4.332   0.653   7.390  0.2038 -0.0845 -0.4199
 7861SOL    HW135042   4.240   0.670   7.371  0.4180  1.4905 -0.0267
 7861SOL    HW235043   4.337   0.619   7.480 -0.0998 -0.8552 -0.6925
 7862SOL     OW35044   2.850   0.364  11.757  0.1322  0.2853 -0.5686
 7862SOL    HW135045   2.881   0.455  11.751 -0.4559  0.4462 -1.1540
 7862SOL    HW235046   2.897   0.324  11.830  0.7097  0.2980 -0.9315
 7863SOL     OW35047   0.342   3.344  16.928 -0.7502  0.2113 -0.0224
 7863SOL    HW135048   0.397   3.281  16.883 -1.0198 -0.7433  0.9906
 7863SOL    HW235049   0.285   3.289  16.982 -1.8032  2.7015  1.4073
 7864SOL     OW35050   2.946   0.089  10.145 -0.1881  0.3540 -0.3963
 7864SOL    HW135051   3.020   0.092  10.085  2.1521 -3.6291  2.2409
 7864SOL    HW235052   2.996   0.103  10.225  0.2770 -0.1442 -0.5945
 7865SOL     OW35053   2.381   0.852   6.527 -0.0000  0.6665 -0.6197
 7865SOL    HW135054   2.330   0.933   6.522 -1.4846 -0.3288 -1.7453
 7865SOL    HW235055   2.474   0.874   6.526  0.2052 -0.1111  2.9205
 7866SOL     OW35056   4.524   2.588   6.592  0.5705 -0.3150 -0.2990
 7866SOL    HW135057   4.555   2.678   6.583 -0.8181  0.0081 -1.8005
 7866SOL    HW235058   4.440   2.591   6.638 -0.7596  0.2988 -2.7770
 7867SOL     OW35059   4.181   3.618   4.423 -0.9013 -0.0344  0.1681
 7867SOL    HW135060   4.207   3.547   4.482 -0.1779  0.4394  0.4152
 7867SOL    HW235061   4.231   3.596   4.344  2.3099  2.0250  1.6183
 7868SOL     OW35062   0.663   0.930   7.609  0.3803  0.3133  0.0193
 7868SOL    HW135063   0.669   0.983   7.688  2.1208  0.1194  0.0199
 7868SOL    HW235064   0.729   0.974   7.555  3.2351 -3.5481  0.3814
 7869SOL     OW35065   3.293   3.850   6.785  0.0538  1.0741 -0.5606
 7869SOL    HW135066   3.207   3.886   6.804 -0.8277 -1.0782 -0.5564
 7869SOL    HW235067   3.314   3.804   6.866 -2.6483 -0.3178 -0.6679
 7870SOL     OW35068   4.214   3.120   4.260  0.0009  0.0074 -0.6564
 7870SOL    HW135069   4.193   3.148   4.349 -0.3990  0.1696 -0.7998
 7870SOL    HW235070   4.237   3.028   4.270  0.8149  0.4755  1.6358
 7871SOL     OW35071   3.073   0.656   8.642 -0.6418 -0.3182 -0.0186
 7871SOL    HW135072   3.162   0.631   8.616 -0.3644  1.3701 -0.7382
 7871SOL    HW235073   3.028   0.579   8.608  2.4879 -2.3887  0.5298
 7872SOL     OW35074   3.059   2.989   9.773  1.1440 -0.3420 -0.1943
 7872SOL    HW135075   3.136   3.026   9.730  1.1795  0.9906  1.0013
 7872SOL    HW235076   2.999   3.064   9.772  1.6711  0.0424 -2.4482
 7873SOL     OW35077   0.643   1.361   8.347 -0.2595 -0.0156  0.3730
 7873SOL    HW135078   0.612   1.451   8.357  0.9643  0.7863 -3.1950
 7873SOL    HW235079   0.737   1.367   8.333 -0.3718 -1.4435 -1.0364
 7874SOL     OW35080   3.099   4.416   7.983 -0.1350 -0.2249  0.0708
 7874SOL    HW135081   3.020   4.378   7.944  0.1104 -1.7669  1.0636
 7874SOL    HW235082   3.090   4.507   7.956 -3.5262 -0.5676  0.0978
 7875SOL     OW35083   2.578   3.012   8.552  0.6401  0.0365  0.6445
 7875SOL    HW135084   2.585   2.938   8.492  0.0019 -0.0540  0.6753
 7875SOL    HW235085   2.659   3.058   8.532  1.2246 -1.5895 -0.6968
 7876SOL     OW35086   1.882   1.573   5.294  0.0992 -0.3405  0.6959
 7876SOL    HW135087   1.969   1.545   5.321  1.2589  1.8853 -0.7029
 7876SOL    HW235088   1.883   1.651   5.350 -1.0514  1.3606 -1.6599
 7877SOL     OW35089   3.995   1.759   8.085  0.6141  0.2050  0.5789
 7877SOL    HW135090   3.903   1.778   8.100  0.6699 -0.0727  1.2631
 7877SOL    HW235091   4.007   1.803   8.000  0.2114 -0.1973  0.3110
 7878SOL     OW35092   1.915   2.398   8.851 -0.0315  0.1652  0.0095
 7878SOL    HW135093   1.946   2.488   8.862  0.9066 -0.2004  0.3639
 7878SOL    HW235094   1.868   2.415   8.770  1.1230  1.6328 -0.3535
 7879SOL     OW35095   1.404   3.273   4.377  0.1659 -0.3061  0.0084
 7879SOL    HW135096   1.473   3.340   4.381 -0.9966  1.0487 -2.4665
 7879SOL    HW235097   1.349   3.300   4.450  0.1533 -2.1219  0.6650
 7880SOL     OW35098   3.855   0.943  12.118  0.4197 -0.4903  0.6434
 7880SOL    HW135099   3.919   0.902  12.060 -0.5233  2.1263 -2.2591
 7880SOL    HW235100   3.850   1.021  12.062  1.1682  0.3407  1.7209
 7881SOL     OW35101   0.697   0.453   9.795  0.2006 -0.1280 -0.1098
 7881SOL    HW135102   0.615   0.458   9.745  1.0478 -0.0042 -1.4767
 7881SOL    HW235103   0.664   0.474   9.882 -0.4771  2.0653 -0.9051
 7882SOL     OW35104   4.058   3.011   0.173 -0.3984 -0.0301 -0.1107
 7882SOL    HW135105   4.087   2.975   0.257 -1.8125 -3.3517 -1.0382
 7882SOL    HW235106   4.074   2.939   0.113  1.1855 -0.0192  0.3154
 7883SOL     OW35107   1.862   1.361   5.643 -0.0808 -0.4330  0.0366
 7883SOL    HW135108   1.950   1.361   5.605 -0.0029  0.3718  0.2187
 7883SOL    HW235109   1.834   1.269   5.650 -2.4574  0.3917  1.5001
 7884SOL     OW35110   2.867   4.155   8.947  0.3930  0.4513  0.7668
 7884SOL    HW135111   2.881   4.091   9.017 -0.6022  0.4456  0.9585
 7884SOL    HW235112   2.879   4.234   8.999  1.3029  1.2084 -0.5755
 7885SOL     OW35113   1.697   2.636  13.682  0.2569 -0.5165 -0.1561
 7885SOL    HW135114   1.707   2.717  13.633 -0.1889 -0.8046 -0.7170
 7885SOL    HW235115   1.632   2.664  13.746 -1.2747 -1.9524 -1.0969
 7886SOL     OW35116   2.908   1.237   5.865  0.6534 -0.2744  0.8754
 7886SOL    HW135117   2.964   1.263   5.792  0.5881 -2.3123  0.1026
 7886SOL    HW235118   2.854   1.169   5.827  1.0224 -1.0452  1.7265
 7887SOL     OW35119   3.544   4.441   3.056 -0.0217 -0.2804 -0.2182
 7887SOL    HW135120   3.521   4.442   2.963 -1.4568 -0.9059  0.1263
 7887SOL    HW235121   3.621   4.385   3.054  0.2050  0.0919 -2.1135
 7888SOL     OW35122   2.754   2.356  13.847  0.0599 -0.1152  0.3705
 7888SOL    HW135123   2.807   2.284  13.812 -1.1732 -1.4965  1.3672
 7888SOL    HW235124   2.819   2.406  13.896 -0.2885  0.4099  0.3001
 7889SOL     OW35125   2.578   0.549  14.540 -0.0653  0.6845 -0.3002
 7889SOL    HW135126   2.497   0.499  14.538  0.4845 -0.2000 -0.4922
 7889SOL    HW235127   2.561   0.593  14.623  3.3176 -1.2334  1.3740
 7890SOL     OW35128   4.058   1.660   3.373 -0.0128 -0.3293  0.2654
 7890SOL    HW135129   4.152   1.658   3.393  0.4521  0.2563 -1.8601
 7890SOL    HW235130   4.047   1.754   3.385 -0.0251 -0.6432  2.6045
 7891SOL     OW35131   1.139   0.626  13.642 -0.1916  0.0343  0.0862
 7891SOL    HW135132   1.226   0.624  13.604 -1.2810 -0.0824 -2.3830
 7891SOL    HW235133   1.090   0.556  13.600  3.1005 -2.0164 -0.3274
 7892SOL     OW35134   4.261   1.133   3.873  0.7806  0.5200 -0.5478
 7892SOL    HW135135   4.198   1.172   3.813 -1.5662  1.9465  2.8312
 7892SOL    HW235136   4.326   1.090   3.818  1.6071 -1.5329  2.0405
 7893SOL     OW35137   0.646   2.704   5.433 -0.5876 -0.9654 -0.0632
 7893SOL    HW135138   0.589   2.695   5.356  2.3950  1.3761 -2.5159
 7893SOL    HW235139   0.582   2.747   5.489  0.9984  0.5254  0.5692
 7894SOL     OW35140   0.412   0.637  16.501 -0.5494  0.2244 -0.6130
 7894SOL    HW135141   0.432   0.667  16.412  0.8962 -2.0290 -1.0620
 7894SOL    HW235142   0.490   0.583  16.513  0.6350  1.7169 -1.6328
 7895SOL     OW35143   1.390   2.728   7.748  0.1103  0.9665  0.4458
 7895SOL    HW135144   1.438   2.666   7.803  0.0285  0.0587 -0.5089
 7895SOL    HW235145   1.455   2.798   7.739  1.5406 -0.2908  1.0244
 7896SOL     OW35146   0.782   0.762   4.397 -0.1962  0.2628 -0.5017
 7896SOL    HW135147   0.839   0.839   4.388 -1.6004  1.6900  2.7438
 7896SOL    HW235148   0.720   0.787   4.466  0.4696  1.2493 -0.2427
 7897SOL     OW35149   3.473   2.789   7.027  0.4502 -0.2351  0.0386
 7897SOL    HW135150   3.533   2.822   7.094  0.7772 -1.9223  0.5605
 7897SOL    HW235151   3.414   2.864   7.037  3.5622  2.2092  0.0382
 7898SOL     OW35152   3.977   2.007   7.944 -0.5301 -0.4139  0.3349
 7898SOL    HW135153   3.976   1.989   7.849 -1.0371  1.1546  0.0566
 7898SOL    HW235154   4.056   2.057   7.964 -1.8172  1.6646  0.2145
 7899SOL     OW35155   2.451   1.542   7.702  0.3867 -0.2240  0.0654
 7899SOL    HW135156   2.435   1.465   7.648  0.1957  0.8673 -1.4199
 7899SOL    HW235157   2.361   1.572   7.694  0.4784  0.3175  1.0545
 7900SOL     OW35158   3.416   0.788   9.350 -0.0043 -0.1866  0.3936
 7900SOL    HW135159   3.431   0.733   9.427 -0.4601  0.8746  1.2308
 7900SOL    HW235160   3.484   0.753   9.293  1.3457  0.9198  1.3549
 7901SOL     OW35161   0.680   3.038   3.421 -0.3457 -0.0766  0.0227
 7901SOL    HW135162   0.773   3.023   3.439 -0.2080  1.2509  0.3733
 7901SOL    HW235163   0.684   3.131   3.400 -0.5197 -0.1709 -0.4311
 7902SOL     OW35164   3.833   0.038   3.964  0.1591 -0.1653 -0.2747
 7902SOL    HW135165   3.820   4.682   3.910 -1.3057 -0.8184  1.0269
 7902SOL    HW235166   3.764   0.026   4.029  1.6136 -3.3896  0.6766
 7903SOL     OW35167   3.091   2.049   7.019  0.1148 -0.1789  0.0094
 7903SOL    HW135168   3.072   1.955   7.012 -1.2978  0.1201 -0.1372
 7903SOL    HW235169   3.183   2.044   7.042  0.4249 -0.1565 -1.2247
 7904SOL     OW35170   3.512   2.316  10.425 -0.1777 -0.2710  0.1920
 7904SOL    HW135171   3.475   2.342  10.341 -1.0536  2.7234  1.5000
 7904SOL    HW235172   3.558   2.237  10.398  0.5975  0.1293  0.3195
 7905SOL     OW35173   4.234   4.008   5.897  0.6395  0.3445 -0.0559
 7905SOL    HW135174   4.262   4.067   5.967  0.5388  0.3457 -0.0171
 7905SOL    HW235175   4.214   4.068   5.825 -1.5184  2.4050  2.2511
 7906SOL     OW35176   4.681   3.483   4.746 -0.1470 -0.7506  0.0616
 7906SOL    HW135177   4.635   3.465   4.665  2.2006  1.1183 -1.6894
 7906SOL    HW235178   0.041   3.441   4.723  0.6280  0.0968  1.2512
 7907SOL     OW35179   4.670   4.364   3.838 -0.0761 -0.3750  0.4122
 7907SOL    HW135180   4.717   4.397   3.915 -0.5537  0.7596  0.2180
 7907SOL    HW235181   4.601   4.318   3.885 -0.8037  2.2029  1.8609
 7908SOL     OW35182   3.138   3.250   4.744 -0.4188 -0.2035 -0.1903
 7908SOL    HW135183   3.168   3.226   4.832 -0.2650 -3.6721 -1.1811
 7908SOL    HW235184   3.216   3.233   4.691 -0.9808 -1.8189 -0.4960
 7909SOL     OW35185   1.932   1.282  11.755  0.4264  0.2455  0.3624
 7909SOL    HW135186   1.884   1.221  11.811  0.7231  0.6392  1.0410
 7909SOL    HW235187   1.901   1.370  11.777 -0.1763  0.3585 -0.9317
 7910SOL     OW35188   0.786   4.665   2.462  0.3250  0.1192 -0.3987
 7910SOL    HW135189   0.847   4.666   2.536  0.5667  0.4985 -0.6007
 7910SOL    HW235190   0.797   4.576   2.429 -0.3136 -0.1693  0.1751
 7911SOL     OW35191   2.603   1.659  11.643 -0.0065  0.4288  0.4787
 7911SOL    HW135192   2.663   1.651  11.717 -0.3613  1.0933  0.8370
 7911SOL    HW235193   2.516   1.672  11.680  0.4307 -0.1474  1.7163
 7912SOL     OW35194   2.620   2.371   5.586  0.0130 -0.0909  0.0111
 7912SOL    HW135195   2.696   2.368   5.645 -0.7516 -2.0559  0.9250
 7912SOL    HW235196   2.550   2.320   5.628 -0.9890 -0.7731 -2.5216
 7913SOL     OW35197   2.911   4.614   9.087 -0.3289  0.4748 -0.2864
 7913SOL    HW135198   2.898   4.697   9.131 -1.5134 -0.5433  1.2685
 7913SOL    HW235199   2.930   4.645   8.998  0.0068 -0.4036 -0.5247
 7914SOL     OW35200   2.243   1.147  14.097 -0.3781 -0.3279 -0.0869
 7914SOL    HW135201   2.162   1.098  14.080  0.2220 -1.7369  1.1700
 7914SOL    HW235202   2.263   1.129  14.188 -0.8560  1.2262  0.3246
 7915SOL     OW35203   4.461   3.900  11.071 -0.6029  0.2325 -0.0775
 7915SOL    HW135204   4.540   3.941  11.107 -0.5774 -1.4862  1.8648
 7915SOL    HW235205   4.515   3.823  11.051 -0.9195  0.5728 -2.1612
 7916SOL     OW35206   4.545   0.335   5.728  0.4869 -0.0768  0.9334
 7916SOL    HW135207   4.634   0.312   5.758  1.0907  0.8467 -0.1927
 7916SOL    HW235208   4.529   0.411   5.783  0.5593  1.8011 -1.6875
 7917SOL     OW35209   1.925   4.021   7.914  0.0664 -0.2787 -0.3391
 7917SOL    HW135210   1.985   4.096   7.914  0.4010 -0.5462  2.4387
 7917SOL    HW235211   1.944   4.011   8.008  1.5987  0.6591 -0.5490
 7918SOL     OW35212   0.311   1.521   6.707  0.6463  0.2006 -0.5381
 7918SOL    HW135213   0.357   1.583   6.764 -0.0366 -0.1815  0.4237
 7918SOL    HW235214   0.338   1.544   6.618  2.1010  0.7064  0.0248
 7919SOL     OW35215   4.525   0.856   3.372 -0.2800  0.0868 -0.6052
 7919SOL    HW135216   4.522   0.951   3.387 -1.1379  0.2754 -2.0032
 7919SOL    HW235217   4.604   0.843   3.319  0.2797  0.3809  0.1585
 7920SOL     OW35218   2.534   0.671   8.807  0.6416 -0.6292  0.2379
 7920SOL    HW135219   2.592   0.708   8.873  0.3741  1.3923 -0.6768
 7920SOL    HW235220   2.483   0.747   8.781  0.7326 -1.2587 -1.7663
 7921SOL     OW35221   1.469   4.638   8.606  0.0258 -0.2684  0.0781
 7921SOL    HW135222   1.467   4.545   8.629 -2.4552 -0.3047 -0.3538
 7921SOL    HW235223   1.377   4.664   8.610 -0.0974 -0.9328  1.5002
 7922SOL     OW35224   4.592   2.234   2.657 -0.5573 -0.2013  0.2619
 7922SOL    HW135225   4.497   2.241   2.660 -0.7699 -2.5292 -1.0362
 7922SOL    HW235226   4.614   2.310   2.603 -0.8565 -0.1332  0.2381
 7923SOL     OW35227   4.498   0.741   8.704 -0.1608 -0.0069  0.0363
 7923SOL    HW135228   4.526   0.833   8.706 -0.1812  0.0342 -2.0324
 7923SOL    HW235229   4.535   0.712   8.621 -0.0477  1.0559 -0.2808
 7924SOL     OW35230   2.785   4.651   2.363  0.0132  0.0089  0.0963
 7924SOL    HW135231   2.719   4.615   2.304 -1.2587 -0.1548  1.6289
 7924SOL    HW235232   2.755   0.019   2.365  0.4889  0.2256 -1.9829
 7925SOL     OW35233   1.504   4.654  15.272  0.1217 -0.6792  0.3925
 7925SOL    HW135234   1.578   4.644  15.212 -0.3203  1.2514 -0.4760
 7925SOL    HW235235   1.498   0.020  15.307  4.1249 -0.0133 -0.5873
 7926SOL     OW35236   2.812   2.393   4.445 -0.2606  0.1640  0.2101
 7926SOL    HW135237   2.852   2.429   4.365 -0.5742 -1.0815 -0.5049
 7926SOL    HW235238   2.724   2.367   4.416 -1.1472  0.7388  2.3995
 7927SOL     OW35239   3.216   1.473  12.714 -0.3534 -0.3699  0.7064
 7927SOL    HW135240   3.177   1.425  12.788  0.4403 -0.6417  0.9423
 7927SOL    HW235241   3.145   1.459  12.651  0.5972  2.5411 -0.9970
 7928SOL     OW35242   3.593   4.069   5.790 -0.2281  0.3495 -0.1092
 7928SOL    HW135243   3.608   4.163   5.776  0.2762  0.2678 -0.1110
 7928SOL    HW235244   3.600   4.071   5.885  2.0961 -0.7068 -0.2407
 7929SOL     OW35245   3.284   2.070   1.136  0.1991 -0.4540  0.1716
 7929SOL    HW135246   3.246   1.984   1.157 -3.0908  1.0281  0.2016
 7929SOL    HW235247   3.372   2.047   1.166  1.0758  0.1465 -1.9467
 7930SOL     OW35248   2.827   1.017   7.777  0.0309 -0.2258  0.4444
 7930SOL    HW135249   2.902   0.996   7.832  0.4008  2.5216  0.9900
 7930SOL    HW235250   2.813   1.104   7.813 -1.1436 -0.8857  1.5723
 7931SOL     OW35251   2.897   2.143   3.500 -0.1126 -0.2089 -0.2904
 7931SOL    HW135252   2.852   2.200   3.562  0.5344 -2.1869  1.9846
 7931SOL    HW235253   2.883   2.059   3.543 -0.0040  0.2574  0.6432
 7932SOL     OW35254   1.425   2.777   0.337 -1.3161 -0.2290  0.1150
 7932SOL    HW135255   1.412   2.717   0.411  1.3556 -2.3364 -1.1380
 7932SOL    HW235256   1.492   2.737   0.281 -1.8579  0.9005 -1.3334
 7933SOL     OW35257   3.185   3.815  11.315 -0.3994 -0.4768 -0.6611
 7933SOL    HW135258   3.143   3.900  11.307  0.8863  0.3352  1.2189
 7933SOL    HW235259   3.112   3.752  11.315  0.1601 -1.1218 -1.4455
 7934SOL     OW35260   1.532   3.723   8.696  0.1791 -0.3004  0.3362
 7934SOL    HW135261   1.474   3.760   8.763 -0.8490 -1.9440  0.3636
 7934SOL    HW235262   1.592   3.796   8.688 -0.7909  0.4049 -0.5223
 7935SOL     OW35263   1.305   4.445   3.330  0.4324 -0.0714  0.2173
 7935SOL    HW135264   1.351   4.361   3.322  0.0569 -0.2994  0.4526
 7935SOL    HW235265   1.368   4.517   3.326 -0.5731  0.7137 -2.0761
 7936SOL     OW35266   4.545   1.310   0.735 -0.3581 -0.0584 -0.0142
 7936SOL    HW135267   4.524   1.329   0.644  0.0470  1.6001  0.2411
 7936SOL    HW235268   4.627   1.263   0.720 -1.9566 -1.6765 -3.5902
 7937SOL     OW35269   1.628   3.610  10.358  0.1363  0.1244  0.0144
 7937SOL    HW135270   1.657   3.631  10.446 -1.1933 -1.3148  0.8097
 7937SOL    HW235271   1.535   3.631  10.348  0.3292  0.9669 -0.0238
 7938SOL     OW35272   0.095   0.345   5.587  0.4318 -0.3792 -1.0796
 7938SOL    HW135273   0.006   0.367   5.561  1.7539  2.0839 -3.5006
 7938SOL    HW235274   0.148   0.415   5.548  0.4142  0.9338  1.2233
 7939SOL     OW35275   1.980   1.847  12.711  0.4148  0.4275 -0.4798
 7939SOL    HW135276   2.032   1.777  12.672 -0.5481 -2.1449  2.8383
 7939SOL    HW235277   1.926   1.868  12.635  1.5427  1.4199 -1.0089
 7940SOL     OW35278   1.069   2.916  16.925 -0.1927  0.0003 -0.0939
 7940SOL    HW135279   1.113   2.997  16.899 -1.4349  0.1828 -1.6119
 7940SOL    HW235280   1.028   2.877  16.848  0.7605 -4.0630  1.4444
 7941SOL     OW35281   3.301   0.345   8.380  0.2413 -0.0062 -0.2451
 7941SOL    HW135282   3.352   0.264   8.390 -0.4161 -0.7565 -2.9128
 7941SOL    HW235283   3.370   0.394   8.335  1.0871  0.1251  1.2227
 7942SOL     OW35284   0.925   3.359   6.986  0.2664 -0.2347  0.2310
 7942SOL    HW135285   0.890   3.270   6.992 -0.5499  0.0219 -0.7960
 7942SOL    HW235286   0.842   3.402   6.966  0.7205 -0.0057 -1.1503
 7943SOL     OW35287   4.330   4.238  10.855  0.6899  0.0853 -0.5146
 7943SOL    HW135288   4.311   4.260  10.764  4.1085  1.9563 -0.7861
 7943SOL    HW235289   4.308   4.319  10.900 -2.5213 -0.5191 -0.9972
 7944SOL     OW35290   0.887   0.706   0.493  0.5206  0.4418  0.7879
 7944SOL    HW135291   0.937   0.745   0.565  2.0800 -1.5118  0.7862
 7944SOL    HW235292   0.903   0.613   0.507 -1.1505 -0.2721 -2.1527
 7945SOL     OW35293   2.931   4.208  11.102  0.2647 -0.1514 -0.6404
 7945SOL    HW135294   2.837   4.203  11.084 -0.0774 -1.0841  1.4424
 7945SOL    HW235295   2.971   4.269  11.040  0.3465 -1.4479 -1.8646
 7946SOL     OW35296   3.665   3.696   3.974  0.0704 -0.6602 -0.2192
 7946SOL    HW135297   3.626   3.732   4.054  3.8550  0.7662  1.0272
 7946SOL    HW235298   3.674   3.607   4.009  1.2891 -0.6931 -0.6108
 7947SOL     OW35299   0.787   3.662  14.138  0.2261  0.3764 -0.3193
 7947SOL    HW135300   0.806   3.605  14.213 -0.8325 -0.7042 -0.8721
 7947SOL    HW235301   0.696   3.643  14.113  0.6686  0.6041 -2.1006
 7948SOL     OW35302   2.719   3.393  17.447  0.5191  0.3789  0.0462
 7948SOL    HW135303   2.797   3.339  17.462 -0.4482 -0.2397  2.8784
 7948SOL    HW235304   2.731   3.405  17.353 -1.5177 -1.1918 -0.4008
 7949SOL     OW35305   2.006   3.574   9.472 -0.3371  0.2840 -0.2472
 7949SOL    HW135306   2.017   3.605   9.562  1.1938  1.9440 -1.0065
 7949SOL    HW235307   2.042   3.488   9.496  0.5015  1.1130  1.4694
 7950SOL     OW35308   3.441   2.736   4.683 -0.6407 -0.2243 -0.0232
 7950SOL    HW135309   3.515   2.675   4.673  0.1797  0.8716 -0.5854
 7950SOL    HW235310   3.382   2.671   4.722  0.3616 -1.0825  0.0683
 7951SOL     OW35311   0.081   4.326   2.133 -0.0599  0.4366  0.2775
 7951SOL    HW135312   0.152   4.336   2.197  0.3794 -1.1029  0.0448
 7951SOL    HW235313   0.071   4.231   2.140 -1.7339  0.5431 -0.5156
 7952SOL     OW35314   1.375   3.522   7.907 -0.1484  0.3625  0.4253
 7952SOL    HW135315   1.338   3.530   7.819  0.8546  1.6300  0.1182
 7952SOL    HW235316   1.304   3.562   7.957  0.9412 -0.9243  2.9975
 7953SOL     OW35317   4.445   0.092   5.709  0.2872 -0.6880 -0.2358
 7953SOL    HW135318   4.449   0.187   5.714 -0.4375 -0.6308 -0.6337
 7953SOL    HW235319   4.356   0.084   5.674  0.1846 -1.4080  0.1746
 7954SOL     OW35320   4.069   1.886   8.348  0.5148 -0.0932 -0.0330
 7954SOL    HW135321   4.126   1.924   8.282  0.0820  0.2860 -0.1918
 7954SOL    HW235322   4.035   1.812   8.297  2.0052  1.1528 -2.8122
 7955SOL     OW35323   2.102   0.051   2.136  0.2162  0.4218  0.5984
 7955SOL    HW135324   2.141   0.091   2.058  1.2090  1.2331  1.5181
 7955SOL    HW235325   2.014   0.046   2.099  1.4724 -1.4181 -2.1503
 7956SOL     OW35326   2.952   2.827   0.901 -0.6194  0.7408  0.0034
 7956SOL    HW135327   3.008   2.857   0.973 -1.5092 -0.4175  1.1788
 7956SOL    HW235328   3.013   2.855   0.833 -1.7189 -3.1962 -2.6172
 7957SOL     OW35329   2.246   2.489   1.958  0.4585  0.0711 -0.3964
 7957SOL    HW135330   2.247   2.394   1.969  0.0306  0.1277  0.1266
 7957SOL    HW235331   2.309   2.505   1.889  1.9860  1.4315  1.3322
 7958SOL     OW35332   1.371   0.753   1.663  0.1006  0.1480 -0.6075
 7958SOL    HW135333   1.443   0.815   1.653 -2.8057  3.7612  0.7887
 7958SOL    HW235334   1.376   0.752   1.759 -1.0885  1.4499 -0.5372
 7959SOL     OW35335   2.321   4.687  12.021 -0.1755 -0.8347  0.6274
 7959SOL    HW135336   2.341   4.600  12.055  2.1299 -0.2274  0.8019
 7959SOL    HW235337   2.360   4.694  11.934  0.3207 -3.5179  0.6382
 7960SOL     OW35338   2.649   2.351  12.876  0.1588  0.0221 -0.1277
 7960SOL    HW135339   2.689   2.431  12.908  0.5508 -0.3123  0.2180
 7960SOL    HW235340   2.570   2.347  12.929 -0.6765  2.4814 -1.2176
 7961SOL     OW35341   4.615   4.685   9.586 -0.7275 -1.1912 -0.2532
 7961SOL    HW135342   4.537   4.663   9.637  0.3446  2.0739  2.7947
 7961SOL    HW235343   4.587   0.046   9.547 -0.3344 -0.9094  0.0679
 7962SOL     OW35344   1.725   1.619   0.208  0.3743 -0.0883  0.3029
 7962SOL    HW135345   1.797   1.556   0.195  0.3701 -0.4261  2.0020
 7962SOL    HW235346   1.649   1.562   0.193 -0.4628  0.6997  1.6432
 7963SOL     OW35347   2.130   1.631  16.906  0.0871  0.0843 -0.0166
 7963SOL    HW135348   2.207   1.676  16.941 -1.1341 -0.4829  3.3474
 7963SOL    HW235349   2.057   1.691  16.923 -0.7394 -0.6256 -1.0581
 7964SOL     OW35350   2.220   4.651  10.410  0.4089 -0.6096 -0.5365
 7964SOL    HW135351   2.156   4.616  10.472 -1.5761  0.9604 -1.7185
 7964SOL    HW235352   2.288   4.688  10.466 -1.0539  1.6319 -0.2659
 7965SOL     OW35353   3.089   0.054   9.849  0.0224 -0.0505  0.0449
 7965SOL    HW135354   3.168   0.064   9.903 -0.3089  0.0234  0.5154
 7965SOL    HW235355   3.121   0.030   9.762  0.2026  2.5800 -0.6335
 7966SOL     OW35356   0.693   1.866   1.475  0.5586 -0.0512 -0.1847
 7966SOL    HW135357   0.668   1.799   1.538 -2.5757  2.3611  1.1893
 7966SOL    HW235358   0.776   1.827   1.449 -0.4770 -1.3099 -1.6086
 7967SOL     OW35359   1.167   1.174   2.991 -0.2913 -0.1518  0.2335
 7967SOL    HW135360   1.205   1.094   2.955  0.1547 -0.4032  1.2438
 7967SOL    HW235361   1.090   1.183   2.936  1.2942 -3.7091 -2.5706
 7968SOL     OW35362   2.136   1.212   3.944 -0.4029  0.0747  0.0268
 7968SOL    HW135363   2.112   1.195   4.035  1.4328 -0.7991  0.3504
 7968SOL    HW235364   2.066   1.265   3.906 -1.0084 -1.5393 -1.1294
 7969SOL     OW35365   2.496   0.038   8.637 -0.7647  0.1737  0.0565
 7969SOL    HW135366   2.457   0.110   8.686 -0.4269  0.8307 -0.6525
 7969SOL    HW235367   2.440   4.688   8.666 -0.5801 -0.8381 -2.0809
 7970SOL     OW35368   1.656   3.317  17.562  0.0132  0.1830 -0.0595
 7970SOL    HW135369   1.658   3.408  17.530 -0.3612  0.1947 -0.0460
 7970SOL    HW235370   1.682   3.330  17.654  0.5395 -0.8001 -0.0716
 7971SOL     OW35371   4.201   2.561  11.968 -0.3203 -0.2237 -0.5792
 7971SOL    HW135372   4.173   2.505  11.895 -2.4695  0.3635 -0.2206
 7971SOL    HW235373   4.180   2.640  11.919 -0.8381  0.9944  1.6148
 7972SOL     OW35374   1.232   1.968   6.428  0.5984 -0.1166  0.5006
 7972SOL    HW135375   1.251   2.058   6.401 -0.4595  0.0165  0.2212
 7972SOL    HW235376   1.186   1.931   6.353  0.2635 -0.5396  0.9150
 7973SOL     OW35377   2.490   2.518   3.819 -0.1927  0.4837 -0.4266
 7973SOL    HW135378   2.523   2.591   3.871  0.0924  0.4448 -0.5569
 7973SOL    HW235379   2.431   2.561   3.758  1.3707  1.2622 -1.3908
 7974SOL     OW35380   1.971   2.691   1.301 -0.2718  0.2192 -0.2105
 7974SOL    HW135381   1.878   2.674   1.316  0.3474 -2.4800  0.7284
 7974SOL    HW235382   2.005   2.722   1.385 -1.0393  1.6790 -0.4454
 7975SOL     OW35383   4.281   2.660   2.806  0.1495  0.6248 -0.0135
 7975SOL    HW135384   4.225   2.583   2.815 -0.7281  1.0843 -1.6261
 7975SOL    HW235385   4.307   2.658   2.715 -0.1061  1.0837 -0.1022
 7976SOL     OW35386   3.254   4.683  14.719 -0.1113 -0.5338 -0.3627
 7976SOL    HW135387   3.333   0.006  14.689  0.5005 -1.3603 -0.0145
 7976SOL    HW235388   3.287   4.616  14.779 -0.9271  0.3318  1.0516
 7977SOL     OW35389   1.869   0.034   2.945  0.0681  0.6115 -0.1072
 7977SOL    HW135390   1.838   0.052   3.034 -1.4929 -0.3046 -0.4736
 7977SOL    HW235391   1.901   0.115   2.904  0.4209  0.7479  0.4313
 7978SOL     OW35392   0.522   0.160  11.322 -0.1753  0.0330 -0.1163
 7978SOL    HW135393   0.525   0.095  11.392 -1.8068 -0.9930 -1.0173
 7978SOL    HW235394   0.479   0.231  11.371 -0.2673  0.2185 -0.4658
 7979SOL     OW35395   0.162   1.741   5.136 -0.4226 -0.3796  0.5117
 7979SOL    HW135396   0.092   1.800   5.163 -0.2617  0.4996 -1.0370
 7979SOL    HW235397   0.119   1.658   5.159 -0.2657 -0.8119 -0.7827
 7980SOL     OW35398   4.208   1.323   1.075 -0.1317 -0.9161 -0.2116
 7980SOL    HW135399   4.205   1.416   1.053 -2.4790 -1.0666 -0.5710
 7980SOL    HW235400   4.227   1.284   0.990  0.6196  0.7732 -0.8134
 7981SOL     OW35401   3.284   0.805  13.085  0.2870  0.4919 -0.2658
 7981SOL    HW135402   3.307   0.896  13.104  3.4918 -0.8928  2.4174
 7981SOL    HW235403   3.312   0.761  13.165  0.0674 -0.1116 -0.5208
 7982SOL     OW35404   1.568   2.030   6.564 -0.9085  0.3513  0.1036
 7982SOL    HW135405   1.637   2.088   6.531  1.5058 -2.0945  0.8938
 7982SOL    HW235406   1.578   1.949   6.513 -1.9932  0.1398  0.2300
 7983SOL     OW35407   0.752   0.695   2.493 -0.2630  0.6467  0.1321
 7983SOL    HW135408   0.673   0.676   2.443  0.9659 -1.5551 -0.9589
 7983SOL    HW235409   0.740   0.626   2.559  0.0334  1.6169  1.1885
 7984SOL     OW35410   0.622   4.096  11.630 -0.4041 -0.4436  0.8004
 7984SOL    HW135411   0.673   4.112  11.550 -0.0563  0.4034  1.1909
 7984SOL    HW235412   0.677   4.131  11.700 -0.6510 -2.8344  2.1618
 7985SOL     OW35413   3.947   3.177   9.162 -0.8297  0.1889 -0.5103
 7985SOL    HW135414   3.882   3.131   9.108  1.0078 -3.8806  0.7431
 7985SOL    HW235415   4.028   3.136   9.134 -0.1892  0.8638  0.3613
 7986SOL     OW35416   0.279   3.823  10.555  0.1950 -0.0667  0.2645
 7986SOL    HW135417   0.331   3.816  10.635  0.5744 -1.3013 -0.0927
 7986SOL    HW235418   0.220   3.896  10.574  0.4903 -0.0420  1.0955
 7987SOL     OW35419   1.314   0.732  13.903  0.6409  0.0841  0.3137
 7987SOL    HW135420   1.293   0.820  13.931  0.3580  0.5043 -1.2118
 7987SOL    HW235421   1.394   0.746  13.852  3.0647  0.2051  4.1289
 7988SOL     OW35422   4.216   0.623   3.774 -0.2767 -0.1507 -0.2950
 7988SOL    HW135423   4.276   0.658   3.840 -0.8837  1.7841 -0.7573
 7988SOL    HW235424   4.193   0.710   3.743 -0.3864 -0.2639 -0.5281
 7989SOL     OW35425   1.857   0.295   4.678  0.2225  0.1560 -0.5739
 7989SOL    HW135426   1.840   0.230   4.746 -1.7598  0.5964 -0.6660
 7989SOL    HW235427   1.770   0.300   4.640 -0.4992  0.5200  1.1308
 7990SOL     OW35428   1.511   1.904   4.943  0.4005  0.3822  0.1500
 7990SOL    HW135429   1.553   1.904   5.030  0.3312  1.1831  0.1771
 7990SOL    HW235430   1.528   1.818   4.904 -0.3898 -0.1157  0.8801
 7991SOL     OW35431   1.175   3.218   2.703 -0.5357 -0.5273 -0.4964
 7991SOL    HW135432   1.262   3.232   2.667 -0.3604  1.2434  0.6075
 7991SOL    HW235433   1.168   3.123   2.692 -1.8553 -0.3331 -1.2766
 7992SOL     OW35434   0.394   3.452  14.781 -0.1655 -0.8519  0.3640
 7992SOL    HW135435   0.311   3.467  14.735  0.3911 -2.0702 -1.0476
 7992SOL    HW235436   0.464   3.473  14.720  0.3442 -0.1489  1.1933
 7993SOL     OW35437   3.169   4.534   3.416 -0.8531 -0.2068 -0.5017
 7993SOL    HW135438   3.223   4.464   3.452 -1.9683 -0.6679  0.2706
 7993SOL    HW235439   3.198   4.610   3.467 -0.8601 -0.6737  0.1953
 7994SOL     OW35440   3.118   1.282  10.250  0.3087 -0.2039 -0.4251
 7994SOL    HW135441   3.204   1.240  10.243 -0.0137 -0.9787  0.3282
 7994SOL    HW235442   3.064   1.242  10.182 -1.5656 -1.4429  1.7775
 7995SOL     OW35443   1.378   0.084  10.153 -0.1091  0.0636  0.1855
 7995SOL    HW135444   1.456   0.034  10.129  0.1085  0.2039  0.5948
 7995SOL    HW235445   1.319   0.011  10.134  0.9351 -0.9599  0.8616
 7996SOL     OW35446   4.353   2.111  10.837 -0.2541 -0.0670 -0.0265
 7996SOL    HW135447   4.285   2.176  10.824  1.8206  1.5523 -2.8924
 7996SOL    HW235448   4.315   2.046  10.897 -1.2249 -1.8182 -2.5144
 7997SOL     OW35449   0.438   1.398   7.675 -0.0273 -0.0333 -0.3479
 7997SOL    HW135450   0.439   1.428   7.584  1.0522 -1.4493 -0.8060
 7997SOL    HW235451   0.349   1.362   7.673 -0.4654  1.1958 -2.4936
 7998SOL     OW35452   1.245   1.112   1.471 -0.5134 -0.5622  0.0720
 7998SOL    HW135453   1.232   1.018   1.487 -2.4592 -0.1220  1.1109
 7998SOL    HW235454   1.289   1.103   1.387 -0.5231  2.8161 -0.2917
 7999SOL     OW35455   4.681   2.634  16.288 -0.0208  0.1293 -0.5104
 7999SOL    HW135456   4.687   2.723  16.324 -0.8666 -0.1590  0.3248
 7999SOL    HW235457   0.051   2.609  16.293  0.0355  0.3445 -0.4551
 8000SOL     OW35458   2.351   3.784   6.762  0.3244 -0.6457  0.0146
 8000SOL    HW135459   2.424   3.846   6.772  0.5911 -0.8547 -0.6630
 8000SOL    HW235460   2.390   3.699   6.782 -1.1826 -1.6543 -1.3529
 8001SOL     OW35461   0.943   0.542   4.282  0.0333 -0.0370  0.5624
 8001SOL    HW135462   0.889   0.611   4.319  1.9981  3.2149 -2.6682
 8001SOL    HW235463   0.883   0.497   4.222  2.2321 -2.4969  0.1903
 8002SOL     OW35464   4.135   1.263   3.034 -0.2562  0.2508 -0.2203
 8002SOL    HW135465   4.158   1.281   2.943 -1.0872 -1.8071 -0.8334
 8002SOL    HW235466   4.111   1.349   3.067  1.2316  0.0338  1.4450
 8003SOL     OW35467   0.141   1.050   2.636 -0.1420 -0.4612 -0.6631
 8003SOL    HW135468   0.061   1.070   2.684 -0.2558 -2.1462 -0.1421
 8003SOL    HW235469   0.185   1.133   2.655 -1.4482  0.6014 -2.3550
 8004SOL     OW35470   2.683   4.371   0.513  0.4909 -0.5048 -0.5078
 8004SOL    HW135471   2.739   4.295   0.503  0.4100 -0.4261 -1.5981
 8004SOL    HW235472   2.696   4.385   0.607  2.4385 -0.7993 -0.7345
 8005SOL     OW35473   1.666   1.813  10.233 -0.2187 -0.0084 -0.7908
 8005SOL    HW135474   1.598   1.806  10.166  1.1097  1.1223 -2.2478
 8005SOL    HW235475   1.703   1.725  10.229  3.3218  1.5845 -2.8391
 8006SOL     OW35476   2.087   3.425   2.430 -0.5870 -0.4577  0.1181
 8006SOL    HW135477   2.148   3.367   2.385  0.0093 -0.8896  1.4873
 8006SOL    HW235478   2.141   3.461   2.500 -0.5507  0.4590 -0.3927
 8007SOL     OW35479   3.075   0.808   1.303  0.9464  0.4077  0.2987
 8007SOL    HW135480   3.140   0.742   1.277  1.1367  0.9566 -0.6373
 8007SOL    HW235481   3.101   0.888   1.258 -2.8608  2.1039  1.0982
 8008SOL     OW35482   3.821   4.284   7.288 -0.3294 -0.2304 -0.0242
 8008SOL    HW135483   3.818   4.342   7.364 -0.4941 -1.1828  0.6950
 8008SOL    HW235484   3.768   4.329   7.223 -0.2775 -1.7353 -1.1292
 8009SOL     OW35485   4.478   1.106   4.833  0.0281 -0.2287  0.0216
 8009SOL    HW135486   4.458   1.061   4.915 -1.3876 -1.8814 -1.2369
 8009SOL    HW235487   4.570   1.132   4.835  0.0367 -0.2134 -0.7756
 8010SOL     OW35488   2.199   3.796   7.161 -0.1046 -0.3354  0.8488
 8010SOL    HW135489   2.135   3.765   7.224  0.7202 -0.6422  1.5338
 8010SOL    HW235490   2.150   3.805   7.079  0.2413  1.9149  0.8746
 8011SOL     OW35491   3.212   2.529  12.733  0.2184 -0.7686  0.1455
 8011SOL    HW135492   3.286   2.521  12.672  1.4163 -0.4157  1.5539
 8011SOL    HW235493   3.145   2.584  12.694 -0.5236 -1.4264  0.4908
 8012SOL     OW35494   0.652   1.700   9.564 -0.0536 -0.4992 -0.0638
 8012SOL    HW135495   0.676   1.768   9.627  0.8584 -2.0611  1.2706
 8012SOL    HW235496   0.557   1.693   9.573  0.2335 -2.9700  0.9714
 8013SOL     OW35497   0.184   4.372   9.027 -0.0053 -0.3980  0.4440
 8013SOL    HW135498   0.118   4.319   9.073 -0.3191 -0.4491 -0.0651
 8013SOL    HW235499   0.242   4.384   9.102 -0.5573  0.0695  0.7976
 8014SOL     OW35500   2.304   0.214  14.750  0.1975 -0.1808  0.1106
 8014SOL    HW135501   2.292   0.146  14.684 -1.8105 -1.2457  1.5688
 8014SOL    HW235502   2.233   0.277  14.739 -2.6384 -2.6954  3.8734
 8015SOL     OW35503   0.648   4.251  16.429 -0.3205 -0.0997 -0.0906
 8015SOL    HW135504   0.690   4.281  16.509 -0.8897 -1.4095  0.7107
 8015SOL    HW235505   0.729   4.236  16.381 -0.6041 -2.1687  0.0511
 8016SOL     OW35506   4.639   3.999   8.533 -0.5500 -0.1159 -0.0385
 8016SOL    HW135507   4.602   4.042   8.455 -0.7002 -0.7034 -0.2947
 8016SOL    HW235508   4.714   3.970   8.482 -1.1436 -0.4396 -0.7413
 8017SOL     OW35509   0.780   1.752   2.462  0.4297 -0.3105  0.6045
 8017SOL    HW135510   0.718   1.683   2.436  0.5662  0.6643 -2.3145
 8017SOL    HW235511   0.752   1.769   2.552 -0.2246  1.5124  0.0517
 8018SOL     OW35512   3.914   0.294   7.310  0.0973 -0.4437 -0.0106
 8018SOL    HW135513   3.935   0.385   7.331 -0.9380 -0.5957  1.6449
 8018SOL    HW235514   3.957   0.254   7.386  1.1707 -1.9612 -1.4118
 8019SOL     OW35515   3.406   4.694   3.921 -0.1461 -0.3508 -0.3738
 8019SOL    HW135516   3.452   0.013   3.848 -2.3831  2.1438 -0.3746
 8019SOL    HW235517   3.477   4.646   3.963  1.0849  0.7386 -1.2165
 8020SOL     OW35518   4.514   1.657   9.080  0.7784 -0.1601  0.3546
 8020SOL    HW135519   4.557   1.667   8.996  1.4072  0.0831  0.7031
 8020SOL    HW235520   4.549   1.571   9.105 -0.1200 -0.8636 -0.8346
 8021SOL     OW35521   2.877   2.820   3.012  0.3622  0.2228  0.1796
 8021SOL    HW135522   2.879   2.832   3.107 -1.1646 -0.3163  0.2964
 8021SOL    HW235523   2.800   2.762   3.013  0.3880  0.1043 -2.9988
 8022SOL     OW35524   3.379   1.956   6.855 -0.2346 -0.0947  0.0562
 8022SOL    HW135525   3.296   1.971   6.810 -1.0414  1.3645  2.0166
 8022SOL    HW235526   3.429   1.958   6.773 -0.9476  1.7564 -0.3287
 8023SOL     OW35527   4.430   4.567  13.846  0.7971 -0.0284 -0.3047
 8023SOL    HW135528   4.437   4.486  13.896  4.4783  1.3627  1.4165
 8023SOL    HW235529   4.454   4.531  13.761 -1.4655 -1.4574 -0.3452
 8024SOL     OW35530   2.205   2.286  17.457  0.5663 -0.0138  0.2560
 8024SOL    HW135531   2.129   2.328  17.498 -1.1478 -2.7785 -0.0874
 8024SOL    HW235532   2.259   2.362  17.434  1.4453 -0.6204  0.3469
 8025SOL     OW35533   0.083   3.023   3.692 -0.1659  0.5315  0.5459
 8025SOL    HW135534   0.140   3.055   3.762  0.4122  0.1024  0.2705
 8025SOL    HW235535   0.137   2.980   3.626  0.5638  0.0740  1.4446
 8026SOL     OW35536   1.422   2.189   4.847 -0.5984  0.2957  0.2911
 8026SOL    HW135537   1.475   2.268   4.854 -1.3280  0.7103  1.1199
 8026SOL    HW235538   1.494   2.125   4.843  0.4889  1.5808 -0.9801
 8027SOL     OW35539   0.319   1.621   4.466  0.1251  0.0064 -0.0785
 8027SOL    HW135540   0.268   1.581   4.396 -0.9794  2.3464 -0.5958
 8027SOL    HW235541   0.272   1.585   4.541  0.8845 -2.1464 -0.6316
 8028SOL     OW35542   1.654   2.353   3.835  0.3348  0.0678  0.2001
 8028SOL    HW135543   1.716   2.318   3.771 -1.5601 -1.4413 -0.8183
 8028SOL    HW235544   1.688   2.323   3.919  0.4900 -2.3263 -0.7310
 8029SOL     OW35545   4.198   3.854  11.256  0.0643  0.3348  0.0247
 8029SOL    HW135546   4.285   3.872  11.220 -0.2336  0.0971 -0.8195
 8029SOL    HW235547   4.195   3.758  11.258 -3.5623  0.3919 -1.5926
 8030SOL     OW35548   3.750   2.174   8.561  0.2304 -0.0324  0.0096
 8030SOL    HW135549   3.837   2.135   8.555 -0.7349 -2.3651  1.2057
 8030SOL    HW235550   3.701   2.127   8.628 -0.8780  0.3386 -0.5431
 8031SOL     OW35551   3.422   0.323   7.077 -0.1541  0.0200 -0.1005
 8031SOL    HW135552   3.513   0.314   7.105  0.2557  0.9388 -1.1844
 8031SOL    HW235553   3.437   0.344   6.985 -4.2417  0.6603 -0.6124
 8032SOL     OW35554   1.127   0.172   6.721  0.0365 -0.7181 -0.0531
 8032SOL    HW135555   1.201   0.113   6.716 -0.2475 -0.9356 -1.6281
 8032SOL    HW235556   1.061   0.113   6.758  0.3638  0.2864  2.0958
 8033SOL     OW35557   1.234   0.526  12.038  0.4199 -0.0962 -0.2952
 8033SOL    HW135558   1.204   0.577  12.113  1.6890  1.1124 -0.6166
 8033SOL    HW235559   1.328   0.522  12.057  0.2383 -1.3218  0.3729
 8034SOL     OW35560   1.450   2.067   3.352  0.1600 -0.2602 -0.0497
 8034SOL    HW135561   1.482   1.991   3.400 -0.4894  1.2252  2.7463
 8034SOL    HW235562   1.527   2.121   3.334  1.6517 -2.1577  0.6699
 8035SOL     OW35563   0.600   1.887   4.897  0.3406  0.5599 -0.1413
 8035SOL    HW135564   0.624   1.795   4.892  0.5343  0.5989  0.1130
 8035SOL    HW235565   0.538   1.891   4.823  1.5004 -0.8964 -1.1850
 8036SOL     OW35566   1.678   4.097   8.450  0.2599 -0.0772  0.3506
 8036SOL    HW135567   1.738   4.166   8.423  0.1353  0.1117  0.5526
 8036SOL    HW235568   1.702   4.030   8.387  2.7273 -0.7110  1.9755
 8037SOL     OW35569   2.371   1.727   7.124 -0.1999  0.9025  0.2952
 8037SOL    HW135570   2.322   1.809   7.134 -1.5365  0.2343 -0.7323
 8037SOL    HW235571   2.446   1.756   7.072  0.7453 -1.4375  0.3779
 8038SOL     OW35572   2.044   2.749   1.562 -0.1552  0.3447  0.2411
 8038SOL    HW135573   2.094   2.758   1.643 -0.9282  0.6909  0.6749
 8038SOL    HW235574   1.983   2.821   1.575  1.1181  1.7479 -1.6135
 8039SOL     OW35575   2.701   1.949  15.936 -0.5306  0.5016 -0.0299
 8039SOL    HW135576   2.741   1.983  15.856  2.0180 -0.6647  0.7449
 8039SOL    HW235577   2.680   1.863  15.898  0.0582  1.0518 -1.6047
 8040SOL     OW35578   4.112   2.948   2.783  0.4621  0.0950 -0.0696
 8040SOL    HW135579   4.085   2.865   2.822 -0.9183  0.7276  0.3004
 8040SOL    HW235580   4.027   2.977   2.752  0.5610 -0.6703 -1.0500
 8041SOL     OW35581   0.889   3.330   6.667 -0.8661 -0.2084  0.4806
 8041SOL    HW135582   0.876   3.376   6.584 -2.1721  0.7442  1.2281
 8041SOL    HW235583   0.811   3.355   6.715  0.5138  2.2605  1.3934
 8042SOL     OW35584   1.678   2.132  16.559 -0.3603 -0.2586  0.3568
 8042SOL    HW135585   1.734   2.115  16.484  1.0341  0.2526  1.2751
 8042SOL    HW235586   1.636   2.046  16.566 -0.6314 -0.2181 -0.7781
 8043SOL     OW35587   4.438   0.795   4.446  1.0775  0.0755  0.4290
 8043SOL    HW135588   4.398   0.845   4.375  0.9889  0.1852  0.5550
 8043SOL    HW235589   4.521   0.780   4.400  0.4293 -0.8028 -0.4385
 8044SOL     OW35590   1.297   0.410  17.106 -0.5430 -0.0548 -0.0537
 8044SOL    HW135591   1.347   0.384  17.029 -0.3614  2.0768 -0.6374
 8044SOL    HW235592   1.310   0.504  17.100 -0.8053 -0.0734 -0.9571
 8045SOL     OW35593   0.237   0.328   8.740 -0.1724  0.2574 -0.2543
 8045SOL    HW135594   0.321   0.283   8.740 -1.2070 -1.7088  0.6029
 8045SOL    HW235595   0.185   0.252   8.768 -1.0488  0.5959 -0.9425
 8046SOL     OW35596   3.068   0.773   6.760  0.1467  0.6256 -0.2646
 8046SOL    HW135597   3.002   0.711   6.730 -0.1038  0.3739  0.8073
 8046SOL    HW235598   3.014   0.826   6.819  1.3176  1.5723 -0.0478
 8047SOL     OW35599   3.342   3.379   8.567  0.2412  0.0851 -0.2128
 8047SOL    HW135600   3.390   3.461   8.555 -2.5860  1.4560 -2.2879
 8047SOL    HW235601   3.317   3.347   8.480  0.7344  0.1388 -0.3782
 8048SOL     OW35602   3.878   3.864   6.456 -0.4198  0.0886  0.5091
 8048SOL    HW135603   3.969   3.841   6.470 -0.0008  1.4779  0.1100
 8048SOL    HW235604   3.877   3.958   6.436 -2.8807  0.1077  0.7084
 8049SOL     OW35605   2.184   3.696   5.675  0.2602  0.1785 -0.0028
 8049SOL    HW135606   2.202   3.604   5.654 -0.3947  0.1117 -0.2592
 8049SOL    HW235607   2.254   3.712   5.738 -0.5132 -2.7289  1.5884
 8050SOL     OW35608   4.660   0.051   3.022  0.2451  0.0263  0.0284
 8050SOL    HW135609   0.028   0.023   3.006 -0.7533 -1.0711 -3.5290
 8050SOL    HW235610   4.647   0.069   3.115 -2.1978  1.5822 -0.6259
 8051SOL     OW35611   1.029   1.956   3.450 -0.0001 -0.1334 -0.0008
 8051SOL    HW135612   1.043   1.950   3.356  1.5441 -2.5972  0.3920
 8051SOL    HW235613   1.072   1.880   3.489 -1.5297 -0.4620  1.0597
 8052SOL     OW35614   3.976   3.225  14.140  0.3663 -0.1707 -0.1475
 8052SOL    HW135615   4.022   3.281  14.078 -1.1408  0.1389 -0.9663
 8052SOL    HW235616   3.888   3.244  14.110  0.8803  2.7737  0.2856
 8053SOL     OW35617   1.520   0.153   5.143  0.1150 -0.0076  0.1407
 8053SOL    HW135618   1.495   0.161   5.051 -0.7384  1.9215  0.5250
 8053SOL    HW235619   1.461   0.086   5.177 -1.7250  1.9409  0.8308
 8054SOL     OW35620   1.157   0.782   8.020 -0.0724 -0.8349  0.3688
 8054SOL    HW135621   1.110   0.752   8.097 -1.4632  0.3973 -0.0018
 8054SOL    HW235622   1.248   0.777   8.049  0.4949 -1.1779 -1.4621
 8055SOL     OW35623   3.835   4.232  15.341 -0.1311 -0.1610  0.7066
 8055SOL    HW135624   3.866   4.205  15.255 -0.2820  0.5758  0.4158
 8055SOL    HW235625   3.743   4.207  15.331 -0.5895  1.8565 -0.2137
 8056SOL     OW35626   3.182   1.079   0.485 -0.0715 -0.1402 -0.1226
 8056SOL    HW135627   3.129   1.110   0.558 -1.7775 -0.2759 -1.3123
 8056SOL    HW235628   3.164   1.133   0.408 -2.5350  0.1128  0.6263
 8057SOL     OW35629   4.608   1.595   3.365 -0.4385 -0.1732 -0.0185
 8057SOL    HW135630   4.557   1.529   3.412 -0.3626  0.1970  0.5764
 8057SOL    HW235631   4.679   1.542   3.329  2.0694  1.6261  2.3048
 8058SOL     OW35632   3.697   2.623   5.812  0.1018  0.7175  0.4535
 8058SOL    HW135633   3.782   2.588   5.837  0.1466 -0.6343 -1.5698
 8058SOL    HW235634   3.670   2.563   5.742  0.8284  0.0946  0.7039
 8059SOL     OW35635   2.333   4.422   5.033  0.0094 -0.5569  0.1741
 8059SOL    HW135636   2.258   4.452   5.083 -0.4946 -0.1696 -0.8114
 8059SOL    HW235637   2.400   4.411   5.100  0.8133 -2.7892 -0.9896
 8060SOL     OW35638   2.551   3.433   1.224  0.6177  0.1716 -0.9332
 8060SOL    HW135639   2.498   3.513   1.233  1.6529  0.9437 -1.7257
 8060SOL    HW235640   2.576   3.418   1.315 -1.4180 -1.3611 -0.6363
 8061SOL     OW35641   3.103   2.422  11.489  0.0435  0.4776 -0.1351
 8061SOL    HW135642   3.148   2.338  11.495  0.2236  0.5540 -0.4347
 8061SOL    HW235643   3.174   2.481  11.514 -0.7871  0.8056  1.4691
 8062SOL     OW35644   1.168   1.958   7.245 -0.0679  0.5863 -0.6229
 8062SOL    HW135645   1.203   1.980   7.158 -0.5630  3.2822 -0.1349
 8062SOL    HW235646   1.241   1.903   7.273  0.2455  2.1772  1.6747
 8063SOL     OW35647   1.501   0.231   3.251 -0.4448 -0.6012 -0.1347
 8063SOL    HW135648   1.485   0.312   3.203  4.3026 -1.6863 -3.5854
 8063SOL    HW235649   1.414   0.193   3.261 -0.1788 -1.5392 -1.4033
 8064SOL     OW35650   2.101   3.347   7.592 -0.3661  0.6357  0.3870
 8064SOL    HW135651   2.111   3.335   7.687 -0.3055  1.8365  0.5344
 8064SOL    HW235652   2.186   3.314   7.566 -0.5430  2.1116 -2.0226
 8065SOL     OW35653   1.086   1.304   1.895  0.6323  0.4947 -0.1369
 8065SOL    HW135654   1.001   1.320   1.852  1.4876  2.3233 -1.1308
 8065SOL    HW235655   1.149   1.306   1.824  1.3522  0.7985  0.5145
 8066SOL     OW35656   4.080   0.616  16.596 -0.3053 -0.1699 -0.1291
 8066SOL    HW135657   4.146   0.656  16.541  0.2664 -0.1111  0.5953
 8066SOL    HW235658   4.042   0.690  16.644 -0.5958  0.0246 -0.6566
 8067SOL     OW35659   2.415   3.719   0.052  0.0376 -0.4224 -0.0363
 8067SOL    HW135660   2.336   3.675   0.083 -0.8346  0.5665 -0.8528
 8067SOL    HW235661   2.388   3.806   0.082 -1.9840 -1.4868  1.2881
 8068SOL     OW35662   4.582   3.192   1.417 -0.1253  0.1171 -0.0485
 8068SOL    HW135663   4.540   3.144   1.488  0.1134  1.5862  1.0800
 8068SOL    HW235664   4.525   3.269   1.413  0.0096  0.2541  0.6271
 8069SOL     OW35665   2.009   1.455   8.482 -0.5730  0.1753 -0.2248
 8069SOL    HW135666   1.952   1.400   8.536 -0.6544  0.0973 -0.3878
 8069SOL    HW235667   2.041   1.517   8.547 -1.6317  1.4087 -0.8921
 8070SOL     OW35668   3.384   4.202   6.332  0.0805 -0.5519 -0.4752
 8070SOL    HW135669   3.318   4.212   6.400 -2.3483  0.5021 -2.9781
 8070SOL    HW235670   3.435   4.129   6.369  1.7540  1.5678  1.3728
 8071SOL     OW35671   2.238   4.061   7.854  0.3643  0.6873 -0.3604
 8071SOL    HW135672   2.297   4.095   7.786  3.5340 -0.1691  1.9670
 8071SOL    HW235673   2.174   4.132   7.844 -0.5793 -0.1681 -0.3463
 8072SOL     OW35674   3.737   0.415   3.040 -0.1384  1.1577  0.1608
 8072SOL    HW135675   3.807   0.423   2.975  1.0982  1.3833  1.5066
 8072SOL    HW235676   3.771   0.357   3.108  0.5729 -0.1908 -1.3425
 8073SOL     OW35677   2.178   3.977   0.620  0.3293 -0.0386 -0.3984
 8073SOL    HW135678   2.197   3.950   0.530 -1.4305 -2.6006 -0.0119
 8073SOL    HW235679   2.268   3.981   0.653 -0.8978  1.6431  2.7915
 8074SOL     OW35680   4.553   4.704   7.024  0.1419 -0.2658  0.4916
 8074SOL    HW135681   4.575   0.064   7.068 -0.0268  0.1193 -0.1383
 8074SOL    HW235682   4.492   0.030   6.969 -0.1735 -2.1927 -0.8270
 8075SOL     OW35683   3.923   1.938   6.397 -0.4788  0.3283 -0.2354
 8075SOL    HW135684   3.863   2.001   6.356 -1.5796  0.6733  1.9006
 8075SOL    HW235685   3.930   1.970   6.487  1.2298  1.1823 -0.6743
 8076SOL     OW35686   2.423   4.151   2.458 -0.4400  0.2885  0.1792
 8076SOL    HW135687   2.517   4.135   2.460 -0.5179 -0.0643  1.0315
 8076SOL    HW235688   2.390   4.159   2.547  0.0340 -2.3144  0.5879
 8077SOL     OW35689   4.087   2.079   1.119 -0.7425  1.0314 -0.0733
 8077SOL    HW135690   4.037   2.136   1.060  0.2290  0.5484 -1.3390
 8077SOL    HW235691   4.020   2.077   1.188 -0.5617  0.5919  0.0842
 8078SOL     OW35692   4.205   1.866   1.916  0.4802 -0.0210 -0.0012
 8078SOL    HW135693   4.263   1.797   1.884 -0.1331 -0.0682 -0.9950
 8078SOL    HW235694   4.255   1.944   1.893  1.1520 -0.4692 -0.0471
 8079SOL     OW35695   0.220   0.660   3.572 -0.0163 -0.1139 -0.2000
 8079SOL    HW135696   0.226   0.735   3.630 -3.0866  0.4633 -0.6508
 8079SOL    HW235697   0.244   0.708   3.493 -1.7515  1.4185  0.2043
 8080SOL     OW35698   1.886   4.604   1.328 -0.2272 -0.0653  0.3513
 8080SOL    HW135699   1.860   4.682   1.279  0.5260 -0.7722 -1.1804
 8080SOL    HW235700   1.979   4.622   1.342 -0.0197  0.3934 -1.6494
 8081SOL     OW35701   0.753   0.454  14.923 -0.3593  0.0267  0.9135
 8081SOL    HW135702   0.841   0.470  14.959 -0.4443 -2.1751  2.1013
 8081SOL    HW235703   0.737   0.365  14.954 -3.3259  0.3667  0.3438
 8082SOL     OW35704   2.570   3.432   7.391  0.4287 -0.1848 -0.2904
 8082SOL    HW135705   2.601   3.518   7.363  1.5329 -0.9876 -1.5242
 8082SOL    HW235706   2.606   3.387   7.315 -1.3357 -0.8308 -0.7349
 8083SOL     OW35707   3.711   2.587   4.328 -0.0592  0.3435  0.0173
 8083SOL    HW135708   3.773   2.529   4.285  0.8672  0.6908  0.8861
 8083SOL    HW235709   3.697   2.645   4.253 -0.2403 -0.5111 -0.6034
 8084SOL     OW35710   3.891   3.671   5.773 -0.3800  0.0445 -0.4684
 8084SOL    HW135711   3.959   3.726   5.734  2.1882 -2.4839  0.4009
 8084SOL    HW235712   3.814   3.726   5.760  0.5075  0.9138 -2.0459
 8085SOL     OW35713   3.837   0.423   5.571 -0.9202 -0.1036  0.5513
 8085SOL    HW135714   3.842   0.430   5.667  0.4292 -0.4540  0.5017
 8085SOL    HW235715   3.916   0.473   5.552 -1.0229 -0.9010 -1.9309
 8086SOL     OW35716   3.264   4.191   7.697 -0.2322 -0.2180 -0.0206
 8086SOL    HW135717   3.194   4.207   7.761 -1.7641 -0.6192 -1.6184
 8086SOL    HW235718   3.303   4.119   7.747 -0.7669  1.6161  3.0513
 8087SOL     OW35719   1.711   0.928   8.126 -0.4128 -0.2307  0.3270
 8087SOL    HW135720   1.701   0.876   8.046  1.0877 -1.3252  0.8598
 8087SOL    HW235721   1.705   1.021   8.102  0.9595 -0.7149 -1.9032
 8088SOL     OW35722   1.710   4.367   1.747  0.2201  0.1315  0.0326
 8088SOL    HW135723   1.621   4.334   1.738  0.7447 -1.1833 -0.3432
 8088SOL    HW235724   1.741   4.336   1.662  0.6506  1.1646 -0.1888
 8089SOL     OW35725   4.114   0.660  16.987  0.4175  0.3158  0.1554
 8089SOL    HW135726   4.171   0.696  17.055  2.3695 -1.7368 -0.3565
 8089SOL    HW235727   4.033   0.708  17.003 -0.7154 -1.6464  0.3736
 8090SOL     OW35728   1.915   0.709  10.321  0.2031  0.3982 -0.0208
 8090SOL    HW135729   1.931   0.773  10.252 -0.3782 -1.2155 -1.6522
 8090SOL    HW235730   1.884   0.760  10.395  0.0036  0.1356  0.0749
 8091SOL     OW35731   4.061   4.235   8.929  0.2336 -0.0758 -0.4913
 8091SOL    HW135732   4.022   4.155   8.964 -1.9414  0.8744 -0.7193
 8091SOL    HW235733   4.004   4.301   8.968 -0.9574 -0.8553 -0.8939
 8092SOL     OW35734   3.458   0.639   4.188  0.1237  0.1055  0.1296
 8092SOL    HW135735   3.525   0.702   4.214 -0.1634 -0.3516  1.9803
 8092SOL    HW235736   3.462   0.638   4.093 -0.0198  1.4414  0.1047
 8093SOL     OW35737   0.511   2.124   3.957  0.0080 -0.3596  0.5430
 8093SOL    HW135738   0.474   2.211   3.939 -1.4497 -1.0636  0.2344
 8093SOL    HW235739   0.520   2.090   3.868  0.2411 -0.9996  0.8129
 8094SOL     OW35740   0.253   2.313   6.294  0.2527 -0.1657  0.2275
 8094SOL    HW135741   0.331   2.345   6.249  0.5017  1.1734  1.6405
 8094SOL    HW235742   0.270   2.358   6.377 -0.0131  0.2038  0.0808
 8095SOL     OW35743   4.269   2.814   8.253 -0.2984  0.4602 -0.0584
 8095SOL    HW135744   4.177   2.793   8.269 -0.2863  1.3875  1.1852
 8095SOL    HW235745   4.298   2.736   8.205 -0.4902  1.2969 -1.5279
 8096SOL     OW35746   3.627   0.002  15.827 -0.4153  0.2927 -0.5900
 8096SOL    HW135747   3.581   0.083  15.849 -2.6108 -1.4286  1.2272
 8096SOL    HW235748   3.656   4.690  15.911 -2.8954 -2.1640 -0.7397
 8097SOL     OW35749   4.129   2.923  12.913  0.2121 -0.8391  0.2326
 8097SOL    HW135750   4.133   2.988  12.983  0.0088 -1.0065  0.4027
 8097SOL    HW235751   4.035   2.912  12.899  0.5420 -1.9226 -1.1241
 8098SOL     OW35752   1.466   1.431   1.494  0.2983 -0.2130  0.1097
 8098SOL    HW135753   1.429   1.511   1.456  0.8042  0.7531  1.6634
 8098SOL    HW235754   1.482   1.379   1.415 -0.1300 -0.5399  0.2425
 8099SOL     OW35755   3.085   4.588   2.058 -0.0504 -0.0333  0.2819
 8099SOL    HW135756   3.134   4.550   2.130  1.0521 -1.5404 -1.2604
 8099SOL    HW235757   3.061   4.672   2.098  0.2533  0.9878 -1.6547
 8100SOL     OW35758   1.100   1.870   4.404  0.3911 -0.5397 -0.4461
 8100SOL    HW135759   1.126   1.882   4.496  1.1175  0.4817 -0.7911
 8100SOL    HW235760   1.174   1.819   4.373  1.0838 -0.2393  0.7024
 8101SOL     OW35761   3.044   2.996   8.829 -0.2175  0.1602  0.4581
 8101SOL    HW135762   3.004   3.064   8.883  0.1537 -0.3101  1.3192
 8101SOL    HW235763   3.008   2.918   8.870 -1.1409  0.5174  0.3357
 8102SOL     OW35764   2.944   4.101  15.148  0.4819  0.5167  0.4902
 8102SOL    HW135765   3.026   4.106  15.097  1.4032 -1.5169  1.7775
 8102SOL    HW235766   2.881   4.056  15.091  0.4077  0.3490  0.7049
 8103SOL     OW35767   3.832   2.211   2.714 -0.2380 -0.8384  0.0752
 8103SOL    HW135768   3.813   2.304   2.722  1.5112 -0.5968  1.4092
 8103SOL    HW235769   3.880   2.208   2.632  0.8691 -1.7739  0.7599
 8104SOL     OW35770   1.289   2.042   2.471  0.3281 -0.2956  0.2692
 8104SOL    HW135771   1.300   2.107   2.540 -0.7160 -0.8351  0.9345
 8104SOL    HW235772   1.208   2.069   2.428  0.0323  1.6761  2.1072
 8105SOL     OW35773   0.550   1.655  16.206 -0.0854  0.1762  0.4745
 8105SOL    HW135774   0.583   1.736  16.245  0.4618 -0.1001  0.5925
 8105SOL    HW235775   0.585   1.666  16.118 -0.9026  0.1127  0.1507
 8106SOL     OW35776   0.053   0.288   5.104 -0.1291 -0.1967 -0.1040
 8106SOL    HW135777   0.119   0.338   5.152 -1.6799  0.9518  0.8205
 8106SOL    HW235778   4.694   0.337   5.121 -0.1234 -0.2616  0.1213
 8107SOL     OW35779   0.735   4.473   8.439 -0.6986 -0.2909 -0.2960
 8107SOL    HW135780   0.799   4.405   8.463  0.7858  0.5964 -1.7478
 8107SOL    HW235781   0.731   4.452   8.346  0.4151 -0.5761 -0.2878
 8108SOL     OW35782   0.231   4.246   1.229 -0.3899 -0.3286 -0.4562
 8108SOL    HW135783   0.286   4.173   1.203  4.1184  3.2146 -0.9153
 8108SOL    HW235784   0.207   4.280   1.142  0.8249  0.0326 -0.6453
 8109SOL     OW35785   3.221   2.878   4.626  0.1088 -0.4277  0.4441
 8109SOL    HW135786   3.259   2.952   4.674  1.5573  0.0005 -1.3683
 8109SOL    HW235787   3.277   2.802   4.644  0.3508 -0.4215 -0.2803
 8110SOL     OW35788   1.010   3.334   4.587  0.0648  0.3233 -0.1032
 8110SOL    HW135789   0.979   3.247   4.611  0.4102 -1.2929 -5.6924
 8110SOL    HW235790   1.105   3.321   4.583 -0.1045 -0.9235 -0.0508
 8111SOL     OW35791   3.840   4.591   2.531 -0.4889  0.0377  0.4359
 8111SOL    HW135792   3.751   4.603   2.496 -0.6970  1.8661  1.6505
 8111SOL    HW235793   3.822   4.638   2.611  1.5316  1.2565  0.1632
 8112SOL     OW35794   1.847   4.407   7.312  0.6037 -0.0740 -0.0433
 8112SOL    HW135795   1.868   4.320   7.278 -3.2627  0.1228 -2.9965
 8112SOL    HW235796   1.892   4.457   7.244  1.7019 -0.7772  0.1831
 8113SOL     OW35797   1.485   3.290   9.428  0.4784  0.2138 -0.4591
 8113SOL    HW135798   1.390   3.287   9.440  0.6033  0.2905  0.5561
 8113SOL    HW235799   1.511   3.374   9.465  0.5826 -0.7231  1.6071
 8114SOL     OW35800   4.451   4.613  15.386 -0.0206  0.2922 -0.6000
 8114SOL    HW135801   4.391   4.683  15.412 -0.3140  0.2136 -1.0608
 8114SOL    HW235802   4.407   4.535  15.420 -0.7734  0.5822 -0.9031
 8115SOL     OW35803   3.374   0.377   3.172  0.2633  0.0712 -0.4186
 8115SOL    HW135804   3.409   0.451   3.121  1.1931 -0.7112 -0.8964
 8115SOL    HW235805   3.419   0.298   3.142  0.1708 -0.2948  0.4085
 8116SOL     OW35806   3.596   1.126   4.329 -0.6307 -0.0452  0.1433
 8116SOL    HW135807   3.540   1.125   4.407 -2.1281  0.2076 -0.9184
 8116SOL    HW235808   3.546   1.079   4.262 -2.0354  2.7638 -0.8349
 8117SOL     OW35809   0.301   3.192   4.974 -0.0296 -0.1861 -0.1453
 8117SOL    HW135810   0.330   3.277   5.007 -2.5645  0.4560  0.4583
 8117SOL    HW235811   0.219   3.211   4.929 -0.1646  2.7912  1.3863
 8118SOL     OW35812   0.179   1.941   3.325  0.6003 -0.2128  0.1092
 8118SOL    HW135813   0.155   1.924   3.234  1.2159  0.5914 -0.2124
 8118SOL    HW235814   0.143   2.028   3.342 -0.1159 -0.6044  0.5753
 8119SOL     OW35815   0.497   2.663   4.750 -0.4781  0.0469 -0.2753
 8119SOL    HW135816   0.511   2.686   4.658 -2.4343 -1.9582 -1.0937
 8119SOL    HW235817   0.410   2.697   4.768  1.2346  3.7141  0.9601
 8120SOL     OW35818   0.342   4.360   2.575  0.2593 -0.2774  0.4144
 8120SOL    HW135819   0.413   4.382   2.635 -1.7485 -0.0859  2.7519
 8120SOL    HW235820   0.268   4.378   2.633  0.3239 -0.9248  0.7000
 8121SOL     OW35821   4.306   4.255   6.935 -0.6006  0.3607  0.6536
 8121SOL    HW135822   4.362   4.218   7.003 -0.4736  1.2249  1.0262
 8121SOL    HW235823   4.231   4.290   6.982 -1.2516 -1.4678  0.9831
 8122SOL     OW35824   2.748   2.608   8.235 -0.2470 -1.0844  0.5212
 8122SOL    HW135825   2.811   2.544   8.268  1.1994 -1.3281 -2.7630
 8122SOL    HW235826   2.672   2.557   8.264 -1.4911 -0.8589 -2.3599
 8123SOL     OW35827   0.319   2.754   6.214 -0.4756 -0.0140  0.3601
 8123SOL    HW135828   0.345   2.839   6.178  0.1686 -0.2483  0.2739
 8123SOL    HW235829   0.367   2.703   6.149 -1.2808 -0.1537 -0.1359
 8124SOL     OW35830   1.172   3.735   7.156  0.0923  0.3932  0.6641
 8124SOL    HW135831   1.085   3.773   7.165 -0.0162  0.6590 -1.5827
 8124SOL    HW235832   1.146   3.643   7.148 -0.8837  0.8349 -1.1413
 8125SOL     OW35833   3.250   1.064   7.848 -0.3295 -0.8105  0.4614
 8125SOL    HW135834   3.178   1.011   7.881 -1.0903  0.5269  0.9428
 8125SOL    HW235835   3.248   1.048   7.753  0.4782  0.3081  0.2634
 8126SOL     OW35836   0.889   2.183   8.408 -0.5009 -0.9647 -0.3388
 8126SOL    HW135837   0.931   2.242   8.346 -0.9758 -0.8295 -0.5261
 8126SOL    HW235838   0.871   2.239   8.483 -1.2147 -0.7014 -0.7151
 8127SOL     OW35839   2.053   2.378   8.306  0.1092  0.0325 -0.0662
 8127SOL    HW135840   1.994   2.316   8.349  0.1820  0.0407  0.0453
 8127SOL    HW235841   1.996   2.444   8.267 -0.0081  0.5636  1.0071
 8128SOL     OW35842   0.771   1.224  11.849  0.4425  0.2428 -0.0889
 8128SOL    HW135843   0.738   1.134  11.854 -0.1734  0.4519 -0.3374
 8128SOL    HW235844   0.733   1.268  11.926 -1.6711 -4.6458  1.6564
 8129SOL     OW35845   0.596   2.577   4.972 -0.2241  0.4871  0.1748
 8129SOL    HW135846   0.576   2.605   4.883  0.6677  0.5022 -0.0287
 8129SOL    HW235847   0.509   2.566   5.009  0.8798  0.8612  2.8934
 8130SOL     OW35848   3.539   4.498  12.791  0.1254 -0.8376  0.4216
 8130SOL    HW135849   3.619   4.504  12.844 -0.1891  1.3234  0.6402
 8130SOL    HW235850   3.570   4.545  12.714 -2.4622  0.7729  0.3942
 8131SOL     OW35851   2.727   0.256  14.504  0.5837  0.0366  0.0724
 8131SOL    HW135852   2.655   0.302  14.548  0.3011  0.8387 -1.2465
 8131SOL    HW235853   2.749   0.183  14.562 -1.7981  1.0861  2.3189
 8132SOL     OW35854   1.323   3.488   4.579 -0.5864  0.0311  0.1090
 8132SOL    HW135855   1.320   3.512   4.671  2.1423 -0.1129  0.2134
 8132SOL    HW235856   1.262   3.549   4.536  0.1996  0.2473 -0.6884
 8133SOL     OW35857   2.822   2.468  12.680 -0.3587 -0.0084 -0.2373
 8133SOL    HW135858   2.834   2.378  12.648  0.7263 -0.5784  1.7593
 8133SOL    HW235859   2.827   2.508  12.593  0.4199 -0.7410 -0.5332
 8134SOL     OW35860   1.343   3.254  17.065 -0.0097  0.1095 -0.6956
 8134SOL    HW135861   1.360   3.203  16.986  2.9371 -0.9661  0.6313
 8134SOL    HW235862   1.328   3.342  17.030  0.2251  0.7481  0.8179
 8135SOL     OW35863   3.114   3.082   6.097 -0.3162 -0.4490  0.2918
 8135SOL    HW135864   3.070   3.014   6.148  0.9620 -1.9192 -0.5388
 8135SOL    HW235865   3.161   3.116   6.173 -0.9276  2.2626 -0.5586
 8136SOL     OW35866   3.462   3.552   7.291  0.3603  0.1833  0.1694
 8136SOL    HW135867   3.510   3.508   7.221 -0.4036 -1.7333  0.8461
 8136SOL    HW235868   3.384   3.497   7.298 -0.4839  1.2148 -1.1671
 8137SOL     OW35869   4.684   2.364   4.072  0.2771  0.2139  0.0566
 8137SOL    HW135870   4.662   2.274   4.097 -0.7242  0.6766  0.8104
 8137SOL    HW235871   4.600   2.409   4.075  0.0946 -0.1302  0.1428
 8138SOL     OW35872   2.073   2.018   8.515 -0.5704 -0.5047 -0.0224
 8138SOL    HW135873   2.015   2.093   8.529 -1.2676 -0.8237 -1.2190
 8138SOL    HW235874   2.103   2.037   8.426 -2.1066 -0.7565 -0.5840
 8139SOL     OW35875   0.665   3.039   5.086  0.3862 -0.0371 -1.0971
 8139SOL    HW135876   0.633   3.094   5.015  2.6166  0.3719 -1.8052
 8139SOL    HW235877   0.702   2.967   5.034 -0.0498 -1.2689  0.2747
 8140SOL     OW35878   1.184   0.994  13.448 -0.8800  0.1509  0.5416
 8140SOL    HW135879   1.209   1.003  13.540  0.6001 -1.0735  0.2490
 8140SOL    HW235880   1.244   0.920  13.435  0.5996  1.5535 -0.6765
 8141SOL     OW35881   1.162   3.478   8.537  0.2307  0.0529 -0.0161
 8141SOL    HW135882   1.128   3.564   8.562 -2.1670 -1.2876  1.3185
 8141SOL    HW235883   1.254   3.495   8.555  0.5094 -3.9027  2.3812
 8142SOL     OW35884   2.279   0.310   3.210 -0.2287 -0.2260 -0.1848
 8142SOL    HW135885   2.318   0.222   3.206 -0.9394 -0.6165  1.7075
 8142SOL    HW235886   2.289   0.320   3.304 -2.0914  3.8160 -0.4216
 8143SOL     OW35887   3.137   3.226   5.021 -0.1182 -0.3750  0.5602
 8143SOL    HW135888   3.071   3.294   5.029 -0.3140 -0.8601  3.3775
 8143SOL    HW235889   3.213   3.271   5.057 -0.6342  0.2580  0.8657
 8144SOL     OW35890   1.299   4.081   7.954 -0.3881  0.3001 -0.3110
 8144SOL    HW135891   1.341   4.162   7.925 -0.5258  0.4745 -0.0284
 8144SOL    HW235892   1.330   4.007   7.902  1.8157  0.6654  0.4867
 8145SOL     OW35893   2.851   2.626  11.553  0.1983  1.1117 -0.5360
 8145SOL    HW135894   2.804   2.640  11.635 -1.5890 -0.0570 -1.3490
 8145SOL    HW235895   2.916   2.696  11.564  2.0674 -0.7827  0.3788
 8146SOL     OW35896   3.602   0.465  12.159 -0.3601  0.2902 -0.1250
 8146SOL    HW135897   3.635   0.410  12.088 -1.7313 -1.0865  0.3102
 8146SOL    HW235898   3.650   0.548  12.149  1.2290 -0.5605  0.3989
 8147SOL     OW35899   1.554   0.207   8.501 -0.1452 -0.9489  0.3733
 8147SOL    HW135900   1.565   0.113   8.513  0.4428 -1.0262 -0.7655
 8147SOL    HW235901   1.460   0.202   8.487 -0.3670  1.2155  1.0128
 8148SOL     OW35902   0.310   0.994   6.090  0.2220 -0.0064 -0.3104
 8148SOL    HW135903   0.314   0.900   6.109 -0.7578  0.1237  0.5504
 8148SOL    HW235904   0.276   1.026   6.174 -2.5644 -0.2348 -1.3385
 8149SOL     OW35905   4.258   2.306   2.261 -0.2530  0.0323  0.0559
 8149SOL    HW135906   4.211   2.327   2.180  0.0950 -1.9083 -0.6488
 8149SOL    HW235907   4.258   2.385   2.315 -1.4711 -0.9210  1.4309
 8150SOL     OW35908   1.924   2.718   8.930 -0.0568 -0.6948  0.2026
 8150SOL    HW135909   1.862   2.770   8.879 -1.0024 -0.4262  1.6278
 8150SOL    HW235910   2.007   2.754   8.898 -0.8920  2.0015  1.0774
 8151SOL     OW35911   3.576   4.338   3.740 -0.2028  0.5763 -0.2481
 8151SOL    HW135912   3.534   4.329   3.654  0.7487  0.3523 -0.6889
 8151SOL    HW235913   3.584   4.251   3.778 -0.4002  1.2011  1.2166
 8152SOL     OW35914   4.258   0.930   9.686 -0.5153  0.4650 -0.0864
 8152SOL    HW135915   4.311   1.004   9.716  3.4483 -1.8107 -1.4346
 8152SOL    HW235916   4.309   0.910   9.607 -2.1405  1.4570 -1.3811
 8153SOL     OW35917   1.613   1.752   4.661  0.2443 -0.0191  0.1232
 8153SOL    HW135918   1.616   1.738   4.566 -0.5860 -0.5905  0.1781
 8153SOL    HW235919   1.606   1.848   4.657  2.4293  0.1163 -0.7660
 8154SOL     OW35920   3.662   2.598   9.345 -0.1805  0.0772  0.5322
 8154SOL    HW135921   3.738   2.609   9.402 -0.1527  0.8923  0.3371
 8154SOL    HW235922   3.712   2.580   9.265  0.7569 -0.6261  1.2777
 8155SOL     OW35923   3.302   2.817   5.636 -0.4861  0.3075  0.4480
 8155SOL    HW135924   3.214   2.805   5.671 -0.5121 -1.7895 -0.3363
 8155SOL    HW235925   3.290   2.875   5.562  2.7890  1.6145  0.9246
 8156SOL     OW35926   2.905   0.344   4.725  0.3774 -0.0128  0.6263
 8156SOL    HW135927   2.917   0.438   4.731  0.6776 -0.0063 -0.1383
 8156SOL    HW235928   2.813   0.337   4.751 -0.1558  1.1580 -1.0036
 8157SOL     OW35929   1.895   1.019  15.493  0.3126 -0.6167  0.1181
 8157SOL    HW135930   1.884   1.094  15.434 -2.3812 -0.9116  0.2550
 8157SOL    HW235931   1.982   0.992  15.464  0.9764  0.7535  0.8107
 8158SOL     OW35932   2.209   1.069   4.497  0.2920  0.1030 -0.0652
 8158SOL    HW135933   2.276   1.016   4.455  1.4143  3.4463 -2.4622
 8158SOL    HW235934   2.137   1.009   4.516 -0.7280  0.7494 -1.9217
 8159SOL     OW35935   2.606   0.583   3.220  0.0954 -0.0379 -0.0976
 8159SOL    HW135936   2.627   0.495   3.253  2.4370  0.9737  1.0605
 8159SOL    HW235937   2.560   0.558   3.140 -1.5764  2.9413 -0.0662
 8160SOL     OW35938   1.074   0.521  16.350 -0.0897  0.1554  0.1837
 8160SOL    HW135939   1.009   0.453  16.335  0.4760 -0.3516  0.0214
 8160SOL    HW235940   1.014   0.580  16.396  0.0940 -1.7317  2.8449
 8161SOL     OW35941   1.119   3.155  13.588  0.3946 -0.3590  0.0258
 8161SOL    HW135942   1.167   3.173  13.507  1.8985  0.5923  1.1194
 8161SOL    HW235943   1.127   3.060  13.597 -1.2790 -0.3483  1.5644
 8162SOL     OW35944   2.917   4.042   6.537 -0.3354 -0.2593 -0.4902
 8162SOL    HW135945   2.940   4.009   6.451 -0.5232 -0.4103 -0.4839
 8162SOL    HW235946   2.835   3.994   6.548 -1.3277  1.1911 -1.6943
 8163SOL     OW35947   1.291   4.150   7.251 -0.5333 -0.1780 -0.1124
 8163SOL    HW135948   1.374   4.105   7.269 -1.6343 -2.0388  0.3391
 8163SOL    HW235949   1.326   4.211   7.187 -2.6087 -0.3913 -1.4646
 8164SOL     OW35950   1.130   3.891  15.118  0.1890  0.0464  0.3398
 8164SOL    HW135951   1.155   3.954  15.050 -2.8445  1.9340  0.9621
 8164SOL    HW235952   1.060   3.942  15.160  0.6546 -0.1021  1.2927
 8165SOL     OW35953   3.814   1.152  17.055  0.0801  0.2805  0.3803
 8165SOL    HW135954   3.886   1.142  17.117 -1.3688 -0.0591  1.9997
 8165SOL    HW235955   3.860   1.134  16.973 -0.3926 -2.0183  0.6130
 8166SOL     OW35956   3.171   2.672   6.952 -0.2416  0.1385  0.1954
 8166SOL    HW135957   3.112   2.638   7.019  0.6257  2.4177  2.0986
 8166SOL    HW235958   3.186   2.760   6.985  0.0767  0.0208  0.3740
 8167SOL     OW35959   4.668   1.842   9.747  0.2500  0.3011  0.3424
 8167SOL    HW135960   4.679   1.747   9.758  1.1669  0.5223  1.4398
 8167SOL    HW235961   4.624   1.860   9.830 -0.2929  0.9886 -0.0966
 8168SOL     OW35962   2.700   1.192   6.082 -0.5602  0.4405  0.1535
 8168SOL    HW135963   2.684   1.098   6.082 -0.4177  0.4141 -0.0387
 8168SOL    HW235964   2.785   1.194   6.038 -1.2997  0.5207 -1.3041
 8169SOL     OW35965   1.199   1.592   4.631 -0.1615  0.2516 -0.2981
 8169SOL    HW135966   1.217   1.604   4.724 -1.8410 -0.8587  0.1811
 8169SOL    HW235967   1.106   1.617   4.625 -0.1976  0.4271  1.0508
 8170SOL     OW35968   2.410   0.739   7.665 -0.4509 -0.0773  0.4930
 8170SOL    HW135969   2.380   0.829   7.647  3.3505  1.2571  0.7513
 8170SOL    HW235970   2.502   0.765   7.661 -0.5741  0.0217 -1.7590
 8171SOL     OW35971   1.331   1.728  16.486 -0.2870 -0.0591 -0.4054
 8171SOL    HW135972   1.263   1.795  16.487  0.9058  1.1449 -1.5081
 8171SOL    HW235973   1.297   1.662  16.547 -1.1756 -0.8673 -1.7665
 8172SOL     OW35974   1.053   4.677   1.164  0.0414 -0.2428  0.1516
 8172SOL    HW135975   1.080   4.714   1.248  1.3156 -0.2853 -0.2384
 8172SOL    HW235976   1.053   0.033   1.109  1.4899 -0.5648 -0.3142
 8173SOL     OW35977   4.126   2.190   4.758  0.2247  0.4709  0.0850
 8173SOL    HW135978   4.210   2.183   4.805  0.5822  2.8397 -0.1653
 8173SOL    HW235979   4.068   2.203   4.833 -1.1100 -0.5670 -0.7738
 8174SOL     OW35980   1.138   3.892   2.354 -0.3768  0.3035  0.0141
 8174SOL    HW135981   1.101   3.826   2.412  0.1845 -0.7272 -0.8020
 8174SOL    HW235982   1.190   3.839   2.294 -0.1968  0.6809 -0.1593
 8175SOL     OW35983   3.541   3.438   3.371 -0.3684 -0.5753  0.1215
 8175SOL    HW135984   3.452   3.463   3.344 -0.0123  0.1059 -0.4150
 8175SOL    HW235985   3.566   3.518   3.417  0.8835 -1.9043  1.7360
 8176SOL     OW35986   3.188   2.433   4.360 -0.2732 -0.5564  0.4173
 8176SOL    HW135987   3.271   2.408   4.319 -0.2694 -0.9957  0.6887
 8176SOL    HW235988   3.159   2.342   4.365  1.5497 -1.0856  1.1363
 8177SOL     OW35989   3.325   1.243   9.385  0.0503 -0.0045  0.2108
 8177SOL    HW135990   3.290   1.276   9.302  2.1628 -1.5392 -1.2863
 8177SOL    HW235991   3.283   1.157   9.394 -0.4544  0.2548  0.2885
 8178SOL     OW35992   2.237   0.414   5.632  0.9815  0.0367 -0.0376
 8178SOL    HW135993   2.209   0.415   5.540  0.7797 -0.2764  0.0185
 8178SOL    HW235994   2.280   0.500   5.633 -0.5163  0.7785  0.4331
 8179SOL     OW35995   4.358   4.647   1.303  0.0963  0.3938 -0.1233
 8179SOL    HW135996   4.328   4.580   1.241 -0.4867  0.2959  0.2657
 8179SOL    HW235997   4.271   4.667   1.338 -0.6129  1.1060 -2.2747
 8180SOL     OW35998   1.379   1.112   1.936 -0.1355 -0.0986 -0.2512
 8180SOL    HW135999   1.336   1.188   1.898 -0.7550 -1.0244 -1.3760
 8180SOL    HW236000   1.431   1.084   1.861  1.1274  0.3672  0.4324
 8181SOL     OW36001   1.127   1.967   5.195 -0.1846  0.5532  0.0296
 8181SOL    HW136002   1.215   1.992   5.223 -0.5449  1.0845  0.6991
 8181SOL    HW236003   1.069   2.043   5.201 -1.9491 -0.6564 -1.7443
 8182SOL     OW36004   3.124   4.063   4.946  0.1898  0.1030 -0.2305
 8182SOL    HW136005   3.100   4.126   4.878  1.2463  1.8899  1.0268
 8182SOL    HW236006   3.079   4.096   5.025  1.3703  0.6042  0.2398
 8183SOL     OW36007   4.600   0.564   7.419 -0.3157 -0.6896  0.5371
 8183SOL    HW136008   4.624   0.569   7.511 -3.2078  1.7940  1.1488
 8183SOL    HW236009   4.511   0.598   7.423  0.5602  1.7837 -0.8021
 8184SOL     OW36010   2.280   0.577   4.058  0.3539 -0.2038  0.0827
 8184SOL    HW136011   2.366   0.562   4.019  0.0229  0.4232 -0.8762
 8184SOL    HW236012   2.271   0.672   4.057  0.8822 -0.1249  2.4912
 8185SOL     OW36013   4.021   3.389  11.887  0.4174 -0.2476 -0.2389
 8185SOL    HW136014   4.054   3.473  11.854  2.6259 -0.2446  2.0347
 8185SOL    HW236015   4.080   3.368  11.959  1.1475  0.6773 -0.5602
 8186SOL     OW36016   4.072   0.581   7.735 -0.3383  0.6165  0.0422
 8186SOL    HW136017   4.162   0.602   7.759 -1.1673  1.3870  2.5270
 8186SOL    HW236018   4.083   0.567   7.641  1.3263  1.3925  0.1130
 8187SOL     OW36019   1.212   2.299   7.350 -0.4236 -0.2036  0.2674
 8187SOL    HW136020   1.149   2.321   7.419  0.6502 -0.4770  1.3314
 8187SOL    HW236021   1.232   2.389   7.324 -0.7714  0.3100  1.7801
 8188SOL     OW36022   4.584   2.597   9.889 -0.7273 -0.2684 -0.1346
 8188SOL    HW136023   4.540   2.665   9.940  0.0490 -1.4981  2.1675
 8188SOL    HW236024   4.637   2.645   9.825  1.2210 -0.2753  1.4896
 8189SOL     OW36025   1.945   3.669  17.248  0.2368  0.0471  0.5829
 8189SOL    HW136026   1.911   3.731  17.183  1.1129  0.1680  0.2427
 8189SOL    HW236027   2.030   3.706  17.272 -0.2358  3.5900 -3.0359
 8190SOL     OW36028   4.446   4.208  13.166  0.1774  0.0790  0.1851
 8190SOL    HW136029   4.358   4.190  13.199  0.2954 -1.0341 -0.0892
 8190SOL    HW236030   4.447   4.163  13.081  0.0235 -1.2397  0.8854
 8191SOL     OW36031   1.092   4.516   1.519 -0.2610  0.3605 -0.1428
 8191SOL    HW136032   1.071   4.595   1.568 -2.7393 -0.4183  0.0545
 8191SOL    HW236033   1.172   4.539   1.471  1.4629  2.0330  3.5519
 8192SOL     OW36034   3.336   2.408  13.578 -0.1537  0.0961 -0.2020
 8192SOL    HW136035   3.305   2.497  13.565  1.7191  0.4583 -2.0276
 8192SOL    HW236036   3.251   2.364  13.574  1.0513 -2.2083 -0.2495
 8193SOL     OW36037   3.606   3.447   4.080  0.1684 -0.4818 -0.4456
 8193SOL    HW136038   3.526   3.442   4.029 -0.4108 -0.6453  0.4757
 8193SOL    HW236039   3.575   3.447   4.170 -2.8837 -0.2621 -1.5165
 8194SOL     OW36040   1.873   0.700   7.315  0.7247 -0.4120 -0.6984
 8194SOL    HW136041   1.918   0.731   7.237  1.7166  0.3960  0.1835
 8194SOL    HW236042   1.821   0.779   7.328  1.5250  0.0568 -0.2933
 8195SOL     OW36043   3.429   1.867   5.608  0.2304 -0.7697  0.2737
 8195SOL    HW136044   3.485   1.844   5.534  0.2532 -0.2109  0.1161
 8195SOL    HW236045   3.467   1.951   5.634 -1.1505  0.5385 -1.8743
 8196SOL     OW36046   2.737   4.613   3.176  0.0218 -0.2135  0.2351
 8196SOL    HW136047   2.722   4.575   3.089  1.5434 -0.9827  0.3161
 8196SOL    HW236048   2.815   4.563   3.198 -0.1473 -1.8081 -2.7272
 8197SOL     OW36049   3.349   1.145   6.448 -0.1839  0.4066  0.3021
 8197SOL    HW136050   3.309   1.232   6.437 -0.5492  0.2987  0.8096
 8197SOL    HW236051   3.332   1.122   6.539  0.4127  1.7608  0.7519
 8198SOL     OW36052   1.425   4.029   6.672 -1.0342  0.0154 -0.5014
 8198SOL    HW136053   1.358   3.997   6.611 -0.0384 -1.7147 -0.6862
 8198SOL    HW236054   1.498   3.974   6.643 -1.1607  0.2062 -1.2038
 8199SOL     OW36055   0.549   0.598  11.411 -0.3671  0.1116 -0.1436
 8199SOL    HW136056   0.551   0.505  11.435 -1.5604  0.3451  0.8516
 8199SOL    HW236057   0.643   0.611  11.422  0.2015 -2.6267 -1.6606
 8200SOL     OW36058   4.232   0.983   9.350 -0.0028  0.3521  0.3186
 8200SOL    HW136059   4.300   1.026   9.298  1.6770 -2.2494  0.3076
 8200SOL    HW236060   4.222   0.898   9.306  3.1945 -0.2928  0.7637
 8201SOL     OW36061   2.289   2.660   0.998 -0.1479  0.5899 -0.5038
 8201SOL    HW136062   2.218   2.723   1.013 -0.9709 -0.6511  0.8851
 8201SOL    HW236063   2.317   2.633   1.085 -0.5603 -2.2691 -1.2516
 8202SOL     OW36064   2.655   3.662  15.939 -0.2996 -0.0755  0.3804
 8202SOL    HW136065   2.609   3.583  15.910  1.8144 -1.0778 -0.2809
 8202SOL    HW236066   2.597   3.735  15.918 -0.7923 -0.2034  1.2913
 8203SOL     OW36067   0.444   0.109   3.186 -0.3953  0.0136 -0.0723
 8203SOL    HW136068   0.392   0.170   3.134 -1.8397 -1.8411 -0.7964
 8203SOL    HW236069   0.455   0.155   3.269 -0.8333  2.9423 -1.6120
 8204SOL     OW36070   2.182   3.739   9.241 -0.5594  0.0763 -0.6945
 8204SOL    HW136071   2.229   3.740   9.324 -1.4794 -1.4881 -0.1403
 8204SOL    HW236072   2.102   3.788   9.261  0.6762  1.3152  1.1820
 8205SOL     OW36073   3.313   3.891   4.828 -0.7084 -0.0836  0.6368
 8205SOL    HW136074   3.373   3.855   4.894 -0.7238 -0.2235  0.5757
 8205SOL    HW236075   3.261   3.954   4.877 -2.0470 -1.1921  0.6517
 8206SOL     OW36076   2.106   2.037   2.774  0.0179 -0.5382  0.3828
 8206SOL    HW136077   2.079   2.013   2.686 -0.9373  0.0484  0.5075
 8206SOL    HW236078   2.138   2.126   2.761  1.9499 -1.3774 -0.5488
 8207SOL     OW36079   4.438   2.395   4.352  0.1904  0.2524  0.1187
 8207SOL    HW136080   4.363   2.335   4.347  1.5623 -1.2992 -2.1043
 8207SOL    HW236081   4.498   2.354   4.414  1.0378  1.6495  0.2183
 8208SOL     OW36082   2.198   2.666  13.432  0.2645  0.2383  0.0152
 8208SOL    HW136083   2.293   2.652  13.440  0.3915  1.8309  1.2515
 8208SOL    HW236084   2.175   2.587  13.480 -2.2657  0.6877 -0.4720
 8209SOL     OW36085   2.260   2.204   6.817 -0.5854  0.1800  0.1314
 8209SOL    HW136086   2.297   2.246   6.895  0.8306 -1.1181  0.1559
 8209SOL    HW236087   2.171   2.240   6.816 -0.0650  1.5023  0.9326
 8210SOL     OW36088   1.523   1.582   5.823 -0.0273  0.3900  0.3323
 8210SOL    HW136089   1.489   1.562   5.736  1.5115 -0.7481 -0.0125
 8210SOL    HW236090   1.619   1.589   5.818  0.0526 -1.1697 -0.4924
 8211SOL     OW36091   1.128   0.430   8.034  0.5292 -0.0971 -0.1593
 8211SOL    HW136092   1.122   0.355   7.975 -2.1622 -0.8455  1.0845
 8211SOL    HW236093   1.060   0.487   7.997 -1.7505 -1.4622  1.8731
 8212SOL     OW36094   1.648   1.362  14.830  0.1361 -0.3654 -0.0900
 8212SOL    HW136095   1.648   1.304  14.754  0.7536 -1.0463  0.4255
 8212SOL    HW236096   1.656   1.293  14.897  1.8204  1.3953  1.5297
 8213SOL     OW36097   4.445   2.701   3.629 -0.4724 -0.0151 -0.0658
 8213SOL    HW136098   4.358   2.738   3.644  0.7097  2.9037 -0.4844
 8213SOL    HW236099   4.433   2.628   3.691 -0.7195  0.2831  0.2386
 8214SOL     OW36100   1.820   3.849   7.103  0.2433  0.5103  0.5119
 8214SOL    HW136101   1.809   3.837   7.197 -2.1939 -0.7274  0.0589
 8214SOL    HW236102   1.752   3.793   7.065 -0.0076  1.3440 -0.2617
 8215SOL     OW36103   3.828   3.735  11.640 -0.1912  0.8573  0.2861
 8215SOL    HW136104   3.734   3.723  11.631 -0.2281  2.8103 -1.7123
 8215SOL    HW236105   3.848   3.766  11.552  3.0138  1.4901  1.2175
 8216SOL     OW36106   4.292   2.533   5.431 -0.0171 -0.2258 -0.0990
 8216SOL    HW136107   4.213   2.495   5.392 -0.6680  0.4025  0.6124
 8216SOL    HW236108   4.273   2.516   5.523 -0.2850  0.2004 -0.0761
 8217SOL     OW36109   1.341   4.324   1.452 -0.4836 -0.5977  0.3053
 8217SOL    HW136110   1.295   4.300   1.373  0.4043 -1.2244 -0.0228
 8217SOL    HW236111   1.350   4.420   1.450 -1.3964 -0.4675  2.1383
 8218SOL     OW36112   2.440   1.990  16.103 -0.6830 -0.7554 -0.5106
 8218SOL    HW136113   2.522   1.977  16.056 -0.2967  0.7484 -0.2443
 8218SOL    HW236114   2.372   1.950  16.048 -0.6044  1.3421 -2.1686
 8219SOL     OW36115   3.599   2.605   5.344  0.2061 -0.2628 -0.0397
 8219SOL    HW136116   3.562   2.681   5.299  2.6024 -0.0989 -1.7433
 8219SOL    HW236117   3.655   2.567   5.276  0.4443  0.3651 -0.1865
 8220SOL     OW36118   1.905   2.827  16.199  0.1643 -0.0655  0.4772
 8220SOL    HW136119   1.864   2.909  16.228 -0.5832  0.8346 -3.2052
 8220SOL    HW236120   1.832   2.778  16.161  0.0219  2.2317 -2.2140
 8221SOL     OW36121   2.250   1.187   2.337  0.4405 -0.2906  0.6365
 8221SOL    HW136122   2.222   1.230   2.418 -1.1983 -2.7855  1.3943
 8221SOL    HW236123   2.196   1.249   2.287 -0.3387  0.0450  1.8840
 8222SOL     OW36124   4.712   0.438  11.787 -0.1638  0.3031 -0.0865
 8222SOL    HW136125   4.697   0.379  11.860 -1.7978  1.8830  0.8724
 8222SOL    HW236126   4.695   0.523  11.829  0.7137  1.2618 -1.6781
 8223SOL     OW36127   1.214   4.059   1.292 -0.0437 -0.0260  0.6493
 8223SOL    HW136128   1.141   4.121   1.297 -1.0958 -1.2572  0.7203
 8223SOL    HW236129   1.234   4.063   1.199 -0.9214  0.9462  0.5048
 8224SOL     OW36130   2.079   1.861   7.780  0.1923  0.0323 -0.6135
 8224SOL    HW136131   1.996   1.887   7.819  1.6544  1.6363  1.4744
 8224SOL    HW236132   2.116   1.949   7.770 -0.0563  0.3367  1.1868
 8225SOL     OW36133   0.161   0.872   6.853 -0.1095  0.1848 -0.3356
 8225SOL    HW136134   0.195   0.789   6.821 -1.6460 -1.1682  1.5218
 8225SOL    HW236135   0.219   0.885   6.928 -0.6177  1.9517 -0.2312
 8226SOL     OW36136   4.001   1.096  17.313  0.1793  0.4867  0.2043
 8226SOL    HW136137   3.981   1.003  17.302  3.4741 -0.2046 -0.0591
 8226SOL    HW236138   3.936   1.128  17.375  1.4107  2.2259  0.5957
 8227SOL     OW36139   0.133   3.558  10.126 -0.0029 -0.8134  0.1729
 8227SOL    HW136140   0.150   3.587  10.216 -2.2050  0.3381  0.2196
 8227SOL    HW236141   0.058   3.501  10.144  0.6852 -1.1598  1.9340
 8228SOL     OW36142   3.081   4.581   2.753  0.4278 -0.0511  0.1123
 8228SOL    HW136143   3.041   4.623   2.677  1.8162 -0.7066 -0.9908
 8228SOL    HW236144   3.134   4.517   2.705 -0.1675 -0.9218  0.6040
 8229SOL     OW36145   1.925   0.940   5.230 -0.4390 -0.2726 -0.2072
 8229SOL    HW136146   1.930   0.862   5.175 -0.8345 -0.9139  0.6827
 8229SOL    HW236147   1.862   0.992   5.179  0.9552 -0.0395 -1.6905
 8230SOL     OW36148   1.078   1.695   5.216 -0.1710  0.4313  0.1609
 8230SOL    HW136149   1.075   1.790   5.231 -1.5021  0.3007  0.7374
 8230SOL    HW236150   1.010   1.671   5.279 -1.6962  0.7838 -1.3359
 8231SOL     OW36151   4.252   2.726  14.745 -0.0269 -0.1736  0.3975
 8231SOL    HW136152   4.217   2.814  14.737  0.8996  0.2396  0.9532
 8231SOL    HW236153   4.225   2.700  14.833  1.5663 -1.8421  0.4051
 8232SOL     OW36154   0.955   0.047  14.021 -0.3737  0.1462  0.1410
 8232SOL    HW136155   0.924   4.717  13.948 -0.7791 -1.6029  1.5764
 8232SOL    HW236156   0.994   0.121  13.975  2.3015 -1.3509  0.0020
 8233SOL     OW36157   1.072   4.041  14.882 -0.0411  0.0616  0.3222
 8233SOL    HW136158   1.070   4.026  14.787 -2.5042 -1.5442  0.6055
 8233SOL    HW236159   0.977   4.047  14.895 -0.2426  0.7109 -1.3935
 8234SOL     OW36160   2.801   3.565   1.420  0.0612 -0.0074  0.0385
 8234SOL    HW136161   2.819   3.525   1.334  0.9814 -3.5728  1.8683
 8234SOL    HW236162   2.721   3.517   1.443  0.0707 -1.2315 -2.4222
 8235SOL     OW36163   3.933   3.015   8.191 -0.3061  0.7888 -0.8785
 8235SOL    HW136164   3.850   3.001   8.236 -0.2976  1.5719 -0.6235
 8235SOL    HW236165   3.923   3.099   8.147 -0.6113  0.9415 -0.5136
 8236SOL     OW36166   3.411   1.164  17.114 -0.2132 -0.6465  0.2294
 8236SOL    HW136167   3.367   1.111  17.180 -0.3081 -3.9641 -2.4913
 8236SOL    HW236168   3.361   1.146  17.034  0.8359 -2.2608 -0.0568
 8237SOL     OW36169   0.739   0.049   3.442  0.3871 -0.1753  0.8082
 8237SOL    HW136170   0.815   0.065   3.498 -0.5494  1.7957  1.5328
 8237SOL    HW236171   0.776   4.701   3.389 -0.6247 -0.3838  0.3717
 8238SOL     OW36172   4.439   2.258   1.812  0.3387 -0.2195  0.2226
 8238SOL    HW136173   4.395   2.340   1.790 -1.9923 -1.3424  0.7676
 8238SOL    HW236174   4.472   2.284   1.898 -1.8165 -0.8356  1.2293
 8239SOL     OW36175   3.941   3.522  10.655 -0.1048 -0.8884  0.5545
 8239SOL    HW136176   4.019   3.475  10.625 -0.8392 -2.0280  0.4087
 8239SOL    HW236177   3.934   3.590  10.588  0.1538  1.5609  3.0457
 8240SOL     OW36178   4.454   0.264  15.962  0.6345  0.5311 -0.0780
 8240SOL    HW136179   4.416   0.352  15.958 -0.4662 -0.0273 -2.0791
 8240SOL    HW236180   4.375   0.224  15.999  1.2945  0.0274  0.7897
 8241SOL     OW36181   0.103   1.996  17.256 -0.0350  0.2285 -0.1907
 8241SOL    HW136182   0.090   1.995  17.351 -0.1073  1.1747 -0.1875
 8241SOL    HW236183   0.188   2.040  17.251 -1.0080  1.9479 -1.6979
 8242SOL     OW36184   1.623   1.996   7.631  0.2443 -0.4346 -0.5870
 8242SOL    HW136185   1.569   1.920   7.609 -0.7336 -0.2845  1.2802
 8242SOL    HW236186   1.580   2.060   7.574 -0.2352 -1.5191 -1.4494
 8243SOL     OW36187   1.246   1.109   7.283  0.2660  0.0295 -0.4115
 8243SOL    HW136188   1.273   1.197   7.310  0.9608 -0.0323 -0.9065
 8243SOL    HW236189   1.151   1.118   7.280  0.2404 -0.7136 -1.4485
 8244SOL     OW36190   3.773   3.596   9.612  0.6826 -0.1989 -0.3082
 8244SOL    HW136191   3.791   3.512   9.572 -1.8723 -1.2121  0.6734
 8244SOL    HW236192   3.686   3.618   9.578  0.4124  0.8101  1.0144
 8245SOL     OW36193   0.993   3.769   1.366  0.0436  0.5039  0.2053
 8245SOL    HW136194   0.901   3.789   1.385  1.0496  3.8394  1.5733
 8245SOL    HW236195   1.039   3.837   1.415  0.1173 -0.3467  1.3106
 8246SOL     OW36196   3.842   0.417   4.710 -0.3439  0.1156  0.4536
 8246SOL    HW136197   3.891   0.335   4.700  0.6283  0.6370  1.0020
 8246SOL    HW236198   3.756   0.399   4.671 -0.2916 -0.7527  0.7153
 8247SOL     OW36199   2.212   1.837   6.120 -0.1085  0.1848 -0.0163
 8247SOL    HW136200   2.189   1.834   6.213  0.3490 -0.2257  0.0837
 8247SOL    HW236201   2.306   1.849   6.128 -0.0108  0.2075 -1.2076
 8248SOL     OW36202   4.040   2.510   9.313  0.8634  0.2740  0.1129
 8248SOL    HW136203   3.976   2.539   9.377  1.5077  0.9423  0.4486
 8248SOL    HW236204   4.029   2.586   9.256  2.6826 -1.1420 -2.1519
 8249SOL     OW36205   4.234   0.933  11.469  0.8580  0.3569  0.4577
 8249SOL    HW136206   4.323   0.927  11.436  0.3553 -1.2503 -0.6004
 8249SOL    HW236207   4.203   0.996  11.403 -1.1267 -1.6847 -0.5642
 8250SOL     OW36208   2.599   1.139   1.101 -0.3167 -0.1512  0.3609
 8250SOL    HW136209   2.631   1.104   1.018 -0.5284  0.7981 -0.1207
 8250SOL    HW236210   2.559   1.063   1.142 -5.0203  2.0246 -0.1605
 8251SOL     OW36211   2.276   2.851  13.096  0.0712  0.1797 -0.2988
 8251SOL    HW136212   2.236   2.938  13.101  1.5122  0.8837 -1.2165
 8251SOL    HW236213   2.349   2.856  13.034  0.1886  1.2337 -0.0742
 8252SOL     OW36214   1.701   1.356   9.329  0.2435 -0.1312 -0.3376
 8252SOL    HW136215   1.625   1.380   9.276 -0.7245 -1.2357  0.5370
 8252SOL    HW236216   1.702   1.422   9.398 -2.0339 -1.1316  0.6454
 8253SOL     OW36217   0.938   4.208   4.053 -0.2339 -0.3315  0.1161
 8253SOL    HW136218   0.951   4.173   4.141 -0.3849  0.9290  0.6383
 8253SOL    HW236219   1.000   4.280   4.044  0.7816 -1.2102  0.0968
 8254SOL     OW36220   3.991   2.754   5.637  0.6639 -0.3043 -0.3531
 8254SOL    HW136221   3.944   2.744   5.554 -1.2500  0.5899  0.6146
 8254SOL    HW236222   3.946   2.826   5.680  2.3140 -0.2509  1.2777
 8255SOL     OW36223   1.963   3.036   7.945 -0.5419 -0.0432  0.1620
 8255SOL    HW136224   1.980   3.099   8.015 -0.7897 -1.5864  1.5937
 8255SOL    HW236225   1.868   3.035   7.942 -0.5157 -1.2029 -0.3237
 8256SOL     OW36226   2.040   3.822   8.864 -0.3309  0.3578 -0.3993
 8256SOL    HW136227   2.053   3.885   8.935 -0.5346 -0.7910  0.6611
 8256SOL    HW236228   1.968   3.766   8.893 -1.3520  0.4890 -2.6717
 8257SOL     OW36229   3.884   3.836  15.522 -0.3003 -0.2800  0.5530
 8257SOL    HW136230   3.845   3.923  15.510  2.2053  0.7452 -0.0383
 8257SOL    HW236231   3.932   3.853  15.603 -1.6690 -0.0448  1.3206
 8258SOL     OW36232   1.961   2.306   4.376 -0.1966 -1.0823  0.2572
 8258SOL    HW136233   1.947   2.224   4.329  2.4047 -0.8585 -0.8949
 8258SOL    HW236234   1.898   2.361   4.330  1.6949 -0.6199 -1.7604
 8259SOL     OW36235   3.612   4.051   3.486 -0.2357 -0.0237 -0.5375
 8259SOL    HW136236   3.532   4.050   3.433 -0.9074 -2.8707  0.5701
 8259SOL    HW236237   3.570   4.030   3.569 -2.0793  0.7426 -1.2791
 8260SOL     OW36238   0.976   0.784   2.839  0.1742  0.4422 -0.7565
 8260SOL    HW136239   1.036   0.856   2.859 -0.5758  1.2065 -1.2812
 8260SOL    HW236240   1.038   0.716   2.811  0.8385  0.5854  0.3867
 8261SOL     OW36241   1.230   4.084   0.352  0.0454  0.1186 -0.4196
 8261SOL    HW136242   1.168   4.026   0.307 -0.6565 -2.0557  3.4241
 8261SOL    HW236243   1.169   4.133   0.406  0.6980 -0.1409  0.5432
 8262SOL     OW36244   2.659   0.261   8.184 -0.4272  0.2856 -0.0868
 8262SOL    HW136245   2.578   0.301   8.154 -1.3811 -0.5159  1.4121
 8262SOL    HW236246   2.625   0.183   8.228 -1.9880  0.7081 -0.5597
 8263SOL     OW36247   4.397   4.605   2.949  0.8779  0.1158  0.3410
 8263SOL    HW136248   4.393   4.524   3.002  1.1751 -0.0950  0.0359
 8263SOL    HW236249   4.466   4.652   2.996 -2.0435  1.9221  2.8291
 8264SOL     OW36250   0.581   3.061   2.777  0.2667 -0.8275 -0.6145
 8264SOL    HW136251   0.602   3.151   2.753 -3.5255  1.2188  3.9485
 8264SOL    HW236252   0.542   3.073   2.863  1.4884  0.1328 -0.2017
 8265SOL     OW36253   1.185   1.501  15.859 -0.3727  0.2187 -0.1103
 8265SOL    HW136254   1.102   1.547  15.876 -0.6325 -1.3337  2.8637
 8265SOL    HW236255   1.145   1.455  15.785  1.6840 -1.5714 -0.0826
 8266SOL     OW36256   1.246   1.362   7.378  0.2553 -0.0751 -0.2336
 8266SOL    HW136257   1.200   1.437   7.340 -0.6791 -0.0752  0.9299
 8266SOL    HW236258   1.225   1.359   7.471 -0.0308 -2.7098 -0.3951
 8267SOL     OW36259   4.209   3.034   6.951 -0.5073 -0.2127 -0.6008
 8267SOL    HW136260   4.187   3.097   7.019  0.5995 -0.4107 -0.0593
 8267SOL    HW236261   4.262   2.970   6.998  0.5030  2.0738  1.3773
 8268SOL     OW36262   3.685   2.482   3.175 -0.0300  0.1690 -0.3251
 8268SOL    HW136263   3.702   2.569   3.139 -0.2392  0.6666  0.7884
 8268SOL    HW236264   3.594   2.467   3.150  0.0959 -2.5081  0.8449
 8269SOL     OW36265   3.148   0.533  17.280  0.1904  0.7015  1.0224
 8269SOL    HW136266   3.089   0.461  17.303  2.3992 -2.5167 -3.4658
 8269SOL    HW236267   3.231   0.490  17.259  1.0548  1.8699  2.0609
 8270SOL     OW36268   4.479   4.634   4.795  0.2967  0.3400 -0.8455
 8270SOL    HW136269   4.448   0.000   4.777 -1.1637 -0.0397 -0.1795
 8270SOL    HW236270   4.480   4.639   4.891 -1.0540  0.4914 -0.8383
 8271SOL     OW36271   4.073   1.822   8.721  0.2663  0.0921  0.5496
 8271SOL    HW136272   4.111   1.909   8.724 -0.2495  0.3953 -1.6603
 8271SOL    HW236273   4.015   1.847   8.649 -1.6809 -0.6405  1.8496
 8272SOL     OW36274   2.131   3.132   9.917  0.2406 -0.3601 -0.1397
 8272SOL    HW136275   2.191   3.108   9.988  0.9605  0.4862 -0.4640
 8272SOL    HW236276   2.088   3.209   9.953  0.9570 -0.4342  0.8712
 8273SOL     OW36277   3.289   1.034   6.043 -0.2825 -0.1361  0.5330
 8273SOL    HW136278   3.286   0.991   6.129 -0.7088 -1.0612  0.0559
 8273SOL    HW236279   3.304   0.966   5.978 -0.0960 -0.8638  1.3334
 8274SOL     OW36280   2.572   0.507   8.316 -0.2064  0.2027  0.1121
 8274SOL    HW136281   2.582   0.517   8.410  3.9093 -1.5328 -0.1291
 8274SOL    HW236282   2.642   0.448   8.288 -0.3361  0.2803 -0.3841
 8275SOL     OW36283   4.374   3.776   5.273  0.1751 -0.5170 -0.0624
 8275SOL    HW136284   4.410   3.777   5.185 -1.4689  0.8855 -0.7272
 8275SOL    HW236285   4.454   3.745   5.315  0.7071  1.8761  0.7057
 8276SOL     OW36286   3.308   2.375   8.377 -0.2186  0.1520  0.2344
 8276SOL    HW136287   3.236   2.434   8.352 -0.3420  0.2945  0.9390
 8276SOL    HW236288   3.323   2.400   8.467 -0.5947  0.7470  0.1283
 8277SOL     OW36289   2.021   1.031   0.288 -0.1918  0.0391  0.2208
 8277SOL    HW136290   2.028   1.120   0.323 -0.8424 -0.3991  1.4897
 8277SOL    HW236291   2.055   1.046   0.200 -0.5707 -0.3120  0.0157
 8278SOL     OW36292   1.590   0.011  15.613 -0.0401 -0.1382  0.4168
 8278SOL    HW136293   1.618   0.091  15.569 -1.0822 -1.3545 -2.4705
 8278SOL    HW236294   1.677   4.694  15.612  0.3947  0.8253 -1.2497
 8279SOL     OW36295   2.544   4.360   9.092  0.6966 -0.7082 -0.4469
 8279SOL    HW136296   2.612   4.350   9.159 -0.0622  0.3148  0.4679
 8279SOL    HW236297   2.476   4.309   9.136 -1.6461  1.1736 -1.9037
 8280SOL     OW36298   3.944   1.391  11.976  0.3534  0.3503 -0.3517
 8280SOL    HW136299   3.939   1.482  12.006  1.4405 -0.2627  1.6752
 8280SOL    HW236300   3.992   1.347  12.046 -3.5957 -1.3114  1.3467
 8281SOL     OW36301   4.632   1.053   0.469 -0.0552 -0.0921  0.5345
 8281SOL    HW136302   4.691   0.978   0.466  0.8811  0.8142 -3.6194
 8281SOL    HW236303   4.572   1.009   0.529  0.5041  0.5479  1.5745
 8282SOL     OW36304   1.682   1.546   6.914  0.1305 -0.1790  0.5774
 8282SOL    HW136305   1.709   1.517   7.001  1.3617 -0.1713  0.1892
 8282SOL    HW236306   1.667   1.639   6.930  2.0492  0.2427 -0.0999
 8283SOL     OW36307   1.304   0.523  16.500 -0.7146  0.7029  0.2596
 8283SOL    HW136308   1.211   0.543  16.489 -0.6781  0.9639  0.4391
 8283SOL    HW236309   1.334   0.585  16.434 -1.7534  0.1582 -0.7298
 8284SOL     OW36310   4.521   0.134   1.196 -0.0113 -0.1445  0.4102
 8284SOL    HW136311   4.607   0.095   1.211  0.3039  1.0511  1.6735
 8284SOL    HW236312   4.460   0.067   1.227 -0.3303  0.4034  0.9622
 8285SOL     OW36313   4.357   3.128  13.577 -0.2202  0.5990 -0.3438
 8285SOL    HW136314   4.383   3.144  13.668 -1.1818 -0.4574  0.1180
 8285SOL    HW236315   4.387   3.210  13.537  3.9930  0.3668  2.3615
 8286SOL     OW36316   1.545   3.618   5.194 -0.2709  0.0737  0.3255
 8286SOL    HW136317   1.536   3.694   5.137 -2.3291 -0.0787  0.4567
 8286SOL    HW236318   1.579   3.657   5.275 -0.7879  0.5790  0.3003
 8287SOL     OW36319   1.485   3.353  15.848 -0.4922 -0.2976 -0.0002
 8287SOL    HW136320   1.525   3.429  15.807  0.6863 -0.6349  0.5359
 8287SOL    HW236321   1.528   3.282  15.800  0.0493  0.5806 -0.8276
 8288SOL     OW36322   0.335   3.269   9.328  0.2993 -0.3786 -0.2475
 8288SOL    HW136323   0.263   3.271   9.264  0.8093 -0.5403 -0.8297
 8288SOL    HW236324   0.409   3.286   9.269  0.2391 -3.6805 -1.3164
 8289SOL     OW36325   0.249   0.390   3.589  0.3742 -0.2154  0.3503
 8289SOL    HW136326   0.284   0.385   3.678 -0.3021  0.6452  0.6680
 8289SOL    HW236327   0.232   0.485   3.586 -1.9233 -0.6916 -1.6213
 8290SOL     OW36328   3.804   2.530  14.460  0.8421  0.6238  0.2053
 8290SOL    HW136329   3.897   2.522  14.439  0.6546 -2.4996  0.6223
 8290SOL    HW236330   3.813   2.496  14.549  3.4985 -0.8171 -0.6264
 8291SOL     OW36331   3.821   2.702   3.374 -0.1744 -0.1625  0.6356
 8291SOL    HW136332   3.726   2.700   3.382  0.0814 -0.2765  3.5660
 8291SOL    HW236333   3.844   2.695   3.281 -1.8767 -0.3522  0.2216
 8292SOL     OW36334   1.966   0.665  17.051  0.0390 -0.3709 -0.5106
 8292SOL    HW136335   1.987   0.639  17.141 -2.2367 -1.2293 -0.2126
 8292SOL    HW236336   1.990   0.757  17.050 -2.5622  0.3078  0.7457
 8293SOL     OW36337   0.092   1.042   5.095 -0.3891 -0.0906  0.5574
 8293SOL    HW136338   0.187   1.040   5.083 -0.3467  1.8496  0.5842
 8293SOL    HW236339   0.074   0.958   5.139 -0.7089  0.6094  1.7630
 8294SOL     OW36340   3.100   3.146   7.165 -0.1674  0.7120 -0.7487
 8294SOL    HW136341   3.175   3.190   7.126  1.2264  0.1176  1.3381
 8294SOL    HW236342   3.082   3.212   7.232 -1.6235 -2.2570  1.7767
 8295SOL     OW36343   3.086   2.162   2.551  0.1578 -0.2184  0.2336
 8295SOL    HW136344   3.129   2.175   2.636 -1.5177 -1.2810  1.2204
 8295SOL    HW236345   3.163   2.186   2.499  1.1275 -1.5775  1.0527
 8296SOL     OW36346   3.016   2.037  16.188 -0.1984  0.1496  1.0140
 8296SOL    HW136347   3.047   2.108  16.133 -0.9863 -2.3758 -2.7122
 8296SOL    HW236348   3.078   2.032  16.260 -1.9818 -2.6233  2.3600
 8297SOL     OW36349   1.384   3.711  14.988  0.7193  0.1651 -0.1693
 8297SOL    HW136350   1.292   3.737  14.979  1.1767  2.1989  1.1601
 8297SOL    HW236351   1.379   3.621  14.954 -0.1519  0.8229 -1.7553
 8298SOL     OW36352   3.286   4.334  17.083 -0.0462 -0.6959  0.2449
 8298SOL    HW136353   3.239   4.256  17.112  0.3508 -0.6580  0.9801
 8298SOL    HW236354   3.353   4.299  17.024 -0.4757 -1.0574 -0.0278
 8299SOL     OW36355   3.232   4.679  16.004 -0.6817 -0.1909 -0.1987
 8299SOL    HW136356   3.276   4.613  15.951  0.1432 -0.6240  1.0184
 8299SOL    HW236357   3.144   4.685  15.967 -0.7150 -0.6005 -0.1866
 8300SOL     OW36358   1.187   0.276  15.446  0.1305  0.0331  0.1320
 8300SOL    HW136359   1.282   0.268  15.446  0.1366  0.0805 -0.8734
 8300SOL    HW236360   1.177   0.369  15.467 -0.7022 -0.0979  0.3179
 8301SOL     OW36361   0.419   0.149   6.963  0.5480  0.1912  0.5402
 8301SOL    HW136362   0.346   0.175   7.020 -0.0643  0.9284 -0.5869
 8301SOL    HW236363   0.388   0.070   6.918 -0.9321  0.2150  1.5239
 8302SOL     OW36364   1.703   0.432  13.280 -0.5388 -0.2355 -0.3585
 8302SOL    HW136365   1.744   0.476  13.206  2.3770  0.3184  1.6086
 8302SOL    HW236366   1.671   0.347  13.249  0.1181 -0.2729 -0.9209
 8303SOL     OW36367   0.688   3.737  12.393  0.2035  0.0261  0.4516
 8303SOL    HW136368   0.638   3.656  12.385 -0.0852  0.3805 -1.2426
 8303SOL    HW236369   0.768   3.719  12.344 -0.4561  0.9631 -0.9619
 8304SOL     OW36370   3.705   0.405   9.742  0.5145 -1.1050  0.8226
 8304SOL    HW136371   3.799   0.404   9.758  0.8394 -1.9109 -1.1721
 8304SOL    HW236372   3.687   0.344   9.670  0.6731  1.4719 -1.3855
 8305SOL     OW36373   1.434   2.568  15.093  0.0681 -0.6912  0.4368
 8305SOL    HW136374   1.516   2.541  15.052 -0.2499 -0.0058 -0.6617
 8305SOL    HW236375   1.380   2.510  15.040 -0.5646 -0.5040  0.8768
 8306SOL     OW36376   0.554   2.497  14.553 -0.3833  0.0652 -0.4576
 8306SOL    HW136377   0.475   2.533  14.514 -0.0620  1.7510  0.4132
 8306SOL    HW236378   0.604   2.576  14.575 -1.0787 -0.1293  1.8194
 8307SOL     OW36379   2.486   3.271  17.322  0.0363  0.0795 -0.2348
 8307SOL    HW136380   2.563   3.300  17.372  0.5364 -2.4675  0.4575
 8307SOL    HW236381   2.525   3.209  17.260  1.8241  0.4344  0.5303
 8308SOL     OW36382   3.666   4.242   5.102 -0.1054 -0.4624 -0.0142
 8308SOL    HW136383   3.656   4.231   5.008  0.5516 -1.6018  0.0490
 8308SOL    HW236384   3.751   4.279   5.125 -1.2180  2.8567 -1.3684
 8309SOL     OW36385   1.867   1.890   6.743  0.5779  0.0040  0.7527
 8309SOL    HW136386   1.962   1.890   6.728  0.4057  0.7013 -0.3484
 8309SOL    HW236387   1.868   1.959   6.810  1.4211 -0.2716  1.0293
 8310SOL     OW36388   0.026   2.704   2.207 -0.2636 -0.1298  0.1364
 8310SOL    HW136389   4.667   2.678   2.164 -0.4181 -0.4061  0.6064
 8310SOL    HW236390   0.058   2.616   2.228  0.1152  0.6090  2.6121
 8311SOL     OW36391   2.688   0.370   5.492 -0.3951  0.1487 -1.0602
 8311SOL    HW136392   2.609   0.394   5.442 -0.8000  0.0985 -0.4457
 8311SOL    HW236393   2.751   0.385   5.422  1.0476 -0.3505  0.1514
 8312SOL     OW36394   2.310   2.393   7.655  0.3740  0.0931 -0.4374
 8312SOL    HW136395   2.267   2.471   7.620 -2.0982 -1.0013  0.1131
 8312SOL    HW236396   2.400   2.392   7.622  0.2347  0.9144 -0.8467
 8313SOL     OW36397   3.185   4.375   4.060 -0.0696  0.1683  0.0039
 8313SOL    HW136398   3.226   4.425   3.989 -1.2908  0.0192 -0.8238
 8313SOL    HW236399   3.228   4.428   4.127  0.1325  0.0980 -0.0704
 8314SOL     OW36400   3.564   0.091   3.732 -0.8094  0.1722  0.3918
 8314SOL    HW136401   3.598   0.179   3.715  2.8517 -0.7045  3.1196
 8314SOL    HW236402   3.645   0.046   3.756 -1.1359 -0.8922 -0.5359
 8315SOL     OW36403   4.212   3.868  10.846 -0.8463  0.6479  0.0757
 8315SOL    HW136404   4.171   3.794  10.890 -1.3079  0.4218 -0.7354
 8315SOL    HW236405   4.219   3.835  10.756  0.1604 -1.5980  0.9764
 8316SOL     OW36406   1.624   0.572   7.553 -0.3227  0.1865  0.0985
 8316SOL    HW136407   1.602   0.620   7.473  0.0543  0.6125  0.2497
 8316SOL    HW236408   1.564   0.610   7.618  0.4064  0.3712  0.6687
 8317SOL     OW36409   0.850   3.614   8.250  0.6762 -0.2491 -0.1100
 8317SOL    HW136410   0.812   3.690   8.294  1.9100 -1.0410  2.2963
 8317SOL    HW236411   0.899   3.668   8.188 -3.6433  0.6284 -2.6963
 8318SOL     OW36412   0.690   1.712   1.691 -0.4344  0.2522  0.5034
 8318SOL    HW136413   0.680   1.620   1.670  1.5875 -0.1917  1.4194
 8318SOL    HW236414   0.681   1.714   1.787 -1.7233 -0.0054  0.3832
 8319SOL     OW36415   2.937   2.821  13.026 -0.5642 -0.5373  0.0648
 8319SOL    HW136416   3.004   2.863  13.079 -1.6384  0.8495  0.3274
 8319SOL    HW236417   2.983   2.741  13.002  1.4338  0.7409 -0.3051
 8320SOL     OW36418   3.629   0.951   3.239  0.0964  0.5539 -0.0639
 8320SOL    HW136419   3.546   0.925   3.201  0.3538 -1.2169  0.5901
 8320SOL    HW236420   3.667   0.866   3.261  0.1000  0.4519 -0.4706
 8321SOL     OW36421   3.292   0.371   2.387  0.5650 -0.2673 -0.2445
 8321SOL    HW136422   3.240   0.301   2.426 -0.0281  1.3167  1.8126
 8321SOL    HW236423   3.321   0.331   2.305 -2.2067 -0.7662 -0.9584
 8322SOL     OW36424   3.301   2.693   7.693  0.6042  0.0036 -0.0886
 8322SOL    HW136425   3.382   2.642   7.688  1.6396  1.4953  1.5097
 8322SOL    HW236426   3.319   2.739   7.775 -2.6415 -1.5904  1.4977
 8323SOL     OW36427   3.783   4.653   2.083  0.4848  0.7930 -0.0185
 8323SOL    HW136428   3.689   4.636   2.071  0.2342 -0.2009  3.3704
 8323SOL    HW236429   3.803   4.559   2.085 -1.2564  0.4436  1.2766
 8324SOL     OW36430   2.394   3.919  16.795  0.4521  0.4271  0.6503
 8324SOL    HW136431   2.438   3.881  16.719  1.5943  1.7733  0.6291
 8324SOL    HW236432   2.470   3.921  16.853 -0.0091 -0.0231  1.2631
 8325SOL     OW36433   2.488   2.461  11.633  0.6159  0.0995 -0.7812
 8325SOL    HW136434   2.573   2.423  11.613  1.6748  2.5129 -0.8545
 8325SOL    HW236435   2.514   2.457  11.726 -1.0390 -4.1098 -0.5107
 8326SOL     OW36436   2.859   0.381   3.577 -0.3525 -0.3090  0.2185
 8326SOL    HW136437   2.898   0.409   3.660 -0.3431  1.5232 -0.4088
 8326SOL    HW236438   2.783   0.438   3.577 -1.3577 -1.6332  1.4969
 8327SOL     OW36439   1.780   1.116   4.383  0.1290 -0.5594  0.7269
 8327SOL    HW136440   1.698   1.066   4.386 -0.4507  0.3256 -0.3070
 8327SOL    HW236441   1.772   1.178   4.456 -3.0832 -1.0848  0.8307
 8328SOL     OW36442   1.751   3.828   4.182  0.3792 -0.5316 -0.5767
 8328SOL    HW136443   1.823   3.890   4.177  2.1269 -2.6077 -0.9719
 8328SOL    HW236444   1.788   3.751   4.139  1.6318 -1.1913  1.7159
 8329SOL     OW36445   1.734   1.614   8.516  0.0174  0.1152 -0.3124
 8329SOL    HW136446   1.676   1.685   8.489 -2.2516 -1.5857  0.0934
 8329SOL    HW236447   1.749   1.571   8.432 -0.5661  0.1222 -0.4209
 8330SOL     OW36448   4.472   3.981   8.967  0.3044  0.0853  0.0832
 8330SOL    HW136449   4.528   3.961   9.042  1.2603  1.8687 -0.1348
 8330SOL    HW236450   4.539   4.002   8.902  0.0771  0.9262  0.1231
 8331SOL     OW36451   0.679   3.812   2.591 -0.2213 -0.0055  0.2942
 8331SOL    HW136452   0.699   3.728   2.632  0.5888 -0.1967 -0.4767
 8331SOL    HW236453   0.766   3.852   2.593  0.8092 -2.3471  1.5670
 8332SOL     OW36454   1.971   1.586   4.524 -0.4177 -0.3025 -0.2330
 8332SOL    HW136455   2.046   1.534   4.497  0.0826  0.3244 -0.0356
 8332SOL    HW236456   1.973   1.575   4.619  0.5211  0.7874 -0.1194
 8333SOL     OW36457   4.010   3.055   5.777  0.5099 -0.1697  0.1870
 8333SOL    HW136458   3.961   3.129   5.742 -0.4560 -0.6584  0.5015
 8333SOL    HW236459   4.038   3.015   5.695  0.4348 -0.3494  0.2481
 8334SOL     OW36460   2.425   2.552  15.439  0.3015 -0.1431  0.4746
 8334SOL    HW136461   2.504   2.600  15.414  0.5484 -1.7302 -1.8194
 8334SOL    HW236462   2.444   2.496  15.514  2.5028  0.7444  0.5791
 8335SOL     OW36463   4.238   3.226  10.789  0.2333  0.8304  0.1015
 8335SOL    HW136464   4.231   3.280  10.868  2.7962 -1.0375  1.6035
 8335SOL    HW236465   4.199   3.281  10.721  0.2659  0.2742 -0.3682
 8336SOL     OW36466   0.336   0.191   1.985  0.3247 -0.6903  0.3934
 8336SOL    HW136467   0.366   0.120   2.042  1.1106 -1.6080 -1.1799
 8336SOL    HW236468   0.290   0.138   1.920  0.8687  0.0046 -0.5633
 8337SOL     OW36469   1.419   4.158   2.840 -0.6664 -1.0088  0.0613
 8337SOL    HW136470   1.495   4.216   2.844 -2.5340  1.5658 -2.0996
 8337SOL    HW236471   1.444   4.097   2.910  1.4490 -0.8087 -0.5148
 8338SOL     OW36472   2.240   1.653  17.351 -0.1219  0.3482 -0.4625
 8338SOL    HW136473   2.208   1.664  17.441  1.4315 -0.6618  0.2182
 8338SOL    HW236474   2.169   1.675  17.291 -0.2128 -0.9622 -0.8422
 8339SOL     OW36475   4.179   1.854   7.038 -0.0684  0.4865 -0.8652
 8339SOL    HW136476   4.193   1.768   7.077 -1.1038  0.0606 -1.4452
 8339SOL    HW236477   4.261   1.871   6.992  0.7319 -5.9325 -1.7628
 8340SOL     OW36478   0.034   0.112   0.236 -0.3835 -0.5674 -0.2909
 8340SOL    HW136479   4.688   0.045   0.228  0.1130 -0.8455 -2.2671
 8340SOL    HW236480   4.721   0.179   0.177 -1.2458 -0.3023  0.5198
 8341SOL     OW36481   0.271   2.270   3.152 -0.1965  0.0095 -0.3004
 8341SOL    HW136482   0.192   2.218   3.167  0.0691 -0.7168 -1.5091
 8341SOL    HW236483   0.324   2.250   3.229 -0.4442  0.7564  0.0659
 8342SOL     OW36484   2.458   3.170   5.296  0.0323  0.0276  0.6610
 8342SOL    HW136485   2.554   3.173   5.291 -0.0977  1.3963 -0.6047
 8342SOL    HW236486   2.436   3.183   5.204 -2.5283  2.4174  1.6447
 8343SOL     OW36487   3.146   4.074  15.967  0.3837  0.6244  0.0017
 8343SOL    HW136488   3.124   4.167  15.957 -3.8901 -0.0297  2.8214
 8343SOL    HW236489   3.076   4.051  16.029 -0.8032  0.3607 -1.4417
 8344SOL     OW36490   0.980   1.282  10.194  0.1135 -0.1177 -0.6994
 8344SOL    HW136491   0.942   1.218  10.254  2.9014 -2.8653 -1.8404
 8344SOL    HW236492   1.040   1.224  10.147  2.3283  1.5359  0.0932
 8345SOL     OW36493   2.689   0.210   2.406  0.6336  0.2240  0.5973
 8345SOL    HW136494   2.627   0.163   2.350  0.8392 -0.2088  0.7336
 8345SOL    HW236495   2.643   0.285   2.444  3.2206  0.8534  2.4433
 8346SOL     OW36496   3.128   3.572  15.229 -0.4684  0.3740 -0.3124
 8346SOL    HW136497   3.121   3.620  15.312 -0.5512  0.9022 -0.6207
 8346SOL    HW236498   3.214   3.601  15.200 -0.3145  1.3301  1.0854
 8347SOL     OW36499   0.976   3.312   5.770 -0.3155  0.0127 -0.9509
 8347SOL    HW136500   1.065   3.315   5.806 -0.5141  2.2941 -0.6681
 8347SOL    HW236501   0.980   3.380   5.704 -0.5457 -1.3005 -2.3150
 8348SOL     OW36502   4.223   3.143   2.985  0.4154 -0.0046  0.3448
 8348SOL    HW136503   4.162   3.120   2.915  1.7983  1.1649 -1.2306
 8348SOL    HW236504   4.271   3.061   2.972  3.0797  1.7254 -0.7072
 8349SOL     OW36505   3.887   1.499   4.549  0.3892 -0.2068 -0.0540
 8349SOL    HW136506   3.871   1.445   4.472  1.3732 -0.1554 -0.2825
 8349SOL    HW236507   3.803   1.494   4.596  1.3718 -1.8704  1.5093
 8350SOL     OW36508   4.688   2.006   8.305 -0.4403 -0.2966  0.0313
 8350SOL    HW136509   0.057   1.996   8.332 -0.6958  1.4611  1.5495
 8350SOL    HW236510   4.654   2.071   8.367 -1.8962  1.1428 -2.2705
 8351SOL     OW36511   2.103   2.430  12.650 -0.2284 -0.5510 -0.0424
 8351SOL    HW136512   2.032   2.366  12.644 -1.2385  0.3276  2.7306
 8351SOL    HW236513   2.147   2.411  12.567 -0.1302 -2.3647  0.4216
 8352SOL     OW36514   0.665   0.243  12.032 -0.0308  0.2395 -0.0809
 8352SOL    HW136515   0.576   0.249  11.996 -0.1292 -0.7747 -0.0021
 8352SOL    HW236516   0.714   0.321  12.007  0.5070 -0.5386 -1.4110
 8353SOL     OW36517   4.295   1.301   1.691  0.5565 -0.0890  0.8219
 8353SOL    HW136518   4.380   1.260   1.675 -0.6194 -1.9020 -0.6924
 8353SOL    HW236519   4.291   1.369   1.623  2.1783 -2.1364 -1.3116
 8354SOL     OW36520   2.380   3.007  13.531 -0.4039  0.6700  0.4386
 8354SOL    HW136521   2.430   2.963  13.462 -1.6732 -0.4809  0.2586
 8354SOL    HW236522   2.406   2.955  13.607  0.4743 -0.5178 -0.6816
 8355SOL     OW36523   4.328   1.516   1.499 -0.0495 -0.3752  0.0366
 8355SOL    HW136524   4.279   1.471   1.430 -0.6102  0.0205  0.1822
 8355SOL    HW236525   4.418   1.514   1.465 -0.4907  1.2478 -1.1786
 8356SOL     OW36526   2.044   4.539   6.608  0.1298  0.1142 -0.2250
 8356SOL    HW136527   2.114   4.597   6.579 -0.7014  0.9091 -0.6324
 8356SOL    HW236528   2.070   4.454   6.572 -0.8912 -0.7385  1.0253
 8357SOL     OW36529   3.103   2.859   2.865  0.0050  0.0260  0.8208
 8357SOL    HW136530   3.017   2.854   2.907 -0.1292  0.5198  0.6147
 8357SOL    HW236531   3.076   2.881   2.776 -0.0229  2.9014  1.5219
 8358SOL     OW36532   2.151   3.193   6.683 -0.0127 -0.2783  0.2179
 8358SOL    HW136533   2.183   3.209   6.772 -1.1821 -1.5137  0.8628
 8358SOL    HW236534   2.065   3.150   6.686 -0.7029  1.1393  0.5175
 8359SOL     OW36535   1.328   0.833   4.658 -0.4460  0.0843  0.7406
 8359SOL    HW136536   1.358   0.801   4.743 -1.6672  0.2377  1.2294
 8359SOL    HW236537   1.234   0.824   4.673 -0.5104 -0.9046 -0.2522
 8360SOL     OW36538   1.546   2.790  13.855 -0.3851 -0.5558 -0.1280
 8360SOL    HW136539   1.622   2.758  13.903  0.2998 -0.5474 -1.1943
 8360SOL    HW236540   1.513   2.859  13.912 -0.6171  0.0421 -0.9726
 8361SOL     OW36541   1.782   0.237  11.732  0.0666  0.0733  0.4079
 8361SOL    HW136542   1.762   0.149  11.763 -1.6880 -0.5019 -2.3466
 8361SOL    HW236543   1.826   0.273  11.809  0.8941 -0.6355  0.2584
 8362SOL     OW36544   1.483   2.279  14.397 -0.0243 -0.0028 -0.0558
 8362SOL    HW136545   1.509   2.194  14.433 -1.6423  1.1956  3.9627
 8362SOL    HW236546   1.397   2.291  14.438  0.1749 -0.7778  0.5809
 8363SOL     OW36547   2.108   4.088   6.924 -0.2174  0.6763 -0.5949
 8363SOL    HW136548   2.013   4.096   6.934 -0.1703 -1.8400  1.8740
 8363SOL    HW236549   2.102   4.025   6.852  0.6876  0.2907 -0.3313
 8364SOL     OW36550   1.548   2.685   4.027 -0.1867 -0.3752 -0.5002
 8364SOL    HW136551   1.621   2.657   4.083 -1.6449 -0.6348  1.2575
 8364SOL    HW236552   1.595   2.693   3.944 -0.1845  1.0826 -0.3505
 8365SOL     OW36553   3.361   3.580   3.164 -0.2026 -0.1100 -0.2895
 8365SOL    HW136554   3.315   3.578   3.080  0.9838 -1.8464 -0.8813
 8365SOL    HW236555   3.445   3.621   3.145 -0.4228  0.4959  0.0372
 8366SOL     OW36556   1.845   2.466   8.594 -0.1201  0.4082 -0.1532
 8366SOL    HW136557   1.754   2.479   8.567 -0.7402 -2.0948  0.7788
 8366SOL    HW236558   1.874   2.555   8.574  0.3980  0.2044 -0.2977
 8367SOL     OW36559   2.436   4.572   6.556 -0.1122  0.3911 -0.6590
 8367SOL    HW136560   2.357   4.627   6.552  0.4060  1.1082 -0.9702
 8367SOL    HW236561   2.499   4.617   6.612  0.5844 -0.7859 -0.4991
 8368SOL     OW36562   0.940   4.516  14.977  0.2536  0.2897  0.2643
 8368SOL    HW136563   0.936   4.421  14.988  1.4702  0.2467  0.2900
 8368SOL    HW236564   0.995   4.517  14.899 -0.2006 -1.0304 -0.0797
 8369SOL     OW36565   2.640   3.656   1.048 -0.0607 -0.6618 -0.2087
 8369SOL    HW136566   2.703   3.610   1.103  0.8329 -0.2353 -0.8733
 8369SOL    HW236567   2.559   3.607   1.064  0.0301 -0.4208  0.9703
 8370SOL     OW36568   2.055   3.916  14.930 -0.2632 -0.5465 -0.3327
 8370SOL    HW136569   2.076   3.917  14.837  1.2965 -0.3720  0.0228
 8370SOL    HW236570   2.094   3.999  14.959  1.5150 -0.6510 -2.4066
 8371SOL     OW36571   4.713   0.123  12.257 -0.3936 -0.5002  0.6964
 8371SOL    HW136572   4.681   0.167  12.336  1.9901  1.1238  0.7452
 8371SOL    HW236573   0.009   0.034  12.288  0.2078 -0.4223  0.5572
 8372SOL     OW36574   4.589   2.507   4.696 -0.1036  0.6433 -0.4104
 8372SOL    HW136575   4.587   2.419   4.733  2.3084  0.8372  0.1987
 8372SOL    HW236576   4.677   2.505   4.659  0.1881 -0.0221  0.3231
 8373SOL     OW36577   1.634   0.979   5.435  0.5188 -0.3566  0.3108
 8373SOL    HW136578   1.544   0.988   5.466 -0.1968 -0.2417 -1.7695
 8373SOL    HW236579   1.623   1.060   5.384  1.4466 -1.4029 -1.5317
 8374SOL     OW36580   4.056   0.160  14.677 -0.3709  0.0863  0.5194
 8374SOL    HW136581   4.138   0.178  14.723 -0.9625  1.3585  1.0615
 8374SOL    HW236582   4.017   0.246  14.662 -0.8955  0.0067  1.4275
 8375SOL     OW36583   0.416   1.025   4.575 -0.2057 -0.1694 -0.2724
 8375SOL    HW136584   0.340   1.052   4.627  0.7928 -0.1072  1.1434
 8375SOL    HW236585   0.437   1.107   4.531 -0.1791  0.6179  1.2364
 8376SOL     OW36586   4.085   0.239   4.344 -0.3474  0.1860 -0.0658
 8376SOL    HW136587   4.062   0.164   4.288 -0.8564 -0.0099  0.4025
 8376SOL    HW236588   4.099   0.316   4.289 -0.6020  0.4109  0.1909
 8377SOL     OW36589   2.354   1.808   2.463 -0.0281  0.2152 -0.2753
 8377SOL    HW136590   2.409   1.883   2.440 -1.5231  1.5317  0.4011
 8377SOL    HW236591   2.299   1.844   2.533 -0.9538  1.3084 -1.5671
 8378SOL     OW36592   3.350   2.308   3.762  0.0365 -0.4914  0.5465
 8378SOL    HW136593   3.270   2.258   3.751  0.7385 -1.2623 -1.0377
 8378SOL    HW236594   3.385   2.284   3.676 -1.9368  2.9888 -1.2157
 8379SOL     OW36595   4.570   3.256   9.275  0.9405  0.0274 -0.5721
 8379SOL    HW136596   4.557   3.333   9.330 -1.7608  0.1954 -1.4166
 8379SOL    HW236597   4.487   3.209   9.287  2.3822 -1.9360  2.0103
 8380SOL     OW36598   3.626   0.073   8.140  0.5952  0.7709  0.7210
 8380SOL    HW136599   3.667   0.134   8.078 -0.7653  0.2436 -0.6842
 8380SOL    HW236600   3.671   4.711   8.128 -0.0039  0.2078  2.4030
 8381SOL     OW36601   4.553   1.238   1.076 -0.0085 -0.0307 -0.2158
 8381SOL    HW136602   4.565   1.267   1.167 -2.5611  1.3054 -0.2983
 8381SOL    HW236603   4.553   1.318   1.024 -0.1107  1.2617  1.7546
 8382SOL     OW36604   1.713   0.338   3.017  0.1185  0.1882  0.2213
 8382SOL    HW136605   1.804   0.365   3.029 -0.2623  1.2765  0.6203
 8382SOL    HW236606   1.715   0.261   3.075 -1.1253 -0.0011  0.0322
 8383SOL     OW36607   1.097   0.640   6.767  0.2181 -0.5343  0.3700
 8383SOL    HW136608   1.145   0.591   6.700  0.6954  0.3961  0.0264
 8383SOL    HW236609   1.108   0.599   6.852  0.3212 -0.8648  0.1971
 8384SOL     OW36610   3.597   2.851  13.362 -0.0161 -0.3240  0.7062
 8384SOL    HW136611   3.641   2.822  13.441  0.4707 -4.6125 -1.1428
 8384SOL    HW236612   3.602   2.946  13.372  0.5174 -0.3920  1.0527
 8385SOL     OW36613   0.212   0.717   4.344 -0.2447  0.4415  0.0476
 8385SOL    HW136614   0.148   0.718   4.273  0.1084 -1.2462 -0.3029
 8385SOL    HW236615   0.159   0.721   4.423 -0.4257 -0.3252 -0.0387
 8386SOL     OW36616   0.148   1.521   4.249 -0.5521 -0.0199  0.5694
 8386SOL    HW136617   0.147   1.427   4.265  1.6419 -0.3897 -1.4245
 8386SOL    HW236618   0.054   1.534   4.237 -0.5571 -1.0719 -0.4687
 8387SOL     OW36619   2.327   2.929  15.977 -0.0618  0.3682  0.5606
 8387SOL    HW136620   2.403   2.876  15.953 -0.1623 -0.4971  2.1649
 8387SOL    HW236621   2.275   2.870  16.032 -0.2036 -2.6873 -2.8569
 8388SOL     OW36622   4.579   2.884   2.805  0.2099 -0.3679 -0.2438
 8388SOL    HW136623   4.627   2.803   2.784  0.4202  0.3011 -2.2765
 8388SOL    HW236624   4.502   2.881   2.749 -0.9648  0.1194  1.3479
 8389SOL     OW36625   2.179   4.197   4.449 -0.1418 -0.3461  0.3519
 8389SOL    HW136626   2.245   4.168   4.387  0.9492 -1.3173  1.9736
 8389SOL    HW236627   2.136   4.265   4.397 -0.7486  0.3501  1.7502
 8390SOL     OW36628   1.899   3.794  15.128  0.8516  0.1552  0.0337
 8390SOL    HW136629   1.957   3.849  15.076  2.0804 -0.2146  1.0040
 8390SOL    HW236630   1.949   3.789  15.210  0.4058  0.2857  0.3182
 8391SOL     OW36631   0.364   0.405   4.146 -0.0014 -0.3719  0.3846
 8391SOL    HW136632   0.294   0.342   4.130 -1.8016  1.3949  1.4283
 8391SOL    HW236633   0.442   0.351   4.130  0.4638 -0.4638  2.9404
 8392SOL     OW36634   2.627   2.514   2.535 -0.0601 -0.5913  0.1735
 8392SOL    HW136635   2.628   2.468   2.619 -1.7744 -0.9450  0.0049
 8392SOL    HW236636   2.616   2.605   2.563  0.2490 -0.3033 -0.6215
 8393SOL     OW36637   4.035   4.277   3.303  0.2112 -0.1443 -0.1635
 8393SOL    HW136638   4.014   4.184   3.304  1.3241 -0.3960  0.2530
 8393SOL    HW236639   4.078   4.286   3.388  1.5978 -1.8100 -0.6774
 8394SOL     OW36640   2.489   1.845   6.122  0.0719 -0.0858 -0.1799
 8394SOL    HW136641   2.520   1.773   6.176 -1.8135 -1.6303 -1.1721
 8394SOL    HW236642   2.520   1.919   6.174 -0.9102  1.9838 -2.5013
 8395SOL     OW36643   0.264   0.157   8.118  0.0484  0.4885  0.3486
 8395SOL    HW136644   0.212   0.193   8.190  0.8699  0.7658  0.8097
 8395SOL    HW236645   0.276   0.235   8.064  2.6746  0.1072  0.3824
 8396SOL     OW36646   0.933   0.945   3.718  0.1503 -0.0351 -0.3558
 8396SOL    HW136647   0.888   0.963   3.801 -0.4400  0.1437 -0.7210
 8396SOL    HW236648   0.881   0.870   3.690 -2.2770  2.3321 -2.2074
 8397SOL     OW36649   2.543   2.019   5.301 -0.2526  0.2564  0.6077
 8397SOL    HW136650   2.612   2.084   5.290  0.5928 -1.0245 -1.5338
 8397SOL    HW236651   2.549   1.999   5.395  2.7637 -1.2716  0.0760
 8398SOL     OW36652   2.881   3.688  10.465 -0.0802 -0.3730 -0.3983
 8398SOL    HW136653   2.886   3.694  10.370  1.9614  2.2637 -0.1172
 8398SOL    HW236654   2.796   3.727  10.487  0.6851  1.6649 -1.1067
 8399SOL     OW36655   1.258   1.580   6.612  0.2137  0.0105 -0.0947
 8399SOL    HW136656   1.174   1.553   6.650  0.2592  0.9564  0.6663
 8399SOL    HW236657   1.324   1.525   6.655 -0.6349 -0.9708 -0.0389
 8400SOL     OW36658   0.146   2.101   7.839 -0.4293 -0.2239 -0.0744
 8400SOL    HW136659   0.074   2.163   7.849  0.9693  1.0046  2.4020
 8400SOL    HW236660   0.216   2.163   7.817 -0.6234 -0.1525 -0.4870
 8401SOL     OW36661   0.732   2.145   5.168 -0.1121  0.0603  0.1525
 8401SOL    HW136662   0.814   2.120   5.125  0.1197 -0.8350  1.1100
 8401SOL    HW236663   0.686   2.144   5.083 -0.2503 -1.2942  0.2422
 8402SOL     OW36664   2.545   3.338   3.233 -0.0777  0.2618 -0.7962
 8402SOL    HW136665   2.609   3.400   3.198  0.8800  0.2330  0.9109
 8402SOL    HW236666   2.491   3.333   3.154  1.5973  0.3711 -1.9415
 8403SOL     OW36667   2.843   3.196   8.030 -0.2390  0.2535  0.1556
 8403SOL    HW136668   2.752   3.179   8.051 -0.6434  0.8816 -1.1064
 8403SOL    HW236669   2.842   3.245   7.948  0.4789  1.6268  0.9465
 8404SOL     OW36670   0.032   2.160   5.714  0.2423  0.2208 -0.4451
 8404SOL    HW136671   4.670   2.169   5.759 -0.9500  2.0642 -3.0449
 8404SOL    HW236672   0.042   2.246   5.673  2.9770 -0.3037 -0.8527
 8405SOL     OW36673   3.630   4.071   3.999 -0.1400 -0.5188 -0.6071
 8405SOL    HW136674   3.663   4.115   4.077  2.5460 -0.3459 -1.8074
 8405SOL    HW236675   3.547   4.031   4.023 -0.3922  0.4003  0.0388
 8406SOL     OW36676   1.217   3.797  10.132  0.1200  0.1446 -0.0375
 8406SOL    HW136677   1.227   3.765  10.221 -0.9384 -1.6737 -0.5663
 8406SOL    HW236678   1.256   3.884  10.134 -1.6667  0.9404 -0.5155
 8407SOL     OW36679   2.513   2.059   6.770 -0.1256  0.2470 -0.5482
 8407SOL    HW136680   2.558   2.144   6.777 -0.8544  0.4213  1.8164
 8407SOL    HW236681   2.422   2.083   6.789 -0.7587 -2.4927 -0.2148
 8408SOL     OW36682   0.711   1.284   4.505 -0.3756 -0.1736 -0.2801
 8408SOL    HW136683   0.734   1.240   4.586 -3.0226 -1.1294 -0.0391
 8408SOL    HW236684   0.679   1.371   4.528  0.7543  0.2855 -0.4568
 8409SOL     OW36685   2.035   3.649   5.095  0.0658 -0.1070  1.2088
 8409SOL    HW136686   1.972   3.613   5.033 -0.0546  1.8309  0.2360
 8409SOL    HW236687   1.982   3.664   5.173  0.7042  2.0458  1.2071
 8410SOL     OW36688   3.049   3.655  16.579  0.7563 -0.5472  0.1182
 8410SOL    HW136689   3.051   3.704  16.661 -0.6955 -2.3867  1.2456
 8410SOL    HW236690   3.123   3.596  16.590  1.5312  0.6688  1.4298
 8411SOL     OW36691   1.165   4.198   6.721 -0.1965 -0.1574 -0.7714
 8411SOL    HW136692   1.204   4.267   6.775  0.5313 -0.7654 -0.5144
 8411SOL    HW236693   1.106   4.161   6.787 -1.5858 -1.3635 -2.6939
 8412SOL     OW36694   0.167   0.011   3.310 -0.5163 -0.5239  0.1994
 8412SOL    HW136695   0.212   4.649   3.314  2.1690  0.8934  0.2732
 8412SOL    HW236696   0.241   0.069   3.289 -1.5808  0.3346 -1.2379
 8413SOL     OW36697   2.584   3.425   5.455  0.5827 -0.4521  0.0676
 8413SOL    HW136698   2.547   3.409   5.541  1.6109  1.7940  0.9034
 8413SOL    HW236699   2.599   3.519   5.458  0.3781 -0.4249  0.2208
 8414SOL     OW36700   1.502   0.448   2.883 -0.1387 -0.1178 -0.7924
 8414SOL    HW136701   1.567   0.507   2.845 -0.1806  0.8364  0.6007
 8414SOL    HW236702   1.543   0.390   2.948 -1.2938  0.6239  0.5956
 8415SOL     OW36703   4.130   4.270   1.812 -0.0539 -0.3143  0.5764
 8415SOL    HW136704   4.178   4.191   1.784  0.7724  1.0853 -1.9344
 8415SOL    HW236705   4.127   4.316   1.728  1.3258 -3.0188 -0.9926
 8416SOL     OW36706   1.701   1.282   6.788  0.2428 -0.5631 -0.2926
 8416SOL    HW136707   1.752   1.214   6.833  0.9872 -0.3446 -0.8311
 8416SOL    HW236708   1.731   1.364   6.826  0.0232 -0.4652 -0.3298
 8417SOL     OW36709   1.020   3.780   4.195  0.1100  0.2578  0.8883
 8417SOL    HW136710   0.977   3.768   4.110 -0.5553  1.0829  1.1029
 8417SOL    HW236711   0.952   3.826   4.245 -0.2747 -0.7415  1.2761
 8418SOL     OW36712   0.795   2.900  12.151 -0.0875  0.0607  0.1586
 8418SOL    HW136713   0.763   2.846  12.224 -1.3357  0.6032  0.0248
 8418SOL    HW236714   0.767   2.984  12.188 -0.6471  0.5814 -1.4526
 8419SOL     OW36715   1.784   0.697   5.866 -0.3105 -0.6075 -0.3172
 8419SOL    HW136716   1.878   0.687   5.853 -0.5611 -0.4373 -2.2883
 8419SOL    HW236717   1.777   0.774   5.922 -1.4981 -0.4240 -0.7098
 8420SOL     OW36718   0.603   1.676   9.291  0.0300  0.0399 -0.0031
 8420SOL    HW136719   0.514   1.641   9.296  1.0728 -2.4261  1.7646
 8420SOL    HW236720   0.621   1.683   9.385  3.3794  0.1198 -0.6585
 8421SOL     OW36721   3.880   3.356   6.576  0.2911 -0.2362  0.7436
 8421SOL    HW136722   3.969   3.330   6.602  0.1350 -0.6660  0.8379
 8421SOL    HW236723   3.894   3.446   6.546 -1.9544 -0.8846 -2.2276
 8422SOL     OW36724   2.688   1.946  13.515  0.2298 -0.1881  0.0276
 8422SOL    HW136725   2.695   1.851  13.517  2.7776  0.0170  0.7839
 8422SOL    HW236726   2.602   1.958  13.555  0.4825  1.8932 -0.0442
 8423SOL     OW36727   1.169   0.533   0.551  0.0719  0.5747 -0.1616
 8423SOL    HW136728   1.244   0.474   0.544 -1.7386 -1.5335 -1.4807
 8423SOL    HW236729   1.164   0.559   0.459  2.7210  2.8755  0.3439
 8424SOL     OW36730   4.156   1.849   7.757  0.1861 -0.3610  0.0289
 8424SOL    HW136731   4.196   1.869   7.842  0.7409 -0.2003 -0.2741
 8424SOL    HW236732   4.205   1.772   7.729  0.1675 -0.0266 -0.9208
 8425SOL     OW36733   1.488   3.165  15.548 -0.2162 -0.3392 -0.2196
 8425SOL    HW136734   1.443   3.249  15.540 -0.1009 -0.4259 -1.7018
 8425SOL    HW236735   1.489   3.137  15.457  0.2012  0.3710 -0.4345
 8426SOL     OW36736   3.737   2.535  15.748 -0.2529  0.1181  0.6065
 8426SOL    HW136737   3.800   2.595  15.789 -0.0429 -0.6130  1.3427
 8426SOL    HW236738   3.701   2.588  15.676 -1.0646  1.5324  2.0332
 8427SOL     OW36739   3.750   1.465   1.117  0.4669  0.5794 -0.1046
 8427SOL    HW136740   3.838   1.426   1.115 -0.5803 -1.8589  1.7101
 8427SOL    HW236741   3.706   1.408   1.180 -0.0779  0.2520 -0.7799
 8428SOL     OW36742   2.363   3.974  10.414 -0.2334  0.2722  0.4153
 8428SOL    HW136743   2.435   3.968  10.350 -1.9575 -2.2766 -1.2854
 8428SOL    HW236744   2.307   4.027  10.357  1.0135  0.2703 -0.8278
 8429SOL     OW36745   2.283   1.885  15.905  0.3122 -0.0131 -0.2239
 8429SOL    HW136746   2.258   1.973  15.877 -1.4173 -0.9375 -1.5507
 8429SOL    HW236747   2.366   1.879  15.857  0.6504 -1.3862  0.5262
 8430SOL     OW36748   1.809   2.365  11.530  0.2770 -0.1080 -0.2258
 8430SOL    HW136749   1.896   2.327  11.538 -0.4953 -2.1976 -1.5813
 8430SOL    HW236750   1.819   2.422  11.606  0.3764 -0.4535  0.0213
 8431SOL     OW36751   4.232   3.815   0.428 -0.0167  0.0154  0.1089
 8431SOL    HW136752   4.323   3.817   0.398  0.7320  0.5264  2.4212
 8431SOL    HW236753   4.236   3.742   0.490 -4.2416 -0.4668 -0.1896
 8432SOL     OW36754   4.617   2.552   9.205  0.3384  0.2957  0.2090
 8432SOL    HW136755   4.644   2.585   9.290 -0.6004 -0.2709  0.7207
 8432SOL    HW236756   4.534   2.600   9.198  1.9361  2.9044 -0.6630
 8433SOL     OW36757   0.041   0.516   0.734 -0.2639 -0.5801 -0.8183
 8433SOL    HW136758   0.026   0.500   0.641 -0.5948  0.4706 -0.9470
 8433SOL    HW236759   0.135   0.530   0.738 -0.5101  0.1517  2.3934
 8434SOL     OW36760   3.983   1.784   5.006 -0.5180  0.0687 -0.0213
 8434SOL    HW136761   3.964   1.854   5.068  0.0258 -0.6043  0.8938
 8434SOL    HW236762   3.957   1.704   5.051 -1.8522  0.2091 -0.5361
 8435SOL     OW36763   3.849   3.981   4.541 -0.1259 -0.0043  0.1843
 8435SOL    HW136764   3.759   4.010   4.562  0.0322  1.4974 -1.2106
 8435SOL    HW236765   3.880   4.042   4.474 -0.2749  2.6275  2.5166
 8436SOL     OW36766   0.489   0.830  13.497  0.1387  0.3871 -0.0968
 8436SOL    HW136767   0.416   0.772  13.521 -0.2484  0.7430 -0.4184
 8436SOL    HW236768   0.479   0.899  13.563  1.5669  0.0762  0.4530
 8437SOL     OW36769   2.291   4.445   4.771  0.1119  0.8427 -0.0216
 8437SOL    HW136770   2.268   4.356   4.795  0.4948  0.6727 -0.2795
 8437SOL    HW236771   2.323   4.482   4.853  1.2009  1.7229 -0.8372
 8438SOL     OW36772   3.810   3.975   2.145  0.3603 -0.2401  0.7593
 8438SOL    HW136773   3.838   4.035   2.077 -0.6090 -0.7763 -0.1066
 8438SOL    HW236774   3.737   4.018   2.190 -1.4927 -1.3994 -1.1120
 8439SOL     OW36775   3.766   3.199   2.242  0.0064  0.4001 -0.4939
 8439SOL    HW136776   3.721   3.138   2.182 -0.2463  1.1109 -1.0227
 8439SOL    HW236777   3.702   3.205   2.313 -0.2520 -0.6436 -0.6356
 8440SOL     OW36778   3.639   0.923   6.879  0.0165 -0.2495  0.6877
 8440SOL    HW136779   3.635   1.008   6.923 -1.4858  0.5586 -0.9944
 8440SOL    HW236780   3.588   0.867   6.937  1.1602  0.5103  2.4081
 8441SOL     OW36781   2.091   4.167   8.478 -0.1564  0.1143 -0.0074
 8441SOL    HW136782   2.089   4.077   8.511 -0.5639  1.0443  2.5786
 8441SOL    HW236783   2.094   4.211   8.563  0.5241  0.2475 -0.0992
 8442SOL     OW36784   0.210   3.308   1.042 -0.0733 -0.3227 -0.2562
 8442SOL    HW136785   0.136   3.266   1.085  0.9074 -1.6015  0.2134
 8442SOL    HW236786   0.264   3.331   1.117 -0.0062 -0.1195 -0.3670
 8443SOL     OW36787   1.191   1.820   0.473  0.2734 -0.5962  0.3330
 8443SOL    HW136788   1.199   1.910   0.506  0.4767 -0.4511 -0.1101
 8443SOL    HW236789   1.096   1.821   0.463 -0.0234  1.3844  3.1276
 8444SOL     OW36790   4.577   0.763   6.243 -0.0296  0.3809  0.0716
 8444SOL    HW136791   4.620   0.730   6.322  0.3474 -0.2784 -0.4046
 8444SOL    HW236792   4.635   0.731   6.174 -0.7402 -0.5924 -0.0641
 8445SOL     OW36793   0.488   2.623   0.495 -0.1267 -0.2139  0.0942
 8445SOL    HW136794   0.426   2.689   0.528 -1.0605 -0.2696 -1.5836
 8445SOL    HW236795   0.558   2.666   0.446  1.0619 -0.9163  1.1635
 8446SOL     OW36796   1.871   0.384  11.951  0.1915  0.6816 -0.3459
 8446SOL    HW136797   1.914   0.457  11.995  2.1924 -2.3489  2.7472
 8446SOL    HW236798   1.785   0.422  11.933 -0.2166 -0.2940 -0.5150
 8447SOL     OW36799   0.882   2.838  15.289  0.3438 -0.2195 -0.1495
 8447SOL    HW136800   0.836   2.801  15.364  1.0334 -0.0158  0.3678
 8447SOL    HW236801   0.936   2.764  15.260 -0.6925 -2.0986  2.6700
 8448SOL     OW36802   2.266   2.074   4.141  0.6266 -0.3082 -0.6236
 8448SOL    HW136803   2.342   2.022   4.166  1.8946  0.9357 -1.8367
 8448SOL    HW236804   2.294   2.163   4.166 -1.4085  0.7575 -2.1503
 8449SOL     OW36805   4.216   1.992   5.788  0.6306 -0.7296  0.0502
 8449SOL    HW136806   4.207   1.906   5.747 -1.3212 -1.9124  2.9023
 8449SOL    HW236807   4.279   1.967   5.856  1.5886 -1.3114 -1.0618
 8450SOL     OW36808   0.458   1.996   2.016  0.4493  0.2399  0.1782
 8450SOL    HW136809   0.524   1.926   2.018 -0.6783 -0.8316 -0.0158
 8450SOL    HW236810   0.389   1.956   2.069 -0.4299 -0.4679 -1.5030
 8451SOL     OW36811   0.487   1.512  13.624  0.7649 -0.9681  0.2200
 8451SOL    HW136812   0.459   1.537  13.536 -0.0433 -2.4786  0.0578
 8451SOL    HW236813   0.452   1.423  13.624  0.0634 -0.6966  2.1878
 8452SOL     OW36814   2.201   0.200   2.336  0.0582  0.3896  0.0705
 8452SOL    HW136815   2.243   0.117   2.312 -3.1709 -1.0348 -0.6803
 8452SOL    HW236816   2.119   0.162   2.307 -1.0804  2.3837  0.6794
 8453SOL     OW36817   2.419   2.557   1.766  0.2772 -0.4759 -0.1527
 8453SOL    HW136818   2.476   2.514   1.703 -5.4710 -2.3816 -4.0765
 8453SOL    HW236819   2.477   2.630   1.787 -2.2829  0.9086  2.1945
 8454SOL     OW36820   2.763   3.093  15.612  0.2260  0.7529 -0.0523
 8454SOL    HW136821   2.815   3.146  15.672  1.9797 -1.5519  0.4664
 8454SOL    HW236822   2.827   3.086  15.541 -0.1688 -0.5834 -0.2810
 8455SOL     OW36823   2.491   0.223  12.382 -0.1188 -0.1498  0.1186
 8455SOL    HW136824   2.543   0.151  12.419 -0.1936 -0.9038 -1.2526
 8455SOL    HW236825   2.490   0.194  12.291  0.3872  0.6668 -0.1417
 8456SOL     OW36826   4.665   4.118   4.976  0.6079 -0.0287 -0.3463
 8456SOL    HW136827   4.647   4.197   4.926  0.0204 -0.6392 -1.1007
 8456SOL    HW236828   4.700   4.061   4.908  0.8229  0.6003 -0.7528
 8457SOL     OW36829   3.322   3.537   6.109 -0.6158  0.3346  0.2885
 8457SOL    HW136830   3.312   3.449   6.146  0.0518 -0.5960 -1.7587
 8457SOL    HW236831   3.416   3.550   6.117 -0.7037  0.4877  1.0880
 8458SOL     OW36832   3.195   2.717   5.910 -0.4919 -0.0913 -0.2420
 8458SOL    HW136833   3.286   2.710   5.880  0.0617  0.3124  1.3612
 8458SOL    HW236834   3.201   2.720   6.006 -0.6316  3.7209 -0.3331
 8459SOL     OW36835   0.130   0.506   1.048 -0.0930 -0.3575 -0.3800
 8459SOL    HW136836   0.042   0.537   1.028 -0.1693  0.1930  0.8382
 8459SOL    HW236837   0.183   0.585   1.039  2.1515 -1.6043  2.0822
 8460SOL     OW36838   3.131   0.997  11.447 -0.0961  0.1316  0.1585
 8460SOL    HW136839   3.212   1.043  11.425 -0.7693  1.8592  1.2791
 8460SOL    HW236840   3.066   1.048  11.398 -1.1458  2.2768  3.7699
 8461SOL     OW36841   1.986   3.349   9.261  0.1207  0.2425 -0.1397
 8461SOL    HW136842   2.055   3.413   9.245 -0.2600  0.6692 -0.0652
 8461SOL    HW236843   1.926   3.357   9.186 -0.7959  0.7986  0.6571
 8462SOL     OW36844   2.378   0.210   6.950 -0.4058  0.3811 -0.0312
 8462SOL    HW136845   2.360   0.249   7.036  2.4939  1.9672 -0.1857
 8462SOL    HW236846   2.471   0.188   6.956  0.2124  2.9269 -0.5801
 8463SOL     OW36847   4.684   4.440   6.452 -0.7743  0.0103 -0.0459
 8463SOL    HW136848   0.035   4.501   6.451 -1.2195  0.5806  2.6719
 8463SOL    HW236849   4.714   4.361   6.497 -0.0161  0.2117 -0.2106
 8464SOL     OW36850   2.260   1.096   3.722  0.0095 -0.0601  0.1248
 8464SOL    HW136851   2.185   1.037   3.715 -0.0700  0.1769 -0.9379
 8464SOL    HW236852   2.251   1.126   3.813 -0.2844 -0.4041  0.2096
 8465SOL     OW36853   0.226   0.650   4.029  0.6041  0.0909  0.0267
 8465SOL    HW136854   0.289   0.715   3.997 -2.0354  2.3272 -0.6714
 8465SOL    HW236855   0.281   0.595   4.085 -0.2255  0.5526  1.3068
 8466SOL     OW36856   2.072   0.892   3.775  0.4701  0.0753  0.0634
 8466SOL    HW136857   2.018   0.842   3.713  1.5496 -0.1284 -0.7122
 8466SOL    HW236858   2.006   0.960   3.791  0.0735 -0.4336  0.5830
 8467SOL     OW36859   1.811   3.025   7.182  0.0534 -0.7863  0.8100
 8467SOL    HW136860   1.849   3.060   7.101  2.2905 -1.1437  1.7073
 8467SOL    HW236861   1.759   3.094   7.224 -0.1292 -1.4968  1.7476
 8468SOL     OW36862   2.132   1.789   3.160 -0.4347 -0.0097  0.0663
 8468SOL    HW136863   2.144   1.731   3.085  1.5225 -0.5855  0.8088
 8468SOL    HW236864   2.079   1.855   3.117 -1.7482 -1.9217 -1.2286
 8469SOL     OW36865   0.898   2.663   6.334 -0.5551  0.2664 -0.2625
 8469SOL    HW136866   0.837   2.737   6.338 -0.3579  0.4399 -0.5124
 8469SOL    HW236867   0.973   2.693   6.386  0.4839  1.2333 -2.3160
 8470SOL     OW36868   1.588   3.169   3.870  0.4195 -0.6881  0.6079
 8470SOL    HW136869   1.493   3.165   3.867  0.6044 -3.1669 -1.7646
 8470SOL    HW236870   1.603   3.244   3.927  1.4373  1.0065 -1.9148
 8471SOL     OW36871   3.383   2.811   7.344 -0.0914 -0.3473 -0.5633
 8471SOL    HW136872   3.455   2.799   7.406  0.3226  1.5638 -0.6680
 8471SOL    HW236873   3.348   2.722   7.345  1.0113 -0.7619  0.2379
 8472SOL     OW36874   0.581   1.219   4.774 -0.1872  0.1347  0.1123
 8472SOL    HW136875   0.588   1.225   4.869 -0.3225 -1.4493  0.2220
 8472SOL    HW236876   0.498   1.263   4.760  0.3050  0.8336 -0.5883
 8473SOL     OW36877   3.216   3.787   8.847  0.3715  0.1991  0.3646
 8473SOL    HW136878   3.190   3.741   8.767 -2.6685  1.2258  0.7661
 8473SOL    HW236879   3.171   3.734   8.914  0.6501 -0.1688  0.2622
 8474SOL     OW36880   3.741   3.651   8.372  0.0269  0.1296 -0.4562
 8474SOL    HW136881   3.717   3.606   8.453 -0.7354 -1.6720 -1.7089
 8474SOL    HW236882   3.753   3.743   8.396 -0.0000  0.4917 -1.8616
 8475SOL     OW36883   0.498   4.027   9.070 -0.3499 -0.2807 -0.0948
 8475SOL    HW136884   0.415   4.053   9.110 -1.5877 -1.9613 -1.6021
 8475SOL    HW236885   0.532   3.972   9.139  0.6277  0.5985  0.1307
 8476SOL     OW36886   4.522   3.965  17.635 -0.4928 -1.1532 -0.1748
 8476SOL    HW136887   4.428   3.957  17.652 -0.8374  2.0089 -0.6530
 8476SOL    HW236888   4.524   4.057  17.609  0.7127 -1.2974 -0.6134
 8477SOL     OW36889   3.681   3.320  14.448  0.2016  0.1396 -0.4523
 8477SOL    HW136890   3.687   3.258  14.376  1.3615 -0.5840  0.2620
 8477SOL    HW236891   3.711   3.257  14.513  0.7474  0.5541 -0.2999
 8478SOL     OW36892   0.795   2.972   2.648 -0.0173  0.3520 -0.4921
 8478SOL    HW136893   0.822   3.041   2.587  0.5115 -0.3091 -1.0082
 8478SOL    HW236894   0.725   3.005   2.704 -0.4247  2.0796 -2.0470
 8479SOL     OW36895   1.082   3.498   8.275 -0.0765 -0.6009 -0.0331
 8479SOL    HW136896   1.104   3.483   8.367  2.3435  0.3364 -0.4679
 8479SOL    HW236897   0.998   3.543   8.274  2.2540  3.7763  2.4037
 8480SOL     OW36898   4.243   1.697   8.219  0.1690  0.0447  0.2635
 8480SOL    HW136899   4.160   1.683   8.172  0.3318 -0.8721  0.2666
 8480SOL    HW236900   4.219   1.681   8.310  0.4920  3.4627  0.9423
 8481SOL     OW36901   3.096   3.867   4.615  0.1408 -0.1895 -0.3823
 8481SOL    HW136902   3.039   3.795   4.642 -3.5939  2.1345 -2.0521
 8481SOL    HW236903   3.155   3.864   4.690 -0.2798 -1.1669 -0.0901
 8482SOL     OW36904   2.070   1.114   8.391 -0.5463  0.4057  0.0697
 8482SOL    HW136905   2.119   1.164   8.326  1.0630  0.8845  1.6540
 8482SOL    HW236906   2.091   1.157   8.474  2.9508 -1.0236 -0.0850
 8483SOL     OW36907   1.242   2.093  11.629 -0.7166 -0.2627  0.0012
 8483SOL    HW136908   1.330   2.071  11.660 -1.1249 -0.1937  1.2015
 8483SOL    HW236909   1.226   2.157  11.698  3.2571  1.8677 -1.0813
 8484SOL     OW36910   3.066   1.586   2.892 -0.1291 -0.0239  0.0536
 8484SOL    HW136911   3.045   1.677   2.910 -0.8201  0.0617 -1.2004
 8484SOL    HW236912   3.047   1.548   2.978  0.8110 -0.3700  0.1220
 8485SOL     OW36913   3.264   3.728   8.235 -0.0808 -0.6784  0.1814
 8485SOL    HW136914   3.209   3.711   8.311 -1.7059  0.1780 -0.7923
 8485SOL    HW236915   3.291   3.819   8.248 -0.3988 -0.3921 -1.1707
 8486SOL     OW36916   3.709   1.806   4.001 -0.3279 -0.0924  0.2142
 8486SOL    HW136917   3.785   1.864   4.009  0.1847 -0.7229 -0.1294
 8486SOL    HW236918   3.703   1.794   3.907 -0.8915 -1.1309  0.3764
 8487SOL     OW36919   4.346   2.492   5.129  0.2945 -0.2616  0.1014
 8487SOL    HW136920   4.435   2.514   5.104  0.1687 -0.4804 -0.5204
 8487SOL    HW236921   4.340   2.496   5.225  2.8524 -2.0980  0.3417
 8488SOL     OW36922   1.800   1.542   3.256  0.1578  0.5055 -0.4355
 8488SOL    HW136923   1.774   1.538   3.348  2.3239 -2.0129  0.0529
 8488SOL    HW236924   1.873   1.604   3.260 -0.1720  0.8798 -0.2403
 8489SOL     OW36925   2.921   1.284   5.473  0.3140 -0.4342 -0.0929
 8489SOL    HW136926   2.951   1.300   5.562  0.9947  0.1792 -0.4342
 8489SOL    HW236927   3.001   1.242   5.442  0.9517  1.8807 -1.5973
 8490SOL     OW36928   4.272   1.888   7.988 -0.2273  0.4341  0.1596
 8490SOL    HW136929   4.334   1.959   8.007  0.8695 -0.3693 -0.4188
 8490SOL    HW236930   4.305   1.831   8.057  0.0832  0.5491  0.1061
 8491SOL     OW36931   3.560   4.617   6.813 -0.0372  0.0658 -0.0451
 8491SOL    HW136932   3.547   4.662   6.730  0.2509 -0.0463 -0.1482
 8491SOL    HW236933   3.517   4.532   6.800 -0.2005  0.2220 -0.5118
 8492SOL     OW36934   1.732   0.589   3.811 -0.0788 -0.1645 -0.4035
 8492SOL    HW136935   1.697   0.569   3.898 -1.5613  0.0552 -0.9602
 8492SOL    HW236936   1.649   0.591   3.763 -1.0383  2.0682  1.3566
 8493SOL     OW36937   3.941   1.747   2.439 -0.4234  0.3895 -0.1485
 8493SOL    HW136938   3.907   1.677   2.383 -1.0826  1.9674 -1.6903
 8493SOL    HW236939   3.882   1.821   2.427  0.1249  0.5393 -1.8625
 8494SOL     OW36940   4.275   0.435   6.253 -0.5963 -0.2751  0.2810
 8494SOL    HW136941   4.279   0.530   6.238  0.3377 -0.3183  0.2672
 8494SOL    HW236942   4.329   0.434   6.332 -1.0532 -2.2124  0.5689
 8495SOL     OW36943   0.401   0.335  11.011 -0.2277  0.1705 -0.2883
 8495SOL    HW136944   0.395   0.428  11.035  1.0039  0.4615 -1.0991
 8495SOL    HW236945   0.318   0.330  10.964 -0.5673  2.1192  0.0982
 8496SOL     OW36946   1.915   3.364   6.366 -0.3659  0.0715 -0.5291
 8496SOL    HW136947   1.871   3.320   6.294  2.4103 -0.6358 -1.7914
 8496SOL    HW236948   1.991   3.407   6.327 -0.1162  0.1863  0.0784
 8497SOL     OW36949   3.923   2.728   8.690 -0.3708  0.2954 -0.3920
 8497SOL    HW136950   3.946   2.781   8.766 -1.4281  1.5990 -0.9820
 8497SOL    HW236951   3.867   2.664   8.733  1.0389 -1.4228 -1.0675
 8498SOL     OW36952   0.731   2.403   8.145  0.1406  0.0013  0.2974
 8498SOL    HW136953   0.699   2.443   8.226  1.1673 -0.9876  1.1972
 8498SOL    HW236954   0.649   2.358   8.125  0.4165  0.2935 -1.4357
 8499SOL     OW36955   0.310   1.740   7.167 -0.3104 -0.2257 -0.2719
 8499SOL    HW136956   0.276   1.703   7.249 -0.1102  0.2799  0.0396
 8499SOL    HW236957   0.342   1.661   7.123  0.3800 -0.3534  0.4646
 8500SOL     OW36958   0.414   0.856   6.696  0.4699 -0.5896  0.0602
 8500SOL    HW136959   0.361   0.783   6.663  0.4530 -1.2562  1.5597
 8500SOL    HW236960   0.460   0.813   6.768  1.3126  2.1902  1.1600
 8501SOL     OW36961   0.542   4.162   0.411  0.4277  0.1287 -0.3457
 8501SOL    HW136962   0.633   4.150   0.438  0.5742 -0.0716 -0.9281
 8501SOL    HW236963   0.540   4.258   0.415 -1.7088  0.0185  1.4098
 8502SOL     OW36964   1.001   1.391   3.944 -0.0406  0.3142  0.1047
 8502SOL    HW136965   0.998   1.487   3.950 -0.8660  0.1853  1.8322
 8502SOL    HW236966   0.957   1.378   3.860 -0.9031 -1.3024  0.8058
 8503SOL     OW36967   3.506   2.048   6.201  0.1012 -0.2268  0.3988
 8503SOL    HW136968   3.422   2.045   6.246  0.5055 -0.2893  1.1558
 8503SOL    HW236969   3.477   2.054   6.110 -1.0482  1.8884  0.8939
 8504SOL     OW36970   3.417   4.467   6.209 -0.3389 -0.2141 -0.0303
 8504SOL    HW136971   3.405   4.374   6.230  3.3003 -1.0554 -1.5535
 8504SOL    HW236972   3.330   4.496   6.234 -0.0202 -0.7605  1.7405
 8505SOL     OW36973   1.130   0.562   2.737 -0.4946 -0.4028 -0.3957
 8505SOL    HW136974   1.130   0.466   2.732 -0.5085 -0.4228 -0.0378
 8505SOL    HW236975   1.159   0.588   2.650 -1.4379 -0.6159 -0.7785
 8506SOL     OW36976   2.049   0.515   2.943 -0.4277 -0.2672  0.4872
 8506SOL    HW136977   2.101   0.529   2.864 -0.6969  0.1139  0.3814
 8506SOL    HW236978   2.022   0.601   2.973  1.4263  0.4962 -0.0455
 8507SOL     OW36979   4.644   4.095   6.992  0.4431  0.0539  0.0829
 8507SOL    HW136980   4.584   4.083   7.066 -0.2804 -0.8979 -0.6477
 8507SOL    HW236981   0.001   4.054   7.027 -0.0310 -1.1116 -0.1896
 8508SOL     OW36982   2.661   0.015  12.456 -0.0930  0.4475 -0.0465
 8508SOL    HW136983   2.608   4.673  12.410  0.1560  1.2518 -1.4420
 8508SOL    HW236984   2.742   4.687  12.461 -2.2081 -2.9164  0.3480
 8509SOL     OW36985   1.947   0.260   2.827  0.2483 -0.0152 -0.8339
 8509SOL    HW136986   1.955   0.351   2.853 -1.4775 -0.0445 -0.2455
 8509SOL    HW236987   2.025   0.241   2.774 -0.8636 -0.8654 -2.1620
 8510SOL     OW36988   4.132   2.065   9.011 -0.1318  0.4719  0.1697
 8510SOL    HW136989   4.120   1.984   9.060  0.9004  0.0100 -0.3460
 8510SOL    HW236990   4.099   2.133   9.070 -0.4757 -0.1713  0.7207
 8511SOL     OW36991   0.097   1.795   6.269 -0.1322  0.1004 -0.6344
 8511SOL    HW136992   0.047   1.791   6.351 -1.0398  0.2152 -1.1871
 8511SOL    HW236993   0.035   1.825   6.203 -0.5946 -2.1220 -1.2021
 8512SOL     OW36994   2.569   4.364   6.834  0.0437  0.3249  0.7438
 8512SOL    HW136995   2.557   4.303   6.907 -2.7431 -1.1114 -0.9506
 8512SOL    HW236996   2.479   4.389   6.815 -0.3071 -0.7085  1.0328
 8513SOL     OW36997   1.795   3.562   6.515  0.2475  0.0393  0.1678
 8513SOL    HW136998   1.843   3.501   6.459 -1.2356 -0.4702 -0.5355
 8513SOL    HW236999   1.865   3.595   6.572  0.4747  0.3780 -0.3049
 8514SOL     OW37000   0.937   0.382   8.880 -0.0031  0.0996  0.0777
 8514SOL    HW137001   0.961   0.331   8.803  0.2381  0.8944 -0.3680
 8514SOL    HW237002   0.914   0.309   8.938  2.6338 -1.3912 -0.7630
 8515SOL     OW37003   0.014   0.743   3.224  0.7111 -0.2187  0.2750
 8515SOL    HW137004   0.044   0.759   3.134 -1.0229  0.8848 -0.1084
 8515SOL    HW237005   4.654   0.700   3.200 -0.0639  0.5227  1.6177
 8516SOL     OW37006   2.558   0.019  12.739  0.5771 -0.0162  1.2771
 8516SOL    HW137007   2.476   0.053  12.702  0.1581 -0.3318  1.9211
 8516SOL    HW237008   2.609   0.010  12.658 -0.7073 -1.1584  0.5960
 8517SOL     OW37009   2.450   2.749  16.609 -0.2564 -0.2925  0.0132
 8517SOL    HW137010   2.416   2.735  16.521 -1.4944 -1.5241  0.7030
 8517SOL    HW237011   2.433   2.843  16.607  2.9630  0.3357  1.9136
 8518SOL     OW37012   2.574   3.655   3.009 -0.0792  0.0021  0.0874
 8518SOL    HW137013   2.568   3.568   2.970 -0.5725 -0.1586  0.5189
 8518SOL    HW237014   2.571   3.714   2.934 -1.7853 -0.5497 -0.2849
 8519SOL     OW37015   2.678   4.303  16.021  0.0291 -0.0278 -0.3013
 8519SOL    HW137016   2.720   4.243  15.958 -0.6298  0.4317 -1.1625
 8519SOL    HW237017   2.587   4.274  16.020 -0.3724  1.3363 -1.3825
 8520SOL     OW37018   1.866   1.411   2.394  0.0667  0.2250 -0.1662
 8520SOL    HW137019   1.839   1.432   2.483  2.4889  1.1904  0.3433
 8520SOL    HW237020   1.798   1.454   2.342 -1.1480 -1.2052  0.2165
 8521SOL     OW37021   3.736   2.961   1.850  0.7568 -0.0069  0.2518
 8521SOL    HW137022   3.704   2.915   1.772  0.5504  0.7814 -0.1261
 8521SOL    HW237023   3.802   3.021   1.816  0.5503  0.2686  0.3446
 8522SOL     OW37024   1.546   2.870  10.910  0.2269 -0.1592  0.5409
 8522SOL    HW137025   1.496   2.895  10.987  0.2699  1.4475  0.0439
 8522SOL    HW237026   1.473   2.823  10.869 -1.1576 -0.5799  3.5081
 8523SOL     OW37027   2.178   2.133   6.289 -0.2654 -0.0224 -0.6324
 8523SOL    HW137028   2.130   2.199   6.340 -0.5612 -1.0166  0.3669
 8523SOL    HW237029   2.236   2.098   6.356  0.3306  3.0903  0.5151
 8524SOL     OW37030   2.149   4.421  16.865  0.1446 -0.0963  0.0898
 8524SOL    HW137031   2.170   4.330  16.845  0.5768  0.0308 -0.0501
 8524SOL    HW237032   2.172   4.425  16.958  0.4372  1.7080 -0.0559
 8525SOL     OW37033   3.957   0.851   2.848 -0.2364 -0.5498 -0.2952
 8525SOL    HW137034   3.945   0.813   2.761  1.2928  0.7348 -1.0676
 8525SOL    HW237035   4.029   0.802   2.889  0.3344  0.5998  0.0776
 8526SOL     OW37036   1.651   0.904   3.244 -0.1790  0.0627  0.4059
 8526SOL    HW137037   1.723   0.968   3.237  0.5847 -0.6699  1.6884
 8526SOL    HW237038   1.619   0.931   3.330  1.0277  1.4305  0.4315
 8527SOL     OW37039   1.862   4.478  10.009 -0.2763 -0.0055  0.3792
 8527SOL    HW137040   1.877   4.569  10.032  1.6047 -0.3552  0.4655
 8527SOL    HW237041   1.775   4.469   9.968 -0.3402  0.9961  0.2869
 8528SOL     OW37042   4.575   1.694   7.115 -0.2577 -0.2572 -0.1184
 8528SOL    HW137043   4.566   1.627   7.183 -0.9715  0.7819  0.8176
 8528SOL    HW237044   4.646   1.753   7.142 -1.1309  0.4664  0.5995
 8529SOL     OW37045   0.709   3.661   9.914  0.0903  0.2718 -0.0737
 8529SOL    HW137046   0.734   3.697   9.999  1.7485  0.6683 -0.7440
 8529SOL    HW237047   0.793   3.628   9.882 -0.0463  1.1243 -1.3123
 8530SOL     OW37048   2.174   0.277   0.298 -0.5404  0.0035 -0.0569
 8530SOL    HW137049   2.214   0.317   0.375 -0.7809  2.4169 -1.1967
 8530SOL    HW237050   2.198   0.342   0.231 -1.7873 -1.1101 -1.6014
 8531SOL     OW37051   4.167   3.187  11.764  0.2093 -0.3035  0.1901
 8531SOL    HW137052   4.142   3.152  11.850  1.7992  1.4279  1.3458
 8531SOL    HW237053   4.122   3.271  11.766  2.8425  1.0503  1.9707
 8532SOL     OW37054   4.273   3.294   6.824  0.1850  0.4061 -0.9461
 8532SOL    HW137055   4.284   3.384   6.852 -0.1393 -0.6191  2.4786
 8532SOL    HW237056   4.291   3.251   6.908 -0.3153 -1.0815 -1.5975
 8533SOL     OW37057   3.329   1.157   4.879 -0.1560  0.5762  0.6162
 8533SOL    HW137058   3.291   1.169   4.966  0.0055  1.0495  0.6203
 8533SOL    HW237059   3.280   1.084   4.842 -1.0455  1.2928  0.3856
 8534SOL     OW37060   2.744   2.586  13.043 -0.1682  0.1034  0.2807
 8534SOL    HW137061   2.832   2.579  13.078  0.8393  0.4564 -2.1618
 8534SOL    HW237062   2.718   2.665  13.091  0.4406  1.5843 -1.8206
 8535SOL     OW37063   4.123   1.547   0.049  0.0190 -0.5915  0.2945
 8535SOL    HW137064   4.046   1.585   0.093  0.6331  0.2237  0.6808
 8535SOL    HW237065   4.074   1.514  17.666 -2.3505 -2.8110  2.8239
 8536SOL     OW37066   4.440   2.842   3.377  0.2435  0.4615 -0.0227
 8536SOL    HW137067   4.424   2.793   3.458  0.4352 -1.5630 -1.2054
 8536SOL    HW237068   4.415   2.930   3.405  1.0751  1.2245 -1.6948
 8537SOL     OW37069   0.018   4.178  14.718 -0.2805  0.4396  0.3768
 8537SOL    HW137070   0.093   4.238  14.724 -1.6914  2.2118  0.1456
 8537SOL    HW237071   0.020   4.148  14.628  1.4439 -0.0109  0.5519
 8538SOL     OW37072   0.062   0.920  13.635  0.2452 -0.2708 -0.2351
 8538SOL    HW137073   0.048   0.983  13.565  0.6058 -1.1601 -1.0965
 8538SOL    HW237074   0.099   0.975  13.705 -2.2888  0.3418  0.6207
 8539SOL     OW37075   3.119   1.824   9.227 -0.5113  0.0008 -0.0700
 8539SOL    HW137076   3.102   1.915   9.253 -0.5345 -0.1998  0.6076
 8539SOL    HW237077   3.044   1.773   9.257 -1.2271  0.1954 -1.5281
 8540SOL     OW37078   1.258   3.152  14.924 -0.4198  0.2416 -0.3841
 8540SOL    HW137079   1.198   3.189  14.988  0.9747 -0.2372  1.2115
 8540SOL    HW237080   1.314   3.098  14.980 -1.0128 -0.0546 -0.0822
 8541SOL     OW37081   1.108   3.861   4.948  0.0460  0.2832 -0.4286
 8541SOL    HW137082   1.186   3.844   4.895  0.4259 -0.8658  0.4904
 8541SOL    HW237083   1.049   3.819   4.886  1.1688  0.8893 -1.9283
 8542SOL     OW37084   3.883   3.030  12.270 -0.2242 -0.0185  0.1840
 8542SOL    HW137085   3.835   3.036  12.352 -0.6254  0.6479 -0.1007
 8542SOL    HW237086   3.852   3.106  12.221  1.3429  0.4948 -0.0109
 8543SOL     OW37087   2.578   3.135   2.285  0.1016 -0.3315  0.3897
 8543SOL    HW137088   2.506   3.072   2.283  0.3718 -0.7064  2.0212
 8543SOL    HW237089   2.647   3.083   2.327  0.1783 -0.3972  0.1843
 8544SOL     OW37090   0.275   4.207   8.784  0.4205  0.2326  0.0855
 8544SOL    HW137091   0.304   4.238   8.870  2.6125 -1.3376 -0.0897
 8544SOL    HW237092   0.239   4.286   8.744 -0.7527 -1.2894 -1.8050
 8545SOL     OW37093   1.347   1.816   3.100 -0.4411  0.2286  0.5333
 8545SOL    HW137094   1.330   1.726   3.071 -0.4383  0.3047  0.2953
 8545SOL    HW237095   1.442   1.821   3.111 -0.3123 -0.0125 -0.4899
 8546SOL     OW37096   0.909   4.597  15.363  0.4996 -0.4337 -0.4771
 8546SOL    HW137097   0.953   4.658  15.303  0.8425 -1.1294 -0.9285
 8546SOL    HW237098   0.967   4.597  15.439 -0.5030  1.5327  0.2874
 8547SOL     OW37099   0.198   0.453  12.169  0.0291 -0.1032 -0.9149
 8547SOL    HW137100   0.154   0.538  12.168  1.0406  0.4516  1.2161
 8547SOL    HW237101   0.117   0.404  12.152  0.7106 -0.7297 -2.2892
 8548SOL     OW37102   0.515   3.114  16.921 -0.0925 -0.2503 -0.4181
 8548SOL    HW137103   0.604   3.101  16.955  0.1548 -0.0838 -1.0040
 8548SOL    HW237104   0.468   3.040  16.959  2.3219 -0.7623  1.5950
 8549SOL     OW37105   3.669   2.406  11.519  0.1652 -0.0443  0.3476
 8549SOL    HW137106   3.723   2.437  11.591 -0.0040  0.5781  0.2159
 8549SOL    HW237107   3.621   2.487  11.500  0.0320  0.0275  0.9956
 8550SOL     OW37108   2.397   4.197   6.315 -0.2839  0.0346 -0.1351
 8550SOL    HW137109   2.393   4.206   6.410  1.6386 -0.5926  0.0017
 8550SOL    HW237110   2.423   4.289   6.307 -3.3491  0.8435 -0.7761
 8551SOL     OW37111   2.562   2.064   3.940  0.4833 -0.3761 -0.2239
 8551SOL    HW137112   2.620   2.114   3.882 -1.6531 -1.4591 -3.2964
 8551SOL    HW237113   2.480   2.091   3.900  0.2829 -0.0828  0.3861
 8552SOL     OW37114   2.495   3.259   4.317  0.0382 -0.3076  0.2767
 8552SOL    HW137115   2.562   3.274   4.384  0.9828 -0.7627 -0.5818
 8552SOL    HW237116   2.545   3.294   4.243  1.0034 -1.4545  0.3957
 8553SOL     OW37117   3.949   3.750   4.340  0.3447 -0.1899  0.0873
 8553SOL    HW137118   3.965   3.836   4.300 -0.8324  0.6014  1.3232
 8553SOL    HW237119   4.030   3.748   4.392  1.3443 -2.0309 -1.5539
 8554SOL     OW37120   3.186   0.153   3.265 -0.0274 -0.2384 -1.0680
 8554SOL    HW137121   3.147   0.196   3.342 -1.9466 -1.3408 -1.4067
 8554SOL    HW237122   3.221   0.227   3.215  0.1753  0.1376 -0.3720
 8555SOL     OW37123   0.224   3.014   1.994  0.3628 -0.0774  0.0144
 8555SOL    HW137124   0.297   3.076   2.001  0.4667 -0.1438 -0.4829
 8555SOL    HW237125   0.159   3.077   1.962  0.0691  0.2606  1.2630
 8556SOL     OW37126   1.836   4.722  15.181 -0.1322 -0.0197 -0.3384
 8556SOL    HW137127   1.890   0.017  15.103  1.5581  0.7038  0.9786
 8556SOL    HW237128   1.787   0.081  15.187  1.3886  0.8207  0.7882
 8557SOL     OW37129   3.065   1.444   8.421 -0.1026  0.3498 -0.3439
 8557SOL    HW137130   3.005   1.442   8.495  1.5982  1.9287  1.0505
 8557SOL    HW237131   3.004   1.398   8.363  0.2308 -1.4350  0.7555
 8558SOL     OW37132   0.845   4.513   1.215  0.0850 -0.8576 -0.1669
 8558SOL    HW137133   0.891   4.513   1.298  0.7755 -0.0135 -0.5502
 8558SOL    HW237134   0.911   4.564   1.167 -0.0976  0.9830  1.5173
 8559SOL     OW37135   0.841   1.575   9.452  0.8354 -0.0165  0.1205
 8559SOL    HW137136   0.890   1.643   9.406 -0.4355  1.8061  1.4386
 8559SOL    HW237137   0.771   1.624   9.496  0.1313 -0.1510 -0.8601
 8560SOL     OW37138   0.313   2.756   6.478 -0.4133 -0.4289  0.4933
 8560SOL    HW137139   0.255   2.830   6.462 -0.0404 -0.0200  1.0134
 8560SOL    HW237140   0.329   2.732   6.387  1.0595 -1.9892  1.1706
 8561SOL     OW37141   3.130   1.916   0.904 -0.8350  0.3278  0.3913
 8561SOL    HW137142   3.199   1.963   0.951  0.9445 -1.3152 -0.5750
 8561SOL    HW237143   3.190   1.849   0.870 -1.6994  0.2400 -0.9763
 8562SOL     OW37144   1.989   1.648  11.055  0.6491 -0.3116  0.5272
 8562SOL    HW137145   1.951   1.622  10.972  2.6946  0.8982 -0.7870
 8562SOL    HW237146   1.938   1.597  11.118 -0.5878  1.0055  0.5727
 8563SOL     OW37147   4.039   2.487  16.383 -0.5520  0.3558 -0.0576
 8563SOL    HW137148   4.083   2.552  16.437 -0.9634 -0.4650  1.2533
 8563SOL    HW237149   4.024   2.420  16.450 -1.3004 -0.2055 -0.7841
 8564SOL     OW37150   3.916   4.377   3.991 -0.2148  0.6393  0.3882
 8564SOL    HW137151   4.007   4.385   4.020  0.3340 -2.0351 -0.6299
 8564SOL    HW237152   3.920   4.328   3.909 -1.0420  0.6533  0.3373
 8565SOL     OW37153   4.584   4.436  16.655 -0.5478 -0.0219 -0.0120
 8565SOL    HW137154   4.502   4.430  16.606 -2.4843 -1.0688  3.3850
 8565SOL    HW237155   4.645   4.399  16.591  0.0098 -0.8325  0.9871
 8566SOL     OW37156   3.045   2.975   7.822  0.0034  0.6792 -0.2333
 8566SOL    HW137157   2.969   2.954   7.767 -0.4638  2.5876 -0.3280
 8566SOL    HW237158   3.066   2.887   7.851 -0.9503  0.9846  1.3759
 8567SOL     OW37159   2.898   4.373   5.361 -0.0944 -0.2925  0.2094
 8567SOL    HW137160   2.978   4.390   5.411 -1.0771  3.7260  0.4427
 8567SOL    HW237161   2.844   4.429   5.416  2.9080  2.5041  0.3256
 8568SOL     OW37162   4.095   0.456   5.140  0.0672 -0.2764 -0.2930
 8568SOL    HW137163   4.052   0.392   5.196  0.4342  0.1924  0.5276
 8568SOL    HW237164   4.021   0.473   5.080  0.3712 -1.4262 -0.9864
 8569SOL     OW37165   3.458   0.899   3.704  0.5124 -0.0442 -0.1208
 8569SOL    HW137166   3.522   0.957   3.663 -0.4257  0.6887 -0.5498
 8569SOL    HW237167   3.454   0.839   3.629 -1.9356 -0.4582  0.3201
 8570SOL     OW37168   3.642   1.871  11.304 -0.3948  0.4673 -0.0827
 8570SOL    HW137169   3.705   1.805  11.274 -2.7244 -1.1541 -1.3868
 8570SOL    HW237170   3.692   1.946  11.274  0.0105  1.3364  2.7265
 8571SOL     OW37171   1.576   4.492   0.614 -0.1197 -0.3494  0.1598
 8571SOL    HW137172   1.637   4.490   0.687  0.0524 -0.4972  0.0121
 8571SOL    HW237173   1.514   4.563   0.630 -1.1913 -1.2527  0.0724
 8572SOL     OW37174   2.424   0.959   1.321 -0.0247  0.2855  0.1183
 8572SOL    HW137175   2.354   0.964   1.257  1.2440 -1.0686 -1.4043
 8572SOL    HW237176   2.373   0.962   1.402  0.0262  3.0294  0.0263
 8573SOL     OW37177   0.255   4.678   0.167  0.1427 -0.4450 -0.1606
 8573SOL    HW137178   0.197   0.030   0.179  0.1441 -0.2796 -1.2062
 8573SOL    HW237179   0.252   4.675   0.072 -0.6187  1.2937 -0.1850
 8574SOL     OW37180   4.455   4.088  10.014  0.0301 -0.1162 -0.1144
 8574SOL    HW137181   4.364   4.065  10.032  0.7658 -1.4462  2.0210
 8574SOL    HW237182   4.466   4.068   9.921  1.3258 -1.7323  0.3762
 8575SOL     OW37183   0.223   1.589   3.974  0.1519  0.0491 -0.6413
 8575SOL    HW137184   0.190   1.569   4.061 -0.7268 -1.2284 -1.2688
 8575SOL    HW237185   0.294   1.652   3.990  0.4310 -0.2985 -0.5164
 8576SOL     OW37186   2.103   3.823   2.176  0.0190 -0.2580 -0.4138
 8576SOL    HW137187   2.163   3.852   2.244  0.3246 -0.5602 -0.5510
 8576SOL    HW237188   2.066   3.748   2.222 -1.0440  0.2444 -0.4709
 8577SOL     OW37189   4.271   2.443   6.723  0.4142  0.2996 -0.1689
 8577SOL    HW137190   4.226   2.359   6.715 -1.3607  1.0136  2.3344
 8577SOL    HW237191   4.200   2.507   6.714  0.4985  0.1590 -1.7266
 8578SOL     OW37192   2.946   3.645   3.331  0.2367 -0.2398 -0.1268
 8578SOL    HW137193   2.950   3.683   3.243 -3.0279  0.6716  0.1242
 8578SOL    HW237194   2.911   3.720   3.379  1.7492  1.8467 -2.2624
 8579SOL     OW37195   0.549   0.743  13.254  0.4288 -0.1793  0.0759
 8579SOL    HW137196   0.529   0.769  13.344  1.4018 -0.8044  0.4763
 8579SOL    HW237197   0.583   0.654  13.269 -0.0938 -0.7018 -1.8184
 8580SOL     OW37198   4.086   2.781  11.827  0.3307 -0.3118 -0.3937
 8580SOL    HW137199   4.029   2.839  11.878  0.1695  0.8089 -1.8475
 8580SOL    HW237200   4.052   2.792  11.739  0.3383 -1.1251 -0.4981
 8581SOL     OW37201   2.371   3.318   3.936 -0.3284 -0.2350  0.0181
 8581SOL    HW137202   2.326   3.257   3.877  1.5476  0.9019 -2.5525
 8581SOL    HW237203   2.303   3.374   3.974 -0.5044  0.8800 -1.9021
 8582SOL     OW37204   1.639   2.501  10.031  0.0892 -0.5861  0.4503
 8582SOL    HW137205   1.593   2.430   9.985 -0.5741 -0.0884  0.3455
 8582SOL    HW237206   1.581   2.574  10.009  1.6616  0.6723  0.4850
 8583SOL     OW37207   1.408   0.225  13.063 -0.4241 -0.2393 -0.1689
 8583SOL    HW137208   1.486   0.210  13.116 -0.3249 -0.5497 -0.4008
 8583SOL    HW237209   1.399   0.320  13.068  0.8637 -0.0999 -0.5574
 8584SOL     OW37210   4.507   1.216   0.122 -0.1467  0.1717  0.1698
 8584SOL    HW137211   4.450   1.226   0.197  1.5325 -4.2393  2.0257
 8584SOL    HW237212   4.492   1.299   0.076 -1.2910  0.2414  0.6952
 8585SOL     OW37213   3.311   4.539  15.804  0.2822 -0.2382 -0.0595
 8585SOL    HW137214   3.399   4.504  15.785  0.7005  0.5487  0.4575
 8585SOL    HW237215   3.306   4.615  15.746  0.3915 -1.8094 -2.1373
 8586SOL     OW37216   4.390   2.169   6.872 -0.1122 -0.5673  0.0244
 8586SOL    HW137217   4.375   2.079   6.902 -1.1400  0.0170  1.2568
 8586SOL    HW237218   4.304   2.194   6.837  0.7269  1.5673 -0.5217
 8587SOL     OW37219   2.984   2.021   6.089  0.3667 -0.2151  0.3610
 8587SOL    HW137220   2.889   2.014   6.089  0.4707 -1.5545  0.9680
 8587SOL    HW237221   3.011   2.030   6.180 -0.0715 -0.0480  0.4706
 8588SOL     OW37222   0.335   1.894  16.407 -0.5636 -0.0796 -0.0346
 8588SOL    HW137223   0.243   1.873  16.389 -0.0838 -1.2625 -1.1022
 8588SOL    HW237224   0.379   1.825  16.358  0.8379  2.3285 -2.2284
 8589SOL     OW37225   4.624   0.159   0.945 -0.2821 -1.0834 -0.0549
 8589SOL    HW137226   4.595   0.145   1.035 -1.5033  3.3202  0.2661
 8589SOL    HW237227   4.606   0.069   0.918 -2.9432 -0.6458  0.2831
 8590SOL     OW37228   1.188   0.524  12.417 -0.5097  0.4391 -0.4188
 8590SOL    HW137229   1.222   0.476  12.492 -1.9530  0.2173  0.0988
 8590SOL    HW237230   1.270   0.526  12.368  0.0027 -1.4352  0.3734
 8591SOL     OW37231   0.592   1.893   3.689 -0.2300  0.0800  0.1567
 8591SOL    HW137232   0.680   1.912   3.656 -1.1946 -0.1084 -2.5106
 8591SOL    HW237233   0.550   1.975   3.665 -1.0003 -0.4175 -0.2234
 8592SOL     OW37234   2.518   1.590   8.447 -0.1016  0.4857  0.2699
 8592SOL    HW137235   2.546   1.555   8.531  0.2686  1.8127  0.6948
 8592SOL    HW237236   2.435   1.548   8.427  1.4157 -1.6205 -1.6613
 8593SOL     OW37237   3.035   3.039  11.834  0.2702 -0.0050 -0.2994
 8593SOL    HW137238   3.117   3.087  11.824  0.6321 -0.3274  1.1252
 8593SOL    HW237239   3.041   3.008  11.924 -1.5614  0.5275  0.0220
 8594SOL     OW37240   1.204   4.686   2.355 -0.0190 -0.1592  0.1821
 8594SOL    HW137241   1.189   4.625   2.427 -0.2758 -0.0171  0.2483
 8594SOL    HW237242   1.173   0.045   2.393 -1.6209 -1.7440  2.2511
 8595SOL     OW37243   0.728   4.351   4.287 -0.5251 -0.3969 -0.0258
 8595SOL    HW137244   0.733   4.383   4.197 -1.7837 -1.0299 -0.3230
 8595SOL    HW237245   0.820   4.337   4.309 -0.9348 -3.1160  0.0305
 8596SOL     OW37246   2.008   1.103   7.605  0.3123  0.9983 -0.2580
 8596SOL    HW137247   1.939   1.040   7.624 -0.6172  2.5031  1.3292
 8596SOL    HW237248   1.958   1.184   7.591 -1.5573 -0.0506  0.3460
 8597SOL     OW37249   4.716   2.518   4.346 -0.4781 -0.1085  0.6630
 8597SOL    HW137250   4.634   2.491   4.303 -0.2335  2.1189 -1.1914
 8597SOL    HW237251   0.006   2.436   4.395  0.5386 -0.3389  0.0069
 8598SOL     OW37252   3.468   2.591   4.954  0.0235  0.2177 -0.0001
 8598SOL    HW137253   3.423   2.517   4.914  0.0501  2.0676 -3.3880
 8598SOL    HW237254   3.400   2.625   5.012  0.1324  2.1737 -1.0272
 8599SOL     OW37255   4.699   3.657   7.682 -0.2763 -0.1017  0.0077
 8599SOL    HW137256   0.047   3.639   7.745 -0.8877  0.9075  0.9883
 8599SOL    HW237257   4.634   3.606   7.730 -0.5534  0.9875  0.8125
 8600SOL     OW37258   2.696   1.343   3.847  0.3002  0.1098 -0.4325
 8600SOL    HW137259   2.608   1.312   3.867  0.4591  0.7364  1.2863
 8600SOL    HW237260   2.749   1.266   3.870 -0.1353  0.7382  2.7337
 8601SOL     OW37261   0.984   0.090  12.046  0.2510 -0.0499 -0.6707
 8601SOL    HW137262   0.977   0.185  12.041 -3.9090 -0.3942 -1.1954
 8601SOL    HW237263   0.893   0.060  12.043  0.0675  0.4775 -0.5058
 8602SOL     OW37264   0.157   1.063  12.309 -0.1714  0.2476 -0.3552
 8602SOL    HW137265   0.233   1.021  12.268 -0.5904 -1.0035  0.1695
 8602SOL    HW237266   0.110   1.052  12.226 -1.0635  0.8821  0.0630
 8603SOL     OW37267   1.876   1.051  17.534 -0.1013  0.4226 -0.2691
 8603SOL    HW137268   1.928   1.130  17.549  0.5555  0.2444 -1.5885
 8603SOL    HW237269   1.841   1.027  17.620 -0.3268  0.1610 -0.4343
 8604SOL     OW37270   1.222   0.796  17.400  0.6464 -0.1198 -0.3568
 8604SOL    HW137271   1.316   0.817  17.396  0.4050  0.8911 -0.8777
 8604SOL    HW237272   1.187   0.845  17.325 -1.1269 -3.2607 -1.5952
 8605SOL     OW37273   1.087   1.611   2.733  0.0014 -0.0325  0.0953
 8605SOL    HW137274   0.997   1.587   2.710  0.6629 -0.3465 -2.1786
 8605SOL    HW237275   1.132   1.538   2.690  0.8064  1.0739 -0.9669
 8606SOL     OW37276   2.261   1.563  11.925  0.1702  0.2445 -0.3066
 8606SOL    HW137277   2.278   1.612  12.006 -2.0242  0.0335  0.2685
 8606SOL    HW237278   2.249   1.474  11.958  2.5105  0.4129  1.0335
 8607SOL     OW37279   0.678   0.180  12.668 -0.4408 -0.1611 -0.1909
 8607SOL    HW137280   0.674   0.148  12.759 -1.4452 -0.2858 -0.2765
 8607SOL    HW237281   0.585   0.177  12.644 -0.9861  0.2686  1.8266
 8608SOL     OW37282   4.241   4.186   3.134  0.4340  0.2091  0.1338
 8608SOL    HW137283   4.189   4.264   3.150 -0.9614 -0.6689 -0.0729
 8608SOL    HW237284   4.297   4.182   3.212  1.0146 -0.3629 -0.3058
 8609SOL     OW37285   2.121   0.118  10.248  0.3157 -0.2385 -0.0953
 8609SOL    HW137286   2.207   0.137  10.211 -0.8192  4.1956 -0.4517
 8609SOL    HW237287   2.136   0.050  10.314  3.7050 -0.6423 -1.2954
 8610SOL     OW37288   0.564   4.699   8.228  0.5408  0.6026  0.4955
 8610SOL    HW137289   0.491   4.678   8.285  0.9220 -0.9914  0.4026
 8610SOL    HW237290   0.524   0.023   8.155  1.9104 -1.3204 -1.4883
 8611SOL     OW37291   1.899   0.266   0.411 -0.2862 -0.2932 -0.2537
 8611SOL    HW137292   1.942   0.206   0.350  1.2616  0.3297  0.2449
 8611SOL    HW237293   1.908   0.348   0.364 -0.8622 -0.5274 -0.7749
 8612SOL     OW37294   2.820   3.121   8.458  0.3707  0.3057 -0.2761
 8612SOL    HW137295   2.903   3.097   8.500  0.9424  2.0567 -0.3852
 8612SOL    HW237296   2.853   3.139   8.370  0.0704  2.6375  0.1012
 8613SOL     OW37297   4.090   1.382  15.720 -0.7954  0.3042  0.0075
 8613SOL    HW137298   4.093   1.287  15.726  3.2783  0.5519  1.6644
 8613SOL    HW237299   4.053   1.399  15.634 -0.6502  0.9478  0.0703
 8614SOL     OW37300   1.695   0.586   4.088 -0.3211  0.3446 -0.2611
 8614SOL    HW137301   1.661   0.591   4.177 -0.4272 -3.0818 -0.0854
 8614SOL    HW237302   1.741   0.503   4.101 -2.9718 -0.7596  1.9775
 8615SOL     OW37303   2.438   1.261   7.584 -0.1994 -0.3433 -0.0741
 8615SOL    HW137304   2.522   1.251   7.538  0.7965 -0.6179  1.8299
 8615SOL    HW237305   2.451   1.197   7.653  0.2121  0.2472  0.3952
 8616SOL     OW37306   2.750   1.524   3.249 -0.2021 -0.6496 -0.4444
 8616SOL    HW137307   2.760   1.506   3.343 -0.0597  0.5223 -0.2330
 8616SOL    HW237308   2.680   1.588   3.267 -0.0343 -0.6159  0.1165
 8617SOL     OW37309   0.455   0.446  14.009 -0.4012  0.4455 -0.2513
 8617SOL    HW137310   0.449   0.468  13.916  2.8777  0.1948 -0.5234
 8617SOL    HW237311   0.499   0.362  14.003 -1.1693  0.1455 -1.6930
 8618SOL     OW37312   0.664   1.622   3.737  0.0614 -0.4309  0.2590
 8618SOL    HW137313   0.655   1.695   3.675 -0.6164 -0.7346 -0.0024
 8618SOL    HW237314   0.579   1.625   3.780  0.9993 -1.1507  2.1382
 8619SOL     OW37315   2.356   4.302   1.649 -0.1439 -0.0103  0.3057
 8619SOL    HW137316   2.449   4.307   1.672 -0.0140 -0.9505 -0.0193
 8619SOL    HW237317   2.372   4.262   1.564 -2.3353 -1.3685  0.5366
 8620SOL     OW37318   4.301   1.557  12.450  0.1072  0.1919  0.1849
 8620SOL    HW137319   4.337   1.633  12.494  1.2309 -1.7945  2.6799
 8620SOL    HW237320   4.228   1.533  12.507  1.4380  1.6278  2.4787
 8621SOL     OW37321   3.069   1.679  10.893  0.2296 -0.3018 -0.1653
 8621SOL    HW137322   3.018   1.671  10.812 -1.6700 -0.5075  1.0342
 8621SOL    HW237323   3.139   1.618  10.872 -1.2444 -1.7718 -0.7683
 8622SOL     OW37324   3.245   4.329   2.710  0.1353 -0.4184 -0.0302
 8622SOL    HW137325   3.280   4.263   2.769  1.8163  0.0205 -0.5413
 8622SOL    HW237326   3.226   4.279   2.631 -0.6147  1.0138 -0.7576
 8623SOL     OW37327   3.788   1.314   5.972  0.7924  0.2791 -0.0101
 8623SOL    HW137328   3.849   1.387   5.958 -0.8546  1.4366 -1.0681
 8623SOL    HW237329   3.789   1.268   5.889  1.0092 -1.4005  0.9278
 8624SOL     OW37330   0.036   3.589   9.477  0.4922  0.2577 -0.6941
 8624SOL    HW137331   0.087   3.647   9.534  1.1627 -1.5009  0.4833
 8624SOL    HW237332   0.103   3.546   9.424  0.3544  1.2565 -1.6706
 8625SOL     OW37333   1.611   1.189   1.497  0.2305 -0.1792  0.2090
 8625SOL    HW137334   1.592   1.096   1.486  0.8260 -0.4298  1.3026
 8625SOL    HW237335   1.529   1.237   1.499  2.7559  4.0861 -0.1056
 8626SOL     OW37336   1.591   2.337   7.791 -0.5637  0.4726 -0.5327
 8626SOL    HW137337   1.580   2.261   7.847 -2.9512  2.3324  1.5385
 8626SOL    HW237338   1.615   2.403   7.856  0.7926 -1.1770  0.6322
 8627SOL     OW37339   1.966   1.425   9.247  0.2150 -0.3593  0.1448
 8627SOL    HW137340   1.871   1.411   9.258  0.0970  0.7337  0.4601
 8627SOL    HW237341   2.000   1.335   9.245 -1.4212 -0.9982  1.0431
 8628SOL     OW37342   2.696   3.118   3.370 -0.1184  0.2454  0.3999
 8628SOL    HW137343   2.634   3.186   3.342  1.9291  2.6466  1.6846
 8628SOL    HW237344   2.754   3.167   3.428  1.9996 -1.3165 -0.4427
 8629SOL     OW37345   2.673   0.395  15.238  0.0460 -0.3688  0.4891
 8629SOL    HW137346   2.676   0.367  15.329 -0.6709  0.1120  0.6624
 8629SOL    HW237347   2.628   0.317  15.203  0.3451 -1.0307  1.5816
 8630SOL     OW37348   2.850   0.372   5.085  0.3676 -0.8682  0.3127
 8630SOL    HW137349   2.892   0.286   5.086 -0.5629 -1.3376 -1.2915
 8630SOL    HW237350   2.887   0.418   5.160 -1.6267 -0.7820  1.2579
 8631SOL     OW37351   1.671   2.903   9.265 -0.1081 -0.2324 -0.7984
 8631SOL    HW137352   1.727   2.827   9.252 -0.3538 -0.9283  2.2631
 8631SOL    HW237353   1.666   2.938   9.175  0.9005  0.7895 -0.4581
 8632SOL     OW37354   3.261   1.202   4.286 -0.5240 -0.2541 -0.1702
 8632SOL    HW137355   3.186   1.145   4.301 -0.4841  0.0540  1.2439
 8632SOL    HW237356   3.311   1.199   4.368  3.8044  1.3760 -2.7850
 8633SOL     OW37357   2.612   2.732  16.158 -0.7074  0.0455  0.2925
 8633SOL    HW137358   2.548   2.667  16.127 -0.6340 -0.6605  1.5913
 8633SOL    HW237359   2.606   2.722  16.253 -1.5361  0.2420  0.2584
 8634SOL     OW37360   3.499   0.396   9.910 -0.5562  0.2973 -0.0646
 8634SOL    HW137361   3.564   0.397   9.980 -0.3868 -2.3842 -0.1711
 8634SOL    HW237362   3.560   0.400   9.837 -1.1302 -1.2132 -0.6275
 8635SOL     OW37363   2.049   0.701   6.128 -0.0389 -0.4566 -0.0183
 8635SOL    HW137364   2.120   0.764   6.129 -1.5318  1.2490 -1.3404
 8635SOL    HW237365   2.040   0.700   6.033  1.3936 -0.2030 -0.1582
 8636SOL     OW37366   1.968   1.993   3.547 -0.0032 -0.4756  0.3564
 8636SOL    HW137367   1.976   1.914   3.494  3.4412  0.9623 -1.2313
 8636SOL    HW237368   1.994   2.065   3.489  1.7620  0.2703  2.0814
 8637SOL     OW37369   3.983   3.430   9.276 -0.2670  0.5746 -0.0029
 8637SOL    HW137370   3.894   3.463   9.265 -0.6630  0.9002  4.0043
 8637SOL    HW237371   3.979   3.343   9.235 -0.3552  0.1898  0.8205
 8638SOL     OW37372   1.519   4.579   1.801 -0.3949  0.1636 -0.2042
 8638SOL    HW137373   1.598   4.629   1.779  0.1528 -1.6866 -2.3786
 8638SOL    HW237374   1.495   4.527   1.724 -0.0374  0.9696 -0.8628
 8639SOL     OW37375   2.766   2.778   0.416 -0.2363  0.3307  0.1256
 8639SOL    HW137376   2.797   2.869   0.421  1.9117 -0.3716 -0.2737
 8639SOL    HW237377   2.747   2.757   0.325 -1.5853 -1.0160  0.7270
 8640SOL     OW37378   0.845   3.878  17.405 -0.2916  0.0095  0.9862
 8640SOL    HW137379   0.877   3.894  17.316  3.4008  1.9896  2.6683
 8640SOL    HW237380   0.823   3.785  17.406 -0.2861  0.0361  2.7052
 8641SOL     OW37381   4.411   0.845   2.985 -0.6851 -0.1225  0.3680
 8641SOL    HW137382   4.436   0.871   2.897  0.0585 -0.9615  0.3290
 8641SOL    HW237383   4.401   0.932   3.025  1.2957  0.3940 -0.2828
 8642SOL     OW37384   1.910   1.606   4.140  0.6431  0.4040  0.3270
 8642SOL    HW137385   1.949   1.682   4.096  1.4515 -0.2105 -0.0223
 8642SOL    HW237386   1.988   1.559   4.170 -0.4349  0.3136  2.9687
 8643SOL     OW37387   2.653   2.519   7.229 -0.6408 -0.2665  0.2656
 8643SOL    HW137388   2.616   2.456   7.290 -1.3216  0.6670  0.8224
 8643SOL    HW237389   2.607   2.600   7.253  0.8328 -0.0419  2.3875
 8644SOL     OW37390   2.384   0.325   7.200 -0.0235  0.5993  0.1351
 8644SOL    HW137391   2.346   0.325   7.288 -0.5787 -0.8534 -0.1033
 8644SOL    HW237392   2.463   0.273   7.218 -0.4711 -0.9956 -2.4352
 8645SOL     OW37393   0.256   4.145   6.676 -0.2494 -0.8739 -0.2748
 8645SOL    HW137394   0.183   4.113   6.624  0.1204 -1.1009 -0.6515
 8645SOL    HW237395   0.239   4.239   6.665 -0.3484 -0.8292  0.2607
 8646SOL     OW37396   0.397   0.209   8.397  0.4195 -0.6354 -0.2443
 8646SOL    HW137397   0.417   0.255   8.316 -0.8550 -1.1350 -0.8314
 8646SOL    HW237398   0.302   0.211   8.403  0.3881 -0.0438 -0.9807
 8647SOL     OW37399   1.234   0.385   1.184  0.4085  0.1485  0.0072
 8647SOL    HW137400   1.222   0.422   1.271 -0.8489 -0.3296  0.0322
 8647SOL    HW237401   1.311   0.328   1.190  1.2470  1.5463  2.3774
 8648SOL     OW37402   1.587   1.797  16.799  0.0178  0.2505  0.0355
 8648SOL    HW137403   1.550   1.850  16.869  0.4745  1.1646 -0.4143
 8648SOL    HW237404   1.561   1.840  16.717 -0.5278 -2.1288 -1.0342
 8649SOL     OW37405   3.000   4.323   1.925 -0.1364  0.1712 -0.2140
 8649SOL    HW137406   2.998   4.270   2.005 -1.0845  0.8944  0.2419
 8649SOL    HW237407   2.998   4.411   1.963 -3.0592  0.3395 -0.7881
 8650SOL     OW37408   1.615   1.776   9.731 -0.1416 -0.7471  0.0323
 8650SOL    HW137409   1.533   1.730   9.711 -0.6765 -0.0017  0.4830
 8650SOL    HW237410   1.580   1.856   9.692 -0.2096 -0.9384 -0.2995
 8651SOL     OW37411   3.551   3.701   1.757 -0.0988 -0.1711 -0.2968
 8651SOL    HW137412   3.472   3.653   1.730 -1.4181  1.5594  0.4805
 8651SOL    HW237413   3.571   3.735   1.670  0.2648 -0.0080 -0.1492
 8652SOL     OW37414   0.032   1.693   2.650  0.0690 -0.2747 -0.2576
 8652SOL    HW137415   4.706   1.619   2.687 -0.1092  0.8234  1.7384
 8652SOL    HW237416   4.697   1.769   2.648 -0.0579 -0.2978  2.0855
 8653SOL     OW37417   0.049   2.496   6.599  0.1522  0.0857 -0.9059
 8653SOL    HW137418   4.677   2.514   6.595 -0.0033 -0.5808 -0.1835
 8653SOL    HW237419   0.054   2.441   6.677 -0.1326  1.8288  0.3426
 8654SOL     OW37420   0.394   0.675   0.822  0.1741 -0.3102  0.2520
 8654SOL    HW137421   0.327   0.719   0.873  0.7953 -1.1719  1.8070
 8654SOL    HW237422   0.468   0.736   0.829  0.6797 -0.5972 -2.3311
 8655SOL     OW37423   1.645   0.539  12.786 -0.2662 -0.3754  0.3190
 8655SOL    HW137424   1.555   0.524  12.757  0.9327 -2.8596 -2.0929
 8655SOL    HW237425   1.672   0.593  12.712  0.5702 -1.2964 -0.0487
 8656SOL     OW37426   3.843   4.345   6.003  0.6354 -0.1823 -0.5949
 8656SOL    HW137427   3.884   4.413   5.949 -3.0370  1.3347 -1.4860
 8656SOL    HW237428   3.897   4.351   6.081  0.5081 -0.9575 -0.4470
 8657SOL     OW37429   1.585   0.285   0.451  0.3069  0.3299 -0.0487
 8657SOL    HW137430   1.619   0.196   0.453 -0.6970 -0.0245  1.3283
 8657SOL    HW237431   1.670   0.328   0.449  0.0251  0.7974 -1.5377
 8658SOL     OW37432   2.925   0.462   5.328 -0.3526 -0.0175  0.3023
 8658SOL    HW137433   3.009   0.429   5.361  0.2297 -0.9371 -2.1233
 8658SOL    HW237434   2.930   0.555   5.350  2.1608  0.0837 -0.7052
 8659SOL     OW37435   3.315   4.396   4.479 -0.8869  0.0899 -0.2686
 8659SOL    HW137436   3.290   4.434   4.395 -2.1136  1.1195  0.5607
 8659SOL    HW237437   3.278   4.308   4.470  2.4339 -1.5519  1.7530
 8660SOL     OW37438   1.910   1.317   7.001 -0.3435 -0.0442  0.2306
 8660SOL    HW137439   1.941   1.284   6.917 -2.1234  1.8725 -1.2026
 8660SOL    HW237440   1.985   1.288   7.052  2.2676  0.8272 -3.0714
 8661SOL     OW37441   3.889   2.090   9.206  0.6000 -0.2146 -0.1476
 8661SOL    HW137442   3.799   2.069   9.227  0.3614  0.9782  0.0026
 8661SOL    HW237443   3.920   2.127   9.289  2.1282 -0.9471 -0.3815
 8662SOL     OW37444   1.322   0.644   2.915  0.0281  0.1857  0.5125
 8662SOL    HW137445   1.253   0.620   2.853 -0.4408  3.5044 -0.2275
 8662SOL    HW237446   1.388   0.579   2.890  0.7420  0.6327  1.2488
 8663SOL     OW37447   3.673   1.327   2.284  0.6685  0.1938 -0.0028
 8663SOL    HW137448   3.732   1.251   2.279  1.0387  0.4818  0.0096
 8663SOL    HW237449   3.616   1.308   2.358 -0.4073  0.1583 -0.8487
 8664SOL     OW37450   0.197   4.055   8.525 -0.0468  0.2666 -0.0252
 8664SOL    HW137451   0.278   4.004   8.518 -0.8863 -0.7945 -1.7770
 8664SOL    HW237452   0.207   4.096   8.612  1.6781  0.1983 -0.1902
 8665SOL     OW37453   1.949   0.363   4.417 -0.5396  0.0296 -0.5234
 8665SOL    HW137454   1.916   0.350   4.506  0.6727 -1.3396 -0.2618
 8665SOL    HW237455   2.042   0.343   4.425 -0.3025  0.8375 -1.3435
 8666SOL     OW37456   4.639   4.564   8.289 -0.2732  0.0024 -0.4177
 8666SOL    HW137457   0.010   4.581   8.280  0.2714 -1.7917  1.9326
 8666SOL    HW237458   4.628   4.496   8.355 -0.3407 -0.1896 -0.6248
 8667SOL     OW37459   0.436   2.136  15.806 -0.1978 -0.5319  0.1345
 8667SOL    HW137460   0.412   2.079  15.734  0.6538 -0.8995  0.1363
 8667SOL    HW237461   0.488   2.203  15.763  0.6485 -0.4340  1.2814
 8668SOL     OW37462   1.565   0.575   3.583  0.4541  0.0216 -0.1577
 8668SOL    HW137463   1.547   0.482   3.596 -0.0718 -0.1965 -2.5414
 8668SOL    HW237464   1.572   0.580   3.488 -1.1990 -1.0868 -0.3185
 8669SOL     OW37465   2.064   0.039  11.990  0.1677  0.4522  0.3553
 8669SOL    HW137466   2.106   0.107  11.938  1.8818 -2.1656 -1.7470
 8669SOL    HW237467   2.142   4.710  12.012  0.5060  0.0618 -1.7307
 8670SOL     OW37468   0.293   2.488  13.495 -0.2200 -0.0547 -0.0530
 8670SOL    HW137469   0.364   2.451  13.442  0.4506  0.0310  0.7896
 8670SOL    HW237470   0.259   2.406  13.531 -1.8497 -0.1623 -1.8724
 8671SOL     OW37471   3.781   1.877   9.385 -0.2459  0.0735 -0.1251
 8671SOL    HW137472   3.729   1.931   9.445  0.0486 -0.7477  0.8806
 8671SOL    HW237473   3.868   1.882   9.425 -0.1850  0.9713 -0.3561
 8672SOL     OW37474   0.184   1.182   8.823  0.1565 -0.1370  0.2864
 8672SOL    HW137475   0.181   1.094   8.785  0.6583 -0.1803  0.3560
 8672SOL    HW237476   0.277   1.198   8.808 -0.1961  0.2079 -1.5567
 8673SOL     OW37477   2.896   0.587   6.487 -0.0853 -0.3326  0.7974
 8673SOL    HW137478   2.813   0.633   6.498  0.5094  0.5424  1.6306
 8673SOL    HW237479   2.940   0.627   6.412 -0.1624 -0.3551  0.7405
 8674SOL     OW37480   4.380   0.604   4.940 -0.1336 -0.6137 -0.4434
 8674SOL    HW137481   4.424   0.689   4.939 -0.8808 -0.2113  3.7637
 8674SOL    HW237482   4.307   0.621   4.999 -1.0871  1.3568 -2.1874
 8675SOL     OW37483   2.797   3.622   8.896 -0.9496  0.5913  0.5443
 8675SOL    HW137484   2.706   3.620   8.923 -0.1169  2.1605  3.4976
 8675SOL    HW237485   2.804   3.709   8.856  1.4148 -0.6931 -1.8875
 8676SOL     OW37486   3.654   2.739   3.741  0.0651  0.8719  0.1855
 8676SOL    HW137487   3.720   2.691   3.792 -2.1392 -2.1051  0.2193
 8676SOL    HW237488   3.606   2.663   3.708  1.1453  0.8150 -1.2896
 8677SOL     OW37489   0.389   1.236  13.666 -0.3952  0.2438 -0.0993
 8677SOL    HW137490   0.306   1.195  13.690  0.0600  1.3717  3.3612
 8677SOL    HW237491   0.446   1.160  13.673 -1.5536 -0.5282  0.9576
 8678SOL     OW37492   0.260   4.540   4.490  0.7553 -0.5228 -0.0118
 8678SOL    HW137493   0.294   4.482   4.423  0.8025 -1.2482  0.6368
 8678SOL    HW237494   0.204   4.481   4.541  2.4515 -1.4009  0.8615
 8679SOL     OW37495   0.387   1.636   2.388 -0.0059 -0.0140  0.7882
 8679SOL    HW137496   0.314   1.667   2.441  0.1442  2.0772 -0.2277
 8679SOL    HW237497   0.410   1.705   2.326  2.4351 -1.3485  0.2158
 8680SOL     OW37498   0.787   1.293  13.299 -0.1452 -0.5009  0.0077
 8680SOL    HW137499   0.874   1.272  13.266 -0.5021  1.1407 -2.0339
 8680SOL    HW237500   0.755   1.214  13.343 -0.4154 -0.6372 -0.4339
 8681SOL     OW37501   1.064   0.743  11.457  0.0068 -0.5709  0.8657
 8681SOL    HW137502   1.092   0.834  11.448  2.3458 -1.3807  0.1004
 8681SOL    HW237503   1.128   0.706  11.517  1.1792 -0.3246 -0.2395
 8682SOL     OW37504   2.549   1.744   4.414 -0.1004  0.2177  0.5006
 8682SOL    HW137505   2.581   1.796   4.488 -1.1241 -0.1970  1.2517
 8682SOL    HW237506   2.603   1.668   4.437 -0.5248 -0.1269  0.3645
 8683SOL     OW37507   4.049   0.419   8.997  0.3443  0.2193 -0.1234
 8683SOL    HW137508   4.111   0.415   8.924  0.7943  0.0360  0.2594
 8683SOL    HW237509   4.003   0.500   8.975 -1.0554 -0.9431 -1.4619
 8684SOL     OW37510   1.699   0.433   5.960 -0.5273 -0.5340  0.2270
 8684SOL    HW137511   1.768   0.438   6.025  0.1933  0.8401 -0.6507
 8684SOL    HW237512   1.704   0.521   5.922  0.2967  0.2429  2.1351
 8685SOL     OW37513   4.361   0.538  15.973  0.0716 -0.3375 -0.3553
 8685SOL    HW137514   4.279   0.588  15.968 -0.1509 -0.8842 -2.0696
 8685SOL    HW237515   4.400   0.586  15.900 -1.0625  1.1917  0.0480
 8686SOL     OW37516   1.157   3.568   1.377 -0.9261 -0.0913 -0.2937
 8686SOL    HW137517   1.211   3.589   1.301 -3.2212  0.3752 -1.8143
 8686SOL    HW237518   1.087   3.634   1.373 -1.9087 -0.9480  2.7421
 8687SOL     OW37519   0.150   4.256   8.340  0.1925  0.1615  0.2944
 8687SOL    HW137520   0.101   4.212   8.271  2.4908  1.3648 -2.0720
 8687SOL    HW237521   0.160   4.185   8.405 -0.7547 -1.1863 -1.0333
 8688SOL     OW37522   2.830   1.314   9.060 -0.4966 -0.2373  1.2437
 8688SOL    HW137523   2.801   1.324   9.151  0.5785  0.6296  1.4870
 8688SOL    HW237524   2.778   1.238   9.033 -0.9035  1.8943 -3.9180
 8689SOL     OW37525   0.074   2.432   4.914 -0.3301 -0.3503 -0.0176
 8689SOL    HW137526   0.083   2.459   4.823  0.2798 -1.3818 -0.2697
 8689SOL    HW237527   0.114   2.345   4.909  1.9225  0.6898  0.0105
 8690SOL     OW37528   3.362   3.062   8.559 -0.0369 -0.0468 -0.0897
 8690SOL    HW137529   3.445   3.091   8.521  0.5094  1.4058  2.1942
 8690SOL    HW237530   3.304   3.047   8.484  0.5099 -0.0536 -0.5106
 8691SOL     OW37531   2.231   4.383   7.106 -0.0579 -0.3841  0.2707
 8691SOL    HW137532   2.304   4.385   7.169 -0.4774 -0.3232  0.7503
 8691SOL    HW237533   2.273   4.351   7.026  1.1608  0.1979  0.6632
 8692SOL     OW37534   2.324   3.900   2.312  0.0757  0.2515 -0.0769
 8692SOL    HW137535   2.397   3.915   2.372  1.1540 -3.2555 -0.5294
 8692SOL    HW237536   2.357   3.940   2.231  1.3804 -0.3839  0.1303
 8693SOL     OW37537   3.762   3.718   3.706 -0.2531 -0.3878 -0.6322
 8693SOL    HW137538   3.729   3.730   3.795  4.5135  1.1188  0.9374
 8693SOL    HW237539   3.776   3.624   3.698 -3.6523 -1.1637  2.3673
 8694SOL     OW37540   2.197   2.554   6.643 -0.1137 -0.5787 -0.1390
 8694SOL    HW137541   2.104   2.577   6.640  0.0411 -0.0427 -0.7514
 8694SOL    HW237542   2.212   2.557   6.737  1.5897 -0.5979 -0.4243
 8695SOL     OW37543   2.269   2.791  14.798 -0.1191  0.4236 -0.4588
 8695SOL    HW137544   2.321   2.822  14.724  2.5145  0.7830  1.5473
 8695SOL    HW237545   2.329   2.729  14.840  0.8518  1.8739  0.3183
 8696SOL     OW37546   0.565   1.211   9.085 -0.1315 -0.2830 -0.0019
 8696SOL    HW137547   0.478   1.240   9.056 -0.8928 -0.8950  1.6569
 8696SOL    HW237548   0.619   1.238   9.012  0.5445 -1.9964 -0.1327
 8697SOL     OW37549   4.541   4.625   0.096  0.1264  0.1910  0.1878
 8697SOL    HW137550   4.512   4.627   0.188 -0.9229 -3.0872 -0.0764
 8697SOL    HW237551   4.472   4.571   0.056  1.5174 -0.0350 -1.8777
 8698SOL     OW37552   2.991   0.769   2.051 -0.0650  0.1544  0.6881
 8698SOL    HW137553   3.070   0.718   2.066  0.4164  0.3965 -1.0155
 8698SOL    HW237554   2.918   0.708   2.060 -1.4174  1.6010 -0.3580
 8699SOL     OW37555   2.136   1.008  11.868 -0.4803 -0.0838 -0.1069
 8699SOL    HW137556   2.195   1.071  11.827  0.6877 -0.3148  1.2245
 8699SOL    HW237557   2.065   1.007  11.805 -0.1775  1.0275 -0.4662
 8700SOL     OW37558   2.614   0.637   2.894 -0.1658 -0.4534 -0.0244
 8700SOL    HW137559   2.574   0.550   2.901  1.0374 -1.1326 -1.6469
 8700SOL    HW237560   2.697   0.619   2.937 -0.7285  0.0949  1.2946
 8701SOL     OW37561   2.124   1.612   8.674 -0.2186 -0.4774  0.1497
 8701SOL    HW137562   2.216   1.592   8.688  0.1228 -0.2610 -1.8506
 8701SOL    HW237563   2.109   1.698   8.712 -0.4452 -0.1487 -0.6842
 8702SOL     OW37564   3.872   0.635   8.193 -0.4606  0.0869 -0.5446
 8702SOL    HW137565   3.794   0.666   8.145 -0.3366  1.6136  0.2310
 8702SOL    HW237566   3.853   0.650   8.285  0.4503 -0.1532 -0.3208
 8703SOL     OW37567   0.778   2.895   6.346 -0.1092  0.4419 -0.0414
 8703SOL    HW137568   0.727   2.948   6.285  2.3420  1.3054 -1.3470
 8703SOL    HW237569   0.840   2.960   6.378 -0.3447  0.1670  0.9726
 8704SOL     OW37570   4.558   0.137   6.519 -0.3781  0.0689  0.0265
 8704SOL    HW137571   4.611   0.092   6.584 -1.6661  1.4369  2.0243
 8704SOL    HW237572   4.612   0.213   6.498 -1.2695  0.7935  0.3122
 8705SOL     OW37573   2.025   3.980   9.091 -0.4087  0.4851 -0.4452
 8705SOL    HW137574   2.086   4.050   9.117 -0.0667  0.3528 -0.8950
 8705SOL    HW237575   2.007   3.936   9.174 -1.5967 -0.0883 -1.0151
 8706SOL     OW37576   1.057   0.180   5.650  0.4158  0.3570  0.0615
 8706SOL    HW137577   1.017   0.239   5.714 -2.0685 -1.1891 -0.0646
 8706SOL    HW237578   0.990   0.162   5.585 -0.2495  0.0831  0.8158
 8707SOL     OW37579   2.885   3.822  15.844 -0.4667 -0.1373 -0.0210
 8707SOL    HW137580   2.829   3.753  15.880 -0.1332 -1.9310 -2.9936
 8707SOL    HW237581   2.970   3.779  15.846 -0.1534  0.4489 -1.0934
 8708SOL     OW37582   0.303   3.457   1.950  0.1638  0.1699  0.1454
 8708SOL    HW137583   0.305   3.364   1.973 -0.3385  0.2627  0.5597
 8708SOL    HW237584   0.255   3.458   1.867  0.9272 -1.2726 -0.3192
 8709SOL     OW37585   4.447   4.439   2.577 -0.1950  0.2355  0.1301
 8709SOL    HW137586   4.362   4.481   2.592 -0.4090 -0.1710  0.0662
 8709SOL    HW237587   4.422   4.355   2.538  0.5640  0.0545  0.0483
 8710SOL     OW37588   0.135   4.376   3.636  0.3623 -0.4539 -0.4688
 8710SOL    HW137589   0.056   4.377   3.691  0.4322  2.6471 -0.4352
 8710SOL    HW237590   0.085   4.346   3.560  0.9405  0.7233 -1.3081
 8711SOL     OW37591   2.913   4.159  17.588  0.2440  0.0185 -0.1881
 8711SOL    HW137592   2.937   4.111  17.668  0.3382 -0.4921 -0.5272
 8711SOL    HW237593   2.829   4.116  17.574  0.3321 -0.1889 -0.0831
 8712SOL     OW37594   4.026   0.231   2.371  0.2507  0.5341 -0.4584
 8712SOL    HW137595   3.978   0.314   2.370  0.2039  0.4858 -1.8169
 8712SOL    HW237596   3.989   0.204   2.287 -0.3017  0.0260 -0.0501
 8713SOL     OW37597   2.400   3.573  16.769  0.2120 -0.7048  0.3295
 8713SOL    HW137598   2.460   3.615  16.707 -2.3867 -0.1550 -1.8588
 8713SOL    HW237599   2.355   3.506  16.718 -0.1725  1.5489 -2.2861
 8714SOL     OW37600   0.060   3.277   3.237 -0.0621  0.2851 -0.0581
 8714SOL    HW137601   0.129   3.340   3.258  1.5747 -1.2616 -0.8775
 8714SOL    HW237602   0.053   3.231   3.321 -1.9493  1.2464  0.3270
 8715SOL     OW37603   4.609   1.389  17.185 -0.3027 -0.4404  0.3028
 8715SOL    HW137604   4.584   1.298  17.167 -0.4381 -0.1510 -0.9557
 8715SOL    HW237605   4.692   1.380  17.231 -0.5832 -0.0338  0.8930
 8716SOL     OW37606   1.512   4.064   4.469  0.0392  0.3491  0.2923
 8716SOL    HW137607   1.555   4.078   4.554  0.3682  1.8772 -0.1302
 8716SOL    HW237608   1.547   3.975   4.460 -1.9086 -0.3983  0.2751
 8717SOL     OW37609   0.474   3.319   0.838  1.0851  0.3376 -0.2052
 8717SOL    HW137610   0.398   3.262   0.831  0.9160  0.3993  1.2168
 8717SOL    HW237611   0.460   3.367   0.919 -0.5945 -0.8136  0.1830
 8718SOL     OW37612   2.302   3.747   8.609 -0.2669  0.3608  0.1829
 8718SOL    HW137613   2.259   3.672   8.650 -2.1864  0.9737 -0.6734
 8718SOL    HW237614   2.352   3.705   8.539 -0.0279  0.3963  0.3330
 8719SOL     OW37615   2.557   3.778  16.638 -0.8076  0.2371 -0.1227
 8719SOL    HW137616   2.650   3.799  16.636 -0.7599  0.2192  2.0414
 8719SOL    HW237617   2.556   3.757  16.545 -1.7808  1.3286 -0.3600
 8720SOL     OW37618   2.149   2.280   8.853  0.1578  0.0138  0.8352
 8720SOL    HW137619   2.072   2.330   8.880 -0.1394  0.7377 -1.3328
 8720SOL    HW237620   2.218   2.347   8.859  0.4294 -0.2838  1.0726
 8721SOL     OW37621   1.230   2.932   9.130 -0.2351 -0.6736 -0.1590
 8721SOL    HW137622   1.285   2.854   9.132 -0.7566 -1.0714 -1.3854
 8721SOL    HW237623   1.284   2.989   9.075 -0.7789  0.1848  0.2012
 8722SOL     OW37624   0.917   0.545   5.339  0.6038 -0.2269 -0.3407
 8722SOL    HW137625   0.849   0.611   5.322 -0.8139 -1.3836  0.7564
 8722SOL    HW237626   0.983   0.610   5.362  1.1101 -0.9138  0.1538
 8723SOL     OW37627   4.396   0.103   2.730 -0.1308 -0.3019 -0.7837
 8723SOL    HW137628   4.307   0.130   2.708  0.2765  1.4798 -0.2508
 8723SOL    HW237629   4.393   0.038   2.800 -0.6871  0.8711  0.2936
 8724SOL     OW37630   3.576   4.125  17.210 -0.2151 -0.6492 -0.3205
 8724SOL    HW137631   3.670   4.140  17.209 -0.2194 -0.7966 -3.1243
 8724SOL    HW237632   3.549   4.158  17.296 -2.0037  1.6203 -1.7439
 8725SOL     OW37633   0.853   1.746   8.828 -0.1105  0.0308 -0.2061
 8725SOL    HW137634   0.920   1.814   8.826 -2.0726  1.9780 -0.1702
 8725SOL    HW237635   0.911   1.671   8.818  0.0777  0.2499 -0.7550
 8726SOL     OW37636   2.640   3.406   4.103 -0.4879  0.5060  0.6561
 8726SOL    HW137637   2.569   3.424   4.041  1.3677  0.2153 -1.5342
 8726SOL    HW237638   2.620   3.481   4.159  1.0118  2.6265 -1.6881
 8727SOL     OW37639   0.852   3.638   6.685 -0.2280  0.3094 -0.3039
 8727SOL    HW137640   0.848   3.599   6.598 -0.6225 -0.8852  0.2507
 8727SOL    HW237641   0.928   3.599   6.728 -0.7820 -1.5637 -1.0274
 8728SOL     OW37642   2.959   3.001  12.683  0.7637  0.1083 -0.2546
 8728SOL    HW137643   2.972   3.061  12.610  0.3123  2.4358  1.5806
 8728SOL    HW237644   3.010   3.049  12.747 -0.9817  0.8467  0.5955
 8729SOL     OW37645   2.268   0.432   8.397 -0.0664 -0.2347 -0.1521
 8729SOL    HW137646   2.363   0.418   8.398  0.0328  0.6081  2.8213
 8729SOL    HW237647   2.264   0.525   8.419 -0.5139 -0.5214  0.9530
 8730SOL     OW37648   3.563   3.041   7.852 -0.1217  0.3795  0.6647
 8730SOL    HW137649   3.468   3.048   7.844  0.1371  0.6233 -2.1760
 8730SOL    HW237650   3.589   3.087   7.772  1.5236 -0.0290  0.9654
 8731SOL     OW37651   3.654   1.248   9.516 -0.0160  0.0240  0.3837
 8731SOL    HW137652   3.588   1.318   9.519  0.1627  0.2102 -0.2108
 8731SOL    HW237653   3.732   1.293   9.486  1.1401 -1.5579  1.0223
 8732SOL     OW37654   3.051   2.335  13.578 -0.0280  0.2078  0.3047
 8732SOL    HW137655   3.015   2.252  13.545  1.7563 -0.9988  1.4210
 8732SOL    HW237656   2.975   2.393  13.580  0.6544  1.0726  1.2848
 8733SOL     OW37657   4.661   2.117   9.795  0.1069 -0.1373 -0.9057
 8733SOL    HW137658   4.670   2.024   9.775  0.9485  0.3162 -2.6677
 8733SOL    HW237659   0.008   2.125   9.861 -0.5084  0.6830 -0.3540
 8734SOL     OW37660   4.166   0.462  10.750 -0.4833  0.3536  0.7278
 8734SOL    HW137661   4.157   0.549  10.712  3.2200 -0.3792 -1.7953
 8734SOL    HW237662   4.090   0.465  10.809 -0.5593  1.0481  0.5932
 8735SOL     OW37663   0.847   1.477   2.690  0.7101  0.0465 -0.1782
 8735SOL    HW137664   0.823   1.458   2.780  1.3231  0.8461  0.1598
 8735SOL    HW237665   0.798   1.553   2.659  1.1752  1.0392  1.5460
 8736SOL     OW37666   3.887   2.645  14.911 -0.3579  0.2201  0.3201
 8736SOL    HW137667   3.891   2.693  14.994  1.3326 -1.1099  1.0188
 8736SOL    HW237668   3.793   2.632  14.906 -0.3793  1.1057 -1.4087
 8737SOL     OW37669   3.801   4.566  14.482  0.0708 -0.3859 -0.2815
 8737SOL    HW137670   3.883   4.614  14.493 -1.6507  2.5875 -0.1680
 8737SOL    HW237671   3.744   4.605  14.549  0.7293  0.9264 -0.4731
 8738SOL     OW37672   0.763   0.767   3.609 -0.4909  0.1134 -0.0671
 8738SOL    HW137673   0.698   0.781   3.678  0.0334  1.4959  0.1465
 8738SOL    HW237674   0.711   0.779   3.529  1.0715  0.9506 -0.9571
 8739SOL     OW37675   3.627   3.370  16.279 -0.3534 -0.2497 -0.4416
 8739SOL    HW137676   3.549   3.424  16.266  0.0616  0.3292 -0.5234
 8739SOL    HW237677   3.687   3.434  16.318 -0.3746 -0.2478 -0.4125
 8740SOL     OW37678   0.249   1.480   9.885 -0.2156 -0.2859 -0.0921
 8740SOL    HW137679   0.276   1.559   9.931  1.1725 -0.2239 -1.0100
 8740SOL    HW237680   0.269   1.412   9.950 -1.4231 -1.4853 -0.9702
 8741SOL     OW37681   3.070   4.359  12.345 -0.1563 -0.1201  0.1593
 8741SOL    HW137682   2.989   4.381  12.300  0.7043  1.6562 -0.5092
 8741SOL    HW237683   3.041   4.348  12.436 -1.0543  0.6692 -0.0331
 8742SOL     OW37684   3.885   2.951   8.546 -0.4555  0.0233 -0.1236
 8742SOL    HW137685   3.805   2.974   8.592 -2.1570 -0.8042 -2.6937
 8742SOL    HW237686   3.914   2.873   8.593  2.1774  0.5773 -0.8213
 8743SOL     OW37687   4.170   2.077   6.141  0.5331  0.5977 -0.3209
 8743SOL    HW137688   4.142   2.127   6.217  0.0620  0.2057 -0.2403
 8743SOL    HW237689   4.216   2.004   6.181 -0.2467  1.1819  1.6377
 8744SOL     OW37690   2.755   4.114   1.959  0.1731 -0.1279 -0.5692
 8744SOL    HW137691   2.776   4.189   2.015 -0.2024 -0.9156  0.6298
 8744SOL    HW237692   2.801   4.038   1.996 -0.5520  0.1326  0.8627
 8745SOL     OW37693   0.822   1.885  12.726  0.1288 -0.0383 -0.1154
 8745SOL    HW137694   0.735   1.918  12.750  0.7835  1.5266  0.0435
 8745SOL    HW237695   0.805   1.816  12.662  0.5482  1.0787 -1.4162
 8746SOL     OW37696   3.650   1.668   9.289  0.5947 -0.1680 -0.2187
 8746SOL    HW137697   3.561   1.681   9.323  0.3222  2.3224 -1.9405
 8746SOL    HW237698   3.708   1.737   9.319  1.2009  0.3347 -2.6232
 8747SOL     OW37699   1.679   3.324   5.491  0.1795  0.4312  0.2731
 8747SOL    HW137700   1.771   3.329   5.466  0.2418 -2.2304 -0.0901
 8747SOL    HW237701   1.667   3.384   5.564 -1.3132 -2.3031  2.2823
 8748SOL     OW37702   1.029   1.166  15.484 -0.2918  0.2818  0.0530
 8748SOL    HW137703   1.094   1.173  15.414 -0.2415  2.7275  0.3549
 8748SOL    HW237704   0.950   1.140  15.438 -1.4247  1.0005  1.5937
 8749SOL     OW37705   2.827   2.252   5.786  0.3253  0.5158  0.2561
 8749SOL    HW137706   2.905   2.197   5.779  1.0438  1.3923  1.5191
 8749SOL    HW237707   2.794   2.234   5.875 -0.4231 -0.5172 -0.2253
 8750SOL     OW37708   0.278   1.137   3.808 -0.5925 -0.3509  0.2074
 8750SOL    HW137709   0.301   1.060   3.756 -2.7494  1.4058 -3.3804
 8750SOL    HW237710   0.325   1.101   3.883  1.3881  1.4794 -0.1561
 8751SOL     OW37711   3.027   4.135   2.870 -0.1473 -0.2140 -0.2930
 8751SOL    HW137712   2.942   4.152   2.829  0.3472  1.5309 -0.5744
 8751SOL    HW237713   3.049   4.224   2.896 -0.9794  0.3459 -1.4945
 8752SOL     OW37714   2.870   0.784   5.001  0.3871  0.1993 -0.1376
 8752SOL    HW137715   2.817   0.755   4.926  0.8388 -1.0141  0.0083
 8752SOL    HW237716   2.892   0.875   4.982  0.7874  0.4557  1.5974
 8753SOL     OW37717   0.758   3.942   1.338  0.5533 -0.1106  0.1704
 8753SOL    HW137718   0.738   3.957   1.245 -0.0670  0.3030  0.3682
 8753SOL    HW237719   0.735   4.028   1.373 -1.0661 -1.8640  3.3704
 8754SOL     OW37720   0.737   0.932  14.745  0.6285 -1.1188  0.0423
 8754SOL    HW137721   0.686   0.968  14.672 -2.1540 -2.4463  1.3543
 8754SOL    HW237722   0.721   0.838  14.749  2.1221 -1.4162 -0.8680
 8755SOL     OW37723   1.607   4.010  14.085 -0.2538 -0.4662  1.0829
 8755SOL    HW137724   1.542   4.074  14.113  1.5077  0.7456  2.4106
 8755SOL    HW237725   1.685   4.062  14.105 -0.8707  0.4474  1.1070
 8756SOL     OW37726   2.356   2.666   3.498  0.2551 -0.0806  0.3765
 8756SOL    HW137727   2.401   2.712   3.428 -0.7290  0.5763  0.1617
 8756SOL    HW237728   2.321   2.729   3.562  1.2565  0.7831  0.0634
 8757SOL     OW37729   1.746   4.010   6.232  0.0660  0.4890  0.0907
 8757SOL    HW137730   1.680   3.942   6.227 -0.7518  1.4462 -2.0776
 8757SOL    HW237731   1.699   4.075   6.179  0.3187  0.1795 -0.5124
 8758SOL     OW37732   4.508   2.256   5.794 -0.1499 -0.7202 -0.1761
 8758SOL    HW137733   4.450   2.251   5.870  1.8920  0.3058  1.4402
 8758SOL    HW237734   4.563   2.330   5.821  0.5150 -1.1093 -0.4766
 8759SOL     OW37735   0.525   0.897  15.206 -0.1209  0.2522  0.2449
 8759SOL    HW137736   0.587   0.877  15.275  2.7144  1.1212 -2.0498
 8759SOL    HW237737   0.557   0.833  15.141  0.6296  1.0218 -0.1401
 8760SOL     OW37738   2.770   3.205   9.107 -0.0496  0.1368 -0.2095
 8760SOL    HW137739   2.853   3.183   9.064  0.8025  0.0584  1.4608
 8760SOL    HW237740   2.777   3.298   9.128  1.4869  0.4214 -2.0158
 8761SOL     OW37741   3.809   1.203  17.455  0.9000 -0.1710 -0.0381
 8761SOL    HW137742   3.726   1.219  17.411  1.2850 -0.2530 -0.7879
 8761SOL    HW237743   3.781   1.190  17.546  0.0238 -1.0191 -0.4329
 8762SOL     OW37744   3.158   0.050  13.598 -0.4143  0.5920  0.0381
 8762SOL    HW137745   3.159   4.678  13.583  0.5199  0.5418  0.4476
 8762SOL    HW237746   3.240   0.066  13.645  0.9311 -2.0520 -1.3755
 8763SOL     OW37747   0.810   2.309  17.416  0.3966  0.0245 -0.2501
 8763SOL    HW137748   0.780   2.331  17.504  1.3847  0.2279  0.0394
 8763SOL    HW237749   0.738   2.250  17.394  1.3256 -0.7854 -1.1317
 8764SOL     OW37750   4.423   2.264   0.367  0.0597 -0.0376  0.2677
 8764SOL    HW137751   4.442   2.171   0.355  2.6665  0.6260 -0.6957
 8764SOL    HW237752   4.509   2.299   0.342 -0.3790  0.4632 -0.5282
 8765SOL     OW37753   3.339   3.258   6.247  0.2327 -0.4069  0.0817
 8765SOL    HW137754   3.357   3.262   6.341 -0.2018 -1.5765  0.2079
 8765SOL    HW237755   3.312   3.167   6.236 -1.6071  0.1272  0.1637
 8766SOL     OW37756   1.079   1.559   7.241  0.2618  0.0493  0.0787
 8766SOL    HW137757   1.005   1.620   7.249  0.0051 -0.0652 -1.3918
 8766SOL    HW237758   1.065   1.533   7.150  1.7589 -0.6310  0.0513
 8767SOL     OW37759   0.574   3.156   5.308 -0.2941  0.3170  0.0929
 8767SOL    HW137760   0.652   3.134   5.359 -1.6876  1.1169  2.6099
 8767SOL    HW237761   0.613   3.122   5.228  0.4506 -0.0292  0.6139
 8768SOL     OW37762   3.384   4.414   5.554  0.8234  0.0791 -0.3384
 8768SOL    HW137763   3.362   4.507   5.542 -2.2274 -0.4419  1.2271
 8768SOL    HW237764   3.458   4.411   5.493  1.6272  2.2034  0.5339
 8769SOL     OW37765   3.032   0.603   3.487 -0.2193 -0.1508 -0.4388
 8769SOL    HW137766   3.044   0.591   3.581 -0.1956  1.3316 -0.2474
 8769SOL    HW237767   3.112   0.569   3.448 -1.0964 -1.8984 -0.6733
 8770SOL     OW37768   2.046   2.554   7.926  0.0362 -0.0767 -0.7584
 8770SOL    HW137769   1.976   2.611   7.958 -1.5474 -2.0879 -0.6745
 8770SOL    HW237770   2.067   2.576   7.835 -0.0832 -1.2511 -1.0690
 8771SOL     OW37771   2.461   3.040   8.815  0.6281 -0.2177 -0.0007
 8771SOL    HW137772   2.480   3.030   8.722  2.7543  0.5248  0.3519
 8771SOL    HW237773   2.367   3.021   8.819  0.9171 -1.2491  1.8818
 8772SOL     OW37774   2.188   4.008   3.156 -0.5322 -0.4928 -0.1035
 8772SOL    HW137775   2.103   4.051   3.145 -0.0611  0.2590 -0.8235
 8772SOL    HW237776   2.157   3.933   3.206 -1.7951 -0.4894 -0.8812
 8773SOL     OW37777   3.541   2.034  14.124  0.1519 -0.5714  0.0709
 8773SOL    HW137778   3.545   2.049  14.029 -0.2830  0.7173  0.2464
 8773SOL    HW237779   3.622   2.065  14.165  1.4100 -0.4332 -2.5232
 8774SOL     OW37780   0.480   3.403   4.560 -0.4975 -0.0325  0.3387
 8774SOL    HW137781   0.422   3.364   4.495 -1.0610 -3.5650  2.9550
 8774SOL    HW237782   0.536   3.456   4.503 -0.9562 -1.6703 -1.6402
 8775SOL     OW37783   1.361   3.785   2.616 -0.0291  0.3205  0.4852
 8775SOL    HW137784   1.351   3.849   2.546 -1.6842 -1.0983 -0.5840
 8775SOL    HW237785   1.457   3.789   2.623  0.0623  0.3660 -0.6511
 8776SOL     OW37786   4.312   3.409   8.085 -0.1349 -0.4828  0.1250
 8776SOL    HW137787   4.326   3.319   8.114  1.1396 -0.3237  0.0316
 8776SOL    HW237788   4.217   3.411   8.086 -0.0809  0.9572  2.0089
 8777SOL     OW37789   1.464   4.137  10.881 -0.2420 -0.0861  0.4062
 8777SOL    HW137790   1.416   4.083  10.818  1.9032 -2.3474  0.7347
 8777SOL    HW237791   1.393   4.146  10.945  0.9813  0.1069  1.7335
 8778SOL     OW37792   0.577   1.855   5.759  0.0993  0.0413 -0.3026
 8778SOL    HW137793   0.641   1.788   5.782  0.8104  0.7476 -0.2394
 8778SOL    HW237794   0.626   1.915   5.703 -1.0249  0.3679 -0.9495
 8779SOL     OW37795   2.032   2.041   6.081  0.6531 -0.0289  0.3296
 8779SOL    HW137796   2.121   2.009   6.066  0.6432  0.3339 -0.4927
 8779SOL    HW237797   2.047   2.095   6.158 -2.7512  0.2112  0.8310
 8780SOL     OW37798   2.529   3.549   8.041  0.3366  0.2746  0.0610
 8780SOL    HW137799   2.460   3.548   8.106 -0.9348  1.5405 -1.2673
 8780SOL    HW237800   2.480   3.563   7.960  0.1354  0.8020  0.2796
 8781SOL     OW37801   0.861   3.926   7.623 -0.4060  0.5125  0.0200
 8781SOL    HW137802   0.862   3.843   7.669 -4.1203  0.9907  0.9480
 8781SOL    HW237803   0.844   3.988   7.693  1.6595 -0.8873  1.7491
 8782SOL     OW37804   0.954   2.968   4.888  0.3339 -0.0172  0.4938
 8782SOL    HW137805   0.904   2.922   4.955 -0.5052  1.9040  1.1965
 8782SOL    HW237806   1.046   2.960   4.912  0.5771 -2.4338 -1.2395
 8783SOL     OW37807   3.391   3.785   1.326  0.2744 -0.3859 -0.1393
 8783SOL    HW137808   3.414   3.708   1.274 -1.3150 -0.2726 -0.9948
 8783SOL    HW237809   3.355   3.845   1.261  0.3075  0.4206  0.5887
 8784SOL     OW37810   1.860   0.043   1.971 -0.4764 -0.1392  0.4046
 8784SOL    HW137811   1.863   0.137   1.951 -1.2921 -0.0935  0.4702
 8784SOL    HW237812   1.830   0.026   1.882  1.5795  0.0095 -0.3165
 8785SOL     OW37813   0.915   3.765   3.943 -0.0554  0.4110 -0.0316
 8785SOL    HW137814   0.838   3.708   3.948 -0.3866  0.7879 -0.9924
 8785SOL    HW237815   0.866   3.846   3.930 -1.0221  0.1285  1.8009
 8786SOL     OW37816   3.258   1.051   7.574  0.0343  0.0718  0.5913
 8786SOL    HW137817   3.339   1.027   7.529  0.6141 -0.3950  1.8917
 8786SOL    HW237818   3.237   1.133   7.528  3.0057  1.3526  1.5447
 8787SOL     OW37819   4.508   3.047   7.148 -0.1573 -0.0180 -0.2778
 8787SOL    HW137820   4.549   3.000   7.221 -0.9139 -0.7846 -0.3448
 8787SOL    HW237821   4.435   2.987   7.134  0.6349 -0.7211 -1.4472
 8788SOL     OW37822   3.230   2.039  16.709 -0.3075  0.5382 -0.3593
 8788SOL    HW137823   3.219   1.949  16.739 -0.7967  0.0799 -1.9512
 8788SOL    HW237824   3.187   2.088  16.779  3.1717  3.0582  0.0243
 8789SOL     OW37825   3.749   3.023  12.504  0.6821  0.1208  0.0097
 8789SOL    HW137826   3.712   2.966  12.570  2.2353 -0.0070  0.7781
 8789SOL    HW237827   3.779   3.091  12.564  3.3672  0.7838 -2.0347
 8790SOL     OW37828   4.007   2.758   8.288 -0.3527  0.0165  0.5700
 8790SOL    HW137829   3.950   2.805   8.349 -0.9994  1.7728 -1.3855
 8790SOL    HW237830   4.004   2.821   8.216  0.5725  0.5673  1.0134
 8791SOL     OW37831   1.274   3.492  16.958 -0.7626  0.3175  0.0860
 8791SOL    HW137832   1.228   3.485  16.875 -1.0222 -1.5327  0.3779
 8791SOL    HW237833   1.224   3.567  16.990  0.1151  0.5388  0.9531
 8792SOL     OW37834   4.566   2.968  12.795  0.2534 -0.3438  0.2268
 8792SOL    HW137835   4.659   2.949  12.799  0.3668  0.1409 -0.1635
 8792SOL    HW237836   4.566   3.018  12.714 -0.7811  0.6865  0.8654
 8793SOL     OW37837   2.626   0.738   5.169 -0.5122  0.0348 -0.2397
 8793SOL    HW137838   2.621   0.664   5.108  2.8638  1.4926 -2.3039
 8793SOL    HW237839   2.710   0.777   5.144  0.0429 -0.8614  0.2265
 8794SOL     OW37840   4.333   4.165   6.683  0.1043 -0.2787 -0.3569
 8794SOL    HW137841   4.403   4.102   6.701 -1.4469 -1.9331 -0.1403
 8794SOL    HW237842   4.329   4.217   6.764  2.3522 -2.1351  0.9730
 8795SOL     OW37843   1.591   4.112  14.665  0.1969 -0.0719  0.3490
 8795SOL    HW137844   1.560   4.058  14.593  1.1211 -2.4799  1.7692
 8795SOL    HW237845   1.562   4.060  14.740  0.5225  0.9681  1.2059
 8796SOL     OW37846   2.572   0.231  14.754  0.1144  0.1700 -0.0656
 8796SOL    HW137847   2.476   0.230  14.756  0.1558 -2.8700 -0.2319
 8796SOL    HW237848   2.586   0.137  14.751 -2.1710 -0.1310 -1.5387
 8797SOL     OW37849   1.753   0.101   3.875 -0.1095  0.1049 -0.4538
 8797SOL    HW137850   1.837   0.133   3.909  0.9516 -3.7465  0.5617
 8797SOL    HW237851   1.685   0.128   3.937 -2.2476 -1.8483 -1.9801
 8798SOL     OW37852   2.908   3.999   4.144 -0.1682  0.1716  0.2222
 8798SOL    HW137853   2.930   3.907   4.163  0.1220 -0.1745 -1.8306
 8798SOL    HW237854   2.915   4.036   4.232 -0.4500 -1.5500  0.9814
 8799SOL     OW37855   2.093   2.556   3.545  0.6010  0.1759 -0.1353
 8799SOL    HW137856   2.043   2.630   3.579 -0.8026 -1.1493  0.6386
 8799SOL    HW237857   2.169   2.594   3.501  1.3779 -0.2232  0.8582
 8800SOL     OW37858   0.497   0.779   5.766 -0.5087 -0.3256 -0.8999
 8800SOL    HW137859   0.583   0.808   5.737  0.8415 -3.1123  0.2310
 8800SOL    HW237860   0.507   0.684   5.770  1.7800 -0.1281 -2.1997
 8801SOL     OW37861   1.873   4.449   8.178 -0.1439 -0.6406 -0.0029
 8801SOL    HW137862   1.936   4.487   8.116 -1.9845 -0.9955 -2.0631
 8801SOL    HW237863   1.797   4.491   8.140 -0.4252  0.5749  1.8905
 8802SOL     OW37864   4.700   1.112   8.223 -0.3724 -0.7506  0.5810
 8802SOL    HW137865   4.613   1.125   8.260 -0.3025  1.7910 -0.1524
 8802SOL    HW237866   0.016   1.199   8.229 -0.7879 -0.7159  2.5991
 8803SOL     OW37867   0.633   1.933   6.764  0.4147 -0.7291 -0.0855
 8803SOL    HW137868   0.576   1.995   6.718 -1.6693 -0.9288  2.2111
 8803SOL    HW237869   0.723   1.959   6.743  0.2659  1.8656  2.5049
 8804SOL     OW37870   3.084   0.428   7.756  0.1179  0.4715 -0.1279
 8804SOL    HW137871   3.001   0.464   7.726 -1.2669 -2.8396 -0.2051
 8804SOL    HW237872   3.141   0.476   7.696 -1.2415  0.1033 -1.7279
 8805SOL     OW37873   1.288   4.143  11.091 -0.1739  0.0469  0.2002
 8805SOL    HW137874   1.306   4.113  11.180 -4.0625 -0.4140  0.8208
 8805SOL    HW237875   1.337   4.225  11.095 -1.0050  0.6181 -1.5491
 8806SOL     OW37876   0.615   1.300   2.609 -0.3306 -1.1799 -0.1982
 8806SOL    HW137877   0.690   1.353   2.581 -0.8558 -0.6390 -0.5740
 8806SOL    HW237878   0.587   1.351   2.685  1.1337 -2.6632  1.3397
 8807SOL     OW37879   0.823   3.149   8.465  0.2635 -0.2237  0.5106
 8807SOL    HW137880   0.918   3.144   8.472  0.1968  1.0294  2.2377
 8807SOL    HW237881   0.791   3.061   8.485  0.6995 -0.1415  1.5407
 8808SOL     OW37882   0.811   0.580   3.300 -0.3526 -0.0854  0.7027
 8808SOL    HW137883   0.902   0.552   3.304  0.3824  2.2816  0.1925
 8808SOL    HW237884   0.814   0.628   3.218  0.3719 -1.0653  0.1523
 8809SOL     OW37885   4.238   3.536   6.999  0.3840 -0.2191  0.6063
 8809SOL    HW137886   4.160   3.546   7.054 -0.2570 -1.3896 -0.0761
 8809SOL    HW237887   4.299   3.589   7.049 -0.7938  2.3230 -0.6640
 8810SOL     OW37888   0.753   3.060   4.400  0.3511  0.0319 -0.1738
 8810SOL    HW137889   0.663   3.054   4.435  0.0130  0.6157 -0.9520
 8810SOL    HW237890   0.796   3.075   4.484 -0.4190  1.1331  0.0269
 8811SOL     OW37891   1.494   3.978  14.925  0.0732 -0.0716  0.3277
 8811SOL    HW137892   1.585   3.990  14.952  0.7495 -0.4196 -1.7667
 8811SOL    HW237893   1.455   3.912  14.981  1.8209 -1.4796 -0.1148
 8812SOL     OW37894   2.450   2.757  14.387  0.2544  0.5871 -0.5161
 8812SOL    HW137895   2.414   2.820  14.324 -1.2793  0.8154  0.5839
 8812SOL    HW237896   2.425   2.804  14.467 -0.5211 -0.5683 -0.0800
 8813SOL     OW37897   1.414   1.889   3.597  0.5376 -0.2899 -0.8095
 8813SOL    HW137898   1.485   1.850   3.547  0.2602 -1.3487 -0.3693
 8813SOL    HW237899   1.459   1.952   3.653 -0.5761 -1.2007  1.1320
 8814SOL     OW37900   0.394   4.492   1.022  0.7058  0.1742  0.3453
 8814SOL    HW137901   0.442   4.563   0.978  1.8519 -0.9718 -0.2384
 8814SOL    HW237902   0.460   4.446   1.073 -1.0168 -0.8603  1.6673
 8815SOL     OW37903   2.653   2.974   9.086  0.2325  0.5531 -0.4070
 8815SOL    HW137904   2.571   2.997   9.129  1.0006 -1.0036  1.8772
 8815SOL    HW237905   2.705   3.052   9.107 -0.0972  0.8782 -0.7824
 8816SOL     OW37906   3.542   4.707   5.842  0.0281  0.0632  0.5603
 8816SOL    HW137907   3.500   4.647   5.780 -0.4486  0.5550  0.4029
 8816SOL    HW237908   3.475   0.053   5.846  0.3191  0.4879 -1.8015
 8817SOL     OW37909   2.873   0.347   1.704  0.3466  0.1084 -0.0607
 8817SOL    HW137910   2.897   0.421   1.649  0.5701  0.4211  0.4671
 8817SOL    HW237911   2.799   0.315   1.652  0.5203  2.9835 -2.0447
 8818SOL     OW37912   4.255   3.793   4.145 -0.1881  0.0629  0.5541
 8818SOL    HW137913   4.186   3.856   4.129  1.5573  2.2017  1.4619
 8818SOL    HW237914   4.213   3.709   4.128  0.5109 -0.1660 -0.0488
 8819SOL     OW37915   1.705   3.126   5.930  0.2726  0.7366 -0.3418
 8819SOL    HW137916   1.766   3.114   5.857 -0.2572 -1.8047 -0.3733
 8819SOL    HW237917   1.700   3.032   5.949 -0.1259  1.3618  2.5495
 8820SOL     OW37918   3.763   0.638  12.023  0.1589 -0.4136 -0.2882
 8820SOL    HW137919   3.741   0.664  11.934 -0.4647 -0.6684 -0.2139
 8820SOL    HW237920   3.851   0.601  12.014  0.3736  0.3314 -1.1662
 8821SOL     OW37921   0.358   1.353  11.708 -0.0005 -0.0704 -0.1703
 8821SOL    HW137922   0.443   1.337  11.669 -0.5953  0.6537 -1.7452
 8821SOL    HW237923   0.357   1.285  11.776  0.0391 -2.6687 -2.7750
 8822SOL     OW37924   1.285   3.755  10.615  0.4041  0.2141  0.0759
 8822SOL    HW137925   1.203   3.709  10.633  0.0358 -0.1264 -2.4383
 8822SOL    HW237926   1.354   3.691  10.631 -1.4469 -2.1384 -1.3886
 8823SOL     OW37927   3.103   4.040  15.712  0.7697  0.2937 -0.3203
 8823SOL    HW137928   3.167   3.969  15.698  0.1547 -0.6966  1.8894
 8823SOL    HW237929   3.107   4.039  15.807  3.6363  0.1838 -0.4261
 8824SOL     OW37930   2.890   3.497   7.542 -0.2919  0.4223 -0.3548
 8824SOL    HW137931   2.954   3.545   7.595  2.3630 -0.6177 -2.6269
 8824SOL    HW237932   2.907   3.532   7.454  0.3905 -1.9347 -1.1491
 8825SOL     OW37933   2.162   2.702  15.881  0.4406 -0.5566 -0.0941
 8825SOL    HW137934   2.081   2.740  15.914  0.6909 -1.1038  1.1311
 8825SOL    HW237935   2.119   2.635  15.829 -2.1054  0.0323  1.2558
 8826SOL     OW37936   0.035   0.600  17.537 -0.8124  0.1784 -0.5429
 8826SOL    HW137937   4.678   0.563  17.498 -1.0770  0.7116 -0.5107
 8826SOL    HW237938   0.009   0.579  17.627 -0.7598  3.4291  0.2277
 8827SOL     OW37939   2.293   3.827   4.417 -0.0022 -0.0869  0.5721
 8827SOL    HW137940   2.199   3.809   4.405  0.5095 -1.0559 -1.9458
 8827SOL    HW237941   2.326   3.738   4.433  0.4633  0.0228  0.2158
 8828SOL     OW37942   4.675   2.693  16.020  0.5821  0.6266  0.5487
 8828SOL    HW137943   4.636   2.779  16.038  0.6536  0.7047  0.3288
 8828SOL    HW237944   4.668   2.654  16.107  1.9979  2.3851  1.4430
 8829SOL     OW37945   4.351   0.192   7.575  0.2380  0.3501  0.3878
 8829SOL    HW137946   4.401   0.191   7.494  0.5220  0.4076  0.5614
 8829SOL    HW237947   4.404   0.165   7.650  0.7632  0.5554  0.0917
 8830SOL     OW37948   4.675   1.275  15.171 -0.0461 -0.0189 -0.5589
 8830SOL    HW137949   4.678   1.334  15.247  0.7705  0.8840 -1.2915
 8830SOL    HW237950   0.044   1.285  15.146 -0.2257  0.2678 -1.1039
 8831SOL     OW37951   1.727   2.517   4.669 -0.1249  0.0986 -0.2775
 8831SOL    HW137952   1.692   2.564   4.594  0.1419 -1.0311 -1.1165
 8831SOL    HW237953   1.794   2.578   4.700  0.6781 -0.8846 -0.0840
 8832SOL     OW37954   0.774   4.010   3.920 -0.4191 -0.3011 -0.2160
 8832SOL    HW137955   0.844   4.070   3.946 -0.4161 -0.5607  0.3756
 8832SOL    HW237956   0.715   4.011   3.995  0.6040 -0.9751  0.5981
 8833SOL     OW37957   3.232   0.450   1.686  0.6695  0.0945 -0.2401
 8833SOL    HW137958   3.180   0.504   1.627 -3.6652 -0.4939  3.0687
 8833SOL    HW237959   3.247   0.374   1.630  0.8297  1.0490 -1.4816
 8834SOL     OW37960   4.622   1.679  17.251  0.3937 -0.3055 -0.4382
 8834SOL    HW137961   4.588   1.590  17.258 -0.2074 -0.1511 -1.3830
 8834SOL    HW237962   4.709   1.658  17.219  0.6099  0.9849 -0.6936
 8835SOL     OW37963   2.096   0.915  17.127 -0.2188 -0.5404 -0.7342
 8835SOL    HW137964   2.036   0.948  17.061  0.3897  1.6139 -0.1923
 8835SOL    HW237965   2.089   0.972  17.203  0.1564 -0.5085 -0.7245
 8836SOL     OW37966   1.029   4.516   6.315  0.0041 -0.2290  0.4257
 8836SOL    HW137967   1.086   4.439   6.311  0.2762  0.0831 -1.5163
 8836SOL    HW237968   1.081   4.569   6.376 -0.5691 -0.2052  0.8941
 8837SOL     OW37969   1.077   1.059   9.570 -0.0454 -0.2854 -0.4870
 8837SOL    HW137970   1.040   1.099   9.491  1.1651 -1.0049 -1.4131
 8837SOL    HW237971   1.126   0.984   9.537 -0.4650 -0.6065 -0.3711
 8838SOL     OW37972   3.067   2.342   0.398 -0.4170 -0.1429 -0.1552
 8838SOL    HW137973   3.092   2.425   0.357  0.2086 -0.3924 -0.2888
 8838SOL    HW237974   2.973   2.331   0.385 -0.1652 -3.2663  0.5252
 8839SOL     OW37975   2.615   3.151  15.323 -0.5332  0.5496  0.1185
 8839SOL    HW137976   2.619   3.244  15.342 -0.4629  0.8544 -1.3839
 8839SOL    HW237977   2.680   3.118  15.385 -0.7829 -0.9844 -0.4271
 8840SOL     OW37978   1.420   1.906  12.178 -0.1715 -0.2678 -0.8259
 8840SOL    HW137979   1.454   1.947  12.098 -0.4800  1.1356 -0.2458
 8840SOL    HW237980   1.332   1.882  12.150  0.0697 -0.9654 -0.9732
 8841SOL     OW37981   0.381   4.651   3.940 -0.6177  0.1923 -0.1285
 8841SOL    HW137982   0.438   4.719   3.903 -0.7140  1.3216  1.8105
 8841SOL    HW237983   0.372   4.604   3.857 -3.1459  0.1417  0.1758
 8842SOL     OW37984   3.508   2.615  11.460  0.3910  0.2235  0.4213
 8842SOL    HW137985   3.429   2.657  11.492  0.6273  0.3821  0.7976
 8842SOL    HW237986   3.561   2.691  11.435  1.3294  0.4383  3.0893
 8843SOL     OW37987   2.951   3.983   9.152  0.1800 -0.0184  0.0185
 8843SOL    HW137988   2.972   4.026   9.235 -0.0049 -0.4601  0.2918
 8843SOL    HW237989   2.879   3.926   9.178  2.1466 -1.6418  1.9378
 8844SOL     OW37990   3.005   1.541   3.154 -0.1225 -0.2114 -0.0653
 8844SOL    HW137991   2.917   1.513   3.181 -0.4771  1.2024  0.2737
 8844SOL    HW237992   3.013   1.615   3.215 -2.4689  0.9209 -1.1145
 8845SOL     OW37993   3.631   1.633   9.029  0.7978 -0.2608  0.0530
 8845SOL    HW137994   3.536   1.640   9.041  0.9989  1.2389  0.7686
 8845SOL    HW237995   3.653   1.651   9.121  0.9411  0.6790 -0.1646
 8846SOL     OW37996   1.345   1.473   6.357 -0.0746  0.4438 -0.5545
 8846SOL    HW137997   1.284   1.501   6.288 -1.2032  1.1954  0.7698
 8846SOL    HW237998   1.317   1.531   6.427 -1.6903 -0.6409 -0.3013
 8847SOL     OW37999   4.707   3.897   4.822  0.2508  0.0275 -0.5496
 8847SOL    HW138000   0.049   3.830   4.798 -0.5814 -1.0946  0.2971
 8847SOL    HW238001   4.654   3.915   4.745 -0.3467 -0.1822 -0.1913
 8848SOL     OW38002   0.296   3.205  16.025  0.3950 -0.0135 -0.3656
 8848SOL    HW138003   0.305   3.147  15.949  2.6891  0.4017 -0.4033
 8848SOL    HW238004   0.385   3.208  16.060  0.0652  0.3120  0.4502
 8849SOL     OW38005   2.664   0.107   1.836 -0.1598 -0.7715  0.3744
 8849SOL    HW138006   2.666   0.136   1.745  1.7407 -1.8388  0.0733
 8849SOL    HW238007   2.569   0.101   1.850 -0.3250 -0.0572 -0.4392
 8850SOL     OW38008   1.682   3.103  10.931  0.2109  0.0979 -0.4453
 8850SOL    HW138009   1.642   3.016  10.935  1.2781 -0.3412  0.9744
 8850SOL    HW238010   1.624   3.159  10.983  0.2804  0.6423 -0.9571
 8851SOL     OW38011   0.405   4.559   6.256  0.1423 -0.2489 -0.0760
 8851SOL    HW138012   0.433   4.634   6.203  0.5522  0.8063  1.6241
 8851SOL    HW238013   0.489   4.512   6.259  0.5948  0.5297 -0.8454
 8852SOL     OW38014   4.344   3.277   9.677 -0.1766  0.2636  0.0057
 8852SOL    HW138015   4.261   3.261   9.721  0.0410  0.6727  0.5556
 8852SOL    HW238016   4.400   3.211   9.718 -1.4158  1.0956  3.0151
 8853SOL     OW38017   3.251   2.666  14.510  0.5133 -0.2554 -0.0737
 8853SOL    HW138018   3.341   2.675  14.478  0.0935 -0.8599 -1.4399
 8853SOL    HW238019   3.262   2.622  14.594  4.2898 -1.9949 -1.4604
 8854SOL     OW38020   3.711   1.048   5.666 -0.5445  0.1984 -0.0343
 8854SOL    HW138021   3.716   1.143   5.663 -0.6017  0.2686  1.5779
 8854SOL    HW238022   3.622   1.042   5.630 -0.6364  0.8478  0.0898
 8855SOL     OW38023   4.275   3.145   2.439 -0.0437  0.0198  0.4348
 8855SOL    HW138024   4.185   3.131   2.465 -0.3537  0.8412 -0.1937
 8855SOL    HW238025   4.277   3.087   2.363 -1.3350  1.1134 -0.4335
 8856SOL     OW38026   1.804   4.131  15.129  0.5584  0.2205 -0.1084
 8856SOL    HW138027   1.735   4.087  15.179  0.5113 -0.1566 -0.5163
 8856SOL    HW238028   1.786   4.094  15.043  0.1790  1.1714 -0.4408
 8857SOL     OW38029   3.313   1.153   2.662 -0.6631  0.6025 -0.5040
 8857SOL    HW138030   3.252   1.085   2.632 -0.2961 -0.5792  1.3807
 8857SOL    HW238031   3.342   1.116   2.746  1.2067 -2.7330 -2.6599
 8858SOL     OW38032   3.790   2.127   8.104  0.3444 -0.3583 -0.1500
 8858SOL    HW138033   3.832   2.158   8.185 -0.0602 -2.4559  0.8523
 8858SOL    HW238034   3.866   2.094   8.056  0.9747  0.5576  0.2016
 8859SOL     OW38035   0.380   2.688   5.609  0.2588  0.3867 -0.5406
 8859SOL    HW138036   0.335   2.762   5.568  0.3912  0.1055 -1.1830
 8859SOL    HW238037   0.367   2.706   5.703  1.5265  0.8962 -0.4621
 8860SOL     OW38038   4.645   1.249   2.142 -0.3253  0.1447 -0.0281
 8860SOL    HW138039   4.640   1.154   2.152 -3.0454  0.1733 -1.1321
 8860SOL    HW238040   4.712   1.249   2.073 -1.2505  0.4706 -0.9404
 8861SOL     OW38041   1.441   4.256   1.871  0.0676  0.6984 -0.0552
 8861SOL    HW138042   1.491   4.289   1.945 -0.7708 -1.2456  1.3807
 8861SOL    HW238043   1.351   4.275   1.897  0.4591  1.0097  1.0404
 8862SOL     OW38044   0.012   2.021   5.447 -0.4113  0.9160  0.4634
 8862SOL    HW138045   0.093   2.049   5.405 -1.2589  1.9021 -0.5239
 8862SOL    HW238046   0.034   2.049   5.536 -1.9264  4.1957 -0.2123
 8863SOL     OW38047   2.303   3.003   3.279  0.3186 -0.4966 -0.2562
 8863SOL    HW138048   2.355   2.924   3.285  1.0723 -0.2112 -3.1269
 8863SOL    HW238049   2.311   3.018   3.185  0.9126  0.6947 -0.0216
 8864SOL     OW38050   3.708   1.595   5.577  0.1242 -0.1884  0.2275
 8864SOL    HW138051   3.718   1.596   5.481 -1.4281 -0.7093  0.0565
 8864SOL    HW238052   3.613   1.608   5.583  0.2340  0.7686 -0.0710
 8865SOL     OW38053   2.418   1.608  16.752  1.1134  0.3013 -0.2336
 8865SOL    HW138054   2.380   1.594  16.665  0.9563 -0.8571  0.0219
 8865SOL    HW238055   2.347   1.589  16.814  1.0801 -0.8366 -0.6254
 8866SOL     OW38056   1.384   4.246   4.128 -0.2300 -0.5514 -0.0674
 8866SOL    HW138057   1.415   4.155   4.137 -0.1701 -0.5706 -0.4665
 8866SOL    HW238058   1.440   4.295   4.068 -0.2533  1.0683  1.2601
 8867SOL     OW38059   2.049   4.564  12.932  0.1449  0.1953 -0.5175
 8867SOL    HW138060   2.113   4.578  13.002 -1.0417 -1.0317  0.8406
 8867SOL    HW238061   1.966   4.574  12.979 -0.0521 -1.8530 -0.4031
 8868SOL     OW38062   0.647   4.051  10.191 -0.2172 -0.7025 -0.2650
 8868SOL    HW138063   0.556   4.024  10.203 -1.1343  2.7660  0.4737
 8868SOL    HW238064   0.689   3.974  10.153  1.6018 -1.0106  2.3286
 8869SOL     OW38065   1.504   2.012  16.982  0.6851 -0.0362 -0.2584
 8869SOL    HW138066   1.511   1.930  17.029 -0.7107 -0.1068 -0.1713
 8869SOL    HW238067   1.575   2.068  17.013  1.5699 -0.9580 -0.6258
 8870SOL     OW38068   3.556   4.092   4.578 -0.0649 -0.3299  0.4025
 8870SOL    HW138069   3.544   4.186   4.559  2.1027  0.0412  0.8612
 8870SOL    HW238070   3.471   4.069   4.615 -0.1076  0.4913  0.8218
 8871SOL     OW38071   0.281   1.734   8.234  0.1252  0.4201  0.3809
 8871SOL    HW138072   0.198   1.730   8.281  0.5390 -0.8441  0.9926
 8871SOL    HW238073   0.328   1.814   8.260  0.0196  0.9414 -1.0572
 8872SOL     OW38074   2.339   2.082   0.177  0.5306  0.4738 -0.4472
 8872SOL    HW138075   2.344   2.059   0.084  0.3614  0.6141 -0.4901
 8872SOL    HW238076   2.316   1.994   0.208  1.0857 -0.1945 -1.9466
 8873SOL     OW38077   3.503   1.571   4.428 -0.2550 -0.6470 -0.0828
 8873SOL    HW138078   3.556   1.500   4.391 -0.0813  1.9050 -4.7102
 8873SOL    HW238079   3.558   1.647   4.409 -0.8705 -0.5833 -1.5585
 8874SOL     OW38080   0.800   4.287   8.734 -0.3897  0.3173  0.3660
 8874SOL    HW138081   0.786   4.230   8.659 -0.0056  1.2457 -0.4020
 8874SOL    HW238082   0.790   4.230   8.811  4.9040 -0.1821  0.7092
 8875SOL     OW38083   2.339   3.413  17.503  0.2359 -0.3422 -0.2350
 8875SOL    HW138084   2.373   3.348  17.441  0.0479 -0.4724 -0.2043
 8875SOL    HW238085   2.416   3.407  17.559 -0.9795  0.8979  1.5673
 8876SOL     OW38086   2.989   3.985   7.061  0.2024  0.1259  0.5958
 8876SOL    HW138087   3.007   3.992   6.967 -0.0407 -0.6542  0.4904
 8876SOL    HW238088   3.019   4.071   7.090 -0.5406  1.1437 -1.6573
 8877SOL     OW38089   2.883   2.722   7.382 -0.4590 -0.1867 -0.4259
 8877SOL    HW138090   2.902   2.700   7.291 -2.4064  1.1638 -1.1552
 8877SOL    HW238091   2.973   2.713   7.412 -1.0626  0.8619  1.6595
 8878SOL     OW38092   0.524   3.991   4.038 -0.1412 -0.1818 -1.1046
 8878SOL    HW138093   0.493   3.966   4.125  1.4336 -1.5964 -0.9462
 8878SOL    HW238094   0.469   3.938   3.981 -0.8656 -0.9899  0.3494
 8879SOL     OW38095   0.426   1.304   5.914  0.2420  0.2882 -0.1565
 8879SOL    HW138096   0.472   1.251   5.979  1.3129  0.7540 -0.5292
 8879SOL    HW238097   0.459   1.391   5.939  2.8881  0.3294 -3.7136
 8880SOL     OW38098   4.109   0.710  11.374 -0.0155 -0.1715  0.1282
 8880SOL    HW138099   4.126   0.744  11.287 -1.7288 -2.0176 -0.9221
 8880SOL    HW238100   4.153   0.773  11.431 -1.1714  0.6889  0.0632
 8881SOL     OW38101   3.318   2.770  12.894  0.1484 -0.0287  0.0005
 8881SOL    HW138102   3.345   2.813  12.813  2.5289 -1.3360  0.0946
 8881SOL    HW238103   3.314   2.680  12.860  0.2960 -0.9095  2.2855
 8882SOL     OW38104   1.704   1.838   5.916 -0.3899 -0.2105 -0.4215
 8882SOL    HW138105   1.734   1.754   5.951  0.4847  1.8321  3.7241
 8882SOL    HW238106   1.778   1.867   5.862 -1.5937 -1.1415 -2.6027
 8883SOL     OW38107   1.978   0.711   4.331  0.5366  0.1641 -0.1853
 8883SOL    HW138108   1.937   0.769   4.395  1.4256 -0.4862  0.9849
 8883SOL    HW238109   1.929   0.630   4.347 -1.4503  1.5289  0.5766
 8884SOL     OW38110   3.651   1.423   8.733  0.7245  0.1762  0.2510
 8884SOL    HW138111   3.580   1.454   8.677  2.0057 -0.1787 -1.6080
 8884SOL    HW238112   3.627   1.331   8.740 -1.4624  0.8299  1.3250
 8885SOL     OW38113   2.665   4.133   4.547 -0.2396  0.1104 -0.1570
 8885SOL    HW138114   2.728   4.108   4.614  2.1594  2.0757 -1.6987
 8885SOL    HW238115   2.592   4.080   4.578  0.0665 -0.5922 -0.6375
 8886SOL     OW38116   0.972   3.736   5.979 -0.2861  0.7412  0.8075
 8886SOL    HW138117   0.988   3.752   5.886 -2.0308 -0.7757  0.2394
 8886SOL    HW238118   1.001   3.813   6.028  0.5129  0.7727  0.2846
 8887SOL     OW38119   3.599   3.847   1.485 -0.1017  0.1448  0.0155
 8887SOL    HW138120   3.529   3.825   1.423  0.2071 -3.8394  1.0846
 8887SOL    HW238121   3.547   3.902   1.544  1.3957  2.2494 -0.6183
 8888SOL     OW38122   0.161   3.634   0.034  0.1448  0.1059  0.2435
 8888SOL    HW138123   0.224   3.669   0.096 -0.1753  0.4219  0.3910
 8888SOL    HW238124   0.129   3.715  17.686  0.8233 -0.9514 -2.4469
 8889SOL     OW38125   2.744   2.621   4.720  0.5477  0.5545  0.4037
 8889SOL    HW138126   2.717   2.540   4.762  0.6925  0.0169 -0.5301
 8889SOL    HW238127   2.816   2.584   4.669 -0.6395 -0.6797 -0.3760
 8890SOL     OW38128   3.580   1.289   6.415  0.0113  0.5688 -0.1317
 8890SOL    HW138129   3.502   1.239   6.439 -0.7878  1.7784 -0.2244
 8890SOL    HW238130   3.544   1.356   6.357 -0.5581  0.7935  0.4893
 8891SOL     OW38131   0.029   2.820   4.969 -0.0115  0.5029 -0.2562
 8891SOL    HW138132   0.015   2.912   4.992 -0.6845  0.0678  1.0861
 8891SOL    HW238133   0.015   2.786   5.057  0.3302  0.6494 -0.1452
 8892SOL     OW38134   2.306   1.824   0.291 -0.0990  0.4189 -0.2597
 8892SOL    HW138135   2.323   1.816   0.385 -1.1178 -1.2430 -0.2134
 8892SOL    HW238136   2.283   1.733   0.271 -0.8829  0.1561  1.8027
 8893SOL     OW38137   4.101   0.807  15.224  0.2134 -0.0802 -0.2970
 8893SOL    HW138138   4.137   0.731  15.268  2.1259  0.7222 -0.4758
 8893SOL    HW238139   4.060   0.847  15.301 -0.0300 -0.2684 -0.3270
 8894SOL     OW38140   3.406   3.725  16.651  0.1008 -0.2831  0.0553
 8894SOL    HW138141   3.356   3.650  16.684 -1.4218  0.8357  0.2819
 8894SOL    HW238142   3.372   3.717  16.562  0.9737 -2.9665 -0.0463
 8895SOL     OW38143   1.244   0.590   2.498  0.2245 -0.4053  0.3329
 8895SOL    HW138144   1.254   0.667   2.442 -1.9976  0.6641  1.4345
 8895SOL    HW238145   1.197   0.537   2.434  2.8160 -0.3323 -1.6434
 8896SOL     OW38146   4.603   3.697  10.915 -0.1254 -0.2567 -0.0054
 8896SOL    HW138147   4.593   3.671  10.823  1.9771 -0.2703 -0.2354
 8896SOL    HW238148   4.682   3.644  10.922  0.5019  0.6971  0.1733
 8897SOL     OW38149   1.627   3.750   1.445  0.4990 -0.3081  0.1751
 8897SOL    HW138150   1.544   3.792   1.465  0.0332 -0.9028 -0.5389
 8897SOL    HW238151   1.614   3.658   1.464  0.2019 -0.0742  1.1124
 8898SOL     OW38152   3.050   3.475   4.632 -0.6997  0.8873 -0.0881
 8898SOL    HW138153   3.027   3.512   4.717  0.2729 -0.0551  0.5996
 8898SOL    HW238154   3.097   3.402   4.673 -1.9560  0.0496 -0.1465
 8899SOL     OW38155   0.310   4.579   2.336  0.0452 -0.2296  0.3969
 8899SOL    HW138156   0.216   4.600   2.335  0.4937  1.7821 -0.6621
 8899SOL    HW238157   0.324   4.495   2.379  1.4138 -0.8611 -1.2913
 8900SOL     OW38158   0.763   2.847   9.923 -0.3729 -0.3621 -0.7920
 8900SOL    HW138159   0.685   2.876   9.971  1.1739  0.2090  1.4035
 8900SOL    HW238160   0.731   2.860   9.834 -1.4478  0.2905 -0.3049
 8901SOL     OW38161   1.057   2.869  13.905 -0.3614  0.1277  0.1573
 8901SOL    HW138162   1.090   2.958  13.917 -1.3131  0.4361  0.5280
 8901SOL    HW238163   1.131   2.817  13.932 -1.0464 -0.4411  0.9199
 8902SOL     OW38164   1.322   1.163   3.977  0.5704  0.4452 -0.0812
 8902SOL    HW138165   1.265   1.103   3.930  0.8437  1.3121 -1.5234
 8902SOL    HW238166   1.321   1.124   4.065 -0.5064  3.8030  1.4186
 8903SOL     OW38167   2.292   4.521  12.393  0.4004  0.2755  0.1439
 8903SOL    HW138168   2.264   4.494  12.481  2.1565  1.9319  1.2205
 8903SOL    HW238169   2.219   4.583  12.390  0.2397  0.1771  2.0910
 8904SOL     OW38170   4.531   3.130  10.043  0.0620  0.2238  1.2281
 8904SOL    HW138171   4.496   3.151  10.130  0.4859 -0.2388  1.5135
 8904SOL    HW238172   4.509   3.201   9.983  1.6436  0.2923  0.7375
 8905SOL     OW38173   2.243   4.431   9.939  0.4269 -0.3460 -0.6073
 8905SOL    HW138174   2.219   4.485   9.864 -0.3284  0.6359  0.3471
 8905SOL    HW238175   2.291   4.364   9.889 -1.2674 -1.1935 -1.1189
 8906SOL     OW38176   0.749   1.694   0.278  0.1174 -0.0878  0.6122
 8906SOL    HW138177   0.811   1.741   0.333  0.0142 -0.2475  0.8652
 8906SOL    HW238178   0.668   1.683   0.329  0.1712 -0.6200  0.5836
 8907SOL     OW38179   0.681   1.239   1.483  0.0656  0.3446 -0.3271
 8907SOL    HW138180   0.750   1.261   1.545 -1.6820  1.0235  1.4123
 8907SOL    HW238181   0.677   1.144   1.495  2.0319  0.0857 -1.9206
 8908SOL     OW38182   4.076   1.752   6.104 -0.1810  0.2503  0.3698
 8908SOL    HW138183   4.161   1.710   6.109  0.1359  1.0989  2.2248
 8908SOL    HW238184   4.061   1.774   6.196 -0.3569  0.6118  0.2568
 8909SOL     OW38185   3.982   3.287   2.751  0.2977  0.2735  0.0856
 8909SOL    HW138186   3.952   3.224   2.816  0.2113  0.0369 -0.1866
 8909SOL    HW238187   3.939   3.369   2.777 -0.4798 -0.2747  0.5255
 8910SOL     OW38188   4.654   0.972   2.138 -0.1844 -0.2358 -0.1385
 8910SOL    HW138189   4.662   0.889   2.186 -0.7325  0.1149  0.5492
 8910SOL    HW238190   4.572   0.954   2.092 -0.2883 -0.0492 -0.0242
 8911SOL     OW38191   2.215   3.250   1.618  0.1759  0.2110  0.7327
 8911SOL    HW138192   2.224   3.188   1.691 -0.4618 -0.4484  0.2491
 8911SOL    HW238193   2.289   3.308   1.636 -0.8608  1.6216  0.4431
 8912SOL     OW38194   0.371   3.559   2.784 -0.1128 -0.3438  0.0077
 8912SOL    HW138195   0.427   3.520   2.851 -0.9015 -0.7242  0.4588
 8912SOL    HW238196   0.285   3.517   2.792  0.4196 -1.7207 -1.4109
 8913SOL     OW38197   0.741   1.059  13.420  0.1167 -0.3508  0.1134
 8913SOL    HW138198   0.719   0.975  13.380  0.5051 -0.7692  0.7875
 8913SOL    HW238199   0.713   1.045  13.511  2.7482 -0.3858  0.8939
 8914SOL     OW38200   0.003   2.393   6.216 -0.1297 -0.4988  0.1584
 8914SOL    HW138201   0.031   2.480   6.242 -0.6253 -0.8912  1.9723
 8914SOL    HW238202   0.090   2.355   6.230 -0.0262 -0.3228 -0.0089
 8915SOL     OW38203   2.471   0.277   8.775  0.5414 -0.3896 -0.1072
 8915SOL    HW138204   2.515   0.329   8.706  1.2236 -0.3682  0.3440
 8915SOL    HW238205   2.504   0.321   8.853  0.3762 -1.2263  0.4267
 8916SOL     OW38206   0.981   3.945   3.041  0.0081 -0.1560 -0.1079
 8916SOL    HW138207   0.988   3.850   3.036 -0.4899 -0.2893  1.6661
 8916SOL    HW238208   1.059   3.987   3.004  0.3281 -0.5346  0.1449
 8917SOL     OW38209   0.476   3.547   3.801 -0.0512 -0.4754  0.3587
 8917SOL    HW138210   0.536   3.479   3.772 -2.1745 -0.9776 -2.8437
 8917SOL    HW238211   0.409   3.558   3.732  2.1631  0.8669 -1.5832
 8918SOL     OW38212   1.576   1.418   8.637  0.0071  0.3986  0.3497
 8918SOL    HW138213   1.638   1.474   8.590 -0.6958  0.7457 -0.1689
 8918SOL    HW238214   1.512   1.478   8.675 -1.2121 -1.5617  1.4016
 8919SOL     OW38215   2.389   3.265  14.142 -0.5886  0.0784 -0.1378
 8919SOL    HW138216   2.462   3.242  14.085 -0.9439 -2.5141  0.4861
 8919SOL    HW238217   2.327   3.199  14.111  0.0183 -0.6169  0.1273
 8920SOL     OW38218   1.981   4.003   4.193  0.0064 -0.4583  0.5535
 8920SOL    HW138219   2.071   4.001   4.160 -0.7660 -0.5330 -1.5582
 8920SOL    HW238220   1.941   4.082   4.158 -1.8790 -1.7025 -0.1004
 8921SOL     OW38221   1.298   0.990  16.123  0.1910  0.1773 -0.4945
 8921SOL    HW138222   1.358   1.008  16.195 -0.3327 -0.6035  0.1408
 8921SOL    HW238223   1.331   0.910  16.083  0.4202  0.8386 -1.6308
 8922SOL     OW38224   2.390   2.480   5.879 -0.1227 -0.3413  0.0757
 8922SOL    HW138225   2.472   2.519   5.911 -0.9610  1.5128 -0.0189
 8922SOL    HW238226   2.386   2.412   5.946  0.2404 -0.6194 -0.1838
 8923SOL     OW38227   1.445   2.444   6.737  0.1290 -0.4146  0.0347
 8923SOL    HW138228   1.464   2.356   6.770 -0.0591 -0.4187  0.1344
 8923SOL    HW238229   1.459   2.425   6.644 -0.1644  2.8193 -0.6734
 8924SOL     OW38230   2.657   3.648   9.518  0.0506  0.1057 -0.2993
 8924SOL    HW138231   2.588   3.657   9.584  1.5774  0.0291  1.2868
 8924SOL    HW238232   2.634   3.566   9.474  0.5343 -1.2229  1.9615
 8925SOL     OW38233   1.207   4.445  17.232  0.0455  0.0539 -0.6961
 8925SOL    HW138234   1.240   4.430  17.320 -0.3162 -1.3742 -0.8068
 8925SOL    HW238235   1.159   4.364  17.219 -1.3347  0.9214 -1.1072
 8926SOL     OW38236   3.909   4.317  11.875  0.1568 -0.8390  0.2097
 8926SOL    HW138237   3.857   4.306  11.796 -2.0235  0.7754  1.4071
 8926SOL    HW238238   3.960   4.398  11.864 -1.5854  0.2504  0.1685
 8927SOL     OW38239   1.411   0.341   1.660 -0.2994 -0.4411 -0.1326
 8927SOL    HW138240   1.398   0.368   1.751 -1.8070  1.2344 -0.8309
 8927SOL    HW238241   1.505   0.353   1.653 -0.3084  1.8595  3.6645
 8928SOL     OW38242   1.830   0.332   1.981  0.6992 -0.0220  0.4483
 8928SOL    HW138243   1.896   0.366   2.041  1.1970  2.7923 -1.7083
 8928SOL    HW238244   1.749   0.362   2.021 -0.0811 -0.2013 -0.9832
 8929SOL     OW38245   0.607   3.036  12.555 -0.3768 -0.6196  0.1634
 8929SOL    HW138246   0.615   3.120  12.511 -0.5122 -0.6081  0.1597
 8929SOL    HW238247   0.687   3.027  12.606 -0.3447 -0.3849  0.1538
 8930SOL     OW38248   0.874   3.813   3.480  0.0673  0.0505  0.0356
 8930SOL    HW138249   0.915   3.899   3.478  0.9197 -0.3073  1.9782
 8930SOL    HW238250   0.813   3.844   3.546 -3.1162 -1.9579 -1.9609
 8931SOL     OW38251   3.949   4.155   9.402  0.0650  0.3961 -0.3595
 8931SOL    HW138252   3.872   4.204   9.372 -0.5936 -1.5825 -1.8595
 8931SOL    HW238253   4.012   4.227   9.397  0.0139  0.4754  0.1022
 8932SOL     OW38254   3.973   3.640   7.726 -0.7378  0.5210  0.3451
 8932SOL    HW138255   3.927   3.721   7.748  2.1161  2.6920 -1.7389
 8932SOL    HW238256   3.927   3.614   7.647  2.2893  0.5020 -1.4174
 8933SOL     OW38257   1.346   2.185   2.692 -0.3169 -0.0804  0.0746
 8933SOL    HW138258   1.345   2.268   2.738 -0.6154 -0.9466  1.6489
 8933SOL    HW238259   1.364   2.127   2.767 -0.5570 -2.5438 -1.7603
 8934SOL     OW38260   1.346   2.168   6.265 -0.4070 -0.1312 -0.2078
 8934SOL    HW138261   1.410   2.097   6.257  0.1772  0.6367 -2.3494
 8934SOL    HW238262   1.307   2.172   6.177  0.9573  0.9437 -0.7531
 8935SOL     OW38263   2.095   4.035   9.466 -0.0279  0.1564 -0.5208
 8935SOL    HW138264   2.031   4.082   9.414 -0.6906  1.3989  1.4078
 8935SOL    HW238265   2.076   3.943   9.449  2.7648 -0.4050 -0.6768
 8936SOL     OW38266   3.769   3.373   5.315 -0.4741 -0.2145 -0.5087
 8936SOL    HW138267   3.816   3.416   5.387 -0.5111 -1.4358  0.2339
 8936SOL    HW238268   3.801   3.417   5.236  0.5547  1.2812  0.7260
 8937SOL     OW38269   2.416   4.134   3.216  0.1011 -0.2807  0.2371
 8937SOL    HW138270   2.336   4.110   3.168  0.4144 -1.0761  0.1122
 8937SOL    HW238271   2.416   4.056   3.271  0.0190 -1.1865 -1.0494
 8938SOL     OW38272   4.511   4.230   9.225  0.7510  0.2335 -0.4044
 8938SOL    HW138273   4.430   4.209   9.271  1.5745  1.7543  1.7063
 8938SOL    HW238274   4.473   4.238   9.137  0.2051 -0.9545 -0.2770
 8939SOL     OW38275   0.113   4.387   4.081 -0.0854 -0.1912  0.9429
 8939SOL    HW138276   0.173   4.378   4.155 -1.1164  0.6337  1.8797
 8939SOL    HW238277   0.061   4.310   4.103  1.2322 -0.9266  1.5162
 8940SOL     OW38278   1.640   3.709   6.943  0.3629 -0.0630 -1.1354
 8940SOL    HW138279   1.545   3.719   6.935  0.2029 -0.3620  0.3697
 8940SOL    HW238280   1.653   3.622   6.905 -0.3696 -1.0066  0.7737
 8941SOL     OW38281   3.866   4.262   8.028  0.0059  0.2637 -0.0940
 8941SOL    HW138282   3.844   4.187   8.083  1.2385  0.3639  0.5427
 8941SOL    HW238283   3.789   4.317   8.044 -0.0240 -0.2500  1.5471
 8942SOL     OW38284   2.796   3.147   9.639 -0.3777  0.5417 -0.1824
 8942SOL    HW138285   2.827   3.220   9.693  1.2342 -0.9288  0.8632
 8942SOL    HW238286   2.871   3.130   9.582 -0.1926 -0.5524  0.4050
 8943SOL     OW38287   2.619   2.230  10.218 -0.3646  0.2042  0.0248
 8943SOL    HW138288   2.663   2.160  10.170  0.5015  1.0881 -0.4757
 8943SOL    HW238289   2.610   2.289  10.143  0.1246 -1.2243 -1.1599
 8944SOL     OW38290   4.334   0.609   7.651 -0.8425  0.1012  0.5574
 8944SOL    HW138291   4.378   0.535   7.692 -1.5071 -0.1857  0.7523
 8944SOL    HW238292   4.383   0.686   7.678 -0.5732 -0.6548  2.2080
 8945SOL     OW38293   3.081   1.200  16.203 -0.2573  0.4693 -0.6745
 8945SOL    HW138294   2.986   1.190  16.203 -0.0640 -1.2958 -0.6397
 8945SOL    HW238295   3.109   1.162  16.286  0.9953  0.4484 -1.1076
 8946SOL     OW38296   4.235   3.615  16.048  0.7608 -0.7148  0.3968
 8946SOL    HW138297   4.326   3.645  16.052  0.3882  0.3332  1.1114
 8946SOL    HW238298   4.206   3.652  15.965  4.1646  1.8885  0.3673
 8947SOL     OW38299   2.403   1.458   6.103 -0.0326 -0.6502 -0.2069
 8947SOL    HW138300   2.469   1.491   6.163  0.9399 -1.3690 -0.8609
 8947SOL    HW238301   2.400   1.529   6.039 -2.1285 -0.7561 -0.2419
 8948SOL     OW38302   1.784   1.456   8.272 -0.1976 -0.2419 -0.0517
 8948SOL    HW138303   1.854   1.475   8.334 -1.2435 -1.1416  1.3975
 8948SOL    HW238304   1.766   1.366   8.298  2.5311 -0.7800 -0.0219
 8949SOL     OW38305   0.186   3.528   0.875  0.3154  0.0329 -0.1130
 8949SOL    HW138306   0.183   3.438   0.909  0.7747  0.2345  0.4632
 8949SOL    HW238307   0.134   3.571   0.943  0.2673 -0.0348 -0.1068
 8950SOL     OW38308   0.549   0.658   6.271 -0.3729  0.4716  0.1562
 8950SOL    HW138309   0.612   0.590   6.245 -0.7351  0.4587 -0.6769
 8950SOL    HW238310   0.601   0.735   6.248  2.9979 -0.7352  3.6290
 8951SOL     OW38311   1.026   4.674   5.062  0.7048 -0.1263 -0.1334
 8951SOL    HW138312   0.993   4.670   4.972  2.0870  0.1278 -0.6571
 8951SOL    HW238313   0.979   0.031   5.086  1.7135 -0.1898  2.0376
 8952SOL     OW38314   3.015   1.539   5.345 -0.5716 -0.2355  0.4120
 8952SOL    HW138315   2.951   1.473   5.369  0.1763 -1.4843 -1.0359
 8952SOL    HW238316   3.096   1.489   5.339 -2.0863 -2.6610  0.3455
 8953SOL     OW38317   2.092   2.714   4.690 -0.1675  0.3793  0.5007
 8953SOL    HW138318   2.136   2.736   4.608  0.4506 -0.3421  0.6324
 8953SOL    HW238319   2.100   2.797   4.736 -1.6287  0.2323  1.0126
 8954SOL     OW38320   0.232   3.901  11.269 -0.3978 -0.1523  0.1342
 8954SOL    HW138321   0.155   3.879  11.216  0.4765 -4.8220  0.7536
 8954SOL    HW238322   0.229   3.837  11.340  1.3624 -0.3756  0.0111
 8955SOL     OW38323   3.275   3.813   0.696 -0.2832  0.0876 -0.1819
 8955SOL    HW138324   3.254   3.745   0.760 -0.6718  1.6863  1.3657
 8955SOL    HW238325   3.327   3.767   0.630 -1.5939 -0.8376 -0.5758
 8956SOL     OW38326   4.628   1.936   2.660 -0.0596 -0.1185  0.7367
 8956SOL    HW138327   4.536   1.953   2.681  0.0391  0.0764  1.0070
 8956SOL    HW238328   4.673   2.013   2.694 -0.1196  0.8736 -1.4291
 8957SOL     OW38329   0.904   2.368   6.940 -0.4300 -0.8479  0.1406
 8957SOL    HW138330   0.888   2.328   7.025 -1.0242 -2.4603 -0.7177
 8957SOL    HW238331   0.996   2.392   6.947 -0.2236 -1.3551 -0.7999
 8958SOL     OW38332   0.093   4.049  17.243  0.3441 -0.3948  0.0453
 8958SOL    HW138333   0.167   4.074  17.188  0.4297  3.3794  1.9020
 8958SOL    HW238334   0.019   4.087  17.196 -0.0040  0.5647  1.3609
 8959SOL     OW38335   3.887   1.863   1.658  0.2000 -0.1981 -0.3118
 8959SOL    HW138336   3.907   1.771   1.641  1.8496  0.0754  0.0792
 8959SOL    HW238337   3.859   1.887   1.570  2.2953 -0.9724 -1.2052
 8960SOL     OW38338   3.422   2.438   3.078 -0.1918 -0.2369 -0.4016
 8960SOL    HW138339   3.397   2.483   2.997  1.1653 -0.2705 -0.8501
 8960SOL    HW238340   3.351   2.453   3.140  1.4901  1.0392  1.2370
 8961SOL     OW38341   3.444   2.712   2.112 -0.6323 -0.0071  0.1534
 8961SOL    HW138342   3.445   2.624   2.150 -1.0301  0.9633  2.4317
 8961SOL    HW238343   3.409   2.764   2.185  1.3583  0.3261  0.8756
 8962SOL     OW38344   3.874   2.074   1.288  0.0428  0.1335 -0.1082
 8962SOL    HW138345   3.862   1.985   1.323  1.1593 -0.6361 -1.7046
 8962SOL    HW238346   3.895   2.121   1.369 -0.0221  0.2834 -0.1786
 8963SOL     OW38347   1.947   0.175   5.165  0.3051  0.0562  0.2937
 8963SOL    HW138348   1.984   0.139   5.245 -2.2917  0.4506  1.6588
 8963SOL    HW238349   2.011   0.239   5.134 -0.4531  0.7836  0.2373
 8964SOL     OW38350   2.764   3.108  12.073 -0.4844  0.6839  0.1150
 8964SOL    HW138351   2.785   3.096  11.980  2.4257 -2.4894  1.1933
 8964SOL    HW238352   2.698   3.176  12.062  1.1613  2.1234 -0.9715
 8965SOL     OW38353   0.231   2.297   8.328 -0.1798 -0.1606 -0.5993
 8965SOL    HW138354   0.315   2.301   8.375  0.2617  1.2984 -1.4873
 8965SOL    HW238355   0.202   2.385   8.353 -1.8806 -1.2510  1.2561
 8966SOL     OW38356   1.705   2.268   1.255 -0.1770 -0.0654  0.1071
 8966SOL    HW138357   1.720   2.340   1.316  1.6425  1.2735 -1.8690
 8966SOL    HW238358   1.609   2.267   1.251 -0.1608 -0.6035 -0.1932
 8967SOL     OW38359   1.709   1.905   4.087  0.2093  0.3730  0.6309
 8967SOL    HW138360   1.770   1.842   4.126 -0.6557  0.2463  1.7485
 8967SOL    HW238361   1.696   1.850   4.010  1.0851  0.6205  0.2948
 8968SOL     OW38362   0.502   0.352   2.327 -0.3490 -0.2486  0.5862
 8968SOL    HW138363   0.502   0.326   2.419 -1.9665  1.1556  0.9684
 8968SOL    HW238364   0.549   0.276   2.291 -1.3794 -0.1923 -0.9160
 8969SOL     OW38365   2.616   2.294   3.482 -0.0199 -0.2754  0.0629
 8969SOL    HW138366   2.676   2.343   3.425  1.6125  0.2461  2.2375
 8969SOL    HW238367   2.589   2.218   3.429  0.5812  0.9086 -1.9512
 8970SOL     OW38368   4.145   2.100   2.841 -0.1068 -0.1087  0.1269
 8970SOL    HW138369   4.188   2.099   2.927 -0.2475 -0.4825  0.1943
 8970SOL    HW238370   4.064   2.146   2.862 -0.5011 -0.1701 -1.2987
 8971SOL     OW38371   4.338   2.815  16.299  0.2135 -0.2133 -0.0702
 8971SOL    HW138372   4.327   2.900  16.258  0.4602  0.2017  0.7266
 8971SOL    HW238373   4.393   2.842  16.373  2.7651  1.4765 -2.6019
 8972SOL     OW38374   3.887   0.201   6.756 -0.2081  0.3002  0.3944
 8972SOL    HW138375   3.909   0.108   6.749 -0.0379  0.6182 -3.1828
 8972SOL    HW238376   3.822   0.200   6.827 -0.1126 -0.5650  0.4677
 8973SOL     OW38377   0.315   0.384   7.972 -0.0987 -0.7918 -0.1229
 8973SOL    HW138378   0.329   0.448   8.041  2.8375  0.5411 -1.9670
 8973SOL    HW238379   0.395   0.376   7.920 -0.0693  0.9979 -0.3531
 8974SOL     OW38380   0.638   0.362   3.660  0.1279 -0.9485 -0.7638
 8974SOL    HW138381   0.582   0.395   3.730  3.3419  0.8350  0.9645
 8974SOL    HW238382   0.713   0.421   3.670 -0.4775 -0.0294 -1.6048
 8975SOL     OW38383   2.804   3.790   4.373 -0.5808 -0.8948  0.2161
 8975SOL    HW138384   2.804   3.828   4.461  3.3500  1.3278 -0.7471
 8975SOL    HW238385   2.800   3.697   4.396 -0.4384 -0.3465  2.5277
 8976SOL     OW38386   4.021   0.193   8.054 -0.3738  0.1350 -0.4223
 8976SOL    HW138387   4.053   0.187   7.964  1.0289  0.7934  0.0223
 8976SOL    HW238388   3.998   0.286   8.061  1.4047  0.6762 -1.6955
 8977SOL     OW38389   3.477   4.525  17.179 -0.1726 -0.4275  0.5513
 8977SOL    HW138390   3.532   4.565  17.112 -1.3940 -0.0328 -0.2189
 8977SOL    HW238391   3.430   4.453  17.137 -1.1423  0.6805 -0.2723
 8978SOL     OW38392   4.007   2.535   5.025  0.2129 -0.5425  0.5156
 8978SOL    HW138393   3.947   2.553   4.953  0.2530 -1.2139  0.3082
 8978SOL    HW238394   4.090   2.575   5.000  0.4414 -0.2528  1.7852
 8979SOL     OW38395   3.773   3.488  11.949 -0.5840  0.8694  0.4894
 8979SOL    HW138396   3.860   3.451  11.934 -1.9177 -2.1346  0.1650
 8979SOL    HW238397   3.749   3.479  12.042  0.6636 -1.8766  0.5176
 8980SOL     OW38398   2.870   3.397   3.941 -0.3921  0.1049 -0.7066
 8980SOL    HW138399   2.867   3.305   3.913 -1.4415  0.2568 -1.0649
 8980SOL    HW238400   2.790   3.418   3.989  2.1547  1.4779  2.9632
 8981SOL     OW38401   4.199   1.292   4.510 -0.1663 -0.3054 -0.0883
 8981SOL    HW138402   4.257   1.216   4.519 -1.0007 -0.8715  0.4229
 8981SOL    HW238403   4.138   1.277   4.582  0.4782 -0.1208  0.4951
 8982SOL     OW38404   0.287   0.823   5.508 -0.1768 -0.2410 -0.0385
 8982SOL    HW138405   0.333   0.859   5.584  0.6033 -0.5403 -0.3677
 8982SOL    HW238406   0.339   0.855   5.435  0.7606  1.4654  1.3919
 8983SOL     OW38407   1.314   3.421  14.920  0.1999  0.5042 -0.4386
 8983SOL    HW138408   1.248   3.427  14.989  0.2121 -2.8379 -0.1535
 8983SOL    HW238409   1.323   3.326  14.913 -1.3776  0.3742 -0.7237
 8984SOL     OW38410   3.791   0.050   8.560  0.1405 -0.2124  0.8497
 8984SOL    HW138411   3.760   0.119   8.502 -0.4849 -0.8962  0.3616
 8984SOL    HW238412   3.719   0.050   8.624 -2.5989 -0.1938 -2.2378
 8985SOL     OW38413   1.113   1.817   4.898 -0.3535  0.2082 -0.0035
 8985SOL    HW138414   1.131   1.818   4.992 -2.1037  2.8779  0.3082
 8985SOL    HW238415   1.200   1.809   4.858 -0.5894 -1.4921 -0.1787
 8986SOL     OW38416   0.833   0.886  11.682  0.9756 -0.1972  0.2348
 8986SOL    HW138417   0.786   0.824  11.626  2.3592 -1.3707  0.3540
 8986SOL    HW238418   0.843   0.962  11.624 -0.4314  0.2181  0.5347
 8987SOL     OW38419   2.000   1.924   4.519 -0.1385 -0.3536  0.0590
 8987SOL    HW138420   1.973   1.954   4.606 -0.9889 -1.2845  0.1110
 8987SOL    HW238421   1.941   1.849   4.511  1.2943 -1.4768  0.1177
 8988SOL     OW38422   2.217   4.692  13.102 -0.5547  0.3151 -0.3179
 8988SOL    HW138423   2.168   4.645  13.170 -0.7709  1.0408  0.0244
 8988SOL    HW238424   2.287   0.010  13.154  1.1887 -1.0035 -1.6087
 8989SOL     OW38425   4.052   0.756   5.359 -0.2154  0.5705  0.3667
 8989SOL    HW138426   3.980   0.727   5.302  1.4420 -2.2555 -0.2761
 8989SOL    HW238427   4.023   0.846   5.371  0.6852  1.0556 -1.0285
 8990SOL     OW38428   1.564   0.308   4.562 -0.6702  0.5335  0.2185
 8990SOL    HW138429   1.542   0.263   4.644 -2.6620  2.1752  0.5981
 8990SOL    HW238430   1.483   0.332   4.516 -0.5478  0.2904 -0.1129
 8991SOL     OW38431   4.703   4.384   9.599 -0.3200 -0.4321  0.1252
 8991SOL    HW138432   4.626   4.373   9.655 -0.0890  2.3246  0.9372
 8991SOL    HW238433   0.018   4.296   9.595  0.7381  0.1608 -2.7985
 8992SOL     OW38434   2.946   0.856   3.441  0.1615  0.1657  0.1995
 8992SOL    HW138435   2.965   0.768   3.472  0.2562  0.0619 -0.1554
 8992SOL    HW238436   2.897   0.839   3.361  1.1814 -0.1146 -0.3699
 8993SOL     OW38437   3.653   0.829   8.132  0.4363  0.7694 -0.1646
 8993SOL    HW138438   3.591   0.816   8.204  0.3196 -1.5356 -0.6898
 8993SOL    HW238439   3.602   0.879   8.069  0.5613  0.4211 -0.5412
 8994SOL     OW38440   4.455   0.910  11.302  0.3569  0.1117 -0.2052
 8994SOL    HW138441   4.541   0.926  11.265  0.4338 -1.0224 -0.5160
 8994SOL    HW238442   4.417   0.922  11.214  2.2620 -0.7477 -1.1514
 8995SOL     OW38443   1.081   3.536   6.813 -0.0628 -0.8184  0.4193
 8995SOL    HW138444   1.162   3.497   6.781  0.5644 -0.8383  2.0188
 8995SOL    HW238445   1.036   3.462   6.854 -2.0478 -0.4990 -1.1805
 8996SOL     OW38446   2.336   2.266  12.778  0.1469  0.1237  0.1290
 8996SOL    HW138447   2.377   2.278  12.692 -0.8710  0.7055 -0.2741
 8996SOL    HW238448   2.400   2.201  12.808 -0.6952 -1.4837 -1.5733
 8997SOL     OW38449   3.916   0.518   3.628 -0.3038 -0.4560 -0.4356
 8997SOL    HW138450   3.891   0.610   3.630  0.5628 -0.2248 -0.5293
 8997SOL    HW238451   4.007   0.513   3.655 -0.2038  0.4028 -0.6163
 8998SOL     OW38452   2.429   0.050   1.944 -0.7980  0.1318 -0.4467
 8998SOL    HW138453   2.338   0.063   1.918 -1.5706 -0.1193  2.1517
 8998SOL    HW238454   2.428   4.678   1.964 -1.7793  0.5338  1.3506
 8999SOL     OW38455   0.987   4.200   4.332 -0.1972 -0.3951  0.7513
 8999SOL    HW138456   0.919   4.139   4.359  0.6683 -1.6938  0.0071
 8999SOL    HW238457   1.067   4.167   4.372 -1.0624 -3.1348  0.1872
 9000SOL     OW38458   0.057   4.113   0.860  0.2071 -0.3220 -0.6608
 9000SOL    HW138459   4.707   4.169   0.832  1.3987  0.7411 -1.6282
 9000SOL    HW238460   0.105   4.180   0.908 -0.6586  0.4616 -0.8856
 9001SOL     OW38461   2.120   3.017   9.544  0.2286 -0.5598 -0.3694
 9001SOL    HW138462   2.097   2.977   9.628 -1.7052  0.1129 -0.5904
 9001SOL    HW238463   2.083   3.105   9.544  0.7919 -0.3214  0.3698
 9002SOL     OW38464   4.167   3.032  14.133 -0.3810 -0.2076  0.3348
 9002SOL    HW138465   4.098   3.098  14.139 -2.1916 -2.1895  1.2772
 9002SOL    HW238466   4.105   2.959  14.134 -0.1340 -0.4865 -2.5894
 9003SOL     OW38467   3.766   0.472   7.527  0.3151 -0.1343  0.9844
 9003SOL    HW138468   3.781   0.378   7.535  1.9002  0.0344 -0.0509
 9003SOL    HW238469   3.675   0.480   7.499  0.4681  0.9805  0.7768
 9004SOL     OW38470   2.866   2.971   0.156  0.2216 -0.7138 -0.1432
 9004SOL    HW138471   2.869   2.985   0.251 -0.7479 -1.7282  0.0390
 9004SOL    HW238472   2.860   2.876   0.144  0.0168 -0.4075 -2.4218
 9005SOL     OW38473   1.279   0.984  13.991  0.1800  0.0275  0.7147
 9005SOL    HW138474   1.237   0.979  14.077 -0.9905 -1.9637  0.0262
 9005SOL    HW238475   1.294   1.077  13.974  0.1740  0.0141  0.6372
 9006SOL     OW38476   3.942   4.230  15.058 -0.1662  0.2757  0.3716
 9006SOL    HW138477   4.001   4.305  15.055 -0.9865  0.8907 -0.4383
 9006SOL    HW238478   3.895   4.234  14.975  1.2092 -1.6661 -0.5110
 9007SOL     OW38479   2.259   1.806  17.629  0.3670 -0.1573 -0.1943
 9007SOL    HW138480   2.284   1.895  17.605 -2.2804  0.4535 -0.7008
 9007SOL    HW238481   2.347   1.786  17.661  0.7057  0.4219 -0.7622
 9008SOL     OW38482   0.719   2.930   8.943  0.5527  0.2165 -0.2865
 9008SOL    HW138483   0.673   3.013   8.959  1.0040  0.1792  1.1543
 9008SOL    HW238484   0.785   2.949   8.876 -0.8808  0.7382 -1.5608
 9009SOL     OW38485   0.453   1.106   7.510  0.5140  0.7046 -0.3719
 9009SOL    HW138486   0.518   1.038   7.528 -0.3135  0.7918  2.8873
 9009SOL    HW238487   0.391   1.103   7.583  2.3248 -0.6219  1.1236
 9010SOL     OW38488   0.714   4.263   7.091  0.0118  0.4657  0.0756
 9010SOL    HW138489   0.746   4.240   7.178  1.9867 -1.3642 -1.1364
 9010SOL    HW238490   0.729   4.357   7.102 -0.2112  0.4381  0.5935
 9011SOL     OW38491   2.641   1.728   9.239 -0.2510 -0.2764 -0.5438
 9011SOL    HW138492   2.621   1.698   9.151  2.1750  0.9417 -1.4869
 9011SOL    HW238493   2.595   1.661   9.290 -1.1371  0.2458 -0.6519
 9012SOL     OW38494   2.609   1.305  17.251  0.1587  0.1223  0.3511
 9012SOL    HW138495   2.566   1.357  17.183 -0.9425 -0.5236  0.5381
 9012SOL    HW238496   2.700   1.323  17.232  0.7049 -2.7225  0.1828
 9013SOL     OW38497   2.656   4.673   6.099 -0.5870 -0.1410 -0.1835
 9013SOL    HW138498   2.577   4.707   6.140  0.7247  1.0996  1.3251
 9013SOL    HW238499   2.624   4.686   6.010  1.6934  1.2952 -0.8064
 9014SOL     OW38500   2.289   3.072   5.489  0.1256 -0.4277 -0.4143
 9014SOL    HW138501   2.339   2.991   5.497 -0.6096 -0.9381 -0.9685
 9014SOL    HW238502   2.353   3.118   5.435 -1.9172  2.2483 -0.5600
 9015SOL     OW38503   3.565   1.456   6.099  0.1079  0.1489 -0.3582
 9015SOL    HW138504   3.494   1.416   6.049 -1.3200  0.0399  1.7700
 9015SOL    HW238505   3.648   1.426   6.060  1.5997  2.4117  1.0260
 9016SOL     OW38506   2.141   2.761   1.810  0.5133  0.0244  0.3654
 9016SOL    HW138507   2.231   2.762   1.841 -0.3112  0.0133  2.7612
 9016SOL    HW238508   2.098   2.758   1.896 -0.9106  0.4317 -0.3258
 9017SOL     OW38509   4.602   3.081   8.369 -0.3333 -0.1720  0.0408
 9017SOL    HW138510   4.510   3.098   8.387 -0.2887 -0.5986  0.6581
 9017SOL    HW238511   4.595   3.027   8.290  1.1477 -0.5311  0.1453
 9018SOL     OW38512   2.277   1.698   4.735  0.1447 -0.3386 -0.3931
 9018SOL    HW138513   2.318   1.633   4.678  1.5604  1.1741 -1.0879
 9018SOL    HW238514   2.183   1.677   4.733 -0.3369  1.9578 -2.1256
 9019SOL     OW38515   2.918   4.263   3.917 -0.1183  0.0853  0.3288
 9019SOL    HW138516   2.998   4.311   3.939 -0.3280 -0.1926  1.6867
 9019SOL    HW238517   2.915   4.192   3.981  1.0405 -0.2995 -0.0345
 9020SOL     OW38518   4.704   3.779  13.220  0.1132  0.1729 -0.5482
 9020SOL    HW138519   0.041   3.736  13.158 -0.2325  1.4765 -1.7917
 9020SOL    HW238520   4.658   3.841  13.163  0.1401  1.6314  1.0213
 9021SOL     OW38521   3.037   0.167   7.807  0.3745 -0.1670  0.8987
 9021SOL    HW138522   3.052   0.149   7.714 -0.6106 -0.9044  0.8792
 9021SOL    HW238523   3.071   0.256   7.800 -1.8807  0.8450  2.5430
 9022SOL     OW38524   2.044   4.540   8.696  0.3970  0.1770 -0.8645
 9022SOL    HW138525   1.993   4.499   8.766 -0.5698 -0.6153 -2.0331
 9022SOL    HW238526   2.002   4.508   8.616 -0.1565  0.3496 -0.6438
 9023SOL     OW38527   1.408   3.307   6.229 -0.2258  0.4985 -0.2440
 9023SOL    HW138528   1.444   3.375   6.287 -1.4210  1.5333 -0.7100
 9023SOL    HW238529   1.461   3.329   6.152 -1.6121 -1.4198 -1.7441
 9024SOL     OW38530   2.513   4.505   5.728 -0.0982  0.4913  0.2933
 9024SOL    HW138531   2.511   4.463   5.814  1.1109 -2.8522 -1.3208
 9024SOL    HW238532   2.557   4.586   5.754  2.5959 -0.8777  0.0875
 9025SOL     OW38533   0.503   1.008   8.602 -0.4499  0.3168  0.5309
 9025SOL    HW138534   0.572   1.049   8.550 -0.8164  0.4614  0.1468
 9025SOL    HW238535   0.435   1.000   8.535 -1.3569 -2.0679  1.7156
 9026SOL     OW38536   3.170   1.549   6.795 -0.6515 -0.0358  0.0838
 9026SOL    HW138537   3.241   1.566   6.858 -1.1143 -1.0939  0.8962
 9026SOL    HW238538   3.151   1.458   6.819  0.3763 -0.7999 -2.0005
 9027SOL     OW38539   4.395   4.401   6.305 -0.4186 -0.4162  0.1528
 9027SOL    HW138540   4.475   4.374   6.350 -0.1008  2.8363  1.5452
 9027SOL    HW238541   4.422   4.489   6.279 -0.9732 -0.7274 -1.4891
 9028SOL     OW38542   2.046   1.689   5.967  0.0481 -0.0905 -0.4107
 9028SOL    HW138543   2.042   1.628   6.041  1.0930  0.6387  0.2645
 9028SOL    HW238544   2.114   1.744   6.006 -0.5840  0.5119 -0.1599
 9029SOL     OW38545   3.400   3.897   2.352 -0.5200 -0.2794 -0.5625
 9029SOL    HW138546   3.306   3.900   2.331  0.0876 -2.0285 -3.5843
 9029SOL    HW238547   3.393   3.812   2.396 -0.0597 -0.5898 -1.0864
 9030SOL     OW38548   4.662   3.585   3.186 -0.2429  0.0784  0.2293
 9030SOL    HW138549   4.603   3.660   3.190  0.0032  0.3251 -0.7021
 9030SOL    HW238550   4.672   3.550   3.275 -0.1292 -2.2943 -0.7066
 9031SOL     OW38551   3.507   1.523  15.221  0.0697 -0.3436  0.3896
 9031SOL    HW138552   3.544   1.459  15.159 -1.0046  1.4839 -2.1352
 9031SOL    HW238553   3.475   1.587  15.158  0.7019  0.8877  1.3215
 9032SOL     OW38554   0.638   3.255   0.622 -0.2570 -0.0147 -0.1083
 9032SOL    HW138555   0.645   3.328   0.559  0.8223  0.4178  0.5210
 9032SOL    HW238556   0.576   3.293   0.684 -1.0576 -0.5359 -0.5933
 9033SOL     OW38557   4.297   0.233  16.726 -0.2157  0.0887  0.4063
 9033SOL    HW138558   4.337   0.293  16.664  0.4163  0.1108  0.8352
 9033SOL    HW238559   4.220   0.288  16.736  1.4788  1.7984  3.8855
 9034SOL     OW38560   3.018   1.699   0.074 -0.4366  0.2598 -0.4557
 9034SOL    HW138561   2.957   1.628   0.059  0.7419 -1.6900  4.0594
 9034SOL    HW238562   2.960   1.766   0.110 -0.9686  0.6517 -2.0073
 9035SOL     OW38563   0.534   1.242   0.324 -0.0695 -0.6582  0.1626
 9035SOL    HW138564   0.556   1.161   0.278  1.5556  0.3322 -0.8095
 9035SOL    HW238565   0.439   1.233   0.318 -0.0380 -0.5123 -0.5549
 9036SOL     OW38566   0.981   1.639  16.613 -0.1464  0.0006 -0.0588
 9036SOL    HW138567   1.032   1.594  16.546  0.9745 -0.0304  0.7960
 9036SOL    HW238568   0.998   1.569  16.676  1.2035  0.1528 -0.2404
 9037SOL     OW38569   3.713   4.059  13.940 -0.3590 -0.4740 -0.0591
 9037SOL    HW138570   3.641   3.997  13.956 -1.9476  1.2953 -0.4455
 9037SOL    HW238571   3.693   4.132  13.998  2.5335 -0.5175  1.0053
 9038SOL     OW38572   2.242   3.665  12.022 -0.6886  0.4194  0.4143
 9038SOL    HW138573   2.232   3.760  12.033  0.7903  0.5116  0.9984
 9038SOL    HW238574   2.202   3.633  12.103 -3.9373  1.1255 -0.8970
 9039SOL     OW38575   1.836   2.805  15.260  0.1366 -0.2718 -0.2981
 9039SOL    HW138576   1.749   2.825  15.295 -0.0379 -1.6529  0.0575
 9039SOL    HW238577   1.856   2.885  15.212  1.0781 -0.6989 -0.6204
 9040SOL     OW38578   0.897   2.253   9.835  0.0335  0.0416 -0.1354
 9040SOL    HW138579   0.946   2.308   9.897 -1.4087  2.8843 -1.5370
 9040SOL    HW238580   0.915   2.299   9.753 -0.9054  0.7377  0.0501
 9041SOL     OW38581   2.257   2.349   7.338 -0.0960  0.1463  0.2206
 9041SOL    HW138582   2.322   2.311   7.397  0.2661 -0.8395 -0.7994
 9041SOL    HW238583   2.182   2.299   7.370  0.6044 -1.1606 -0.1320
 9042SOL     OW38584   0.870   1.029   1.558 -0.5316  0.4664  0.4060
 9042SOL    HW138585   0.799   0.972   1.527 -1.3760  2.7060 -1.7993
 9042SOL    HW238586   0.907   0.964   1.618  0.9558  1.7500  0.8625
 9043SOL     OW38587   3.273   2.924   5.058  1.0006  0.3214 -0.0071
 9043SOL    HW138588   3.320   2.964   4.985 -1.9800  0.5574 -1.8293
 9043SOL    HW238589   3.286   3.002   5.112  2.2594 -0.7456  1.2181
 9044SOL     OW38590   3.404   0.862   3.120  0.3863  0.1175 -0.7223
 9044SOL    HW138591   3.410   0.767   3.129 -2.7871 -0.3238 -3.0045
 9044SOL    HW238592   3.325   0.873   3.173  0.4089  0.6693 -0.7972
 9045SOL     OW38593   3.021   3.253   5.683 -0.1391 -0.3923  0.1198
 9045SOL    HW138594   3.096   3.248   5.743  0.2770  1.0566 -0.2748
 9045SOL    HW238595   2.985   3.166   5.665  0.3364 -0.7686  0.9561
 9046SOL     OW38596   4.521   3.816  13.651 -0.0727 -0.0081  0.5204
 9046SOL    HW138597   4.452   3.785  13.709 -1.3472  2.1551  0.1573
 9046SOL    HW238598   4.543   3.733  13.608  2.1896  1.3771 -0.9889
 9047SOL     OW38599   0.728   0.783   6.638  0.2320  0.3361  0.2190
 9047SOL    HW138600   0.764   0.820   6.718  2.0288 -2.2513  0.6335
 9047SOL    HW238601   0.686   0.705   6.674  1.1489 -0.4753 -0.4645
 9048SOL     OW38602   3.831   1.267  13.154  0.3199 -0.0901 -0.3132
 9048SOL    HW138603   3.913   1.304  13.187  0.8995 -2.6805  1.1542
 9048SOL    HW238604   3.814   1.322  13.077  1.4743 -3.2518 -2.8438
 9049SOL     OW38605   2.141   1.839   6.403  0.0989 -0.1600  0.4678
 9049SOL    HW138606   2.103   1.886   6.477  1.9834 -0.0998  1.3936
 9049SOL    HW238607   2.228   1.816   6.436 -0.2698  1.8749  2.8990
 9050SOL     OW38608   3.252   0.530  12.981  0.4306 -0.2372  0.1289
 9050SOL    HW138609   3.215   0.460  13.034 -1.4781 -1.9035 -3.4367
 9050SOL    HW238610   3.176   0.585  12.966  0.7520 -0.2105 -1.3783
 9051SOL     OW38611   0.337   1.960   5.681  0.3428 -0.0729 -0.0254
 9051SOL    HW138612   0.353   1.907   5.603 -2.8741  0.1850 -0.8369
 9051SOL    HW238613   0.413   1.931   5.732  0.5378  0.1530 -0.1836
 9052SOL     OW38614   1.904   2.808   6.185 -0.1201 -1.2350  0.0342
 9052SOL    HW138615   1.819   2.765   6.194 -0.7783  0.5715  2.2484
 9052SOL    HW238616   1.926   2.794   6.093 -0.6829 -0.6346 -0.1920
 9053SOL     OW38617   3.479   0.270   6.748 -0.0326 -0.3359 -0.3035
 9053SOL    HW138618   3.408   0.209   6.770 -1.5436  2.4746  2.6387
 9053SOL    HW238619   3.545   0.220   6.795 -0.0887  1.0147  1.2074
 9054SOL     OW38620   2.504   1.567  15.673  0.1142 -0.1808  0.1193
 9054SOL    HW138621   2.477   1.561  15.581 -1.8611 -2.3695  0.8384
 9054SOL    HW238622   2.424   1.563  15.725  1.2815 -2.3674  1.7372
 9055SOL     OW38623   0.430   1.674   5.125  0.5027  0.5439  0.0055
 9055SOL    HW138624   0.336   1.686   5.109  0.4298  0.4313  0.3412
 9055SOL    HW238625   0.466   1.673   5.037 -0.8240 -1.6759 -0.5184
 9056SOL     OW38626   4.120   1.135   7.347 -0.0872 -0.1792 -0.3338
 9056SOL    HW138627   4.171   1.055   7.336 -2.8500 -2.2184  1.7715
 9056SOL    HW238628   4.046   1.121   7.288  0.6088 -0.1573 -1.2127
 9057SOL     OW38629   1.932   2.039  14.893  0.0671  0.0406  0.0446
 9057SOL    HW138630   1.962   2.024  14.983 -1.1345 -0.1992  0.4052
 9057SOL    HW238631   1.991   2.112  14.876 -0.5878  0.3585 -0.8204
 9058SOL     OW38632   0.133   0.370   6.111  0.6196  0.7802 -0.1324
 9058SOL    HW138633   0.116   0.368   6.017 -0.8692  3.4960  0.0669
 9058SOL    HW238634   0.190   0.447   6.115 -0.4864  1.8219 -4.1520
 9059SOL     OW38635   3.226   2.145   7.380  0.1696  0.0449  0.0411
 9059SOL    HW138636   3.301   2.200   7.405  0.9726 -1.7290  1.5154
 9059SOL    HW238637   3.209   2.107   7.466 -0.5872  0.3608  0.0282
 9060SOL     OW38638   3.805   0.587   7.807 -0.0069  0.7924  0.7289
 9060SOL    HW138639   3.899   0.587   7.786 -0.2173 -1.5750 -0.2458
 9060SOL    HW238640   3.773   0.558   7.722  3.0053 -1.0889  0.2298
 9061SOL     OW38641   4.391   1.585   9.842  0.5149  0.4332 -0.0003
 9061SOL    HW138642   4.453   1.560   9.910 -0.7207 -1.2793  0.4903
 9061SOL    HW238643   4.334   1.630   9.905  2.1089  0.4672  1.4035
 9062SOL     OW38644   2.852   1.260   4.797  0.1560 -0.2074  0.2239
 9062SOL    HW138645   2.846   1.244   4.703  1.6859  0.6167 -0.0216
 9062SOL    HW238646   2.845   1.177   4.845  3.7408 -0.0331  1.0760
 9063SOL     OW38647   2.752   2.843  12.828 -0.3767 -0.4649  0.2332
 9063SOL    HW138648   2.821   2.889  12.780  1.5973 -0.5761  2.9860
 9063SOL    HW238649   2.793   2.846  12.914  1.4424  0.2306 -0.6457
 9064SOL     OW38650   4.632   4.073   2.424  0.8367 -0.1925  0.3305
 9064SOL    HW138651   0.005   4.082   2.427  0.7752  1.4875 -2.7857
 9064SOL    HW238652   4.615   4.083   2.330  2.3427 -4.2710 -0.3906
 9065SOL     OW38653   4.480   4.492   5.080 -0.0518  0.5131  0.2502
 9065SOL    HW138654   4.575   4.484   5.092  0.1587  0.7854 -1.2535
 9065SOL    HW238655   4.442   4.419   5.129  1.8859  0.2234  1.3381
 9066SOL     OW38656   4.282   1.056   1.806  0.3719 -0.0932 -0.1070
 9066SOL    HW138657   4.202   1.004   1.810  0.6241 -0.4380  0.5740
 9066SOL    HW238658   4.247   1.138   1.773  1.3164 -0.2687 -1.5368
 9067SOL     OW38659   3.054   0.602   3.151 -0.3310  0.6844 -0.1567
 9067SOL    HW138660   3.111   0.580   3.077  1.3943  1.8904  0.7934
 9067SOL    HW238661   2.969   0.601   3.108 -0.3733 -1.6702  0.0154
 9068SOL     OW38662   3.673   3.379  10.964 -0.2462 -0.3108  0.4532
 9068SOL    HW138663   3.738   3.316  10.932 -1.6773 -1.9369  0.7167
 9068SOL    HW238664   3.714   3.424  11.037 -0.8440  2.1623 -0.7587
 9069SOL     OW38665   0.958   3.141   5.246  0.4932 -0.1265 -0.3062
 9069SOL    HW138666   0.882   3.085   5.234  0.7232 -0.3536 -0.7338
 9069SOL    HW238667   1.025   3.075   5.263 -1.2533 -1.7561  0.1963
 9070SOL     OW38668   1.792   1.002  17.269 -0.0370  0.5830  0.5877
 9070SOL    HW138669   1.803   0.984  17.363 -1.9890 -2.1922  0.2952
 9070SOL    HW238670   1.832   1.088  17.274 -1.8687  1.3946  1.2859
 9071SOL     OW38671   0.419   4.065   9.458 -0.3216  0.2518  0.6527
 9071SOL    HW138672   0.460   3.995   9.408  0.5773 -0.0876  1.8769
 9071SOL    HW238673   0.444   4.035   9.545  0.5416 -0.8976 -0.0030
 9072SOL     OW38674   3.485   4.005   2.055  0.2507  0.6883 -0.0012
 9072SOL    HW138675   3.520   4.022   2.143  1.5482  1.3443 -0.6405
 9072SOL    HW238676   3.475   3.910   2.049 -1.6050  1.0727 -2.6356
 9073SOL     OW38677   3.494   2.292   7.456 -0.0069 -0.3944  0.2295
 9073SOL    HW138678   3.544   2.275   7.376 -0.5743 -1.2427  0.0571
 9073SOL    HW238679   3.555   2.259   7.522  0.6239  2.3766  1.0031
 9074SOL     OW38680   0.075   3.225   1.920  0.0324  0.1008 -0.6467
 9074SOL    HW138681   0.004   3.199   1.860 -1.4500  0.1581  1.0909
 9074SOL    HW238682   0.023   3.282   1.976 -0.9758 -1.2076 -0.2431
 9075SOL     OW38683   2.356   2.807   5.419 -0.4664 -0.7070 -0.0628
 9075SOL    HW138684   2.342   2.727   5.369 -3.1879 -0.0382 -0.3498
 9075SOL    HW238685   2.423   2.786   5.484  0.5415  1.4814 -0.3812
 9076SOL     OW38686   0.833   1.096   4.703  0.0303 -0.3559  0.0758
 9076SOL    HW138687   0.917   1.128   4.734  1.2263 -0.2700 -3.1938
 9076SOL    HW238688   0.764   1.117   4.766  0.2916  0.0267  0.2268
 9077SOL     OW38689   0.918   0.283   5.418  0.5705 -0.4762  0.2049
 9077SOL    HW138690   0.849   0.279   5.484 -0.6499 -0.6139 -1.0702
 9077SOL    HW238691   0.907   0.371   5.383 -1.1276 -1.0723 -0.7822
 9078SOL     OW38692   2.713   4.507  12.899  0.5289 -0.3393 -0.1622
 9078SOL    HW138693   2.737   4.430  12.950  0.0961 -1.3497 -1.5119
 9078SOL    HW238694   2.627   4.484  12.866 -0.1053 -0.6059  1.6702
 9079SOL     OW38695   0.933   4.301   6.017 -0.3166  0.2163  0.0539
 9079SOL    HW138696   0.921   4.396   6.008  0.5161  0.2256 -0.9110
 9079SOL    HW238697   1.025   4.286   5.997 -0.0776  0.1015  1.2540
 9080SOL     OW38698   1.134   3.487   3.255 -0.0112 -0.4949  0.9857
 9080SOL    HW138699   1.081   3.566   3.245  1.0213  0.0275 -0.3496
 9080SOL    HW238700   1.086   3.443   3.326  1.0680 -1.8299  0.9013
 9081SOL     OW38701   4.354   2.828   1.967  0.6996 -0.2931  0.1549
 9081SOL    HW138702   4.325   2.811   2.057  0.1525  0.6409  0.1497
 9081SOL    HW238703   4.435   2.874   1.988  0.2305  0.7068 -0.2309
 9082SOL     OW38704   3.789   2.517   3.834  0.1185 -0.0589  1.0837
 9082SOL    HW138705   3.789   2.450   3.902 -1.4378 -0.3872  0.7472
 9082SOL    HW238706   3.883   2.522   3.814  0.3734 -0.1945  2.2159
 9083SOL     OW38707   3.075   2.373   7.979 -0.0424 -0.3959  0.7346
 9083SOL    HW138708   3.143   2.371   7.911 -0.5829  1.0253  0.1596
 9083SOL    HW238709   3.002   2.347   7.923 -0.7866  0.5997  1.2598
 9084SOL     OW38710   4.112   1.107   8.571  0.2707 -0.0745 -0.2467
 9084SOL    HW138711   4.156   1.148   8.645  1.2245  0.5394 -1.1480
 9084SOL    HW238712   4.137   1.179   8.513  1.2376  0.3184  0.6536
 9085SOL     OW38713   2.201   0.200   2.666 -0.5198  0.0999 -0.6796
 9085SOL    HW138714   2.161   0.113   2.660  3.0087 -1.6738  1.7070
 9085SOL    HW238715   2.222   0.214   2.574 -1.6605  1.9474 -0.6543
 9086SOL     OW38716   1.985   3.995  12.438 -0.2077 -0.0255 -0.5628
 9086SOL    HW138717   2.052   3.933  12.467  0.1865 -0.5336 -2.5402
 9086SOL    HW238718   2.047   4.064  12.416  1.7241 -1.9445 -1.1501
 9087SOL     OW38719   2.695   4.703   4.820 -0.1770 -0.0747 -0.2784
 9087SOL    HW138720   2.673   4.655   4.900 -0.9907  0.0561 -0.4279
 9087SOL    HW238721   2.783   0.013   4.841  0.2094 -0.6681 -0.9437
 9088SOL     OW38722   0.956   2.847   2.874  0.3453 -0.2310  0.3089
 9088SOL    HW138723   0.898   2.900   2.819  0.0632 -1.3482 -0.4731
 9088SOL    HW238724   1.039   2.876   2.838  0.0204 -1.9237 -1.7865
 9089SOL     OW38725   0.884   1.703  16.355 -0.1261 -0.2983  0.1380
 9089SOL    HW138726   0.951   1.667  16.297  1.9420  0.0186  2.3131
 9089SOL    HW238727   0.890   1.658  16.439 -1.2570 -0.7559 -0.0273
 9090SOL     OW38728   3.105   4.295   6.792  0.1863 -0.1398 -0.1232
 9090SOL    HW138729   3.100   4.289   6.887  1.2902  0.5842 -0.0273
 9090SOL    HW238730   3.049   4.363   6.755  0.4383  0.2405  0.2089
 9091SOL     OW38731   3.941   1.462  12.274 -0.0779 -0.2994  0.1197
 9091SOL    HW138732   3.983   1.376  12.279  0.2894 -0.2099 -1.4726
 9091SOL    HW238733   3.958   1.494  12.363 -0.5586  0.0448  0.0853
 9092SOL     OW38734   3.390   3.789   1.040  0.4954  0.3845  0.4755
 9092SOL    HW138735   3.465   3.792   0.981 -1.0885 -0.0669 -1.5564
 9092SOL    HW238736   3.329   3.727   1.000  3.2359 -0.6517 -2.0919
 9093SOL     OW38737   1.479   0.681   6.029  0.4709  0.1377 -0.2082
 9093SOL    HW138738   1.515   0.614   6.087 -1.1085 -1.8453 -1.5141
 9093SOL    HW238739   1.481   0.754   6.091  1.0168 -0.6675  0.7173
 9094SOL     OW38740   0.173   3.148   7.209 -0.1753 -0.3701 -0.2027
 9094SOL    HW138741   0.177   3.216   7.141 -1.3807  1.4294  1.5186
 9094SOL    HW238742   0.206   3.065   7.175  0.8700 -0.5550  1.2766
 9095SOL     OW38743   3.684   0.091   6.951 -0.2515 -0.0705  0.1480
 9095SOL    HW138744   3.651   0.116   7.037  0.9046 -0.2770  0.6621
 9095SOL    HW238745   3.644   0.006   6.930  1.2385 -0.7131 -0.1152
 9096SOL     OW38746   3.300   1.249   0.728  0.0921  0.6383  0.6517
 9096SOL    HW138747   3.216   1.280   0.692 -0.3630 -1.6022 -0.2295
 9096SOL    HW238748   3.331   1.172   0.680 -3.2899  0.4577 -1.2657
 9097SOL     OW38749   4.080   1.447   7.709 -0.7052  0.0089 -0.1930
 9097SOL    HW138750   4.031   1.371   7.741 -1.8155  0.0104 -1.8640
 9097SOL    HW238751   4.162   1.455   7.758  0.1333 -1.0230 -1.4138
 9098SOL     OW38752   4.360   0.194  11.883 -0.1667 -0.3077 -0.1197
 9098SOL    HW138753   4.328   0.240  11.806  0.4020  0.2093 -0.0420
 9098SOL    HW238754   4.450   0.176  11.857 -0.2459 -2.0767  0.7710
 9099SOL     OW38755   0.746   0.099   6.768  0.3137 -0.2135 -0.8237
 9099SOL    HW138756   0.776   0.175   6.720 -0.9219 -0.2708 -1.6791
 9099SOL    HW238757   0.831   0.062   6.794 -0.4683 -0.3028  1.6698
 9100SOL     OW38758   3.397   0.140   4.827  0.8955 -0.1235  0.2082
 9100SOL    HW138759   3.397   0.065   4.887  0.6929  0.3364  0.7737
 9100SOL    HW238760   3.378   0.205   4.894 -0.8064 -1.4758  1.0467
 9101SOL     OW38761   4.088   1.335   8.412  0.2361 -0.1568  0.3402
 9101SOL    HW138762   4.012   1.344   8.355 -0.8787 -1.2604  1.6510
 9101SOL    HW238763   4.105   1.427   8.432 -1.9748 -0.4478  3.6399
 9102SOL     OW38764   4.198   1.639  12.181  0.4130 -0.6001  0.3177
 9102SOL    HW138765   4.115   1.593  12.195  0.2839 -0.6400 -0.5959
 9102SOL    HW238766   4.226   1.644  12.273  0.9045  2.2392  0.0065
 9103SOL     OW38767   3.493   3.833   9.348  0.0447 -0.0501  0.3870
 9103SOL    HW138768   3.529   3.920   9.331  0.7920 -0.0957  1.7312
 9103SOL    HW238769   3.400   3.853   9.354  0.3824  0.9583  2.0966
 9104SOL     OW38770   0.314   2.237  16.781  0.3988  0.5478 -0.1724
 9104SOL    HW138771   0.254   2.164  16.793 -0.5272  1.7702  2.6053
 9104SOL    HW238772   0.333   2.262  16.871 -1.6664 -1.5346  0.8129
 9105SOL     OW38773   3.584   3.694   3.483 -0.1556 -0.1784 -0.6170
 9105SOL    HW138774   3.646   3.705   3.555  0.5663  1.7036 -1.5403
 9105SOL    HW238775   3.575   3.785   3.456 -1.0974 -0.5556 -1.5482
 9106SOL     OW38776   2.284   4.658   8.273  0.5370  0.2993 -0.1461
 9106SOL    HW138777   2.291   4.563   8.286 -0.1719 -0.0504 -2.4932
 9106SOL    HW238778   2.224   4.683   8.343  0.2705 -0.5550 -0.0663
 9107SOL     OW38779   3.700   2.337   7.940  0.1182 -0.1143  0.2960
 9107SOL    HW138780   3.722   2.324   7.848 -0.1543  0.4846  0.1432
 9107SOL    HW238781   3.736   2.259   7.982  0.1176 -0.3537 -0.1627
 9108SOL     OW38782   2.849   0.696   5.920 -0.1122  0.1164  0.0758
 9108SOL    HW138783   2.798   0.743   5.855 -0.7471  0.7271  1.0280
 9108SOL    HW238784   2.789   0.659   5.985 -0.2047  2.1898  1.1582
 9109SOL     OW38785   3.768   2.172   5.796 -0.2738 -0.3034 -0.0145
 9109SOL    HW138786   3.781   2.138   5.884  1.4622 -1.4939 -0.7335
 9109SOL    HW238787   3.858   2.156   5.769 -0.1731 -0.2770  0.3148
 9110SOL     OW38788   2.867   0.587   6.754  0.1901  0.3890 -0.3184
 9110SOL    HW138789   2.869   0.500   6.793  1.0589  0.5842  0.0626
 9110SOL    HW238790   2.878   0.570   6.660 -2.6815 -2.9213 -0.0520
 9111SOL     OW38791   4.476   4.452   8.851  0.1439  0.5879  0.3564
 9111SOL    HW138792   4.460   4.390   8.922  1.6280 -0.0988  0.0809
 9111SOL    HW238793   4.550   4.412   8.806  0.4975 -0.8609  2.1974
 9112SOL     OW38794   2.516   1.884  15.346  0.2877 -0.8349  0.1059
 9112SOL    HW138795   2.498   1.908  15.256  0.7478 -1.2425 -0.0915
 9112SOL    HW238796   2.578   1.813  15.333  2.3355  1.3672 -2.2063
 9113SOL     OW38797   3.781   3.917   5.311  0.5416 -0.0541 -0.3489
 9113SOL    HW138798   3.754   3.825   5.318  0.2986  0.2674  3.0054
 9113SOL    HW238799   3.738   3.933   5.227  1.9688 -0.0313 -1.0731
 9114SOL     OW38800   2.232   0.197   8.890 -0.0536 -0.2056  0.1080
 9114SOL    HW138801   2.176   0.214   8.814 -1.5133 -2.7299  0.5857
 9114SOL    HW238802   2.316   0.227   8.858 -2.1504  0.3576 -4.9116
 9115SOL     OW38803   1.065   4.468   4.386  0.7499 -0.1884 -0.5009
 9115SOL    HW138804   1.105   4.497   4.303 -1.0432  0.8000 -1.0233
 9115SOL    HW238805   1.049   4.376   4.367 -0.8920 -0.2382  1.2123
 9116SOL     OW38806   0.261   3.685   4.149  0.1927 -0.0914 -0.6105
 9116SOL    HW138807   0.337   3.637   4.115 -0.3724 -1.8018  0.5705
 9116SOL    HW238808   0.219   3.636   4.219  1.9959  0.8544  1.1492
 9117SOL     OW38809   2.418   2.737   2.676  0.6844  0.4386  0.1932
 9117SOL    HW138810   2.374   2.809   2.631 -1.2424 -0.4867  0.5705
 9117SOL    HW238811   2.492   2.777   2.721  2.0371 -1.7150 -0.1444
 9118SOL     OW38812   3.890   3.662   9.849 -0.1331  0.4370 -0.5164
 9118SOL    HW138813   3.868   3.755   9.859 -2.7998 -0.4143  1.7118
 9118SOL    HW238814   3.847   3.645   9.766 -0.2044  0.8560 -0.5642
 9119SOL     OW38815   0.198   3.828   5.136 -0.1011 -0.4625 -0.6034
 9119SOL    HW138816   0.176   3.886   5.062 -1.7697 -0.2543  0.0468
 9119SOL    HW238817   0.177   3.744   5.096  1.0005  0.2811 -2.7362
 9120SOL     OW38818   4.278   4.458   0.199  0.0465  0.1487  0.8056
 9120SOL    HW138819   4.334   4.469   0.275 -0.6404  0.3241  1.2883
 9120SOL    HW238820   4.247   4.368   0.208 -0.8920  0.4282  0.3693
 9121SOL     OW38821   1.916   1.021   3.460 -0.2729  0.0951  0.2316
 9121SOL    HW138822   1.983   0.952   3.469  0.6147  0.9510  0.1583
 9121SOL    HW238823   1.949   1.083   3.525  0.5905  0.9668 -1.0359
 9122SOL     OW38824   0.415   3.153   0.463  0.4776  0.1611 -0.4762
 9122SOL    HW138825   0.466   3.088   0.415  0.7779  0.8924 -1.1261
 9122SOL    HW238826   0.460   3.155   0.547  0.3716  2.5164 -0.4739
 9123SOL     OW38827   1.939   3.210   5.261 -1.0320 -0.0265 -0.2823
 9123SOL    HW138828   2.015   3.232   5.207 -0.3088 -2.8356 -0.4206
 9123SOL    HW238829   1.957   3.257   5.342  1.8641  0.0656 -0.9660
 9124SOL     OW38830   0.609   4.023  17.416  0.3689  0.1957  0.2853
 9124SOL    HW138831   0.561   3.944  17.443 -0.6544  0.9387  0.6419
 9124SOL    HW238832   0.696   3.984  17.421 -0.2194 -1.3070 -0.9199
 9125SOL     OW38833   0.061   1.800   8.656  0.2543  0.9781 -0.4885
 9125SOL    HW138834   0.033   1.868   8.717 -0.6740 -2.7389  3.2493
 9125SOL    HW238835   0.150   1.780   8.683  0.3665  2.1233 -0.0573
 9126SOL     OW38836   2.001   1.750   9.431 -0.6058  0.3406 -0.2108
 9126SOL    HW138837   1.941   1.817   9.463  0.3513  1.0004  0.2095
 9126SOL    HW238838   2.079   1.796   9.400  0.0997 -0.7711 -0.1123
 9127SOL     OW38839   2.432   4.095   1.497 -0.2327  0.0289 -0.5696
 9127SOL    HW138840   2.355   4.040   1.482  0.3152 -0.7891 -0.3340
 9127SOL    HW238841   2.454   4.050   1.579 -1.5974  0.1880 -0.1232
 9128SOL     OW38842   0.167   3.350   2.794 -0.7258 -0.7156 -0.2480
 9128SOL    HW138843   0.232   3.316   2.732  0.2476 -0.2594  0.5276
 9128SOL    HW238844   0.080   3.332   2.759  0.4112 -3.8935 -1.4133
 9129SOL     OW38845   1.647   2.152   7.308 -0.1629  0.3778  0.6892
 9129SOL    HW138846   1.570   2.163   7.365 -0.5240  2.3514 -0.1580
 9129SOL    HW238847   1.635   2.198   7.225 -1.6615  0.0397  0.7084
 9130SOL     OW38848   4.263   0.828   6.703 -0.0112  0.0703  0.3684
 9130SOL    HW138849   4.222   0.909   6.672  1.0418  1.0998  1.6534
 9130SOL    HW238850   4.251   0.830   6.798 -0.4134  2.2622  0.2903
 9131SOL     OW38851   3.985   4.716   1.642  0.8269  0.0960  0.2498
 9131SOL    HW138852   4.025   0.017   1.726  0.5416 -1.8438  0.9246
 9131SOL    HW238853   3.915   4.658   1.672  0.2494 -1.1292 -3.5402
 9132SOL     OW38854   0.525   3.086   9.152 -0.1963  0.2809 -0.2946
 9132SOL    HW138855   0.526   3.111   9.059 -0.3759 -0.8508 -0.6039
 9132SOL    HW238856   0.546   3.174   9.183 -1.3591  0.4413  0.0227
 9133SOL     OW38857   2.596   3.912   6.833 -0.3154 -0.2328  0.8190
 9133SOL    HW138858   2.574   3.921   6.925 -2.9234 -0.0104  0.1890
 9133SOL    HW238859   2.647   3.990   6.811  0.6286 -0.9012  0.6510
 9134SOL     OW38860   1.628   2.673   0.155 -0.0302  0.3546 -0.5912
 9134SOL    HW138861   1.696   2.607   0.169  0.2880  1.2404  1.9096
 9134SOL    HW238862   1.605   2.653   0.064 -3.1775 -2.3965  0.7821
 9135SOL     OW38863   1.936   3.569   7.157 -0.2638  0.3857  0.2257
 9135SOL    HW138864   1.963   3.483   7.192  0.4632 -0.5278 -2.6106
 9135SOL    HW238865   1.945   3.630   7.230 -3.2130 -1.1230  1.8337
 9136SOL     OW38866   1.240   1.979   6.969  0.5699 -0.0346 -0.0942
 9136SOL    HW138867   1.199   1.913   6.913 -0.7746  1.1008 -0.4443
 9136SOL    HW238868   1.239   2.055   6.910  1.9381  0.3852  0.4092
 9137SOL     OW38869   3.404   0.532   5.248 -0.2525 -0.2686 -0.0608
 9137SOL    HW138870   3.402   0.620   5.210 -1.6670 -0.6627 -0.9009
 9137SOL    HW238871   3.490   0.526   5.289  0.6513 -1.8840 -2.1594
 9138SOL     OW38872   1.270   3.329  12.221 -0.3040 -0.3926  0.3651
 9138SOL    HW138873   1.301   3.416  12.196 -2.3585  0.5489  1.0945
 9138SOL    HW238874   1.180   3.340  12.251 -0.3360  0.5888 -0.0915
 9139SOL     OW38875   2.652   1.474  16.849 -0.3328 -0.1291 -0.0870
 9139SOL    HW138876   2.604   1.540  16.799 -2.3185 -2.1799 -0.8340
 9139SOL    HW238877   2.603   1.469  16.931 -1.8045  0.8967 -0.9112
 9140SOL     OW38878   3.537   3.974   3.108  0.6052  0.9305  0.4179
 9140SOL    HW138879   3.456   4.022   3.124  1.3754  2.6171 -0.8835
 9140SOL    HW238880   3.589   4.000   3.184  0.3588 -1.8080  1.5521
 9141SOL     OW38881   0.989   1.464   3.273 -0.1443  0.5359 -0.2392
 9141SOL    HW138882   1.025   1.508   3.196  0.6899  0.2692 -0.0049
 9141SOL    HW238883   0.897   1.483   3.256 -0.3348 -0.6631 -0.5657
 9142SOL     OW38884   3.677   0.959  14.163  0.5130 -0.0296 -0.6323
 9142SOL    HW138885   3.601   0.995  14.117  1.9378  0.2966 -2.6842
 9142SOL    HW238886   3.730   1.036  14.144 -0.7858  1.0533  0.1048
 9143SOL     OW38887   0.633   4.528   2.119  0.2462  0.0368  0.5808
 9143SOL    HW138888   0.728   4.539   2.127  0.3361  0.9987 -2.1229
 9143SOL    HW238889   0.631   4.457   2.055 -1.8739  1.3234 -0.7397
 9144SOL     OW38890   4.546   3.346   3.074  0.2174 -0.2682  0.6661
 9144SOL    HW138891   4.575   3.436   3.090 -2.6495  0.3819  2.1519
 9144SOL    HW238892   4.608   3.291   3.123 -0.7164 -4.4142 -2.7706
 9145SOL     OW38893   0.942   3.755  14.600 -0.2225 -0.4633 -0.1350
 9145SOL    HW138894   0.982   3.842  14.595  1.8508 -1.4944 -1.6239
 9145SOL    HW238895   0.928   3.750  14.695  2.6822  0.4319  0.3465
 9146SOL     OW38896   4.458   1.970   4.709 -0.2166  0.1188 -0.4860
 9146SOL    HW138897   4.390   1.964   4.777  0.1777  2.7751  0.1118
 9146SOL    HW238898   4.491   1.880   4.708  0.9784  0.5695 -0.7674
 9147SOL     OW38899   2.074   0.885   4.042 -0.7271  0.8989  0.0427
 9147SOL    HW138900   2.079   0.878   3.946  2.3135 -0.9124  0.3277
 9147SOL    HW238901   1.997   0.830   4.060  0.2601 -0.6051 -0.2772
 9148SOL     OW38902   0.149   2.439   8.648 -0.0106  0.4667  0.3721
 9148SOL    HW138903   0.100   2.357   8.650 -0.1781  0.5276 -0.7866
 9148SOL    HW238904   0.183   2.452   8.736  0.1563  0.0709  0.3646
 9149SOL     OW38905   3.817   3.127   9.913  0.0944  0.6834  0.3474
 9149SOL    HW138906   3.852   3.215   9.898 -1.4192  1.5773  2.1034
 9149SOL    HW238907   3.873   3.079   9.974 -1.2950 -0.7572  0.4716
 9150SOL     OW38908   1.355   1.576   8.673  0.4673 -0.0012  0.0564
 9150SOL    HW138909   1.299   1.519   8.725  2.6841 -1.8242  0.4455
 9150SOL    HW238910   1.344   1.663   8.713  0.2208 -0.0081  0.0061
 9151SOL     OW38911   0.093   3.362   6.117 -0.9397  0.1289  0.4244
 9151SOL    HW138912   0.119   3.419   6.045 -1.7035 -0.9740 -0.7184
 9151SOL    HW238913   0.179   3.333   6.149 -1.1163 -0.7732  0.0843
 9152SOL     OW38914   0.479   3.633   1.441 -0.0335 -0.0956 -0.6605
 9152SOL    HW138915   0.542   3.658   1.373  1.0626  0.6908  0.6361
 9152SOL    HW238916   0.445   3.718   1.470  0.3187 -0.4792  0.8801
 9153SOL     OW38917   1.499   2.849   8.083 -0.3146 -0.2615 -0.3689
 9153SOL    HW138918   1.501   2.835   8.177  1.1747  3.5288  0.1816
 9153SOL    HW238919   1.559   2.919   8.058 -0.1400 -0.6953 -1.1778
 9154SOL     OW38920   4.038   4.554   7.358  0.1261  0.9924  0.2350
 9154SOL    HW138921   4.100   4.610   7.403  0.4641 -0.0990  1.1288
 9154SOL    HW238922   3.964   4.556   7.419 -0.3333 -1.2323 -0.2298
 9155SOL     OW38923   2.405   2.165  14.321  0.4109 -0.2509  0.2076
 9155SOL    HW138924   2.366   2.251  14.333  0.6885 -0.0988  0.0266
 9155SOL    HW238925   2.476   2.163  14.385 -0.0938 -1.7336  0.7295
 9156SOL     OW38926   2.201   0.028   6.553 -0.0658  0.1097 -0.3060
 9156SOL    HW138927   2.160   0.075   6.480 -0.8033 -0.4430 -0.2445
 9156SOL    HW238928   2.237   0.104   6.599  0.5557 -1.2513  1.4130
 9157SOL     OW38929   2.148   1.102  13.400  0.1958 -0.2849  0.1624
 9157SOL    HW138930   2.097   1.049  13.339  1.0985 -1.4120  0.4128
 9157SOL    HW238931   2.120   1.192  13.383 -0.4800 -0.3361  1.0114
 9158SOL     OW38932   3.756   0.270   3.724 -0.1790 -0.5879  0.3535
 9158SOL    HW138933   3.825   0.205   3.717  2.4871  2.2124  0.8998
 9158SOL    HW238934   3.797   0.352   3.701 -1.1115  0.1888  1.4420
 9159SOL     OW38935   0.496   3.470   6.424 -0.0413  0.2100  0.1351
 9159SOL    HW138936   0.503   3.560   6.393 -0.2934 -0.3007 -1.4576
 9159SOL    HW238937   0.533   3.421   6.350  0.1607 -0.3480  0.6072
 9160SOL     OW38938   4.247   1.669  12.821 -0.1954 -0.3133 -0.1180
 9160SOL    HW138939   4.289   1.705  12.743 -1.3490  0.8413 -0.2051
 9160SOL    HW238940   4.252   1.575  12.803  1.0522 -0.5366  1.3831
 9161SOL     OW38941   4.300   2.653  14.382  0.3809  0.0671  0.2128
 9161SOL    HW138942   4.262   2.566  14.394 -0.5037  0.3245 -0.7216
 9161SOL    HW238943   4.244   2.710  14.434 -0.4752  0.2019 -0.8603
 9162SOL     OW38944   4.465   1.290   8.535  0.2494 -0.4426  0.0744
 9162SOL    HW138945   4.445   1.384   8.544  2.9753  0.1424 -0.0614
 9162SOL    HW238946   4.560   1.294   8.548  0.3477  0.1956 -0.8674
 9163SOL     OW38947   2.391   2.274  12.414  0.1200  0.0051 -0.4323
 9163SOL    HW138948   2.449   2.213  12.369  0.1774 -0.3260  0.0848
 9163SOL    HW238949   2.448   2.348  12.434 -0.4819  0.4832 -0.4800
 9164SOL     OW38950   1.499   1.485  16.501  0.3785  0.3386  0.0178
 9164SOL    HW138951   1.465   1.540  16.431  0.1703  1.2335  0.8263
 9164SOL    HW238952   1.523   1.545  16.571  0.8998 -1.1908  1.1689
 9165SOL     OW38953   0.586   1.137   9.623  0.3992  0.1073  0.2974
 9165SOL    HW138954   0.614   1.137   9.715  0.7204 -1.1413  0.2058
 9165SOL    HW238955   0.609   1.046   9.606 -1.6319 -0.1057 -1.1744
 9166SOL     OW38956   4.346   1.302   2.544 -0.1139 -0.2945  0.0671
 9166SOL    HW138957   4.391   1.226   2.507 -0.5185  0.0497 -1.1168
 9166SOL    HW238958   4.421   1.360   2.536 -0.0177 -0.5915 -1.1554
 9167SOL     OW38959   0.195   1.905   4.281  0.0237  0.4546  0.1727
 9167SOL    HW138960   0.125   1.958   4.244 -0.4571  0.1901  0.6943
 9167SOL    HW238961   0.155   1.879   4.364  1.8938 -0.4952  0.7867
 9168SOL     OW38962   2.684   1.257   7.447  0.4748  0.3673  0.0944
 9168SOL    HW138963   2.718   1.172   7.418 -2.1583 -0.3435 -0.8806
 9168SOL    HW238964   2.721   1.327   7.394  1.4171  1.5541  2.2903
 9169SOL     OW38965   2.823   2.342   8.835 -0.0006 -0.2496  0.1666
 9169SOL    HW138966   2.757   2.408   8.858  0.1776 -0.4197  1.2034
 9169SOL    HW238967   2.897   2.370   8.888  0.2513 -0.1646 -0.2352
 9170SOL     OW38968   1.877   2.271  12.560 -0.0753 -0.0728  0.0255
 9170SOL    HW138969   1.809   2.255  12.625 -0.2975  0.7153 -0.0117
 9170SOL    HW238970   1.834   2.328  12.496 -1.5401  1.0808  2.0407
 9171SOL     OW38971   0.223   2.704   5.206  0.3468  0.2073 -0.0970
 9171SOL    HW138972   0.250   2.617   5.178  1.6912 -0.3038  2.7788
 9171SOL    HW238973   0.284   2.773   5.178  0.3753 -0.8171 -2.5596
 9172SOL     OW38974   0.448   2.921  15.498 -0.3018  0.8802 -0.4481
 9172SOL    HW138975   0.503   2.879  15.433 -1.8300 -0.4798 -0.8734
 9172SOL    HW238976   0.501   2.907  15.577  0.0062 -0.0495 -0.8205
 9173SOL     OW38977   2.392   4.126   3.826  0.2571  0.5507  0.2824
 9173SOL    HW138978   2.452   4.193   3.859  1.7654 -0.7632  0.1900
 9173SOL    HW238979   2.315   4.175   3.796 -0.0520  0.2343  0.5482
 9174SOL     OW38980   2.920   3.883  11.888  0.1957  0.0655 -0.0242
 9174SOL    HW138981   2.984   3.946  11.919  2.6779 -2.4485 -0.0673
 9174SOL    HW238982   2.934   3.896  11.794 -1.4878  0.9743 -0.1682
 9175SOL     OW38983   1.265   3.526   2.601 -0.1236 -0.0410  0.1060
 9175SOL    HW138984   1.267   3.493   2.691  0.0309 -0.2758  0.0169
 9175SOL    HW238985   1.326   3.600   2.604 -1.2038  0.8437 -0.1250
 9176SOL     OW38986   0.263   3.119   3.915  0.0354 -0.5430 -1.3042
 9176SOL    HW138987   0.333   3.076   3.963 -0.2294  1.1502  0.6138
 9176SOL    HW238988   0.184   3.099   3.964  1.0328 -0.3628  0.3669
 9177SOL     OW38989   3.527   2.516   7.670  0.3109 -0.3439  0.0550
 9177SOL    HW138990   3.517   2.467   7.588 -0.3034 -0.6854  0.3379
 9177SOL    HW238991   3.621   2.524   7.655  0.6500 -2.0292  1.1994
 9178SOL     OW38992   1.720   1.790   8.168  0.4047  0.6293  0.8566
 9178SOL    HW138993   1.677   1.866   8.129  1.1169  0.7579  0.3312
 9178SOL    HW238994   1.678   1.782   8.254 -0.6897 -2.6026  0.0392
 9179SOL     OW38995   0.854   2.063   6.420 -0.4076 -0.3064  1.0050
 9179SOL    HW138996   0.778   2.109   6.383 -0.9403 -1.6500  0.4152
 9179SOL    HW238997   0.912   2.139   6.417 -0.7950 -0.0998 -1.2232
 9180SOL     OW38998   4.187   0.686   5.122 -0.4847  0.0112 -0.3335
 9180SOL    HW138999   4.151   0.698   5.210  1.1984  2.1845  0.0532
 9180SOL    HW239000   4.179   0.591   5.131 -2.6856  0.1766 -0.6340
 9181SOL     OW39001   2.778   2.832   5.737  0.4729  0.7263 -0.2224
 9181SOL    HW139002   2.716   2.810   5.667 -0.5299  1.2257  0.5224
 9181SOL    HW239003   2.760   2.751   5.784 -3.9671  1.5272 -0.5845
 9182SOL     OW39004   0.818   2.519   1.119  0.5189  0.3822 -0.0585
 9182SOL    HW139005   0.731   2.498   1.154  0.0689 -1.0150 -1.9894
 9182SOL    HW239006   0.870   2.515   1.199 -0.0173  0.4307  0.2911
 9183SOL     OW39007   2.671   3.994  17.524  0.5203  0.0180  0.1100
 9183SOL    HW139008   2.617   4.016  17.599  1.1274  0.2600  0.4741
 9183SOL    HW239009   2.601   3.958  17.469  1.7119 -2.5136  0.2593
 9184SOL     OW39010   4.054   4.673   2.373  0.0094  0.0084  0.4210
 9184SOL    HW139011   3.981   4.681   2.434  0.0329 -1.4963  0.6467
 9184SOL    HW239012   4.062   0.046   2.369 -0.3578  0.0691  1.1222
 9185SOL     OW39013   0.627   4.507   8.920  0.1356  0.3217 -0.3985
 9185SOL    HW139014   0.624   4.483   8.828  2.5094 -1.1874 -0.0824
 9185SOL    HW239015   0.626   4.602   8.911  1.1123  0.3579 -0.1129
 9186SOL     OW39016   2.669   2.207  16.736 -0.4417  0.0091 -0.1957
 9186SOL    HW139017   2.737   2.247  16.681  0.4785  0.3611  1.1944
 9186SOL    HW239018   2.599   2.256  16.693 -0.3069  0.2048 -0.1945
 9187SOL     OW39019   1.580   3.681   7.907 -0.3092 -0.2035  0.1197
 9187SOL    HW139020   1.515   3.712   7.844 -0.4218  1.5471  1.0832
 9187SOL    HW239021   1.526   3.612   7.945  1.5194 -2.0186 -0.6010
 9188SOL     OW39022   1.948   4.334   1.281 -0.8235  0.8311 -0.2068
 9188SOL    HW139023   1.966   4.365   1.192 -2.9431  1.6464 -0.3529
 9188SOL    HW239024   1.891   4.407   1.306  0.4036  2.3441 -1.7547
 9189SOL     OW39025   4.566   1.295   1.344  0.0477  0.9800  0.2363
 9189SOL    HW139026   4.474   1.270   1.353 -0.5003  2.4064 -1.3042
 9189SOL    HW239027   4.559   1.388   1.365 -0.1453  1.3518 -1.4868
 9190SOL     OW39028   4.503   3.310   7.141 -0.1744  0.0170  0.3371
 9190SOL    HW139029   4.579   3.351   7.184 -0.9129  1.8649 -0.0975
 9190SOL    HW239030   4.520   3.216   7.143 -1.4600 -0.2271 -0.6345
 9191SOL     OW39031   3.708   1.040  10.521  0.2054 -0.1951 -0.4093
 9191SOL    HW139032   3.738   0.964  10.570  0.5027 -0.1393 -0.5089
 9191SOL    HW239033   3.637   1.081  10.571  0.2858 -1.2616  0.5935
 9192SOL     OW39034   4.573   4.615   0.981  0.1178 -0.0028  0.1574
 9192SOL    HW139035   4.481   4.590   0.990  0.3298 -1.2462 -1.0863
 9192SOL    HW239036   4.610   4.610   1.069  0.4061 -3.5766 -0.1409
 9193SOL     OW39037   1.889   0.553   2.667  0.2994 -0.6869  0.8474
 9193SOL    HW139038   1.941   0.572   2.589 -1.1355 -1.3352 -0.2646
 9193SOL    HW239039   1.919   0.626   2.722 -0.5721  0.3798 -0.1040
 9194SOL     OW39040   3.058   2.933   6.571  0.2749  0.6192 -0.1466
 9194SOL    HW139041   2.980   2.920   6.624 -0.3032 -1.6097 -1.5415
 9194SOL    HW239042   3.107   2.859   6.608 -0.4884  0.3549  0.3367
 9195SOL     OW39043   3.168   3.404   6.450  0.1502  0.1979  0.6580
 9195SOL    HW139044   3.264   3.401   6.454  0.2275 -2.9963 -3.5310
 9195SOL    HW239045   3.151   3.334   6.513  1.3044  1.3218  2.2237
 9196SOL     OW39046   3.853   1.496  10.513 -0.2575  0.0684 -0.0666
 9196SOL    HW139047   3.799   1.513  10.436  0.5951  2.0133 -0.2525
 9196SOL    HW239048   3.905   1.576  10.504 -1.2583  0.9081  1.5260
 9197SOL     OW39049   1.491   2.265   4.237 -0.1020 -0.0859  0.0441
 9197SOL    HW139050   1.494   2.195   4.171 -0.3169  1.9653 -2.1371
 9197SOL    HW239051   1.425   2.231   4.298 -0.7333  1.5917  0.2855
 9198SOL     OW39052   0.578   1.584   4.911  0.0236 -0.0963 -0.4724
 9198SOL    HW139053   0.645   1.560   4.846  0.3140  0.6725 -0.4565
 9198SOL    HW239054   0.513   1.515   4.905 -0.6062  0.4977 -0.5117
 9199SOL     OW39055   2.216   2.416   4.444  0.1888  0.2164  0.2015
 9199SOL    HW139056   2.252   2.479   4.381 -0.7565 -0.4813 -1.0322
 9199SOL    HW239057   2.132   2.389   4.408 -0.5161  2.0675  0.4480
 9200SOL     OW39058   0.362   3.422   4.056 -0.5912 -0.9011  0.6577
 9200SOL    HW139059   0.423   3.368   4.006 -1.4764 -1.6129  0.3442
 9200SOL    HW239060   0.363   3.484   3.983 -2.4349 -0.7993  0.7253
 9201SOL     OW39061   4.438   4.572   2.238 -0.7181  0.4268 -0.6052
 9201SOL    HW139062   4.361   4.515   2.244  0.1194 -0.6034  0.4889
 9201SOL    HW239063   4.423   4.628   2.314  1.7749  1.0773 -0.5919
 9202SOL     OW39064   1.874   4.596  13.727 -0.3571 -0.1100  0.1803
 9202SOL    HW139065   1.793   4.639  13.753  0.3353  0.8496  0.7618
 9202SOL    HW239066   1.848   4.553  13.645  0.1585  3.6925 -1.9906
 9203SOL     OW39067   0.743   3.467   4.473 -0.5702 -0.5480 -0.0096
 9203SOL    HW139068   0.791   3.412   4.411 -0.8580 -1.7693  0.8362
 9203SOL    HW239069   0.791   3.451   4.555 -1.0977  0.8936  0.5761
 9204SOL     OW39070   2.515   3.074   7.494 -0.2062 -0.3226 -0.4191
 9204SOL    HW139071   2.578   3.021   7.447 -0.7866 -1.5520  0.1975
 9204SOL    HW239072   2.504   3.028   7.577 -1.3281  1.6175  0.5040
 9205SOL     OW39073   1.155   4.175   1.607 -0.1702  0.2971  0.1767
 9205SOL    HW139074   1.166   4.224   1.688 -1.1817  2.3920 -0.9187
 9205SOL    HW239075   1.236   4.206   1.566  1.0664 -3.9447 -0.5189
 9206SOL     OW39076   1.775   1.683   9.942 -0.0918  0.1499 -0.2399
 9206SOL    HW139077   1.726   1.722   9.869  0.3936 -0.6986 -1.0156
 9206SOL    HW239078   1.703   1.622   9.959 -0.1648  0.1105 -0.6766
 9207SOL     OW39079   3.137   1.672   8.782  0.0476 -0.1098  0.0480
 9207SOL    HW139080   3.227   1.644   8.767  0.0041 -0.4271  0.3959
 9207SOL    HW239081   3.123   1.694   8.690 -1.4323 -0.5036  0.1759
 9208SOL     OW39082   3.484   2.783   5.979  0.7555 -0.0672 -0.1381
 9208SOL    HW139083   3.468   2.700   6.023  0.1325  0.8453  1.3686
 9208SOL    HW239084   3.560   2.757   5.927 -0.6045 -1.8478 -1.2043
 9209SOL     OW39085   0.668   2.923   8.067  0.0743  0.8881  0.3019
 9209SOL    HW139086   0.600   2.990   8.068 -0.7714  0.0539 -0.4039
 9209SOL    HW239087   0.635   2.867   7.996  0.8584  2.6192 -1.4202
 9210SOL     OW39088   2.180   0.728   4.857 -0.0945  0.1524  0.0094
 9210SOL    HW139089   2.135   0.745   4.775 -1.3155 -1.5941  0.3025
 9210SOL    HW239090   2.166   0.634   4.870 -1.3585  0.3423 -0.0092
 9211SOL     OW39091   2.992   2.644   4.959  0.6516  0.2915 -0.0587
 9211SOL    HW139092   2.912   2.696   4.962  1.0776  0.9036  0.5241
 9211SOL    HW239093   2.958   2.555   4.944 -0.8001  0.6758  0.9440
 9212SOL     OW39094   2.442   0.259   5.737  0.0620 -0.3222 -0.8108
 9212SOL    HW139095   2.495   0.334   5.763  1.8873 -2.2507  1.0470
 9212SOL    HW239096   2.360   0.303   5.715  0.1454  0.6221  0.7130
 9213SOL     OW39097   0.231   3.268   8.058 -0.5466  0.0434 -0.5250
 9213SOL    HW139098   0.283   3.324   8.115  0.3691 -0.9909 -0.3540
 9213SOL    HW239099   0.152   3.245   8.108  1.4413  0.6084  2.8553
 9214SOL     OW39100   2.838   4.569   0.001 -0.2471  0.0146 -0.1458
 9214SOL    HW139101   2.909   4.505   0.005  0.7509  1.3640  3.5211
 9214SOL    HW239102   2.882   4.649   0.030  0.7901 -1.0565  1.1822
 9215SOL     OW39103   1.571   2.067   5.734 -0.0306 -0.4093 -0.3179
 9215SOL    HW139104   1.620   2.054   5.653  0.7857  0.2929  0.0679
 9215SOL    HW239105   1.496   2.008   5.725  0.7318 -1.3607 -0.4268
 9216SOL     OW39106   1.399   4.056   8.735  0.3089  0.1227  0.7884
 9216SOL    HW139107   1.401   4.126   8.800  0.1351 -0.7109  1.6982
 9216SOL    HW239108   1.432   3.982   8.786 -1.9580 -0.6219  1.1858
 9217SOL     OW39109   1.575   0.782   6.281 -0.1519  0.8998 -0.6181
 9217SOL    HW139110   1.531   0.834   6.348  0.2310 -1.1440  1.2093
 9217SOL    HW239111   1.660   0.826   6.279  0.2592  0.2670  2.2182
 9218SOL     OW39112   4.041   0.954   5.656  0.2300  0.1060 -0.4586
 9218SOL    HW139113   4.091   0.873   5.670 -1.8637 -1.2126 -0.6078
 9218SOL    HW239114   4.058   0.998   5.740  0.3243 -0.5409 -0.1385
 9219SOL     OW39115   4.013   1.044  13.443  0.0134 -0.1738 -0.3947
 9219SOL    HW139116   3.974   1.105  13.505  1.6761 -0.3504  0.8192
 9219SOL    HW239117   3.966   1.060  13.361 -0.8491  1.7201  0.4765
 9220SOL     OW39118   0.972   1.580   6.339 -0.6175  0.4034  0.3122
 9220SOL    HW139119   1.004   1.497   6.306 -0.5793  0.6102 -0.1659
 9220SOL    HW239120   1.025   1.653   6.308 -0.1736 -0.4503 -0.8876
 9221SOL     OW39121   2.841   3.545  13.632 -0.0995  0.2827 -0.5052
 9221SOL    HW139122   2.902   3.472  13.638 -2.5206 -1.7066 -0.2973
 9221SOL    HW239123   2.810   3.535  13.722 -0.0964 -0.2805 -0.5716
 9222SOL     OW39124   1.855   0.118   1.234  0.5652 -0.0289  0.6388
 9222SOL    HW139125   1.896   0.205   1.242  1.6609 -0.1563 -3.6824
 9222SOL    HW239126   1.800   0.143   1.160  2.2401  0.2145 -0.5381
 9223SOL     OW39127   4.016   1.441   7.030  0.3340  0.0842 -0.2888
 9223SOL    HW139128   4.095   1.475   6.988  0.2606  0.9951  0.2875
 9223SOL    HW239129   4.026   1.485   7.115  1.4798 -0.5720 -0.0766
 9224SOL     OW39130   0.160   4.423   9.352 -0.3473  0.0386 -0.5076
 9224SOL    HW139131   0.247   4.424   9.311  0.2544 -1.0991  0.7491
 9224SOL    HW239132   0.145   4.331   9.374  0.3092 -0.5743 -2.5972
 9225SOL     OW39133   3.951   2.386   6.814 -0.4586 -0.1128  0.1459
 9225SOL    HW139134   4.023   2.424   6.865 -0.0781 -1.9500  0.9914
 9225SOL    HW239135   3.882   2.394   6.879  1.9419  1.2637  2.5094
 9226SOL     OW39136   3.031   3.678   9.057 -0.2663 -0.1516 -0.0719
 9226SOL    HW139137   3.092   3.701   9.128 -1.6592 -2.2829  1.8100
 9226SOL    HW239138   2.959   3.741   9.061 -0.9796 -0.8331 -2.1397
 9227SOL     OW39139   2.897   0.703   7.124 -0.2050  0.0498 -0.1660
 9227SOL    HW139140   2.841   0.699   7.201 -0.4959 -0.0395 -0.3833
 9227SOL    HW239141   2.890   0.793   7.094  0.2504  0.2284  0.2602
 9228SOL     OW39142   4.223   3.123   1.712  0.2241 -0.1066  0.0512
 9228SOL    HW139143   4.316   3.117   1.692  0.2110  0.8806 -0.2950
 9228SOL    HW239144   4.198   3.207   1.673 -0.2693  0.8896  2.5694
 9229SOL     OW39145   1.625   0.461   8.632 -0.1857 -0.1501 -0.4212
 9229SOL    HW139146   1.561   0.509   8.580 -1.1360  1.3292  2.1265
 9229SOL    HW239147   1.614   0.376   8.590  0.3087 -0.1590 -0.5352
 9230SOL     OW39148   1.533   1.544   3.703  0.7343 -0.3733 -0.6537
 9230SOL    HW139149   1.474   1.497   3.762  2.2573  0.2452  1.3711
 9230SOL    HW239150   1.530   1.634   3.736  1.4079 -0.2655 -0.8798
 9231SOL     OW39151   1.080   2.655  14.580  0.4074  0.1695 -0.1368
 9231SOL    HW139152   1.090   2.577  14.635 -0.6068  1.1215  1.3869
 9231SOL    HW239153   1.156   2.645  14.522 -0.4452  3.7410 -1.8463
 9232SOL     OW39154   1.283   4.274   2.656 -0.0780  0.1911 -0.0481
 9232SOL    HW139155   1.285   4.221   2.576  1.6902  1.2451 -0.7205
 9232SOL    HW239156   1.354   4.230   2.703  0.6343 -0.0138 -1.3155
 9233SOL     OW39157   2.154   0.083   4.222 -0.1379  0.2529  0.3010
 9233SOL    HW139158   2.181   4.719   4.190  2.4915  0.8601  0.8938
 9233SOL    HW239159   2.219   0.087   4.292  0.7579  0.6267 -0.5645
 9234SOL     OW39160   3.419   0.891   3.961  0.2323 -0.2070  0.0166
 9234SOL    HW139161   3.328   0.921   3.967 -0.1919 -1.6107  0.4892
 9234SOL    HW239162   3.430   0.897   3.866 -0.4262 -0.8698 -0.0949
 9235SOL     OW39163   4.185   0.906   6.950 -0.3224  0.2410  0.1338
 9235SOL    HW139164   4.106   0.924   6.900 -0.7272  0.5541  0.8791
 9235SOL    HW239165   4.160   0.825   6.995 -1.0311 -1.0257 -2.5695
 9236SOL     OW39166   4.068   1.014   3.098 -0.0164  0.2417 -0.0595
 9236SOL    HW139167   4.013   0.969   3.035  0.8648  2.5615 -2.4996
 9236SOL    HW239168   4.072   1.101   3.057 -0.2055  0.3579  0.1711
 9237SOL     OW39169   3.661   1.698   8.353  0.8310  0.4681  0.2233
 9237SOL    HW139170   3.674   1.768   8.289  1.2445  0.5656  0.4114
 9237SOL    HW239171   3.575   1.669   8.325  0.8479 -1.5344  2.2414
 9238SOL     OW39172   2.151   4.328   3.996  0.0882 -0.1001  0.2799
 9238SOL    HW139173   2.151   4.342   3.901  0.2472  0.5014  0.3717
 9238SOL    HW239174   2.235   4.285   4.013  0.0511 -0.0331  0.6231
 9239SOL     OW39175   2.355   2.881   3.693 -0.5002 -0.1544 -0.5560
 9239SOL    HW139176   2.432   2.907   3.642  0.0809 -1.5189 -0.3570
 9239SOL    HW239177   2.351   2.955   3.754  0.2436 -1.6989  1.3545
 9240SOL     OW39178   4.352   4.116   5.653  0.0780  0.0360 -0.3509
 9240SOL    HW139179   4.425   4.055   5.645  2.3257  2.5576  1.2471
 9240SOL    HW239180   4.364   4.159   5.738 -1.8747 -1.2112  0.5597
 9241SOL     OW39181   4.336   1.395   1.947 -0.1737  0.5067 -0.2100
 9241SOL    HW139182   4.245   1.417   1.926  0.3905  1.2806 -1.8271
 9241SOL    HW239183   4.339   1.330   1.877  0.3330 -0.3744  0.6326
 9242SOL     OW39184   0.527   0.110   3.799 -0.2379 -0.5768  0.3347
 9242SOL    HW139185   0.515   0.205   3.797  0.2962 -0.5225 -0.4227
 9242SOL    HW239186   0.619   0.102   3.774  0.0016 -0.1569  1.0491
 9243SOL     OW39187   3.683   4.663  14.965  0.0441 -0.0059 -0.3759
 9243SOL    HW139188   3.619   0.009  14.985  0.6029  0.1882  0.7521
 9243SOL    HW239189   3.685   4.615  15.048  0.2075  0.7345  0.0454
 9244SOL     OW39190   3.629   1.505   4.103  0.3308  0.3423 -0.6434
 9244SOL    HW139191   3.633   1.553   4.020  2.2914  0.8435 -0.2525
 9244SOL    HW239192   3.549   1.453   4.097 -0.8592  2.0025  0.6097
 9245SOL     OW39193   3.486   2.720   3.416 -0.8481  0.2809 -0.2139
 9245SOL    HW139194   3.481   2.645   3.475  0.7361 -0.1773 -0.6484
 9245SOL    HW239195   3.396   2.717   3.384  0.0766 -1.1539 -2.6637
 9246SOL     OW39196   3.128   2.208   8.662 -0.1307 -0.6307  0.1394
 9246SOL    HW139197   3.048   2.259   8.654  0.5863  0.4593 -0.2243
 9246SOL    HW239198   3.189   2.269   8.619 -0.0825 -0.6362  0.1995
 9247SOL     OW39199   4.676   4.063   7.312 -0.2880 -0.5375  0.2679
 9247SOL    HW139200   4.669   3.990   7.374  0.4860 -0.9963 -0.1805
 9247SOL    HW239201   0.006   4.028   7.239  0.8820  2.1131 -0.1654
 9248SOL     OW39202   0.020   3.077   8.588 -0.3599  0.0672 -0.3686
 9248SOL    HW139203   4.674   3.104   8.526 -0.9554 -1.2251 -0.2565
 9248SOL    HW239204   0.045   2.989   8.560 -1.7326 -0.8278  1.3084
 9249SOL     OW39205   2.351   4.158   2.726 -0.0614 -0.3681 -0.1438
 9249SOL    HW139206   2.281   4.215   2.760  1.5268  0.6414  1.4446
 9249SOL    HW239207   2.337   4.075   2.771  2.2007 -0.3377  0.6104
 9250SOL     OW39208   1.096   0.698   1.614 -0.3209  0.0244  0.3164
 9250SOL    HW139209   1.110   0.720   1.522  1.2510 -0.2546  0.4996
 9250SOL    HW239210   1.185   0.712   1.644 -0.8887  2.6706  0.7710
 9251SOL     OW39211   4.007   2.724   4.159 -0.2983 -0.4043 -0.0325
 9251SOL    HW139212   3.962   2.640   4.146  0.6256 -1.1337  1.5056
 9251SOL    HW239213   4.096   2.687   4.163 -1.3214 -2.8294  0.4223
 9252SOL     OW39214   1.451   4.375   4.437  0.1380 -0.1645  0.1989
 9252SOL    HW139215   1.515   4.324   4.387  0.8615  0.4952  0.4467
 9252SOL    HW239216   1.380   4.313   4.425 -0.4748  0.1325  2.4489
 9253SOL     OW39217   2.177   3.972   3.974  0.1624  0.3077  0.3239
 9253SOL    HW139218   2.108   3.966   3.909  0.5265  0.2822 -0.0569
 9253SOL    HW239219   2.257   3.978   3.922 -0.6054 -0.7935 -0.9724
 9254SOL     OW39220   3.256   2.699   3.266  0.2099 -0.2394 -0.4953
 9254SOL    HW139221   3.167   2.695   3.232 -0.1365 -1.5560  0.5869
 9254SOL    HW239222   3.273   2.608   3.291 -1.4816 -0.3362  0.2918
 9255SOL     OW39223   0.673   2.441  14.975 -0.4636  0.1735 -0.4862
 9255SOL    HW139224   0.643   2.523  14.936  0.0682  0.5155 -0.1836
 9255SOL    HW239225   0.674   2.387  14.896  1.4187  1.7448 -1.5532
 9256SOL     OW39226   1.777   2.688  14.941  0.1665 -0.4527 -0.2867
 9256SOL    HW139227   1.858   2.731  14.969 -0.1163  1.5231 -2.5632
 9256SOL    HW239228   1.709   2.754  14.957  0.3859  0.2735 -2.4456
 9257SOL     OW39229   3.504   4.625   6.512 -0.2826  0.0630  0.3162
 9257SOL    HW139230   3.532   4.539   6.543  1.0085 -0.1428 -1.3970
 9257SOL    HW239231   3.433   4.587   6.460 -1.2590 -1.4055  2.7305
 9258SOL     OW39232   4.085   3.050   9.409 -0.2990  0.0666 -0.5504
 9258SOL    HW139233   4.029   3.060   9.332 -0.0074  0.5965 -0.6878
 9258SOL    HW239234   4.028   3.075   9.481 -1.7526  2.2001 -2.4253
 9259SOL     OW39235   1.796   3.082   8.283  0.2580 -0.4301 -0.1678
 9259SOL    HW139236   1.870   3.055   8.229  0.7020  1.5864 -0.5505
 9259SOL    HW239237   1.733   3.073   8.212  0.2991  2.9293 -0.6002
 9260SOL     OW39238   4.443   2.080   3.314 -0.0858 -0.2361  0.1722
 9260SOL    HW139239   4.467   1.989   3.298  0.4878  0.4377 -2.9010
 9260SOL    HW239240   4.379   2.081   3.385 -2.1940 -0.1274 -1.7152
 9261SOL     OW39241   0.422   0.979   0.778  0.3005  0.3479 -0.0094
 9261SOL    HW139242   0.429   1.025   0.694  0.2385  0.3311 -0.0241
 9261SOL    HW239243   0.504   1.013   0.813  0.5476  0.7161 -0.9264
 9262SOL     OW39244   1.898   1.882   0.365  0.0340  0.4219  0.0437
 9262SOL    HW139245   1.839   1.913   0.297 -1.2979 -2.1313  0.0103
 9262SOL    HW239246   1.834   1.869   0.435 -1.7959  0.5039 -1.6118
 9263SOL     OW39247   4.118   2.236   7.997 -0.4730  0.3310  0.1187
 9263SOL    HW139248   4.203   2.262   7.963 -0.8831  2.7745  0.9501
 9263SOL    HW239249   4.071   2.319   7.984  0.1700  0.7285  0.3084
 9264SOL     OW39250   1.669   2.610   4.407 -0.7506  0.0902 -0.2456
 9264SOL    HW139251   1.702   2.572   4.325  1.8705  0.9574  0.4177
 9264SOL    HW239252   1.720   2.690   4.395 -1.6232  0.7235  0.2410
 9265SOL     OW39253   2.267   1.083   6.477  0.3987 -0.3036  0.1380
 9265SOL    HW139254   2.231   1.171   6.474  0.9918 -0.1691 -2.7522
 9265SOL    HW239255   2.273   1.072   6.382  1.0191  1.2558 -0.0023
 9266SOL     OW39256   2.188   3.930  12.080  0.5995  0.4331  0.3045
 9266SOL    HW139257   2.211   4.022  12.092  0.5080  0.5770 -0.5766
 9266SOL    HW239258   2.216   3.890  12.162  3.2744 -2.8061 -2.1512
 9267SOL     OW39259   1.671   0.959   3.532 -0.3276  0.2193  0.5034
 9267SOL    HW139260   1.753   0.995   3.498 -1.8981  3.2400 -0.1083
 9267SOL    HW239261   1.713   0.882   3.570  1.4526  0.4966 -0.9162
 9268SOL     OW39262   3.386   3.419   7.941 -0.0344  0.7946 -0.1389
 9268SOL    HW139263   3.397   3.508   7.907  2.9652  1.0794  1.6419
 9268SOL    HW239264   3.467   3.379   7.909 -0.1237  0.1807  0.4059
 9269SOL     OW39265   4.645   1.113   2.849 -0.3541  0.1536 -0.0252
 9269SOL    HW139266   4.587   1.046   2.812 -0.9361  0.0342  1.1004
 9269SOL    HW239267   4.597   1.163   2.915 -1.6611  1.1603 -1.7313
 9270SOL     OW39268   4.013   0.389   0.048  0.6791 -0.6743 -0.5630
 9270SOL    HW139269   4.098   0.346   0.058  0.3218 -2.4150 -5.0290
 9270SOL    HW239270   3.963   0.308   0.036  2.0243 -1.9803  2.4295
 9271SOL     OW39271   2.330   3.051   3.007  0.3824  0.3969  0.0273
 9271SOL    HW139272   2.397   3.110   2.972  2.0278 -1.9200 -0.7452
 9271SOL    HW239273   2.257   3.081   2.953  1.3446  0.9550 -0.9708
 9272SOL     OW39274   3.652   1.015  17.639  0.3068  0.0722  0.1058
 9272SOL    HW139275   3.588   1.018  17.568 -1.0323  1.2176  1.3973
 9272SOL    HW239276   3.603   0.954   0.003  1.6872  0.6929  1.9771
 9273SOL     OW39277   3.751   3.250   3.362 -0.5755 -0.1547  0.0305
 9273SOL    HW139278   3.711   3.178   3.411 -1.2465 -0.0488 -0.3508
 9273SOL    HW239279   3.674   3.306   3.351  0.6277  1.6448  0.7814
 9274SOL     OW39280   4.529   4.034   4.182 -0.0041  0.3012  0.4312
 9274SOL    HW139281   4.541   3.986   4.264  2.5363 -0.8165 -0.5934
 9274SOL    HW239282   4.450   3.989   4.150  0.5020  1.0457 -1.8889
 9275SOL     OW39283   4.183   2.781  15.545 -0.2674 -0.1504 -0.8980
 9275SOL    HW139284   4.146   2.803  15.460 -0.9954  0.2716 -0.4660
 9275SOL    HW239285   4.128   2.798  15.622  0.6508 -0.8977 -0.0784
 9276SOL     OW39286   2.037   1.614  12.508  0.4507  0.1115  0.0029
 9276SOL    HW139287   2.045   1.575  12.421 -2.5066  3.0574 -1.6302
 9276SOL    HW239288   2.125   1.597  12.539  0.3169 -0.7936 -0.1191
 9277SOL     OW39289   2.845   2.110   6.366 -0.0529  0.4389 -0.1611
 9277SOL    HW139290   2.845   2.178   6.433 -1.9744 -0.6039  0.8884
 9277SOL    HW239291   2.937   2.082   6.368 -0.6927 -1.8825 -2.3725
 9278SOL     OW39292   1.562   4.499   2.549 -0.1705  0.2521 -0.0525
 9278SOL    HW139293   1.653   4.517   2.527  0.0815  0.0412  0.8469
 9278SOL    HW239294   1.532   4.589   2.541  0.3360  0.6558  3.0103
 9279SOL     OW39295   3.208   2.996   3.201  0.5978  0.5526  0.1969
 9279SOL    HW139296   3.127   2.946   3.211  1.1092 -0.2438  0.3919
 9279SOL    HW239297   3.274   2.927   3.207 -0.9785 -1.0489 -1.1988
 9280SOL     OW39298   0.729   3.320   3.424  0.7736  0.4997  0.6783
 9280SOL    HW139299   0.697   3.349   3.338 -0.9178 -1.4648  0.6461
 9280SOL    HW239300   0.813   3.365   3.432  1.6196 -1.3278  1.9556
 9281SOL     OW39301   0.849   1.564   5.353 -0.1309 -0.9296 -0.2987
 9281SOL    HW139302   0.901   1.492   5.317  2.1595  0.8392 -0.4582
 9281SOL    HW239303   0.819   1.599   5.269  0.1717 -1.5789 -0.6726
 9282SOL     OW39304   4.551   2.726   3.155  0.6524 -0.9101 -0.6958
 9282SOL    HW139305   4.487   2.777   3.205 -0.3144 -1.9274 -0.9038
 9282SOL    HW239306   4.616   2.706   3.222  0.5094  1.1479  0.0569
 9283SOL     OW39307   1.222   0.969   7.059 -0.0958  0.0776  0.1719
 9283SOL    HW139308   1.235   1.028   7.134 -1.5928  2.3197 -1.3343
 9283SOL    HW239309   1.251   1.026   6.988  0.6592  0.5715  0.8684
 9284SOL     OW39310   1.595   3.470   4.734 -0.3268 -0.2417  0.5624
 9284SOL    HW139311   1.554   3.426   4.660 -1.4597  0.1370  0.9613
 9284SOL    HW239312   1.587   3.561   4.706 -4.6546  0.0689  2.8442
 9285SOL     OW39313   1.257   0.372  16.209  0.1714  0.3973  0.0485
 9285SOL    HW139314   1.201   0.450  16.208  1.1655  1.1328  2.2189
 9285SOL    HW239315   1.195   0.300  16.225  0.5546  0.3123  1.0975
 9286SOL     OW39316   2.608   0.926   3.066 -0.4478 -0.6451 -0.6120
 9286SOL    HW139317   2.613   0.987   2.992 -0.6939  1.6215  1.2209
 9286SOL    HW239318   2.520   0.890   3.069 -0.5390 -0.1708  2.7447
 9287SOL     OW39319   1.626   3.249   1.200  0.3503  0.1647 -0.2482
 9287SOL    HW139320   1.601   3.177   1.259  0.7233 -0.0668 -0.3723
 9287SOL    HW239321   1.721   3.240   1.198  0.2771 -0.5608 -0.6395
 9288SOL     OW39322   4.510   1.341   5.622 -0.1538 -0.6575  0.1571
 9288SOL    HW139323   4.594   1.303   5.595  0.7881  0.7502  1.0838
 9288SOL    HW239324   4.442   1.275   5.607 -1.0503  0.3474 -0.1309
 9289SOL     OW39325   4.382   1.201   8.293 -0.1753  0.5576  0.2388
 9289SOL    HW139326   4.336   1.267   8.241  0.4382  0.3595 -0.5472
 9289SOL    HW239327   4.382   1.236   8.382  0.8975  1.4728 -0.1220
 9290SOL     OW39328   0.872   1.244  17.041  0.0511 -0.3235  0.3226
 9290SOL    HW139329   0.910   1.304  17.105  3.7768 -1.7208 -0.5659
 9290SOL    HW239330   0.909   1.268  16.956 -2.6851 -0.5180 -0.9333
 9291SOL     OW39331   1.464   4.310  13.850 -0.4290  0.1849  0.2938
 9291SOL    HW139332   1.465   4.232  13.793 -0.3653  1.7034 -1.7954
 9291SOL    HW239333   1.534   4.355  13.802 -0.5827 -0.2041 -0.2916
 9292SOL     OW39334   0.178   1.905   6.706  0.0762  0.3984  0.2960
 9292SOL    HW139335   0.089   1.871   6.699  0.6520 -0.9112 -0.5236
 9292SOL    HW239336   0.187   1.965   6.632 -3.1824  0.2000 -0.2670
 9293SOL     OW39337   0.048   3.941   2.688 -0.0551 -0.2317 -0.3231
 9293SOL    HW139338   0.088   3.864   2.648  0.8373  0.8539 -1.5070
 9293SOL    HW239339   0.087   4.005   2.627 -0.0964 -0.0719 -0.1822
 9294SOL     OW39340   2.755   4.291   5.634  0.2274 -0.2302 -0.1721
 9294SOL    HW139341   2.718   4.357   5.575  0.9672 -2.1131 -2.7305
 9294SOL    HW239342   2.788   4.336   5.712  0.7162 -1.6660  0.4588
 9295SOL     OW39343   0.703   4.066   3.455  0.2991  0.7194 -0.1653
 9295SOL    HW139344   0.642   4.137   3.438 -0.0627  0.3771 -0.3028
 9295SOL    HW239345   0.784   4.118   3.452  0.2285  0.8864  1.1513
 9296SOL     OW39346   0.576   3.576   8.155 -0.0459  0.5723 -0.6026
 9296SOL    HW139347   0.654   3.544   8.201 -0.5548  0.7417  0.3932
 9296SOL    HW239348   0.605   3.535   8.074 -0.0994  0.2977 -0.4842
 9297SOL     OW39349   2.014   0.830   5.609  0.1899 -0.4719  0.0714
 9297SOL    HW139350   1.994   0.738   5.595  0.5376 -0.2349 -2.0897
 9297SOL    HW239351   2.086   0.845   5.548  1.5864 -0.9795  1.6058
 9298SOL     OW39352   2.613   2.847   4.167  0.4087  0.7409  0.2289
 9298SOL    HW139353   2.546   2.901   4.208 -0.1473  0.1124  0.1438
 9298SOL    HW239354   2.642   2.814   4.252 -2.4871  1.7559  1.6176
 9299SOL     OW39355   0.783   4.485   7.357  0.0837  0.3021 -0.4267
 9299SOL    HW139356   0.694   4.476   7.325  0.0732  1.6363 -0.7679
 9299SOL    HW239357   0.814   4.565   7.314  2.0125 -0.5903 -0.6971
 9300SOL     OW39358   0.939   4.693   7.156 -0.0432  0.2773  0.7345
 9300SOL    HW139359   0.980   0.022   7.226  3.1876  0.3406 -1.2097
 9300SOL    HW239360   0.952   0.029   7.080 -1.6617  0.1588  0.3627
 9301SOL     OW39361   4.061   1.431   6.117 -0.0774  0.5053  0.5038
 9301SOL    HW139362   4.142   1.481   6.126  0.7247 -0.6215 -0.5328
 9301SOL    HW239363   4.026   1.479   6.043 -1.1968 -3.9859 -1.8785
 9302SOL     OW39364   2.784   0.019   2.816  0.1864 -0.4282  0.0716
 9302SOL    HW139365   2.778   0.056   2.728  1.1613  1.2135  0.6926
 9302SOL    HW239366   2.808   4.652   2.796 -0.2623 -0.9518  1.8180
 9303SOL     OW39367   3.630   1.646   1.332  0.1965  0.0104 -0.5284
 9303SOL    HW139368   3.556   1.630   1.391  1.2334 -1.7492  0.3097
 9303SOL    HW239369   3.633   1.555   1.304 -0.7683 -0.3312  0.4413
 9304SOL     OW39370   2.235   3.303   6.452 -0.5342 -0.0803 -0.0781
 9304SOL    HW139371   2.223   3.393   6.483 -1.6555 -0.6138  1.0161
 9304SOL    HW239372   2.203   3.255   6.528 -0.4099  0.7164  0.4763
 9305SOL     OW39373   2.018   0.430   2.178  0.0045  0.1108  0.6317
 9305SOL    HW139374   2.088   0.376   2.214  0.4167 -0.5770 -1.2203
 9305SOL    HW239375   2.073   0.497   2.136 -0.4876 -1.4459 -2.4739
 9306SOL     OW39376   4.346   2.348   2.999 -0.1856 -0.7475 -0.0282
 9306SOL    HW139377   4.333   2.263   3.042  1.4808 -1.0746 -0.1624
 9306SOL    HW239378   4.261   2.381   2.971  0.3837  0.1702 -0.6848
 9307SOL     OW39379   1.070   1.438  15.591  0.4480 -0.0423 -0.6164
 9307SOL    HW139380   1.063   1.351  15.552  2.6683  0.2469 -1.6574
 9307SOL    HW239381   1.069   1.489  15.510 -0.3038  0.4413 -0.3091
 9308SOL     OW39382   1.536   2.775  10.509  0.4861  0.3176 -0.2168
 9308SOL    HW139383   1.459   2.719  10.517  1.2980 -0.7087  0.3562
 9308SOL    HW239384   1.601   2.715  10.474  0.0750 -0.6981  0.7408
 9309SOL     OW39385   2.562   4.017   8.514 -0.2269 -0.3990  0.0085
 9309SOL    HW139386   2.504   4.094   8.516 -0.1006 -0.3549  2.0995
 9309SOL    HW239387   2.640   4.057   8.552 -0.7310  0.3189  0.3028
 9310SOL     OW39388   3.284   2.278   6.351  0.2178 -0.0669 -0.1755
 9310SOL    HW139389   3.363   2.333   6.351 -0.1722  0.5031  2.0290
 9310SOL    HW239390   3.260   2.273   6.444  1.1057  1.4335  0.1399
 9311SOL     OW39391   1.932   4.364  13.844 -0.1253  0.3433 -0.6220
 9311SOL    HW139392   2.025   4.356  13.827 -0.1082 -0.5774 -0.0618
 9311SOL    HW239393   1.905   4.428  13.777  0.7418 -0.0651 -1.3581
 9312SOL     OW39394   2.501   2.424   5.118  0.1429 -0.5934 -0.0104
 9312SOL    HW139395   2.424   2.382   5.157  1.3525 -0.9408  2.0347
 9312SOL    HW239396   2.562   2.399   5.187  0.5848 -0.7346 -0.4575
 9313SOL     OW39397   0.572   4.198   9.974  0.2096 -0.3789 -0.2219
 9313SOL    HW139398   0.608   4.156  10.052  0.0658  0.7393  0.4437
 9313SOL    HW239399   0.612   4.285   9.973 -1.1768  0.2355 -1.4743
 9314SOL     OW39400   1.873   2.870   2.749 -0.0349 -0.3191 -0.5552
 9314SOL    HW139401   1.828   2.833   2.673  0.3641  1.0466 -1.4610
 9314SOL    HW239402   1.839   2.806   2.811  1.3561  0.7343  1.2735
 9315SOL     OW39403   2.167   2.647  12.374 -0.6581 -0.0193  0.2502
 9315SOL    HW139404   2.174   2.674  12.282  1.7832  1.3297  0.8250
 9315SOL    HW239405   2.246   2.697  12.397 -1.0131 -0.1695  1.7662
 9316SOL     OW39406   0.107   0.745   1.234 -0.7594 -0.2572 -0.9074
 9316SOL    HW139407   0.100   0.694   1.314  0.1220 -0.2429 -0.8234
 9316SOL    HW239408   0.081   0.832   1.262 -0.7821 -0.1479 -1.2627
 9317SOL     OW39409   0.728   0.670  14.762  0.0548  0.2864  0.1523
 9317SOL    HW139410   0.736   0.618  14.682 -0.9103  2.0617 -1.0925
 9317SOL    HW239411   0.750   0.599  14.822 -1.8837  0.1130  0.6515
 9318SOL     OW39412   2.272   4.471   6.813 -0.0101 -0.1750  0.3591
 9318SOL    HW139413   2.194   4.464   6.758 -1.7586  2.8880  2.4304
 9318SOL    HW239414   2.270   4.559   6.851  1.9257  0.7454 -1.6863
 9319SOL     OW39415   0.089   2.460   2.277 -0.5508  0.4889  0.1238
 9319SOL    HW139416   0.165   2.428   2.228 -1.0682  0.8001 -0.8877
 9319SOL    HW239417   0.053   2.377   2.306  0.5347  0.4533  1.3535
 9320SOL     OW39418   4.371   3.878  10.376  0.1782 -0.6329 -0.3389
 9320SOL    HW139419   4.343   3.970  10.380  1.9071 -0.1039 -0.1096
 9320SOL    HW239420   4.350   3.859  10.285  2.8293  0.8893 -1.2984
 9321SOL     OW39421   0.817   2.393  14.679  0.0488  0.3748 -0.0470
 9321SOL    HW139422   0.732   2.380  14.636  0.7444  0.1288 -1.3519
 9321SOL    HW239423   0.887   2.381  14.614 -0.6731 -2.0675 -0.3629
 9322SOL     OW39424   4.329   2.272  16.682 -0.6329  0.4443 -0.1851
 9322SOL    HW139425   4.241   2.269  16.645 -0.0837 -3.4525 -1.1246
 9322SOL    HW239426   4.371   2.226  16.610  0.0682  1.0772 -0.1791
 9323SOL     OW39427   1.659   0.165   2.724  0.2154 -0.2826  0.6625
 9323SOL    HW139428   1.706   0.224   2.782  1.2012 -0.7394  0.3260
 9323SOL    HW239429   1.680   0.204   2.639 -0.6798 -0.0787  0.5334
 9324SOL     OW39430   3.425   3.720   9.024 -0.6089 -0.4657  0.1650
 9324SOL    HW139431   3.405   3.712   9.117  3.1733 -2.4469  0.8180
 9324SOL    HW239432   3.359   3.785   8.998 -1.0688 -1.1693 -0.4067
 9325SOL     OW39433   4.124   0.452   4.166 -0.8741 -0.2601 -0.1620
 9325SOL    HW139434   4.106   0.546   4.167 -1.2661 -0.3198 -1.0080
 9325SOL    HW239435   4.113   0.435   4.072  1.5182  2.2050 -0.8885
 9326SOL     OW39436   4.681   1.555   3.770 -0.0482 -0.2642 -0.2634
 9326SOL    HW139437   0.007   1.500   3.832 -1.2176  0.8462  1.6627
 9326SOL    HW239438   4.705   1.508   3.690 -0.8731 -1.2067  0.0421
 9327SOL     OW39439   0.405   1.170  11.907  0.0603 -0.2567  0.0527
 9327SOL    HW139440   0.370   1.084  11.883  2.8807 -1.2781 -0.5279
 9327SOL    HW239441   0.498   1.149  11.916 -0.1079 -2.6677 -3.9102
 9328SOL     OW39442   2.246   0.895   6.145 -0.0506 -0.1908  0.4385
 9328SOL    HW139443   2.327   0.922   6.188 -0.2373  0.2997  0.4808
 9328SOL    HW239444   2.198   0.975   6.165 -1.3954 -0.5989 -1.1063
 9329SOL     OW39445   1.799   3.159  17.241 -0.7432 -0.1796  0.3402
 9329SOL    HW139446   1.769   3.192  17.157 -2.4415 -1.1392  0.5863
 9329SOL    HW239447   1.866   3.099  17.208  0.4658  0.8885  0.8085
 9330SOL     OW39448   3.580   2.662   0.606  0.1843  0.8131 -0.3118
 9330SOL    HW139449   3.505   2.605   0.624  0.4580  0.7642  0.6857
 9330SOL    HW239450   3.573   2.691   0.515  0.1319 -0.7723 -0.8003
 9331SOL     OW39451   4.208   2.169   5.206  0.1386  0.2216 -0.3732
 9331SOL    HW139452   4.251   2.107   5.265 -0.9580  1.3591  1.6544
 9331SOL    HW239453   4.280   2.165   5.144 -1.7022 -0.2693 -2.4772
 9332SOL     OW39454   1.837   1.543  10.325 -0.0663 -0.2424 -0.1715
 9332SOL    HW139455   1.892   1.598  10.381 -0.8339 -1.3035  1.6451
 9332SOL    HW239456   1.874   1.556  10.238  2.0280 -2.3274  0.3908
 9333SOL     OW39457   1.274   0.548   0.972 -0.4808 -0.2631  0.3063
 9333SOL    HW139458   1.358   0.515   0.939 -0.1350 -1.0577  2.0137
 9333SOL    HW239459   1.267   0.505   1.057 -0.7263 -1.6426 -0.4172
 9334SOL     OW39460   2.302   1.341   5.114  0.1272 -0.6871 -0.1365
 9334SOL    HW139461   2.343   1.265   5.156  2.7263  0.7035 -0.1206
 9334SOL    HW239462   2.341   1.411   5.167 -0.8457 -0.7692  0.6859
 9335SOL     OW39463   1.351   0.072   1.588  0.4601  0.0013  0.1840
 9335SOL    HW139464   1.333   0.043   1.678  0.9654 -1.0874 -0.0618
 9335SOL    HW239465   1.353   0.165   1.611  1.2438 -0.2063  1.0014
 9336SOL     OW39466   3.979   3.191   7.625 -0.3333  0.1932  0.5536
 9336SOL    HW139467   4.043   3.121   7.637 -0.3447 -0.1811 -1.5046
 9336SOL    HW239468   3.993   3.254   7.695 -0.1823  0.4551  0.2853
 9337SOL     OW39469   0.728   3.964  14.344  0.4922 -0.7833  0.4982
 9337SOL    HW139470   0.754   3.978  14.435  0.6902  1.3166  0.1296
 9337SOL    HW239471   0.815   3.959  14.305  0.3033  1.4848 -0.2428
 9338SOL     OW39472   2.597   1.219   1.420 -0.2283 -0.2508 -0.0137
 9338SOL    HW139473   2.598   1.256   1.332  0.0560  0.7720  0.4228
 9338SOL    HW239474   2.505   1.195   1.435 -0.5920  0.0751 -1.6189
 9339SOL     OW39475   1.082   0.222  13.862  0.1142 -0.2739 -0.0100
 9339SOL    HW139476   1.112   0.252  13.776  0.6009 -0.8091 -0.0251
 9339SOL    HW239477   1.064   0.301  13.914 -1.3682  0.5398 -1.7448
 9340SOL     OW39478   1.063   1.713   0.159 -0.0487  0.0345  0.6783
 9340SOL    HW139479   1.020   1.774   0.100  0.3834 -0.6315 -0.3226
 9340SOL    HW239480   0.985   1.697   0.213 -0.4960 -0.3677 -0.0887
 9341SOL     OW39481   4.000   2.371   7.098  0.1453 -0.3840  0.0664
 9341SOL    HW139482   3.924   2.342   7.047 -0.0637  2.6978 -1.4231
 9341SOL    HW239483   3.956   2.445   7.141  0.0686  0.4351 -1.4198
 9342SOL     OW39484   2.629   2.991   7.055  0.0582  0.7450 -0.0332
 9342SOL    HW139485   2.665   2.944   7.130 -1.4448 -0.0830  0.1894
 9342SOL    HW239486   2.568   2.933   7.009  0.4771  0.2954 -0.0265
 9343SOL     OW39487   1.972   3.622   2.259  0.8293  0.2276  0.0919
 9343SOL    HW139488   1.949   3.556   2.193  2.0648 -1.1308  1.0250
 9343SOL    HW239489   2.024   3.565   2.315 -0.4719  0.3482  1.4064
 9344SOL     OW39490   1.744   0.460   1.075  0.2717 -0.7789 -0.1452
 9344SOL    HW139491   1.795   0.510   1.011 -0.0126  1.8017  1.6517
 9344SOL    HW239492   1.811   0.438   1.140  2.2942  2.5731 -1.0465
 9345SOL     OW39493   2.305   1.746   7.424  0.2564  0.2190 -0.2952
 9345SOL    HW139494   2.286   1.661   7.462  1.6327  0.3309  0.6664
 9345SOL    HW239495   2.336   1.718   7.337  0.4450  1.6651 -0.6956
 9346SOL     OW39496   2.268   4.405   2.399  0.4267  0.1949 -0.1159
 9346SOL    HW139497   2.304   4.318   2.417 -0.4316  0.4540  2.8445
 9346SOL    HW239498   2.179   4.388   2.369 -0.1844  2.1393  0.5819
 9347SOL     OW39499   1.018   2.600  15.188 -1.2532 -0.8320 -0.0389
 9347SOL    HW139500   0.990   2.581  15.099 -0.3410  1.9967 -0.9157
 9347SOL    HW239501   0.954   2.545  15.235 -1.0853 -0.3621  0.7489
 9348SOL     OW39502   2.838   0.739   8.273  0.2444  0.6571  0.1091
 9348SOL    HW139503   2.933   0.751   8.275  0.1442  2.0564 -3.8842
 9348SOL    HW239504   2.830   0.645   8.292  0.4341  0.8623  1.2254
 9349SOL     OW39505   0.856   1.089  11.503  0.4527  0.1286 -0.4951
 9349SOL    HW139506   0.793   1.149  11.463 -0.2482 -1.3216 -1.5626
 9349SOL    HW239507   0.938   1.107  11.457  1.0451  0.2456  0.5949
 9350SOL     OW39508   1.291   2.833  11.612  0.4567 -0.2832  0.5005
 9350SOL    HW139509   1.308   2.876  11.696  2.6947  0.2222 -0.1991
 9350SOL    HW239510   1.223   2.772  11.642 -1.7673  0.7609 -2.4546
 9351SOL     OW39511   2.592   2.504   6.066 -0.6883 -0.0814 -0.0398
 9351SOL    HW139512   2.617   2.581   6.118 -1.3998  0.6500 -0.7855
 9351SOL    HW239513   2.623   2.429   6.116 -1.1479 -0.0526  0.2814
 9352SOL     OW39514   3.056   1.979   9.436  0.3739 -0.1636 -0.2786
 9352SOL    HW139515   3.026   1.907   9.492 -2.2726  1.2713  0.1704
 9352SOL    HW239516   3.124   2.019   9.489  0.8930  1.2671 -2.0173
 9353SOL     OW39517   4.208   2.884  10.210  0.1926  0.2384 -0.1834
 9353SOL    HW139518   4.234   2.886  10.302  1.4605 -0.9257 -0.5209
 9353SOL    HW239519   4.233   2.794  10.188 -2.0945  0.2136 -2.6929
 9354SOL     OW39520   4.434   4.469   7.132  0.1266  0.1240 -0.0961
 9354SOL    HW139521   4.472   4.555   7.114  0.7041 -0.2106 -0.4518
 9354SOL    HW239522   4.486   4.413   7.075 -1.9094 -1.7161 -0.1835
 9355SOL     OW39523   2.057   2.759   9.867 -0.2193 -0.3288  0.0790
 9355SOL    HW139524   2.005   2.767   9.947 -2.9557  0.4440 -1.7571
 9355SOL    HW239525   2.147   2.734   9.888 -0.5414 -1.3181  0.2912
 9356SOL     OW39526   3.940   0.837  15.558  0.4375 -0.1235  0.2064
 9356SOL    HW139527   3.943   0.915  15.503 -1.2141  2.3065  3.5637
 9356SOL    HW239528   4.028   0.836  15.597  1.0432  2.3865 -1.0911
 9357SOL     OW39529   2.802   2.588   7.952  0.2060 -1.0748  0.2659
 9357SOL    HW139530   2.814   2.600   8.047 -1.1362 -2.4586  0.5923
 9357SOL    HW239531   2.712   2.617   7.941  0.3058 -0.4336  1.0846
 9358SOL     OW39532   0.397   1.518   7.408 -0.0107  0.2300 -0.5230
 9358SOL    HW139533   0.341   1.593   7.426 -1.6840 -1.4007  1.0450
 9358SOL    HW239534   0.339   1.454   7.367 -0.8027  1.3660 -1.1674
 9359SOL     OW39535   1.923   3.790   9.309  0.5592 -0.5997 -0.3048
 9359SOL    HW139536   1.836   3.816   9.341  0.7403 -0.5307  0.1316
 9359SOL    HW239537   1.944   3.728   9.380  3.3270  1.5530  0.7292
 9360SOL     OW39538   2.499   1.479  17.077 -0.1155 -0.6139  0.1647
 9360SOL    HW139539   2.417   1.429  17.079  0.7635 -1.9858  2.0320
 9360SOL    HW239540   2.469   1.566  17.048 -0.3476 -1.3631 -1.8267
 9361SOL     OW39541   0.855   0.322  11.690  0.2461  0.1651  0.3622
 9361SOL    HW139542   0.834   0.414  11.707 -0.2294  0.0421  0.4297
 9361SOL    HW239543   0.769   0.282  11.677 -0.5570  1.7708  0.7591
 9362SOL     OW39544   4.233   2.582   0.020 -0.1014 -0.6848 -0.6472
 9362SOL    HW139545   4.180   2.650   0.061  0.9714  0.1586 -0.6889
 9362SOL    HW239546   4.192   2.579  17.626 -0.7258  1.2830 -0.4217
 9363SOL     OW39547   2.259   4.659   3.524 -0.5332 -0.3683  0.4212
 9363SOL    HW139548   2.321   4.693   3.589 -1.0238  2.9651 -0.8677
 9363SOL    HW239549   2.315   4.587   3.496 -1.8252 -1.5466  0.8145
 9364SOL     OW39550   2.961   3.255   5.380 -0.6075 -0.2066  0.1904
 9364SOL    HW139551   2.962   3.167   5.417 -0.3998  0.4906  1.8341
 9364SOL    HW239552   3.053   3.276   5.395 -0.8860 -0.0008  1.6056
 9365SOL     OW39553   4.318   4.136  10.343  0.1584  0.2240  0.0464
 9365SOL    HW139554   4.387   4.197  10.317 -0.3339  0.3210 -1.0024
 9365SOL    HW239555   4.269   4.193  10.402  0.5401  2.6594 -1.9900
 9366SOL     OW39556   4.544   1.719  11.434  0.0736 -0.1730  0.0619
 9366SOL    HW139557   4.542   1.650  11.368 -0.3066 -0.3855  0.2941
 9366SOL    HW239558   4.575   1.671  11.510 -1.9612 -1.4056  0.1215
 9367SOL     OW39559   2.822   1.995   6.766  0.2637  0.0539  0.0291
 9367SOL    HW139560   2.787   1.999   6.855 -2.7485 -0.3030 -1.1460
 9367SOL    HW239561   2.885   2.066   6.772  3.2435 -2.7417  1.6567
 9368SOL     OW39562   3.397   1.237   3.883  0.6985  0.5675  0.5858
 9368SOL    HW139563   3.310   1.216   3.847 -0.0750  6.0353 -0.6448
 9368SOL    HW239564   3.366   1.252   3.972 -2.1062 -1.9813  0.0557
 9369SOL     OW39565   3.583   1.838   1.126 -0.0993 -0.0312 -0.1812
 9369SOL    HW139566   3.583   1.753   1.083  2.6354  0.6799 -1.6254
 9369SOL    HW239567   3.627   1.811   1.207  1.5475  0.0262 -1.0383
 9370SOL     OW39568   4.023   2.193   2.510  0.0602  0.1943 -0.0588
 9370SOL    HW139569   3.997   2.220   2.422  0.8275  2.5776  0.4381
 9370SOL    HW239570   4.104   2.153   2.478  0.3431 -0.0812  0.9876
 9371SOL     OW39571   4.220   1.745   5.703  0.3320  0.5511 -0.4230
 9371SOL    HW139572   4.285   1.675   5.698 -0.6864 -0.5585  1.6180
 9371SOL    HW239573   4.146   1.707   5.657  0.1230  1.9461 -1.2142
 9372SOL     OW39574   1.434   0.579  13.034 -0.0202  0.1687 -0.1012
 9372SOL    HW139575   1.484   0.554  12.957  0.5110 -0.9624  0.6151
 9372SOL    HW239576   1.373   0.644  13.000  2.0159  1.9692 -0.3094
 9373SOL     OW39577   0.996   4.519   5.276  0.4651  0.3965  0.2327
 9373SOL    HW139578   0.940   4.574   5.330  0.8958 -0.9304  2.0144
 9373SOL    HW239579   1.017   4.572   5.199 -2.1076  2.1892  0.7756
 9374SOL     OW39580   1.477   4.605   4.109  0.2342  0.2371  0.3570
 9374SOL    HW139581   1.565   4.599   4.072 -0.2328  2.4633 -1.1306
 9374SOL    HW239582   1.490   4.629   4.200 -1.8563 -0.9410  0.9780
 9375SOL     OW39583   4.558   4.633   9.039  0.2798 -0.1043  0.4363
 9375SOL    HW139584   4.512   4.573   8.979  0.7429  0.5183 -0.5465
 9375SOL    HW239585   4.524   4.721   9.024 -0.8928 -0.7534 -0.7707
 9376SOL     OW39586   1.519   1.515   2.693  0.6205 -0.5765  0.0954
 9376SOL    HW139587   1.521   1.440   2.752 -1.6786 -1.3633 -0.8537
 9376SOL    HW239588   1.550   1.588   2.747  0.7893 -1.3756  1.0560
 9377SOL     OW39589   2.553   3.185   8.023  0.2547  0.0367  0.1429
 9377SOL    HW139590   2.489   3.226   8.081  1.6430 -0.7883  2.2644
 9377SOL    HW239591   2.517   3.211   7.938  0.0171 -0.0195  0.2271
 9378SOL     OW39592   1.413   0.083   6.171  0.3649  0.1777 -0.0669
 9378SOL    HW139593   1.322   0.111   6.165  0.4829  1.0574  2.2140
 9378SOL    HW239594   1.395   4.713   6.155  3.8170 -0.7091  1.2340
 9379SOL     OW39595   2.617   1.143   6.768 -0.1819  0.1037 -0.0761
 9379SOL    HW139596   2.630   1.067   6.824  1.7031  1.4595  1.3549
 9379SOL    HW239597   2.646   1.215   6.824 -2.3496 -0.1327  1.3467
 9380SOL     OW39598   2.726   2.833  13.183  0.5213  0.1527 -0.1802
 9380SOL    HW139599   2.753   2.859  13.271 -3.5575  0.6844  0.9099
 9380SOL    HW239600   2.792   2.871  13.127 -0.6518  1.1329 -0.8839
 9381SOL     OW39601   2.133   3.515  12.215 -0.4079 -0.3367 -0.4736
 9381SOL    HW139602   2.039   3.536  12.209  0.2580  2.5747 -0.2515
 9381SOL    HW239603   2.134   3.459  12.293  0.6971 -0.0834 -0.3100
 9382SOL     OW39604   3.063   0.155   8.202  0.5565 -0.1874  0.3511
 9382SOL    HW139605   3.110   0.210   8.265  0.9821  2.0308 -1.9293
 9382SOL    HW239606   3.000   0.214   8.162 -0.5332 -0.8462  1.1050
 9383SOL     OW39607   1.883   3.342   3.144  0.1307 -0.4163 -0.1022
 9383SOL    HW139608   1.892   3.301   3.058  1.3046  0.0965 -0.2283
 9383SOL    HW239609   1.793   3.374   3.141  1.2502  2.7148 -0.5401
 9384SOL     OW39610   3.859   3.364   9.542  0.0593  0.2176  1.1345
 9384SOL    HW139611   3.940   3.314   9.529  1.2058  2.0707  1.2256
 9384SOL    HW239612   3.796   3.316   9.488  2.5676 -1.3768 -0.3664
 9385SOL     OW39613   3.429   2.367   5.706  0.4876 -0.4057  0.9801
 9385SOL    HW139614   3.521   2.367   5.679  1.3133 -2.2951  3.8184
 9385SOL    HW239615   3.393   2.430   5.643  2.3463 -0.3777 -0.0532
 9386SOL     OW39616   2.308   1.370   8.816  0.3515 -0.3363  0.4639
 9386SOL    HW139617   2.342   1.281   8.807 -1.4033 -1.1928  2.4324
 9386SOL    HW239618   2.384   1.421   8.843  1.1055 -0.1864 -1.9142
 9387SOL     OW39619   0.926   3.133   6.435  0.2626 -0.1059 -0.0502
 9387SOL    HW139620   0.886   3.200   6.489  3.5524  0.3149  1.8538
 9387SOL    HW239621   0.925   3.167   6.346  1.1145  0.5813  0.2017
 9388SOL     OW39622   3.824   3.110  17.302 -0.0604  0.0294  0.5848
 9388SOL    HW139623   3.737   3.090  17.266  0.0302  0.2097  0.2684
 9388SOL    HW239624   3.821   3.202  17.328  0.9977  0.5806 -1.2073
 9389SOL     OW39625   1.951   4.230   0.132  0.0434  0.2713  0.2642
 9389SOL    HW139626   1.925   4.239   0.040 -3.3027 -1.4674  1.0174
 9389SOL    HW239627   1.869   4.252   0.176 -1.4118  0.4902 -2.5860
 9390SOL     OW39628   2.076   3.265   4.910 -0.5805 -0.2718  0.0860
 9390SOL    HW139629   2.083   3.308   4.995 -0.2326 -1.4365  0.6576
 9390SOL    HW239630   2.007   3.319   4.873 -0.4550 -0.1343  0.0543
 9391SOL     OW39631   2.501   3.873   8.755 -0.0099 -0.2606  0.1254
 9391SOL    HW139632   2.550   3.914   8.684  1.6723  0.4432  1.6854
 9391SOL    HW239633   2.408   3.875   8.732  0.2355 -0.0526 -0.8618
 9392SOL     OW39634   3.545   1.939   6.609 -0.2694 -0.1310 -0.6184
 9392SOL    HW139635   3.625   1.886   6.609 -1.1415 -1.4614 -1.8820
 9392SOL    HW239636   3.566   2.022   6.568  1.1783  0.1628  0.7100
 9393SOL     OW39637   1.751   1.529   9.531  0.9024  0.3628  0.3561
 9393SOL    HW139638   1.840   1.534   9.566  0.0485 -0.0642  2.6262
 9393SOL    HW239639   1.705   1.606   9.564 -2.8960 -1.5884 -0.3405
 9394SOL     OW39640   1.912   4.375   3.353 -0.2693  0.1673  0.4289
 9394SOL    HW139641   1.990   4.352   3.404 -2.3735  0.9225  4.0162
 9394SOL    HW239642   1.850   4.406   3.419 -1.7788 -0.8703 -0.5275
 9395SOL     OW39643   0.113   1.461   1.347  0.2656  0.3452  0.1420
 9395SOL    HW139644   0.023   1.491   1.337  0.3369  0.7419  0.6816
 9395SOL    HW239645   0.143   1.430   1.261 -0.8344 -0.2863 -0.0011
 9396SOL     OW39646   3.002   0.867  10.413 -0.3412 -0.0371 -0.2670
 9396SOL    HW139647   3.069   0.799  10.416 -1.2569 -0.9532 -0.6077
 9396SOL    HW239648   3.058   0.943  10.430  0.1393 -0.9193  2.0944
 9397SOL     OW39649   3.183   2.738   3.998 -0.1768 -0.2779 -0.1054
 9397SOL    HW139650   3.125   2.665   3.976 -2.4975  1.5682 -0.0704
 9397SOL    HW239651   3.271   2.701   3.992  1.0583  2.6829 -0.3760
 9398SOL     OW39652   1.852   4.445  15.233  0.2845 -0.2324  0.3381
 9398SOL    HW139653   1.848   4.540  15.229 -1.4602 -0.4585 -3.2557
 9398SOL    HW239654   1.780   4.424  15.174 -0.4337  1.6960  0.5561
 9399SOL     OW39655   4.389   3.725   3.840  0.0181  0.2682 -0.3048
 9399SOL    HW139656   4.342   3.733   3.757 -0.9677 -1.1105  0.1328
 9399SOL    HW239657   4.331   3.663   3.884  1.3005  0.1785  1.2473
 9400SOL     OW39658   2.354   1.591   4.370 -0.5385  0.4435  0.5012
 9400SOL    HW139659   2.359   1.535   4.448 -3.3271 -1.0602 -0.3902
 9400SOL    HW239660   2.434   1.643   4.376 -0.4763  0.4459 -0.4061
 9401SOL     OW39661   3.153   2.339   6.880  0.0803 -0.4735  0.0332
 9401SOL    HW139662   3.239   2.299   6.895  1.7296  1.9233 -2.9615
 9401SOL    HW239663   3.100   2.295   6.947  0.0770  0.7819  0.8401
 9402SOL     OW39664   0.005   1.006   1.059  0.3600  0.5737 -0.1883
 9402SOL    HW139665   4.657   1.068   1.040 -0.7256 -0.7399 -0.4981
 9402SOL    HW239666   0.073   1.028   0.996  0.1412  0.2822 -0.5299
 9403SOL     OW39667   4.460   0.331   1.841  0.5635 -0.2737  0.1008
 9403SOL    HW139668   4.477   0.307   1.932 -0.8769 -0.6585  0.2628
 9403SOL    HW239669   4.410   0.252   1.821  0.4419  0.2258 -1.5554
 9404SOL     OW39670   1.970   1.550  12.115  0.6377 -0.0349 -0.1399
 9404SOL    HW139671   1.966   1.646  12.110  1.0528 -0.0512 -0.7084
 9404SOL    HW239672   2.039   1.536  12.179  0.8798 -0.2600 -0.4550
 9405SOL     OW39673   1.343   1.433   3.439 -0.8548 -0.4823 -0.4154
 9405SOL    HW139674   1.323   1.359   3.496  2.2326  0.7643  2.3079
 9405SOL    HW239675   1.422   1.475   3.474 -0.4075 -2.2240  0.6363
 9406SOL     OW39676   2.277   4.226   0.282 -0.5759 -0.4317  0.3612
 9406SOL    HW139677   2.372   4.223   0.275 -0.5814  0.7532 -0.3031
 9406SOL    HW239678   2.271   4.315   0.317 -1.2117 -0.6918  0.8989
 9407SOL     OW39679   0.867   0.905   2.149  0.4616 -0.1870  0.4636
 9407SOL    HW139680   0.852   0.977   2.211  0.0772  2.1791 -2.3703
 9407SOL    HW239681   0.782   0.861   2.145 -0.6073  1.9127 -0.0664
 9408SOL     OW39682   3.261   1.712   4.905  0.2256  0.0886 -0.7719
 9408SOL    HW139683   3.321   1.752   4.967  1.3217 -0.0310 -1.7374
 9408SOL    HW239684   3.330   1.671   4.852 -1.4339 -1.2578 -1.9057
 9409SOL     OW39685   3.182   2.017   6.675  0.1575  0.7130  0.1836
 9409SOL    HW139686   3.153   1.930   6.648  0.5451  0.4093  0.7452
 9409SOL    HW239687   3.105   2.068   6.650 -1.9586 -1.4279  2.3213
 9410SOL     OW39688   1.196   3.442   5.304  0.0646  0.1448  0.3149
 9410SOL    HW139689   1.226   3.531   5.283 -1.2373  1.0630  2.2725
 9410SOL    HW239690   1.263   3.412   5.365  0.1026  1.8318  1.1213
 9411SOL     OW39691   2.856   2.257   2.401 -0.1587 -0.3482 -0.4735
 9411SOL    HW139692   2.938   2.246   2.450  0.2049  0.6523 -0.8589
 9411SOL    HW239693   2.786   2.220   2.454 -0.1300 -0.3624 -0.4456
 9412SOL     OW39694   3.816   0.220   3.204  0.1622 -0.4797 -0.2292
 9412SOL    HW139695   3.885   0.155   3.205 -0.9106 -1.6007  0.5361
 9412SOL    HW239696   3.764   0.200   3.281  0.1191  2.2129  0.4357
 9413SOL     OW39697   3.857   4.286   3.698 -0.4780 -0.1360 -0.1142
 9413SOL    HW139698   3.858   4.191   3.706  0.0176  0.0486  2.0863
 9413SOL    HW239699   3.767   4.311   3.719 -0.1807 -0.7602  1.9013
 9414SOL     OW39700   4.252   0.258  10.442  0.1165  0.0023 -0.0239
 9414SOL    HW139701   4.244   0.165  10.425 -0.2885 -0.6144  3.6302
 9414SOL    HW239702   4.318   0.265  10.510  0.0162 -1.8824  0.2646
 9415SOL     OW39703   0.178   2.684   3.952  0.4589  0.0938  0.2067
 9415SOL    HW139704   0.272   2.696   3.939  0.7556 -0.4629  1.7450
 9415SOL    HW239705   0.183   2.591   3.972  0.1631  0.2438  0.9871
 9416SOL     OW39706   1.501   1.393  11.854 -0.3946  0.5857 -0.2578
 9416SOL    HW139707   1.476   1.332  11.784 -0.2516 -0.9579  1.0380
 9416SOL    HW239708   1.561   1.330  11.892 -0.5493 -0.5722 -1.9573
 9417SOL     OW39709   2.776   1.862   3.599  0.6979  0.0513  0.0878
 9417SOL    HW139710   2.784   1.771   3.569  3.1152  1.1775 -2.6906
 9417SOL    HW239711   2.861   1.870   3.644  2.1382 -0.5752 -2.5116
 9418SOL     OW39712   2.930   2.533   7.173  0.0518 -0.0402  0.0515
 9418SOL    HW139713   2.946   2.440   7.161 -0.0248 -0.0106 -0.2647
 9418SOL    HW239714   2.845   2.524   7.216 -0.3193 -0.2645 -0.7406
 9419SOL     OW39715   1.141   3.385  16.717  0.3436 -0.0101  0.1719
 9419SOL    HW139716   1.068   3.447  16.710  0.4671  0.0841 -0.2556
 9419SOL    HW239717   1.174   3.410  16.631 -0.3676 -2.5388 -0.8376
 9420SOL     OW39718   4.444   2.884  14.535 -0.5433 -0.0351 -0.2696
 9420SOL    HW139719   4.361   2.846  14.563 -0.0183  0.5254  2.0823
 9420SOL    HW239720   4.421   2.914  14.447 -0.6719 -0.0783 -0.2507
 9421SOL     OW39721   2.429   2.520  15.164 -0.2301  0.2689 -0.0333
 9421SOL    HW139722   2.463   2.519  15.254 -0.1060  1.5170 -0.0696
 9421SOL    HW239723   2.361   2.585  15.179 -1.2472 -0.9803  0.8255
 9422SOL     OW39724   3.742   1.853   8.136 -0.5660 -0.1007  0.2468
 9422SOL    HW139725   3.661   1.870   8.088  0.1489 -0.6072 -1.1375
 9422SOL    HW239726   3.777   1.939   8.156  1.0812 -0.7822  0.2512
 9423SOL     OW39727   0.693   3.377   3.709  0.5116 -0.2678 -0.0780
 9423SOL    HW139728   0.770   3.434   3.709 -0.2186  0.7171 -0.5522
 9423SOL    HW239729   0.695   3.350   3.617 -0.1540 -2.1522  0.4436
 9424SOL     OW39730   3.765   2.149  12.813  0.1166 -0.8049  0.6415
 9424SOL    HW139731   3.799   2.231  12.777  2.1682 -1.5033  1.0119
 9424SOL    HW239732   3.677   2.147  12.774 -0.3800  0.3848  1.6843
 9425SOL     OW39733   0.649   2.981  11.131 -1.1074 -0.4752 -0.0788
 9425SOL    HW139734   0.651   2.902  11.184 -1.2576 -1.6772 -1.8779
 9425SOL    HW239735   0.584   3.027  11.186  0.5926  1.3196  0.4334
 9426SOL     OW39736   1.223   0.939  13.700  0.3527  0.8509 -0.4287
 9426SOL    HW139737   1.180   0.854  13.711  2.9108 -0.0457  2.6485
 9426SOL    HW239738   1.233   0.974  13.788 -0.5157 -0.1088  0.0457
 9427SOL     OW39739   4.293   4.321   2.013  0.1580 -0.1945  0.2029
 9427SOL    HW139740   4.256   4.400   2.054 -2.3132 -2.1209  1.7125
 9427SOL    HW239741   4.225   4.313   1.946  1.7525 -1.8708 -1.2067
 9428SOL     OW39742   4.377   4.297   5.214  0.1862  0.3400 -0.4146
 9428SOL    HW139743   4.401   4.206   5.232 -0.5884  0.2218  0.0035
 9428SOL    HW239744   4.323   4.305   5.293 -1.6126 -0.4185 -1.5714
 9429SOL     OW39745   0.275   4.347   1.884  0.1604  0.3364  0.3976
 9429SOL    HW139746   0.339   4.415   1.905  0.8227 -0.6881  1.7473
 9429SOL    HW239747   0.198   4.361   1.939  0.0957 -0.2085  0.4519
 9430SOL     OW39748   1.145   0.877   2.086  0.3779 -0.0533 -0.3106
 9430SOL    HW139749   1.167   0.970   2.078  0.9354 -0.0969  0.6776
 9430SOL    HW239750   1.050   0.878   2.072  0.3269 -2.1931 -0.0541
 9431SOL     OW39751   2.052   0.245  16.694 -0.1575 -0.3896 -0.2938
 9431SOL    HW139752   2.053   0.149  16.693  0.1294 -0.3996  1.3560
 9431SOL    HW239753   2.025   0.266  16.605 -3.2903 -0.4104  0.6427
 9432SOL     OW39754   2.222   0.261   7.739 -0.1944  0.1028 -0.1287
 9432SOL    HW139755   2.242   0.351   7.763  0.3009 -0.3929  1.3559
 9432SOL    HW239756   2.191   0.229   7.823  1.8332 -1.1318  0.1587
 9433SOL     OW39757   0.940   4.520   4.614  0.0235  0.1888 -0.0349
 9433SOL    HW139758   0.863   4.568   4.583 -0.1109  0.3816  0.6130
 9433SOL    HW239759   0.980   4.484   4.534  0.2278  0.3193  0.0071
 9434SOL     OW39760   4.397   3.508   0.844 -0.3580  0.2159 -0.4994
 9434SOL    HW139761   4.302   3.514   0.847 -0.2647  1.4527 -0.1929
 9434SOL    HW239762   4.431   3.559   0.917  0.0287  1.3833 -1.4967
 9435SOL     OW39763   3.997   2.904   8.879 -0.2473 -0.1213 -0.6967
 9435SOL    HW139764   4.024   2.894   8.970 -0.3702 -3.5311 -1.0376
 9435SOL    HW239765   3.925   2.967   8.892  1.3709  1.8104 -1.0672
 9436SOL     OW39766   4.496   1.179   6.419 -0.0497  0.5253  0.8099
 9436SOL    HW139767   4.521   1.156   6.509 -0.0683 -0.3088  0.6000
 9436SOL    HW239768   4.580   1.199   6.377 -0.0447 -1.2323 -0.0189
 9437SOL     OW39769   3.942   0.005   7.046  0.1509  0.4525 -0.2926
 9437SOL    HW139770   3.866   0.024   6.990 -0.5900  2.2423  1.3424
 9437SOL    HW239771   4.020   4.714   6.992  0.2095 -0.6611  0.0627
 9438SOL     OW39772   2.061   4.262   9.113  0.3266  0.1148 -0.1654
 9438SOL    HW139773   2.043   4.318   9.189  1.6983 -0.9820  0.9828
 9438SOL    HW239774   1.990   4.200   9.127  1.4480 -1.1458 -0.0022
 9439SOL     OW39775   1.520   3.868   4.926 -0.1394  0.0449 -0.1863
 9439SOL    HW139776   1.486   3.914   4.850 -0.6981  0.5233  0.3546
 9439SOL    HW239777   1.451   3.802   4.934  0.6989 -0.7865  0.2396
 9440SOL     OW39778   0.769   1.702  12.533  0.5299 -0.5593  0.7627
 9440SOL    HW139779   0.678   1.716  12.506  0.7536 -0.6025 -0.0138
 9440SOL    HW239780   0.767   1.627  12.592 -1.7809 -0.5306  0.7354
 9441SOL     OW39781   0.751   2.214  10.383  0.6392  0.0567  0.7624
 9441SOL    HW139782   0.753   2.306  10.358 -0.8836 -0.3711 -0.9126
 9441SOL    HW239783   0.733   2.232  10.475 -3.2081 -0.2321  0.0522
 9442SOL     OW39784   2.986   2.002   3.744 -0.3105 -0.0590 -0.5262
 9442SOL    HW139785   3.044   2.061   3.791 -0.7245  2.6758 -3.4447
 9442SOL    HW239786   3.035   1.921   3.757  0.5998  0.2540 -1.8800
 9443SOL     OW39787   3.590   2.016  13.852  0.4883 -0.5847  0.3721
 9443SOL    HW139788   3.659   1.955  13.829 -0.9159 -2.5030  1.2324
 9443SOL    HW239789   3.512   1.973  13.815  0.0820  1.4843 -1.1575
 9444SOL     OW39790   4.249   1.259   7.565 -0.6090 -0.4560  0.3824
 9444SOL    HW139791   4.207   1.333   7.608 -1.5919 -1.0032  0.3684
 9444SOL    HW239792   4.189   1.229   7.497 -0.0182 -0.1466 -0.2731
 9445SOL     OW39793   0.849   0.532  12.198 -0.4938 -0.5028  0.6090
 9445SOL    HW139794   0.849   0.493  12.111  0.5918 -0.9627  0.8196
 9445SOL    HW239795   0.860   0.623  12.168 -1.3648 -0.5670  0.0779
 9446SOL     OW39796   1.936   0.473   6.432  0.5652  1.1248 -0.0998
 9446SOL    HW139797   1.842   0.463   6.448  0.5523 -0.3751 -1.0514
 9446SOL    HW239798   1.935   0.474   6.336  2.6657 -0.3127 -0.1292
 9447SOL     OW39799   2.513   2.478   8.257 -0.0544 -0.3980  0.2806
 9447SOL    HW139800   2.517   2.386   8.231 -1.5755 -0.0711 -1.1142
 9447SOL    HW239801   2.425   2.506   8.232  1.4080 -0.2293 -4.6660
 9448SOL     OW39802   2.438   1.039  17.087 -0.3904  0.3373 -0.2078
 9448SOL    HW139803   2.520   1.045  17.037 -0.9664 -0.1608 -1.1993
 9448SOL    HW239804   2.376   1.047  17.015 -0.6137 -1.2397 -0.1691
 9449SOL     OW39805   4.608   3.738  10.300 -0.3140  0.9995 -0.3179
 9449SOL    HW139806   4.614   3.790  10.220  2.9454  1.3565  0.1678
 9449SOL    HW239807   4.535   3.773  10.351 -2.1459  1.0554 -2.9407
 9450SOL     OW39808   2.527   3.051   9.715 -0.3561 -0.2333  0.4875
 9450SOL    HW139809   2.474   3.076   9.639  0.5522  1.5307  0.4479
 9450SOL    HW239810   2.603   3.100   9.685 -0.0182 -0.9622  0.1422
 9451SOL     OW39811   4.568   3.826   3.102 -0.1766  0.0113  0.0980
 9451SOL    HW139812   4.648   3.820   3.049 -0.3244  2.1690 -0.3397
 9451SOL    HW239813   4.535   3.906   3.062  0.2397 -0.3205 -0.9275
 9452SOL     OW39814   2.446   3.847  17.466  0.0885  0.1212  0.0040
 9452SOL    HW139815   2.474   3.769  17.418 -0.2159  0.2127 -0.3250
 9452SOL    HW239816   2.403   3.806  17.540  0.5289 -0.7057 -0.2022
 9453SOL     OW39817   3.244   4.181   5.517  0.3037 -0.3160 -0.3025
 9453SOL    HW139818   3.193   4.203   5.439  0.3480 -0.5511 -0.3989
 9453SOL    HW239819   3.305   4.255   5.519 -1.9002  1.4645  1.3071
 9454SOL     OW39820   1.359   4.343  11.805 -0.2062  0.3271 -0.4547
 9454SOL    HW139821   1.306   4.264  11.800 -1.7741  1.3534  0.0023
 9454SOL    HW239822   1.435   4.295  11.839 -1.5428 -0.8176  0.8924
 9455SOL     OW39823   1.194   4.286   5.177 -0.4578 -0.5112  0.0713
 9455SOL    HW139824   1.218   4.359   5.120 -1.5713 -1.3008 -1.4319
 9455SOL    HW239825   1.149   4.225   5.117  1.9773 -0.4861 -1.7761
 9456SOL     OW39826   4.348   3.397   1.237 -0.3106 -0.0015 -0.1174
 9456SOL    HW139827   4.339   3.385   1.332  0.8455 -0.1896 -0.0266
 9456SOL    HW239828   4.321   3.488   1.228 -0.2143 -0.0756 -1.1173
 9457SOL     OW39829   0.230   0.144   9.915  0.2116  0.3943  0.3196
 9457SOL    HW139830   0.160   0.079   9.917  1.1076 -0.5569  0.5216
 9457SOL    HW239831   0.221   0.180   9.827  3.4732 -0.8436 -0.5135
 9458SOL     OW39832   2.729   1.101   8.923  0.2973  0.0062 -0.1072
 9458SOL    HW139833   2.818   1.068   8.916 -0.1885 -1.5618  1.1513
 9458SOL    HW239834   2.676   1.057   8.857  0.7620 -1.4593  0.5139
 9459SOL     OW39835   1.221   0.036   0.087 -0.1857  0.1234  0.0739
 9459SOL    HW139836   1.178   0.044   0.002  2.4925  0.4879 -1.2391
 9459SOL    HW239837   1.139   0.036   0.136 -1.1206  0.6748 -1.4843
 9460SOL     OW39838   1.135   0.027   5.985 -0.1435 -0.5851  0.2780
 9460SOL    HW139839   1.170   4.704   5.908  4.1312 -1.9077  2.9771
 9460SOL    HW239840   1.166   0.117   5.974  0.7248 -0.9788 -0.5169
 9461SOL     OW39841   2.720   3.816   8.441 -0.1798 -0.1373 -0.5016
 9461SOL    HW139842   2.662   3.889   8.461 -0.9346 -1.0410  0.6514
 9461SOL    HW239843   2.658   3.744   8.429  0.5852 -0.8274 -0.3124
 9462SOL     OW39844   3.549   0.237  10.657 -0.3342 -0.0496  0.7052
 9462SOL    HW139845   3.602   0.311  10.626 -1.7719  0.0982 -1.4513
 9462SOL    HW239846   3.600   0.193  10.724 -0.4986 -3.2546 -1.2680
 9463SOL     OW39847   4.093   3.331   8.853 -0.3811 -0.4263 -0.0579
 9463SOL    HW139848   4.107   3.405   8.912 -0.7548  1.7517 -2.6982
 9463SOL    HW239849   4.141   3.260   8.896 -0.4392  1.3636  2.9572
 9464SOL     OW39850   3.494   0.623   2.845  0.1286 -0.0242  0.3479
 9464SOL    HW139851   3.502   0.706   2.798 -1.9087 -0.1405 -0.2068
 9464SOL    HW239852   3.488   0.567   2.767 -0.5937  0.8808 -0.2353
 9465SOL     OW39853   4.126   2.250   6.365  0.1882  0.5142  0.3548
 9465SOL    HW139854   4.209   2.286   6.394 -0.7416  2.9555 -0.0337
 9465SOL    HW239855   4.056   2.280   6.423  0.2868  2.1826 -0.3880
 9466SOL     OW39856   3.683   2.343  15.475 -0.0075 -0.4614  0.2911
 9466SOL    HW139857   3.693   2.304  15.562 -0.3098 -1.2666 -0.0375
 9466SOL    HW239858   3.765   2.389  15.457  0.5718 -1.6261 -0.0774
 9467SOL     OW39859   1.499   3.543  11.270 -0.1990  0.2303 -0.2060
 9467SOL    HW139860   1.533   3.565  11.357  1.9383 -1.0213 -0.7276
 9467SOL    HW239861   1.405   3.549  11.284 -0.0730 -1.1262  1.2583
 9468SOL     OW39862   2.837   2.194  14.080  0.0834 -0.2771 -0.3737
 9468SOL    HW139863   2.835   2.183  13.985 -3.3160  0.8042 -0.4016
 9468SOL    HW239864   2.906   2.261  14.082  0.2539 -0.5027  1.1804
 9469SOL     OW39865   0.888   1.511   7.904  0.0100 -0.1146  0.2146
 9469SOL    HW139866   0.892   1.416   7.908 -2.2653 -0.2341 -0.2863
 9469SOL    HW239867   0.874   1.523   7.810  0.6836 -0.8291  0.0276
 9470SOL     OW39868   2.031   2.807   6.449  0.0112 -0.0090 -0.6548
 9470SOL    HW139869   1.972   2.843   6.383 -0.8964  0.3069  0.3220
 9470SOL    HW239870   2.107   2.865   6.445 -1.0475  1.4615  0.2909
 9471SOL     OW39871   4.326   0.900  12.713  0.3737  0.2278 -0.7203
 9471SOL    HW139872   4.409   0.896  12.760  0.5582 -1.6407 -1.1928
 9471SOL    HW239873   4.292   0.825  12.762 -0.2379  1.2847  0.4887
 9472SOL     OW39874   2.302   1.799   3.589 -0.5092  0.4534 -0.6944
 9472SOL    HW139875   2.229   1.740   3.608 -1.2257  1.9536  1.3448
 9472SOL    HW239876   2.311   1.836   3.677  0.0062  0.5742 -0.8027
 9473SOL     OW39877   2.860   1.975   2.634  0.1441 -0.2939 -0.0209
 9473SOL    HW139878   2.793   2.021   2.583  0.4540  0.7841  0.5515
 9473SOL    HW239879   2.932   2.027   2.601 -0.1821  0.1050 -0.1005
 9474SOL     OW39880   1.825   1.130   2.919 -0.0727 -0.4471 -0.1505
 9474SOL    HW139881   1.840   1.191   2.992 -0.8775 -0.4481  0.0112
 9474SOL    HW239882   1.768   1.058   2.947  2.3491 -3.0224 -1.8598
 9475SOL     OW39883   0.273   3.749  17.381 -0.1058  0.3166 -0.2071
 9475SOL    HW139884   0.358   3.717  17.412 -0.0271 -0.1366 -0.8830
 9475SOL    HW239885   0.265   3.825  17.438  0.8656  1.5108 -1.6785
 9476SOL     OW39886   1.756   2.113   8.804  0.3506  0.1668 -0.0137
 9476SOL    HW139887   1.813   2.189   8.815 -1.3882  1.3134  1.1250
 9476SOL    HW239888   1.770   2.058   8.881 -1.6205 -0.7518 -0.3108
 9477SOL     OW39889   0.221   3.677  14.831 -0.2227  0.0933  0.4254
 9477SOL    HW139890   0.299   3.656  14.882 -0.6917  2.2119  1.9955
 9477SOL    HW239891   0.242   3.655  14.740 -0.9525 -0.1940  0.3270
 9478SOL     OW39892   4.448   3.676   0.187  0.3633  0.5884  0.1035
 9478SOL    HW139893   4.456   3.634   0.272  1.8849  0.7772  0.0402
 9478SOL    HW239894   4.474   3.766   0.204 -0.4128  0.5029  1.7400
 9479SOL     OW39895   3.180   2.119   4.069 -0.3875  0.6772 -0.0064
 9479SOL    HW139896   3.177   2.147   4.160  0.6534 -0.6286  0.4251
 9479SOL    HW239897   3.105   2.169   4.036 -2.0082 -1.5649  0.3196
 9480SOL     OW39898   0.676   2.832  12.402 -0.5229  0.3230 -1.1551
 9480SOL    HW139899   0.633   2.899  12.455 -0.0956  0.0552 -0.4720
 9480SOL    HW239900   0.617   2.759  12.420 -1.5232  1.1030 -1.2454
 9481SOL     OW39901   4.442   1.740   6.391  0.1988  0.2134 -0.5660
 9481SOL    HW139902   4.350   1.750   6.366  1.1814  0.9622 -3.8901
 9481SOL    HW239903   4.479   1.714   6.307  2.1108  1.5398 -0.1270
 9482SOL     OW39904   0.298   1.578   3.687 -0.0808  0.6715  0.0904
 9482SOL    HW139905   0.301   1.614   3.776  3.4341  1.1803 -0.2300
 9482SOL    HW239906   0.313   1.656   3.633  2.6786  0.2181  0.2124
 9483SOL     OW39907   2.069   4.501  17.550  0.7957 -0.9474  0.1104
 9483SOL    HW139908   2.095   4.419  17.591  2.3503 -0.5359 -0.0648
 9483SOL    HW239909   2.153   4.546  17.539  0.3509  0.4195  2.2093
 9484SOL     OW39910   0.214   1.560   0.699 -0.4831  0.1564  0.0222
 9484SOL    HW139911   0.185   1.648   0.720 -1.1904 -0.6730  2.5693
 9484SOL    HW239912   0.173   1.518   0.775  1.5176  1.4898  1.8545
 9485SOL     OW39913   0.439   3.101  11.284 -0.7920 -0.4421 -0.7964
 9485SOL    HW139914   0.415   3.170  11.221 -2.3937 -1.5752 -1.4400
 9485SOL    HW239915   0.364   3.089  11.343 -0.0469 -0.8334  0.0610
 9486SOL     OW39916   3.323   1.539   1.064  0.3334 -0.3148  0.5719
 9486SOL    HW139917   3.262   1.567   0.995  0.4526 -0.2895  0.4760
 9486SOL    HW239918   3.408   1.573   1.035  0.7261 -0.2188  1.8733
 9487SOL     OW39919   3.054   1.818   5.387  0.4898 -0.0137 -0.1306
 9487SOL    HW139920   3.131   1.828   5.331 -0.0654 -0.6548 -1.0228
 9487SOL    HW239921   3.038   1.724   5.382  0.8273 -0.0206 -1.0276
 9488SOL     OW39922   4.176   0.123  10.701 -0.6803 -0.3886  0.5502
 9488SOL    HW139923   4.085   0.148  10.687  0.3992  2.7246 -0.8858
 9488SOL    HW239924   4.168   0.043  10.752 -0.2267 -2.5937 -2.8736
 9489SOL     OW39925   0.706   3.509   6.963  0.1216 -0.6640  0.4848
 9489SOL    HW139926   0.654   3.517   6.884  1.4328 -0.9638 -0.3991
 9489SOL    HW239927   0.746   3.596   6.972  2.6202 -1.7501 -0.2128
 9490SOL     OW39928   2.334   3.557  15.145  0.1567 -0.3671  0.1354
 9490SOL    HW139929   2.361   3.589  15.059 -0.9289 -1.2539 -0.5442
 9490SOL    HW239930   2.330   3.635  15.199  1.4627  0.0007 -0.3032
 9491SOL     OW39931   0.776   2.968   5.383  0.2376  0.0037 -0.1977
 9491SOL    HW139932   0.836   2.926   5.445 -0.1566 -2.4059 -1.4386
 9491SOL    HW239933   0.729   2.893   5.345 -2.1999  0.9630  0.9158
 9492SOL     OW39934   2.564   0.570   4.026  0.5393 -0.0546  0.4001
 9492SOL    HW139935   2.617   0.517   3.967  1.1918 -1.1259  1.9403
 9492SOL    HW239936   2.566   0.526   4.112 -3.1377 -0.2444  0.4110
 9493SOL     OW39937   0.436   3.366   7.762  0.4000 -0.1578 -0.1857
 9493SOL    HW139938   0.387   3.306   7.705  0.9083 -2.5643  1.8986
 9493SOL    HW239939   0.476   3.310   7.829  0.9780 -2.0198 -2.0862
 9494SOL     OW39940   1.372   3.286   9.124 -0.6547  0.6677  0.2612
 9494SOL    HW139941   1.377   3.191   9.115  0.0087  0.7325 -0.1115
 9494SOL    HW239942   1.413   3.295   9.210  1.5435  2.0662 -0.9026
 9495SOL     OW39943   4.258   0.630  15.375 -0.0974 -0.0009  0.6481
 9495SOL    HW139944   4.333   0.649  15.432 -0.1152 -2.9502  1.6364
 9495SOL    HW239945   4.215   0.560  15.423 -3.8518  1.9700  0.1861
 9496SOL     OW39946   0.094   4.377   1.646  0.0704  0.4179  0.1896
 9496SOL    HW139947   0.112   4.439   1.575 -0.4500  0.7929  0.3875
 9496SOL    HW239948   0.032   4.315   1.608  2.4697 -1.5122 -0.5679
 9497SOL     OW39949   2.290   0.296   3.476 -0.2023 -0.4141  0.3380
 9497SOL    HW139950   2.254   0.249   3.551 -0.7715  0.0897  0.3801
 9497SOL    HW239951   2.381   0.265   3.474  0.3115  1.0660  0.5976
 9498SOL     OW39952   2.570   0.239   3.460 -0.0442 -0.7080  0.1224
 9498SOL    HW139953   2.586   0.156   3.414  0.8079 -0.5098  0.0604
 9498SOL    HW239954   2.628   0.294   3.407  1.4149 -0.9303  1.4734
 9499SOL     OW39955   4.541   4.444  10.869  0.0357 -0.2349  0.2858
 9499SOL    HW139956   4.542   4.349  10.866 -2.5037 -0.2149 -1.9203
 9499SOL    HW239957   4.456   4.468  10.907  1.5555 -0.5994  3.9353
 9500SOL     OW39958   2.403   0.087   4.368 -0.3437  0.1443  0.5743
 9500SOL    HW139959   2.399   0.012   4.427 -0.1391 -0.6499 -0.4272
 9500SOL    HW239960   2.498   0.097   4.356 -0.2581 -2.3057 -0.7467
 9501SOL     OW39961   3.980   3.560  15.103  0.2033 -0.1439  0.1090
 9501SOL    HW139962   3.967   3.641  15.053  0.1611 -0.0880  0.2098
 9501SOL    HW239963   4.071   3.540  15.082  0.3083 -0.9703  1.3785
 9502SOL     OW39964   0.022   3.471   3.462 -0.1042  0.6541 -0.1450
 9502SOL    HW139965   4.662   3.503   3.498 -0.1740  0.8339 -0.4681
 9502SOL    HW239966   0.025   3.384   3.503 -0.4714  1.4737  1.6269
 9503SOL     OW39967   0.548   3.236   6.015  0.2830 -0.2536  0.0142
 9503SOL    HW139968   0.623   3.215   5.959  0.6524  2.8632 -0.6523
 9503SOL    HW239969   0.584   3.308   6.068  1.5526  1.6359 -3.4279
 9504SOL     OW39970   1.265   0.903   7.653 -0.0539  0.2038  0.0195
 9504SOL    HW139971   1.285   0.985   7.699  0.9915  0.0959 -0.2650
 9504SOL    HW239972   1.170   0.912   7.643 -0.5921 -2.0119  3.1383
 9505SOL     OW39973   3.474   3.324   9.201 -0.1980  0.0857  0.0348
 9505SOL    HW139974   3.491   3.282   9.116  1.2964 -0.2471  0.4983
 9505SOL    HW239975   3.522   3.406   9.187  0.2667 -0.5786 -2.2975
 9506SOL     OW39976   2.502   2.921  13.303 -0.1142 -0.2539 -0.1206
 9506SOL    HW139977   2.424   2.905  13.250  0.0571 -0.4198 -0.3204
 9506SOL    HW239978   2.572   2.881  13.251  1.7389  1.3593  1.1309
 9507SOL     OW39979   3.140   3.842   2.335  0.6089 -0.0934  0.2994
 9507SOL    HW139980   3.116   3.750   2.328 -0.3929 -0.0633  3.4473
 9507SOL    HW239981   3.132   3.859   2.429  0.1281 -2.2014  0.6341
 9508SOL     OW39982   3.122   1.204   2.996  0.7677 -0.2803  0.2153
 9508SOL    HW139983   3.062   1.239   2.930  0.5509 -1.3570 -0.1621
 9508SOL    HW239984   3.133   1.114   2.966  2.0952 -0.3972  1.0696
 9509SOL     OW39985   3.586   1.754   7.202  0.5003  0.1242 -0.2942
 9509SOL    HW139986   3.512   1.734   7.258  0.6800 -0.7809 -0.3669
 9509SOL    HW239987   3.602   1.671   7.156 -4.3227 -1.7279  1.5066
 9510SOL     OW39988   1.795   3.012  12.513  0.3927  0.7190 -0.1417
 9510SOL    HW139989   1.862   2.944  12.508  1.7226  1.9893  0.2653
 9510SOL    HW239990   1.719   2.968  12.552 -1.2829  2.0239 -1.9009
 9511SOL     OW39991   2.495   3.284   6.404  0.0705  0.3754 -0.4509
 9511SOL    HW139992   2.527   3.310   6.490  1.5861 -1.9021 -0.3357
 9511SOL    HW239993   2.402   3.285   6.429  0.6243 -0.8532  1.6067
 9512SOL     OW39994   1.283   3.957   3.241  0.1010 -0.0047 -0.0164
 9512SOL    HW139995   1.220   4.025   3.219  0.7096 -0.0862 -2.0371
 9512SOL    HW239996   1.304   3.920   3.155  1.8859  0.2940  0.2838
 9513SOL     OW39997   0.692   0.500  14.173  0.0778 -0.5244 -0.4888
 9513SOL    HW139998   0.627   0.547  14.121  0.0028 -2.4193 -2.1363
 9513SOL    HW239999   0.732   0.450  14.101  0.3117 -2.7853  1.1786
 9514SOL     OW40000   4.412   4.319   7.370  0.0114  0.1574  0.2007
 9514SOL    HW140001   4.416   4.360   7.284  0.8132 -0.5197 -0.0872
 9514SOL    HW240002   4.410   4.398   7.424  1.4116  0.6160 -0.4348
 9515SOL     OW40003   3.840   0.680   5.174 -0.3773  0.1075 -0.0580
 9515SOL    HW140004   3.826   0.772   5.153 -1.8205 -0.2704 -0.7649
 9515SOL    HW240005   3.829   0.642   5.087 -0.4351  0.9028 -0.3884
 9516SOL     OW40006   4.450   1.697   2.431  0.7845 -0.3110 -0.1342
 9516SOL    HW140007   4.366   1.689   2.387  0.6283 -1.1362  0.3174
 9516SOL    HW240008   4.489   1.771   2.384  3.0604 -0.7286  1.0809
 9517SOL     OW40009   1.124   0.841   6.560 -0.1553 -0.3312 -0.3224
 9517SOL    HW140010   1.152   0.776   6.624  1.1099  0.2724 -0.2565
 9517SOL    HW240011   1.192   0.906   6.582 -2.0494  1.1770  1.0565
 9518SOL     OW40012   1.021   3.769   5.414 -0.4148 -0.4874 -0.0734
 9518SOL    HW140013   1.076   3.752   5.338 -0.5797  1.7729 -0.6666
 9518SOL    HW240014   0.969   3.843   5.386  1.0068  0.7637  0.5794
 9519SOL     OW40015   3.811   0.737   6.414 -0.1999  0.1801 -0.1624
 9519SOL    HW140016   3.856   0.812   6.452 -0.9848  0.1599  0.8155
 9519SOL    HW240017   3.733   0.772   6.372 -1.2446 -1.4843  0.3955
 9520SOL     OW40018   1.183   3.873   2.791 -0.9996  0.3343 -0.1521
 9520SOL    HW140019   1.229   3.881   2.874 -2.0365 -0.7294  0.5327
 9520SOL    HW240020   1.253   3.836   2.738  1.6784  2.4192  1.8970
 9521SOL     OW40021   3.892   1.669  11.968 -0.0298  0.1777 -0.4967
 9521SOL    HW140022   3.928   1.755  11.990  0.9433 -0.0441 -1.2433
 9521SOL    HW240023   3.798   1.679  11.985  0.6211  2.2667  1.8800
 9522SOL     OW40024   1.361   1.701   9.177 -0.0092  0.6522  0.1729
 9522SOL    HW140025   1.275   1.696   9.136  0.2244 -1.0514 -0.1050
 9522SOL    HW240026   1.378   1.795   9.174 -0.6424  0.7811  0.5879
 9523SOL     OW40027   4.399   0.849  15.101  0.5610  0.3341  0.5163
 9523SOL    HW140028   4.306   0.868  15.110 -0.0861 -3.3618  1.5232
 9523SOL    HW240029   4.427   0.863  15.191 -0.6474  2.2289  0.6081
 9524SOL     OW40030   0.047   2.186   3.325  0.1592  0.4578  0.3936
 9524SOL    HW140031   0.040   2.238   3.404  2.6674  0.9214  0.2798
 9524SOL    HW240032   4.677   2.188   3.298 -0.3987 -0.6066  2.1988
 9525SOL     OW40033   3.785   1.658  11.178  0.6179  0.0397  0.1091
 9525SOL    HW140034   3.805   1.626  11.090  2.3595 -0.1480  0.5582
 9525SOL    HW240035   3.712   1.599  11.196  0.9902 -0.9764 -1.7288
 9526SOL     OW40036   3.654   3.658   8.066 -0.2754 -0.8356  0.1021
 9526SOL    HW140037   3.674   3.602   8.141  1.1551 -0.6649 -0.1688
 9526SOL    HW240038   3.693   3.604   7.998  0.6880 -2.0585  1.6513
 9527SOL     OW40039   1.441   0.790  10.241 -0.3535  0.1652  0.0058
 9527SOL    HW140040   1.506   0.771  10.309 -1.3209 -2.6360  0.1604
 9527SOL    HW240041   1.384   0.848  10.290 -0.0047  1.4909 -1.1675
 9528SOL     OW40042   3.514   2.604  14.431 -0.2702 -1.0889 -0.6248
 9528SOL    HW140043   3.602   2.572  14.450  0.8297  1.4817 -1.4396
 9528SOL    HW240044   3.529   2.641  14.344 -1.4835 -0.2300 -0.4738
 9529SOL     OW40045   0.916   1.447  12.078 -0.2818  0.3781  0.3001
 9529SOL    HW140046   0.864   1.498  12.140  1.1036  0.6072  1.2813
 9529SOL    HW240047   1.004   1.484  12.076 -0.0507 -0.0610  1.8763
 9530SOL     OW40048   4.488   2.990  15.073  0.1117 -0.1414  0.3069
 9530SOL    HW140049   4.544   2.932  15.021  3.5186  3.0093  0.4335
 9530SOL    HW240050   4.475   3.053  15.002  0.9177 -0.2603  0.0547
 9531SOL     OW40051   0.209   3.835   9.249 -0.0452  0.3131  0.1206
 9531SOL    HW140052   0.270   3.771   9.286 -1.5329 -0.1593  1.7734
 9531SOL    HW240053   0.136   3.780   9.219  0.1696 -0.9215  1.8770
 9532SOL     OW40054   4.551   3.664  10.656 -0.6878  0.3363  0.2129
 9532SOL    HW140055   4.591   3.714  10.585  0.9104 -0.0430  0.8551
 9532SOL    HW240056   4.484   3.613  10.610  1.0016 -1.4733 -0.2611
 9533SOL     OW40057   3.405   0.434   9.046 -0.3880 -0.2166 -0.2082
 9533SOL    HW140058   3.499   0.449   9.033 -0.2461  0.3862  1.5715
 9533SOL    HW240059   3.358   0.505   9.003 -0.6831 -0.5804 -0.4955
 9534SOL     OW40060   1.727   4.368   0.175  0.1473 -0.7424  0.1177
 9534SOL    HW140061   1.770   4.440   0.130  1.1184 -0.9420  0.7215
 9534SOL    HW240062   1.656   4.421   0.211  0.8992  0.7311 -0.5979
 9535SOL     OW40063   2.963   4.612   3.910 -0.5700  0.4215 -0.1315
 9535SOL    HW140064   2.973   4.702   3.942  1.2866  0.3979 -0.6526
 9535SOL    HW240065   3.051   4.576   3.906  0.5347  3.2326 -1.4069
 9536SOL     OW40066   3.663   0.657   3.341  0.6499 -0.3529 -0.0998
 9536SOL    HW140067   3.753   0.626   3.333  0.8462  0.6560 -1.7020
 9536SOL    HW240068   3.619   0.631   3.260  1.2193 -0.8437 -0.2538
 9537SOL     OW40069   2.238   2.838   6.661 -0.4938 -0.1248  0.5412
 9537SOL    HW140070   2.239   2.747   6.633 -1.6259 -0.1372  0.5346
 9537SOL    HW240071   2.249   2.885   6.578  0.9221  1.1628  1.4444
 9538SOL     OW40072   3.827   4.178  11.622 -0.2914 -0.4350  0.6663
 9538SOL    HW140073   3.733   4.174  11.605 -0.3892 -0.4238  1.1802
 9538SOL    HW240074   3.862   4.170  11.534 -1.6350  1.8851 -0.0677
 9539SOL     OW40075   4.386   4.042   9.726 -0.7080  0.1418 -0.0225
 9539SOL    HW140076   4.296   4.018   9.743 -0.3251 -1.8739 -0.9398
 9539SOL    HW240077   4.405   3.970   9.667 -1.9939 -0.6656  0.5681
 9540SOL     OW40078   4.137   0.324   8.337 -0.7507 -0.9167 -0.0092
 9540SOL    HW140079   4.225   0.361   8.344 -0.5409 -0.8776 -2.8435
 9540SOL    HW240080   4.156   0.232   8.320 -0.8390 -0.6185 -1.7284
 9541SOL     OW40081   2.873   0.294   1.971 -0.5981 -0.0802  0.2299
 9541SOL    HW140082   2.814   0.218   1.962  0.1130 -0.8267  2.0682
 9541SOL    HW240083   2.883   0.314   1.878  0.7072 -0.2052  0.3508
 9542SOL     OW40084   3.593   2.300  13.539  0.3418  0.3626  0.7503
 9542SOL    HW140085   3.625   2.362  13.474  0.0910  1.3316  1.5594
 9542SOL    HW240086   3.499   2.316  13.543  0.3760  0.8296 -0.3191
 9543SOL     OW40087   0.235   0.932   2.088  0.4624 -0.2854  0.0826
 9543SOL    HW140088   0.171   0.980   2.034  1.6046  0.6889 -0.3992
 9543SOL    HW240089   0.239   0.854   2.033  1.6384 -1.4205  1.7792
 9544SOL     OW40090   2.259   4.716   5.928 -0.2046  0.0383  0.3328
 9544SOL    HW140091   2.182   0.045   5.951 -0.6345 -0.6569  0.4186
 9544SOL    HW240092   2.249   4.652   5.998  1.5369  1.1943  1.6501
 9545SOL     OW40093   1.832   0.989   2.206 -0.0122  0.3462 -0.9946
 9545SOL    HW140094   1.794   1.077   2.202 -0.4583  0.3218  2.3422
 9545SOL    HW240095   1.908   0.999   2.263  1.4129  0.5345 -2.9579
 9546SOL     OW40096   0.944   2.375   7.882 -0.0223  0.2053  0.1709
 9546SOL    HW140097   0.995   2.455   7.900  1.0304 -0.1989 -1.0519
 9546SOL    HW240098   0.876   2.422   7.835 -0.2762 -0.4971 -0.1556
 9547SOL     OW40099   1.764   0.636   1.771 -0.0985  0.4633  0.8197
 9547SOL    HW140100   1.686   0.662   1.821 -1.1198  0.6725 -0.8798
 9547SOL    HW240101   1.792   0.716   1.725 -1.0796 -0.7764 -1.9220
 9548SOL     OW40102   3.747   3.766   6.892  0.6229 -0.2122  0.3885
 9548SOL    HW140103   3.721   3.775   6.984  1.2390 -0.7515  0.6232
 9548SOL    HW240104   3.837   3.798   6.897 -0.2358  2.1901  0.0268
 9549SOL     OW40105   1.501   0.878  17.262  0.3742 -0.4364  0.3244
 9549SOL    HW140106   1.572   0.886  17.325  1.0848  1.1636 -0.6649
 9549SOL    HW240107   1.479   0.970  17.242  0.6465 -0.3244  0.5443
 9550SOL     OW40108   3.770   4.266   9.167  0.4772  0.2540 -0.0108
 9550SOL    HW140109   3.848   4.305   9.129  0.2569 -1.9227 -2.6503
 9550SOL    HW240110   3.706   4.331   9.136 -0.4365  0.0152  1.3192
 9551SOL     OW40111   1.786   2.460  15.907  0.0588 -0.3611 -0.4728
 9551SOL    HW140112   1.849   2.477  15.837 -1.3041  0.8529 -1.4213
 9551SOL    HW240113   1.810   2.535  15.962 -0.6501 -0.4148 -0.0897
 9552SOL     OW40114   3.264   1.838  14.027  0.6190 -0.1012  0.2286
 9552SOL    HW140115   3.299   1.815  14.113  0.5678  1.5596  0.6987
 9552SOL    HW240116   3.210   1.916  14.041  0.7664 -0.2741  1.7835
 9553SOL     OW40117   3.976   1.272   1.488  0.1702  0.0905  0.6010
 9553SOL    HW140118   4.003   1.210   1.556  1.3079 -1.5500 -1.3384
 9553SOL    HW240119   3.881   1.254   1.489  0.5864 -2.0208  2.8223
 9554SOL     OW40120   2.581   2.265   3.756  0.7308  0.0215 -0.1038
 9554SOL    HW140121   2.539   2.349   3.772 -1.1443 -1.4127  2.4476
 9554SOL    HW240122   2.588   2.258   3.660 -0.0639 -0.9779 -0.0914
 9555SOL     OW40123   4.115   2.027   4.521  0.1302 -0.0247  0.0960
 9555SOL    HW140124   4.166   1.947   4.507 -0.9938 -0.5469 -1.0579
 9555SOL    HW240125   4.173   2.068   4.585 -0.0438 -2.1126  1.6195
 9556SOL     OW40126   2.343   4.143   7.445  0.3780  0.6332  0.6523
 9556SOL    HW140127   2.380   4.141   7.533  2.1870 -0.8187 -0.1347
 9556SOL    HW240128   2.292   4.063   7.458  2.4870 -1.0103 -1.1418
 9557SOL     OW40129   1.736   3.428   5.122  0.2512  0.4082 -0.0830
 9557SOL    HW140130   1.814   3.419   5.177 -0.4802 -0.7702  0.7671
 9557SOL    HW240131   1.685   3.491   5.173 -0.5369  0.5552 -1.0659
 9558SOL     OW40132   2.525   1.859   5.078 -0.1707  0.0245 -0.1897
 9558SOL    HW140133   2.548   1.769   5.101  0.0915  0.7660  2.4463
 9558SOL    HW240134   2.540   1.911   5.157 -0.2750  0.0481 -0.1843
 9559SOL     OW40135   2.181   2.962  10.866  0.3328  0.0030  0.4889
 9559SOL    HW140136   2.128   3.039  10.846 -1.0486 -1.0513  0.1065
 9559SOL    HW240137   2.266   3.007  10.874  0.7149 -0.4821 -0.9289
 9560SOL     OW40138   1.229   1.289   4.624  0.1667 -0.1000 -0.1392
 9560SOL    HW140139   1.146   1.277   4.577  0.8187  1.0099 -1.5611
 9560SOL    HW240140   1.205   1.375   4.660  1.3468  0.1691 -0.0040
 9561SOL     OW40141   3.214   0.419  13.404 -0.1228 -0.8329 -0.0667
 9561SOL    HW140142   3.151   0.369  13.457 -1.8467  1.7217  0.2757
 9561SOL    HW240143   3.199   0.393  13.313  0.3124 -0.9556 -0.1002
 9562SOL     OW40144   0.751   1.033   0.501 -0.0665  0.3103  0.1188
 9562SOL    HW140145   0.778   1.091   0.429  1.1592  0.5563  0.7923
 9562SOL    HW240146   0.686   1.091   0.541  0.7008  0.7180  0.7606
 9563SOL     OW40147   4.313   2.794   4.959 -0.0055  0.4166 -0.0445
 9563SOL    HW140148   4.372   2.789   5.034 -0.3573 -1.5331  0.0971
 9563SOL    HW240149   4.248   2.854   4.997  1.7562  2.0903  0.3018
 9564SOL     OW40150   3.988   2.976  10.073 -0.4872  0.7033 -0.0786
 9564SOL    HW140151   4.080   2.956  10.094 -1.4949 -2.6614  1.2088
 9564SOL    HW240152   3.946   2.958  10.157  1.9324  1.4893  1.3138
 9565SOL     OW40153   2.531   0.842   5.705  0.0478  0.1732  0.0903
 9565SOL    HW140154   2.505   0.750   5.711  0.2047  0.1204 -0.0399
 9565SOL    HW240155   2.472   0.879   5.770  0.5677 -0.5618  0.9741
   4.72247   4.72247  17.69191
