Membrane in water
40155
    1TCq1    O1    1   2.184   2.515  11.313  0.3644 -0.3183  0.3576
    1TCq1    C1    2   2.136   2.390  11.316 -0.0123 -0.1283  0.3434
    1TCq1    O2    3   2.035   2.351  11.258  0.3309 -0.3121  0.0518
    1TCq1    C2    4   2.205   2.319  11.423 -0.3899 -0.0466 -0.0889
    1TCq1    C3    5   2.334   2.339  11.454 -0.7866 -0.2354 -0.4384
    1TCq1    C4    6   2.381   2.285  11.571 -0.7005 -0.2662 -0.4604
    1TCq1    C5    7   2.291   2.212  11.651 -1.1733  0.3414 -0.2754
    1TCq1    C6    8   2.163   2.183  11.607  0.0839 -1.0798 -0.5950
    1TCq1    C7    9   2.120   2.237  11.492 -0.3918 -0.1006 -0.5249
    1TCq1    C8   10   2.065   2.135  11.704  0.0693 -1.0329  0.2338
    1TCq1    O4   11   1.956   2.180  11.696 -0.1570  0.0242  1.3060
    1TCq1    C9   12   2.521   2.309  11.610  0.2673 -0.2007  0.2114
    1TCq1    O5   13   2.568   2.253  11.716  0.3758  0.0523  0.1598
    1TCq1    O6   14   2.584   2.380  11.529  0.5871  0.3251 -0.3380
    1TCq1    H1   15   2.242   2.542  11.388 -0.1683  0.5932  0.4366
    1TCq1    H2   16   2.404   2.395  11.392 -0.0271 -1.4166 -0.6365
    1TCq1    H3   17   2.316   2.197  11.756  0.1987 -2.4699 -1.0051
    1TCq1    H4   18   2.014   2.242  11.468 -0.4540  0.2413 -0.1788
    2MPD2     C   19   1.922   1.846  12.092 -0.3809 -0.1763 -0.9546
    2MPD2    C1   20   1.862   1.952  12.029 -0.0821 -0.4675 -0.0766
    2MPD2    C2   21   1.934   2.016  11.940  0.3564 -0.0436 -0.0111
    2MPD2    C3   22   2.052   1.967  11.890 -0.4502 -0.3273 -0.2268
    2MPD2    C4   23   2.113   1.860  11.951 -0.2477  0.1468  0.0785
    2MPD2    C5   24   2.046   1.803  12.052  0.0750  0.7125  0.2111
    2MPD2     H   25   1.881   2.101  11.899 -0.5589  0.0705  1.4422
    2MPD2    H1   26   2.207   1.812  11.925  0.3083  0.8375  0.8034
    2MPD2    H2   27   1.865   1.782  12.158  2.0367 -1.0638  0.2658
    2MPD2    H3   28   2.094   1.716  12.094 -1.8000 -0.7493 -0.6828
    2MPD2     N   29   2.112   2.031  11.782 -0.0074 -0.4937  1.2135
    2MPD2    H5   30   2.196   1.978  11.760  0.5018  0.6036  0.5496
    2MPD2    N1   31   1.733   1.999  12.059 -0.1128  0.2012  0.1749
    2MPD2    H7   32   1.698   2.082  12.012 -0.2812  1.3437  2.2883
    3TCq1    O1   33   1.339   2.943  10.406 -0.6714  0.6049  0.1446
    3TCq1    C1   34   1.424   3.012  10.486 -0.9602 -0.0837  0.3449
    3TCq1    O2   35   1.543   3.027  10.462 -0.4894 -0.7531  0.2063
    3TCq1    C2   36   1.353   3.060  10.608 -0.1226  0.2871  0.9452
    3TCq1    C3   37   1.432   3.096  10.710 -0.6557  0.1788  0.3444
    3TCq1    C4   38   1.389   3.172  10.814  0.6747  0.2215  0.1348
    3TCq1    C5   39   1.259   3.214  10.819 -0.2390 -0.4584  0.3603
    3TCq1    C6   40   1.176   3.168  10.715  0.0490 -0.0091  0.5524
    3TCq1    C7   41   1.224   3.100  10.604  0.0828 -0.2390  0.0546
    3TCq1    C8   42   1.034   3.208  10.697 -0.0576 -0.2430  0.8014
    3TCq1    O4   43   0.962   3.121  10.650  0.1021 -0.2399 -0.3245
    3TCq1    C9   44   1.473   3.216  10.918 -0.0105 -0.1205  0.0809
    3TCq1    O5   45   1.422   3.279  11.011 -0.2465 -0.1589 -0.5113
    3TCq1    O6   46   1.597   3.220  10.898  0.3124  0.2512  0.2159
    3TCq1    H1   47   1.248   2.934  10.443  0.4063 -0.4015  2.5366
    3TCq1    H2   48   1.536   3.067  10.711 -0.6925  0.0833  1.2629
    3TCq1    H3   49   1.224   3.281  10.896  2.0750  0.9151  0.2240
    3TCq1    H4   50   1.155   3.069  10.526 -0.0697  1.2587 -0.4059
    4MPD2     C   51   0.654   3.538  10.756 -0.1627 -1.0920  0.7534
    4MPD2    C1   52   0.764   3.583  10.827  0.1370  0.0024 -0.5994
    4MPD2    C2   53   0.883   3.513  10.816 -0.1796  0.0168 -0.1216
    4MPD2    C3   54   0.883   3.395  10.750 -0.6143  0.2909 -0.2704
    4MPD2    C4   55   0.777   3.352  10.678  0.0480  0.5740 -0.3681
    4MPD2    C5   56   0.664   3.424  10.680 -0.1410  0.2173  0.2254
    4MPD2     H   57   0.974   3.548  10.865 -0.7596  1.2667  0.0426
    4MPD2    H1   58   0.771   3.258  10.624 -1.3521  1.0467 -1.0351
    4MPD2    H2   59   0.561   3.594  10.754  0.9399  0.7584  0.9241
    4MPD2    H3   60   0.577   3.375  10.637 -1.3986  1.9141  0.8296
    4MPD2     N   61   1.011   3.327  10.752  0.2288 -0.1107  0.4377
    4MPD2    H5   62   1.093   3.361  10.802  0.0996  0.4473  0.2691
    4MPD2    N1   63   0.768   3.715  10.878 -0.0172  0.2387 -0.2526
    4MPD2    H7   64   0.853   3.754  10.918 -0.3835  1.0302 -0.2473
    5TCq1    O1   65   2.102   1.118  10.454  0.0812 -0.2343  0.4406
    5TCq1    C1   66   2.005   1.175  10.382  0.3815 -0.2123  0.1303
    5TCq1    O2   67   1.966   1.289  10.388 -0.0340 -0.0123 -0.3266
    5TCq1    C2   68   1.998   1.117  10.252 -0.3796  0.3420  0.2885
    5TCq1    C3   69   2.004   1.208  10.145 -0.1207 -0.9384  0.0137
    5TCq1    C4   70   1.987   1.144  10.023 -0.0769 -0.2938 -0.1318
    5TCq1    C5   71   1.949   1.015  10.009  0.0728  0.2336  0.1786
    5TCq1    C6   72   1.927   0.932  10.117  0.0191 -0.2003  0.6040
    5TCq1    C7   73   1.943   0.990  10.241  0.6292  1.1059  0.2322
    5TCq1    C8   74   1.862   0.797  10.103 -0.4458 -0.7130  0.7555
    5TCq1    O4   75   1.858   0.729  10.203 -0.0820  0.2214 -0.4905
    5TCq1    C9   76   2.007   1.217   9.897  0.5274  0.9724 -0.2159
    5TCq1    O5   77   1.924   1.198   9.806  0.0478  0.1548 -0.0334
    5TCq1    O6   78   2.064   1.328   9.893 -0.4532 -0.3811  0.1756
    5TCq1    H1   79   2.131   1.033  10.415 -0.0847 -0.8664  1.6858
    5TCq1    H2   80   2.060   1.299  10.161 -0.4648 -0.4236 -1.7560
    5TCq1    H3   81   1.959   0.976   9.908 -1.4141 -0.3362  0.2487
    5TCq1    H4   82   1.935   0.939  10.336  2.1614 -1.8674 -1.2333
    6MPD2     C   83   1.564   0.740   9.902 -0.3259 -0.5497  0.5683
    6MPD2    C1   84   1.654   0.716  10.007 -0.9605  0.3163 -0.2240
    6MPD2    C2   85   1.623   0.615  10.098  0.2966  0.3344  0.0882
    6MPD2    C3   86   1.504   0.544  10.094  0.3985  0.4596 -0.0445
    6MPD2    C4   87   1.410   0.585  10.001 -0.3104  0.2281  0.3594
    6MPD2    C5   88   1.441   0.681   9.907  0.8317 -0.1409  0.0571
    6MPD2     H   89   1.690   0.590  10.179 -0.0964 -1.9774 -0.2979
    6MPD2    H1   90   1.314   0.535   9.993  0.1306 -0.6584  0.6106
    6MPD2    H2   91   1.583   0.819   9.831 -1.0733 -0.8090  0.0750
    6MPD2    H3   92   1.367   0.702   9.830  0.6754 -0.1006  0.2182
    6MPD2     N   93   1.488   0.444  10.184  0.1524  0.0471  0.8953
    6MPD2    H5   94   1.571   0.432  10.241  0.7076 -2.5823 -0.4268
    6MPD2    N1   95   1.769   0.789  10.003  0.1166 -0.3972  0.4158
    6MPD2    H7   96   1.762   0.864   9.936  2.4356 -0.6782 -0.1308
    7TCq1    O1   97   4.165   0.288  14.211  0.1521  0.3003  0.6471
    7TCq1    C1   98   4.235   0.306  14.097  0.1933 -0.0419 -0.5341
    7TCq1    O2   99   4.311   0.400  14.069 -0.4911 -0.3234  0.6810
    7TCq1    C2  100   4.190   0.216  13.998  0.1377 -0.3039  0.6192
    7TCq1    C3  101   4.175   0.255  13.871 -0.3186  0.0418 -0.3279
    7TCq1    C4  102   4.148   0.164  13.774  0.8056  0.3855  0.3646
    7TCq1    C5  103   4.145   0.030  13.809 -0.1904 -0.2108  0.2721
    7TCq1    C6  104   4.170   4.717  13.936  0.2041  0.1208  0.0742
    7TCq1    C7  105   4.192   0.093  14.036 -0.3019  0.0167  1.2637
    7TCq1    C8  106   4.208   4.579  13.959 -0.0027 -0.0083 -0.9491
    7TCq1    O4  107   4.218   4.549  14.073 -0.0525 -0.0702  0.0174
    7TCq1    C9  108   4.136   0.207  13.639  0.0712  0.5558  0.0650
    7TCq1    O5  109   4.141   0.331  13.608 -0.0890 -0.0531  0.0035
    7TCq1    O6  110   4.104   0.113  13.559 -0.3767 -0.3147 -0.2333
    7TCq1    H1  111   4.087   0.229  14.221  0.2976 -0.1419 -0.8588
    7TCq1    H2  112   4.204   0.355  13.841 -1.3887  0.6677  0.7141
    7TCq1    H3  113   4.105   4.677  13.741  0.7554  2.3567 -3.0759
    7TCq1    H4  114   4.249   0.064  14.124 -0.5425  1.5367  1.9061
    8MPD2     C  115   4.347   4.113  13.788 -0.2958 -0.5493 -0.1723
    8MPD2    C1  116   4.281   4.143  13.903  0.5739 -0.6625  0.2670
    8MPD2    C2  117   4.248   4.278  13.921  0.1401  0.3881 -0.4052
    8MPD2    C3  118   4.279   4.378  13.832  1.2306  0.3795 -0.3397
    8MPD2    C4  119   4.347   4.344  13.720 -0.2327  0.2754  0.0373
    8MPD2    C5  120   4.378   4.217  13.702 -0.2024  0.2744 -0.0748
    8MPD2     H  121   4.185   4.307  14.005  2.1077 -1.7261  1.8048
    8MPD2    H1  122   4.382   4.422  13.652 -0.4887  0.2309 -0.1468
    8MPD2    H2  123   4.391   4.018  13.758 -0.6476 -1.6175  2.6959
    8MPD2    H3  124   4.451   4.203  13.624  0.2433 -0.6103  0.4980
    8MPD2     N  125   4.252   4.513  13.847  1.3308  0.3748  0.1050
    8MPD2    H5  126   4.263   4.565  13.760  0.3775 -0.0641 -0.2772
    8MPD2    N1  127   4.244   4.048  14.004  0.1850  0.5037  0.1320
    8MPD2    H7  128   4.189   4.078  14.083 -0.3975 -1.4551  0.4795
    9TCq1    O1  129   2.190   3.771  11.069  0.2538 -0.5270 -0.5072
    9TCq1    C1  130   2.103   3.843  11.149 -0.1592  0.1232  0.0255
    9TCq1    O2  131   2.129   3.954  11.192  0.2700  0.4468  0.6581
    9TCq1    C2  132   2.008   3.758  11.209 -0.3374  0.4834 -0.5478
    9TCq1    C3  133   1.950   3.652  11.150 -0.2656 -0.3347 -0.0416
    9TCq1    C4  134   1.871   3.573  11.218 -0.2268  0.2431  0.0000
    9TCq1    C5  135   1.838   3.585  11.352 -0.1908  0.7983  0.1834
    9TCq1    C6  136   1.889   3.698  11.410  0.1440  0.1577  0.7878
    9TCq1    C7  137   1.974   3.784  11.344  0.3111 -0.2154  0.2144
    9TCq1    C8  138   1.843   3.747  11.540  0.2378 -0.3452 -0.3145
    9TCq1    O4  139   1.851   3.868  11.560 -0.5309 -0.3387 -0.7903
    9TCq1    C9  140   1.788   3.483  11.130  0.3863 -0.3789 -0.4260
    9TCq1    O5  141   1.692   3.428  11.186  0.6898  0.0700 -0.2061
    9TCq1    O6  142   1.787   3.508  11.011 -0.2125 -0.5480 -0.2029
    9TCq1    H1  143   2.166   3.676  11.068  2.7448 -1.2200  3.1237
    9TCq1    H2  144   1.968   3.637  11.044 -1.3967 -1.2150 -0.1105
    9TCq1    H3  145   1.765   3.519  11.397 -0.6580  1.0165 -0.2466
    9TCq1    H4  146   2.026   3.864  11.395  1.1981 -0.7033  0.0899
   10MPD2     C  147   1.767   3.773  11.824  0.4412 -0.6204  0.2322
   10MPD2    C1  148   1.769   3.652  11.759  0.0585  0.8685 -0.4226
   10MPD2    C2  149   1.726   3.535  11.829 -0.6053  0.1014 -0.7187
   10MPD2    C3  150   1.701   3.547  11.968  0.7211  0.2531 -0.6169
   10MPD2    C4  151   1.720   3.671  12.027  0.0510 -0.1679 -0.6280
   10MPD2    C5  152   1.744   3.783  11.952  0.3430 -0.7363  0.0171
   10MPD2     H  153   1.726   3.440  11.776  0.7578  0.5666 -1.5634
   10MPD2    H1  154   1.716   3.692  12.133  2.1393 -1.0160 -0.3771
   10MPD2    H2  155   1.807   3.863  11.779 -0.0160 -1.4912 -1.9150
   10MPD2    H3  156   1.763   3.880  11.996 -0.9718  0.6200 -2.4382
   10MPD2     N  157   1.667   3.433  12.043 -0.4981 -0.2531  0.1299
   10MPD2    H5  158   1.671   3.445  12.143  1.6987 -0.6109  0.0801
   10MPD2    N1  159   1.794   3.646  11.620  0.2691 -0.7508 -0.5731
   10MPD2    H7  160   1.817   3.555  11.581  1.2305 -0.5305 -0.5027
   11TCq1    O1  161   3.112   3.250  14.567 -0.5305 -0.6384  0.0437
   11TCq1    C1  162   3.009   3.202  14.641 -0.1932  0.3827 -1.1707
   11TCq1    O2  163   2.950   3.264  14.728 -0.0907 -0.2368  0.0759
   11TCq1    C2  164   2.948   3.104  14.553  0.0065 -0.0488  0.3242
   11TCq1    C3  165   3.028   3.045  14.462 -0.0956 -0.2368  0.2154
   11TCq1    C4  166   2.960   2.975  14.367  0.2657  0.6121  0.0394
   11TCq1    C5  167   2.821   2.976  14.358  0.4241  0.5701 -0.3187
   11TCq1    C6  168   2.745   3.046  14.451  0.3015 -0.5180 -0.3065
   11TCq1    C7  169   2.814   3.112  14.548 -0.0468  0.0599 -0.1931
   11TCq1    C8  170   2.603   3.024  14.464 -0.2624  0.5335  0.2473
   11TCq1    O4  171   2.544   3.077  14.559  0.1138 -0.9795  0.6340
   11TCq1    C9  172   3.024   2.885  14.276 -0.0940  0.0659  0.1329
   11TCq1    O5  173   2.957   2.801  14.219  0.0105 -0.1916 -0.3370
   11TCq1    O6  174   3.152   2.894  14.272 -0.7520 -0.5178 -0.1070
   11TCq1    H1  175   3.130   3.192  14.490 -1.3195 -0.7275 -0.0775
   11TCq1    H2  176   3.136   3.044  14.465 -0.0137 -0.3450 -2.5019
   11TCq1    H3  177   2.773   2.922  14.277 -1.6644 -0.5044  1.6492
   11TCq1    H4  178   2.757   3.180  14.610  1.2690  0.9251  0.0753
   12MPD2     C  179   2.324   2.953  14.416  0.7141  0.1283 -0.4196
   12MPD2    C1  180   2.428   2.884  14.359  0.6664  0.4759 -0.3915
   12MPD2    C2  181   2.402   2.773  14.283 -0.6563  0.2210  0.0222
   12MPD2    C3  182   2.268   2.729  14.272 -0.5122 -0.4856 -0.5778
   12MPD2    C4  183   2.166   2.799  14.328 -0.4611  0.2641  0.2833
   12MPD2    C5  184   2.198   2.911  14.398 -0.0281 -0.0566  0.3020
   12MPD2     H  185   2.476   2.705  14.244 -1.4923 -0.5516 -0.2041
   12MPD2    H1  186   2.061   2.769  14.331 -0.1409 -0.8411  0.4421
   12MPD2    H2  187   2.339   3.039  14.480 -0.5831  0.6357 -0.8030
   12MPD2    H3  188   2.119   2.962  14.451 -0.5125  0.6138 -1.0526
   12MPD2     N  189   2.226   2.626  14.185 -0.0397 -0.5723  0.2840
   12MPD2    H5  190   2.127   2.604  14.182 -0.4079  1.1122 -0.0479
   12MPD2    N1  191   2.561   2.920  14.382 -0.0525 -0.0195 -0.2702
   12MPD2    H7  192   2.633   2.872  14.330  0.0887  1.4201 -1.4285
   13TCq1    O1  193   2.350   2.656  11.055 -0.4289 -0.2353 -0.7559
   13TCq1    C1  194   2.337   2.602  10.930 -0.3819  0.8300  0.4504
   13TCq1    O2  195   2.424   2.548  10.870 -1.0584 -0.2925 -0.6829
   13TCq1    C2  196   2.247   2.687  10.859  0.9204  0.3065 -0.4253
   13TCq1    C3  197   2.285   2.748  10.744 -0.5976  0.1836  0.3925
   13TCq1    C4  198   2.197   2.806  10.669 -0.2663  0.0552  0.1675
   13TCq1    C5  199   2.062   2.803  10.690 -0.9777  0.3781  0.7786
   13TCq1    C6  200   2.025   2.751  10.810 -0.0905  0.4241 -0.7159
   13TCq1    C7  201   2.116   2.696  10.898 -0.1235 -0.4870 -0.7526
   13TCq1    C8  202   1.886   2.717  10.840 -0.1795  0.4922 -0.0231
   13TCq1    O4  203   1.854   2.697  10.956 -0.1663  0.3232 -0.0768
   13TCq1    C9  204   2.236   2.882  10.552  0.3346  0.3886  0.4233
   13TCq1    O5  205   2.361   2.889  10.532  0.2453  0.2381 -0.5603
   13TCq1    O6  206   2.152   2.950  10.488 -0.7305  0.2242 -0.4568
   13TCq1    H1  207   2.273   2.712  11.079  0.2207 -0.1284  1.0578
   13TCq1    H2  208   2.388   2.742  10.709  0.0701  2.3502  1.9917
   13TCq1    H3  209   1.995   2.860  10.626  0.0967  0.0433 -0.6511
   13TCq1    H4  210   2.086   2.644  10.988  0.5514  0.1980 -0.1277
   14MPD2     C  211   1.588   2.733  10.613  0.1882  0.0321  0.1691
   14MPD2    C1  212   1.658   2.732  10.734  0.0226  0.8269  0.9801
   14MPD2    C2  213   1.591   2.754  10.853  0.0149  0.0394  0.0582
   14MPD2    C3  214   1.456   2.772  10.848 -0.9223  0.3195 -0.0741
   14MPD2    C4  215   1.392   2.739  10.734 -1.3960  0.0711  0.5167
   14MPD2    C5  216   1.453   2.733  10.616 -0.5560 -0.6827  0.2582
   14MPD2     H  217   1.644   2.762  10.947 -0.1435 -0.3948  0.1846
   14MPD2    H1  218   1.284   2.739  10.724 -1.6201  1.6557  3.0958
   14MPD2    H2  219   1.636   2.718  10.517  2.4043 -0.3404  1.3550
   14MPD2    H3  220   1.402   2.717  10.522  0.8567 -0.5660 -0.5202
   14MPD2     N  221   1.387   2.803  10.963  0.0867 -0.4118  0.3223
   14MPD2    H5  222   1.439   2.815  11.049 -0.0605  0.6469  0.2585
   14MPD2    N1  223   1.798   2.721  10.733  0.2330 -0.1264 -0.1785
   14MPD2    H7  224   1.850   2.725  10.646  0.7974 -3.3307 -0.0016
   15TCq1    O1  225   2.446   2.052   2.879 -0.0404 -0.1222  0.2163
   15TCq1    C1  226   2.518   2.003   2.983  0.1141 -0.3965 -0.5191
   15TCq1    O2  227   2.470   1.979   3.094 -0.4842  0.4680  0.7718
   15TCq1    C2  228   2.639   1.955   2.924 -0.1017 -0.0761 -0.0421
   15TCq1    C3  229   2.687   1.832   2.978  0.5462 -0.3566 -0.4843
   15TCq1    C4  230   2.756   1.749   2.897  0.1475  0.3529 -0.5808
   15TCq1    C5  231   2.809   1.795   2.784 -0.4927 -0.1178  0.2002
   15TCq1    C6  232   2.762   1.912   2.724  0.4089 -0.2778  0.9618
   15TCq1    C7  233   2.677   2.000   2.802 -0.1055  0.3586  0.4383
   15TCq1    C8  234   2.814   1.960   2.596  0.2302  0.1166 -0.1312
   15TCq1    O4  235   2.757   2.053   2.543 -0.3223  0.1641 -0.1108
   15TCq1    C9  236   2.778   1.616   2.945 -0.2941 -0.1633 -0.6659
   15TCq1    O5  237   2.723   1.580   3.046  0.1996 -0.3021  0.2690
   15TCq1    O6  238   2.864   1.546   2.888 -0.2419  0.0327 -0.3855
   15TCq1    H1  239   2.486   2.039   2.791  2.1738  2.6980  0.8280
   15TCq1    H2  240   2.650   1.797   3.074 -1.2249 -0.5631 -1.2530
   15TCq1    H3  241   2.861   1.719   2.727  0.8615  0.3298  0.8378
   15TCq1    H4  242   2.649   2.092   2.753  1.1023  0.1033 -0.7386
   16MPD2     C  243   2.949   2.027   2.338 -0.6180 -0.4731  0.1301
   16MPD2    C1  244   2.981   1.914   2.417  0.2282 -0.6663 -0.5190
   16MPD2    C2  245   3.071   1.824   2.379  0.7277 -0.0546  0.4367
   16MPD2    C3  246   3.135   1.833   2.256  0.2441 -0.0612  0.8084
   16MPD2    C4  247   3.092   1.932   2.172 -0.4961  0.0062 -0.5446
   16MPD2    C5  248   3.001   2.030   2.213  0.0154 -0.3329  0.0266
   16MPD2     H  249   3.082   1.737   2.443 -1.7096 -0.7569 -0.1056
   16MPD2    H1  250   3.133   1.945   2.073  0.0155 -0.9935 -0.4647
   16MPD2    H2  251   2.889   2.108   2.378  0.6543 -0.2025  1.4976
   16MPD2    H3  252   2.971   2.114   2.151 -0.3486 -0.2428  0.3232
   16MPD2     N  253   3.234   1.730   2.221 -0.4954  0.1737  0.6376
   16MPD2    H5  254   3.267   1.663   2.289 -1.1422  0.3765  1.1468
   16MPD2    N1  255   2.921   1.891   2.542 -0.3769  0.4193  0.2383
   16MPD2    H7  256   2.968   1.823   2.601  0.2558  1.1317  0.5437
   17TCq1    O1  257   1.467   2.776   9.951 -0.4373  0.3450 -0.3120
   17TCq1    C1  258   1.534   2.690  10.033  0.0535  0.4319  0.0372
   17TCq1    O2  259   1.494   2.579  10.067  0.0391 -0.7992  0.1544
   17TCq1    C2  260   1.665   2.746  10.080  0.5318 -0.2502 -0.2969
   17TCq1    C3  261   1.753   2.800   9.990 -0.5722  0.2518 -0.5387
   17TCq1    C4  262   1.883   2.821  10.027  0.2413 -0.5071 -0.1496
   17TCq1    C5  263   1.935   2.774  10.145  0.2313  0.3597 -0.1920
   17TCq1    C6  264   1.850   2.705  10.229 -0.0543 -0.2289 -0.6164
   17TCq1    C7  265   1.712   2.701  10.203 -0.1779  0.1422  0.0145
   17TCq1    C8  266   1.905   2.654  10.349 -0.3401  0.1363  0.1742
   17TCq1    O4  267   1.836   2.661  10.449  0.9212 -0.0684 -0.6131
   17TCq1    C9  268   1.973   2.870   9.924  0.6171 -0.1880 -0.3633
   17TCq1    O5  269   1.932   2.892   9.811 -0.1179  0.1930 -0.2756
   17TCq1    O6  270   2.096   2.879   9.954  0.3504  0.6272  0.1214
   17TCq1    H1  271   1.510   2.864   9.945 -2.6136  1.4590  0.2096
   17TCq1    H2  272   1.716   2.840   9.896 -1.8976  1.5205  0.5055
   17TCq1    H3  273   2.038   2.793  10.172  0.3337  1.0208 -1.0572
   17TCq1    H4  274   1.639   2.655  10.269 -0.0450  1.0287  0.7883
   18MPD2     C  275   2.063   2.476  10.532 -0.2405 -0.2642  0.5536
   18MPD2    C1  276   2.106   2.532  10.411  0.7418  0.0111 -0.3336
   18MPD2    C2  277   2.241   2.521  10.377 -0.0948 -0.3787  0.3133
   18MPD2    C3  278   2.320   2.454  10.469  0.1012  0.4996  0.7689
   18MPD2    C4  279   2.271   2.413  10.593 -0.7498  0.0469 -0.0334
   18MPD2    C5  280   2.138   2.415  10.618 -0.0494 -0.4759  0.3928
   18MPD2     H  281   2.273   2.552  10.278  0.8256 -0.9035  0.4457
   18MPD2    H1  282   2.330   2.375  10.676 -0.7560  0.6056  0.2263
   18MPD2    H2  283   1.960   2.491  10.561 -0.2140  0.0070  0.5119
   18MPD2    H3  284   2.087   2.389  10.710  1.0366  1.2604  1.4907
   18MPD2     N  285   2.454   2.437  10.447 -0.2942  0.1594 -0.0066
   18MPD2    H5  286   2.499   2.396  10.528 -0.0191  1.4985  0.5234
   18MPD2    N1  287   2.029   2.610  10.330  0.0476  0.1524  0.1287
   18MPD2    H7  288   2.080   2.639  10.247  1.2975 -3.3286 -0.3069
   19TMC2    C1  289   3.235   3.008  13.673 -0.2010 -0.1973  0.3343
   19TMC2    C2  290   3.150   3.081  13.593 -0.6740  0.4318 -0.4407
   19TMC2    C3  291   3.102   3.016  13.481  0.4464 -0.5607 -0.2327
   19TMC2    C4  292   3.257   2.872  13.655  0.3114  0.2845  0.0735
   19TMC2    C5  293   3.204   2.819  13.545  0.5069  0.4080  0.1163
   19TMC2    C6  294   3.129   2.886  13.456  0.4059  0.0566  0.2933
   19TMC2     C  295   3.298   3.087  13.783 -0.0943 -0.3600  0.5095
   19TMC2     O  296   3.278   3.206  13.772  0.4153 -0.1725 -0.1254
   19TMC2     H  297   3.126   3.186  13.603 -0.6979  0.4832 -0.9991
   19TMC2    H1  298   3.330   2.825  13.719 -0.2079 -0.9886 -0.2846
   19TMC2    H2  299   3.075   2.838  13.375  0.5813  2.3595 -1.1773
   19TMC2    C7  300   3.212   2.675  13.519  0.9548  0.2570 -0.1375
   19TMC2    C8  301   3.030   3.091  13.377  0.2024 -0.4249  0.2730
   19TMC2    O1  302   3.155   2.633  13.421  0.8042 -0.0409  0.1665
   19TMC2    O2  303   2.972   3.199  13.385 -0.4936  0.1327 -0.3233
   19TMC2    O5  304   3.055   3.027  13.259 -0.2442  0.1459 -0.3863
   19TMC2    H5  305   3.125   2.959  13.271 -0.9807 -0.8254 -1.5214
   20MPD2     C  306   3.503   3.199  13.962 -0.7109 -0.0393 -0.6507
   20MPD2    C1  307   3.484   3.066  13.949 -0.6976  0.3342  0.6562
   20MPD2    C2  308   3.549   2.978  14.033 -0.7078  0.4098 -0.1556
   20MPD2    C3  309   3.637   3.026  14.128 -0.6253 -0.2522 -0.6914
   20MPD2    C4  310   3.658   3.161  14.135  0.1222  0.3718 -0.1964
   20MPD2    C5  311   3.588   3.248  14.059 -0.3600  0.0538 -0.3028
   20MPD2     H  312   3.524   2.873  14.035  1.7643 -0.2023 -1.4849
   20MPD2    H1  313   3.718   3.198  14.217  1.4484 -0.1925 -0.9057
   20MPD2    H2  314   3.448   3.271  13.903 -0.7233  0.4051 -0.0989
   20MPD2    H3  315   3.585   3.356  14.070 -1.1041  0.0896 -0.8832
   20MPD2     N  316   3.705   2.948  14.217  0.2388  0.1950 -0.4609
   20MPD2    H5  317   3.758   3.003  14.284 -1.1289  1.8111 -0.7090
   20MPD2    N1  318   3.386   3.011  13.858 -0.2907  0.2173 -0.2821
   20MPD2    H7  319   3.384   2.910  13.852 -0.0482  0.2991 -1.6385
   21MPD2     C  320   0.957   3.507  14.856  0.6610 -0.3578  0.2731
   21MPD2    C1  321   0.968   3.372  14.872  0.6017 -0.8494  0.6800
   21MPD2    C2  322   0.882   3.297  14.942  0.1033 -0.3121 -0.3995
   21MPD2    C3  323   0.775   3.358  15.006  0.7381 -0.4873  0.0473
   21MPD2    C4  324   0.763   3.495  14.992  0.1503  0.1454 -0.0577
   21MPD2    C5  325   0.859   3.564  14.931 -0.0908 -0.0458  0.3305
   21MPD2     H  326   0.907   3.192  14.951  2.1576  0.3265  1.7104
   21MPD2    H1  327   0.685   3.544  15.049  0.4920  1.2326 -0.5216
   21MPD2    H2  328   1.043   3.566  14.826 -0.3900  0.2249 -1.6170
   21MPD2    H3  329   0.853   3.673  14.930  0.2407 -0.0068  3.9959
   21MPD2     N  330   0.685   3.296  15.087  0.3747  0.2783 -0.3510
   21MPD2    H5  331   0.608   3.352  15.121  0.9224 -0.1662  1.6389
   21MPD2    N1  332   1.053   3.298  14.784  0.1460  0.6173 -0.0132
   21MPD2    H7  333   1.041   3.198  14.779 -1.3999  0.8343 -0.5421
   22TCq2    C1  334   0.715   3.175  15.155 -0.4718  0.3799 -0.8182
   22TCq2    O2  335   0.816   3.101  15.139  0.8601 -0.3018  0.7191
   22TCq2    C2  336   0.628   3.141  15.266  0.0518 -0.0299  0.0972
   22TCq2    C3  337   0.647   3.014  15.318  0.2209  0.4375  0.3880
   22TCq2    C4  338   0.567   2.967  15.422 -0.2955 -0.4828  0.6190
   22TCq2    C5  339   0.472   3.048  15.474  1.0069 -0.3504  0.4665
   22TCq2    C6  340   0.459   3.178  15.424  0.0794 -0.2010 -0.5068
   22TCq2    C7  341   0.530   3.221  15.314  0.5414  0.1810 -0.1445
   22TCq2    C8  342   0.356   3.261  15.484 -0.2820  0.2109 -0.9624
   22TCq2    O4  343   0.337   3.230  15.601 -0.1441  0.6834  0.3753
   22TCq2    C9  344   0.585   2.832  15.465 -0.3634 -0.0830  0.5673
   22TCq2    O5  345   0.503   2.786  15.549 -0.3844 -0.0563  0.6410
   22TCq2    O6  346   0.651   2.761  15.386  0.4263 -0.0128 -0.1050
   22TCq2    H2  347   0.742   2.967  15.292  2.1628  2.7655  3.2772
   22TCq2    H3  348   0.421   3.019  15.565 -0.3689  1.1119  0.1675
   22TCq2    H4  349   0.533   3.329  15.303 -0.0372  0.2895  0.7754
   23MPD2     C  350   2.568   4.327  14.984 -0.2575  0.6961  0.4609
   23MPD2    C1  351   2.462   4.259  15.034 -0.4129  0.2291  0.1362
   23MPD2    C2  352   2.333   4.297  14.990 -0.2519 -0.1396 -0.2143
   23MPD2    C3  353   2.319   4.392  14.891  0.5637 -0.3868  0.5473
   23MPD2    C4  354   2.426   4.471  14.856 -0.7584  0.7759 -0.0920
   23MPD2    C5  355   2.552   4.432  14.900  0.3726  0.3583 -0.2362
   23MPD2     H  356   2.243   4.244  15.022  0.5151 -1.0263  0.4856
   23MPD2    H1  357   2.408   4.544  14.779  0.2800  1.6319  0.4852
   23MPD2    H2  358   2.670   4.317  15.019 -0.8236 -0.1681  1.8554
   23MPD2    H3  359   2.635   4.486  14.857 -1.0772  1.7531 -1.3129
   23MPD2     N  360   2.196   4.400  14.819 -0.4988  0.5405  0.4007
   23MPD2    H5  361   2.186   4.484  14.763 -1.9593  1.1755  1.6133
   23MPD2    N1  362   2.459   4.160  15.131 -0.0247 -0.1760 -0.3659
   23MPD2    H7  363   2.373   4.140  15.182  0.3532 -0.2652  0.2273
   24TCq2    C1  364   2.095   4.308  14.810 -0.2988 -0.1455  0.3395
   24TCq2    O2  365   2.103   4.190  14.847  0.1559  0.8198  0.0137
   24TCq2    C2  366   1.978   4.349  14.741 -0.6230  0.1798 -0.3750
   24TCq2    C3  367   1.951   4.485  14.719 -0.0873 -0.7798  0.6023
   24TCq2    C4  368   1.837   4.513  14.641 -0.3447  0.0508  0.3875
   24TCq2    C5  369   1.739   4.413  14.612 -0.2629  0.1231  0.6258
   24TCq2    C6  370   1.768   4.282  14.655 -0.4296  0.1402 -0.0358
   24TCq2    C7  371   1.885   4.253  14.712  0.4481  0.1486 -0.2400
   24TCq2    C8  372   1.695   4.175  14.600 -0.3166  1.1094 -0.1882
   24TCq2    O4  373   1.751   4.064  14.584  0.6535 -0.4128  0.3342
   24TCq2    C9  374   1.816   4.650  14.604  0.1618  0.0820  0.4090
   24TCq2    O5  375   1.911   0.014  14.623  0.2379  0.0365 -0.2298
   24TCq2    O6  376   1.702   4.682  14.565  0.3637  0.1982  0.2076
   24TCq2    H2  377   2.021   4.566  14.732  0.8611 -1.2640 -1.3693
   24TCq2    H3  378   1.646   4.435  14.561 -1.4018 -1.3738  2.0238
   24TCq2    H4  379   1.903   4.148  14.734 -0.9895  0.0709  0.5316
   25TMC2    C1  380   1.334   1.695  11.731  0.4633  0.1751 -0.0877
   25TMC2    C2  381   1.409   1.804  11.701 -0.5093 -0.2749 -0.1513
   25TMC2    C3  382   1.385   1.919  11.777  0.4739 -0.1485  0.3895
   25TMC2    C4  383   1.224   1.708  11.812  0.3902  0.0333 -0.2158
   25TMC2    C5  384   1.194   1.830  11.869  0.0962  0.2863 -0.3558
   25TMC2    C6  385   1.279   1.937  11.861 -0.4197 -0.5615  0.4143
   25TMC2     C  386   1.374   1.576  11.665 -0.1427  0.3759 -0.0615
   25TMC2     O  387   1.490   1.573  11.630  0.2534  0.5989 -0.1044
   25TMC2     H  388   1.498   1.799  11.639 -1.7742  2.1113 -2.1785
   25TMC2    H1  389   1.164   1.618  11.816 -1.6831  1.2796 -3.8602
   25TMC2    H2  390   1.280   2.029  11.919  2.2725 -1.5832  1.9662
   25TMC2    C7  391   1.069   1.844  11.930  0.1027 -0.0192  0.2446
   25TMC2    C8  392   1.461   2.048  11.741  0.4775  0.0982  0.1328
   25TMC2    O1  393   0.993   1.747  11.924  0.0433  0.0811  0.2714
   25TMC2    O2  394   1.495   2.129  11.826  0.3243 -0.0256 -0.3665
   25TMC2    O5  395   1.527   2.033  11.627  0.0836 -0.1490  0.3722
   25TMC2    H5  396   1.472   1.976  11.568 -1.2625  0.6256  0.8759
   26MPD2     C  397   1.277   1.108  11.488 -0.2751 -0.5473 -0.1704
   26MPD2    C1  398   1.158   1.157  11.537 -0.6857  0.7374 -0.2542
   26MPD2    C2  399   1.148   1.289  11.575 -0.0278 -0.8806  0.4286
   26MPD2    C3  400   1.276   1.358  11.587 -0.2182  0.6496  0.1387
   26MPD2    C4  401   1.395   1.307  11.539  1.2670 -0.2368  0.2244
   26MPD2    C5  402   1.392   1.179  11.485 -0.1246  0.2308  0.4965
   26MPD2     H  403   1.053   1.336  11.600 -0.1541  0.5874 -2.7901
   26MPD2    H1  404   1.491   1.349  11.569  2.4494 -1.4142 -1.9296
   26MPD2    H2  405   1.286   1.005  11.453  2.4798 -0.1056 -0.7723
   26MPD2    H3  406   1.476   1.119  11.453 -1.5449 -0.8940 -1.1468
   26MPD2     N  407   1.267   1.484  11.642 -0.3182 -0.2780 -0.4295
   26MPD2    H5  408   1.180   1.514  11.683 -0.3855  0.6824 -1.2726
   26MPD2    N1  409   1.051   1.060  11.538 -0.4957 -0.0329 -0.6821
   26MPD2    H7  410   1.074   0.964  11.510 -0.6811 -0.5273  0.8598
   27TMC2    C1  411   0.207   3.537  12.026  0.1620  0.5744 -0.2291
   27TMC2    C2  412   0.092   3.579  11.961  0.1375  0.0086  0.4979
   27TMC2    C3  413   0.096   3.689  11.885 -0.4766  0.5904  0.5148
   27TMC2    C4  414   0.332   3.597  12.016  0.0375 -0.1932 -0.1430
   27TMC2    C5  415   0.336   3.709  11.939  0.1359 -0.0495 -0.9642
   27TMC2    C6  416   0.224   3.745  11.867 -0.2625  0.5881  0.2786
   27TMC2     C  417   0.186   3.462  12.143  0.1817  0.0843  0.2611
   27TMC2     O  418   0.275   3.384  12.173 -0.1565  0.7776  0.8396
   27TMC2     H  419   0.002   3.522  11.978 -0.3608  0.1511 -1.5973
   27TMC2    H1  420   0.421   3.568  12.072 -0.6799 -1.1901  0.4743
   27TMC2    H2  421   0.244   3.822  11.794  1.4193 -1.1434 -1.0948
   27TMC2    C7  422   0.366   3.811  12.038 -0.2965 -0.4344  0.5601
   27TMC2    C8  423   4.711   3.756  11.813 -0.4815  0.2816  0.1774
   27TMC2    O1  424   0.437   3.779  12.135  0.0027  0.5803  0.2582
   27TMC2    O2  425   4.700   3.877  11.807 -0.1171 -0.0910  0.1627
   27TMC2    O5  426   4.614   3.659  11.805 -0.1944  0.1020  0.2951
   27TMC2    H5  427   4.654   3.569  11.803 -0.5993 -0.0823  0.4463
   28MPD2     C  428   4.715   3.386  12.610  0.2629  0.3596  0.0390
   28MPD2    C1  429   4.649   3.497  12.560  0.5424 -0.0001  0.4543
   28MPD2    C2  430   4.687   3.540  12.430  0.1959 -0.0271  0.6741
   28MPD2    C3  431   0.059   3.470  12.352 -0.1649  0.4357  0.0114
   28MPD2    C4  432   0.124   3.362  12.412 -0.3125  1.0276  0.4723
   28MPD2    C5  433   0.096   3.325  12.543  0.0527  0.5089 -0.0312
   28MPD2     H  434   4.638   3.627  12.388  0.2403 -1.0513 -1.5143
   28MPD2    H1  435   0.197   3.297  12.366  1.9094  2.1091  2.4318
   28MPD2    H2  436   4.687   3.347  12.708 -0.4535  1.5277  0.2921
   28MPD2    H3  437   0.155   3.248  12.592 -0.5804 -1.4177 -2.3360
   28MPD2     N  438   0.089   3.517  12.224  0.5624  0.4931  0.0432
   28MPD2    H5  439   0.046   3.607  12.203 -1.4389 -0.5254 -0.1930
   28MPD2    N1  440   4.539   3.548  12.635 -0.1289  0.1608 -0.2361
   28MPD2    H7  441   4.519   3.498  12.721 -1.0002  1.3831  0.2772
   29MPD2     C  442   3.977   1.344  13.944  0.2664  0.0953  0.2926
   29MPD2    C1  443   4.075   1.314  14.034 -0.1763  0.2625  0.5588
   29MPD2    C2  444   4.148   1.422  14.092  0.3064 -0.5951 -1.0953
   29MPD2    C3  445   4.109   1.553  14.071  0.8482 -0.5462  0.0461
   29MPD2    C4  446   4.000   1.579  13.988  0.2227 -0.2161  0.0339
   29MPD2    C5  447   3.931   1.470  13.932  0.1993  0.2515 -0.0774
   29MPD2     H  448   4.231   1.407  14.159 -2.0032  0.2819  1.9618
   29MPD2    H1  449   3.968   1.679  13.963 -1.0569 -0.2831  1.4105
   29MPD2    H2  450   3.925   1.267  13.887 -0.2907 -1.4437  2.8379
   29MPD2    H3  451   3.847   1.483  13.864  2.3700  2.7357 -2.2506
   29MPD2     N  452   4.160   1.663  14.144  0.4397  0.6058  0.6750
   29MPD2    H5  453   4.108   1.749  14.152  0.8914  0.8637  0.8660
   29MPD2    N1  454   4.118   1.180  14.069 -0.0079 -0.5816  0.5692
   29MPD2    H7  455   4.190   1.175  14.141  0.5885 -0.3127 -0.0033
   30TCq2    C1  456   4.281   1.665  14.207 -0.6194 -0.5425  0.4367
   30TCq2    O2  457   4.379   1.592  14.197 -0.2769 -0.3044  0.3615
   30TCq2    C2  458   4.310   1.794  14.266  0.6822  0.2817 -0.4869
   30TCq2    C3  459   4.199   1.869  14.302  0.2825  0.0115 -0.3100
   30TCq2    C4  460   4.222   1.991  14.359  0.6839  0.5369  0.5560
   30TCq2    C5  461   4.353   2.038  14.395 -0.7764 -0.2944 -0.4783
   30TCq2    C6  462   4.452   1.959  14.349 -0.2468 -0.1105 -0.0889
   30TCq2    C7  463   4.438   1.839  14.284  0.1193  0.4392 -0.0247
   30TCq2    C8  464   4.590   1.997  14.372 -1.0723 -0.1795  0.5561
   30TCq2    O4  465   4.675   1.946  14.294  0.2881  0.4120  0.1608
   30TCq2    C9  466   4.109   2.064  14.422 -0.6455  0.2289 -0.3865
   30TCq2    O5  467   4.139   2.130  14.528 -0.2029 -0.0468  0.1396
   30TCq2    O6  468   3.995   2.032  14.381 -0.4610  0.1977 -0.1163
   30TCq2    H2  469   4.097   1.835  14.296  0.9167 -1.9872  0.2408
   30TCq2    H3  470   4.363   2.140  14.430 -0.2979  0.0424 -1.6087
   30TCq2    H4  471   4.526   1.790  14.244 -0.7582  0.9207 -2.5181
   31MPD2     C  472   2.616   0.856  14.816  0.0413  0.2932  0.5153
   31MPD2    C1  473   2.495   0.805  14.756 -0.4716  0.0561  0.6255
   31MPD2    C2  474   2.435   0.690  14.812 -0.2156  0.0153 -0.3443
   31MPD2    C3  475   2.481   0.635  14.933 -0.6634 -0.1721 -0.0770
   31MPD2    C4  476   2.586   0.705  14.997  0.2200 -0.0875  0.1539
   31MPD2    C5  477   2.654   0.808  14.937  0.2788 -0.6229  0.5490
   31MPD2     H  478   2.360   0.636  14.756 -1.0858  1.2313 -0.3729
   31MPD2    H1  479   2.619   0.670  15.095  0.9604  1.0269  0.2995
   31MPD2    H2  480   2.664   0.946  14.781  0.0038  0.5887  1.2104
   31MPD2    H3  481   2.735   0.860  14.987  1.6457 -2.1866 -0.0233
   31MPD2     N  482   2.447   0.509  14.996 -0.3686  0.2344 -0.3154
   31MPD2    H5  483   2.504   0.479  15.074 -0.4082  0.2130 -0.2949
   31MPD2    N1  484   2.440   0.875  14.644 -0.4712  0.2642 -0.2942
   31MPD2    H7  485   2.501   0.946  14.604  0.8834 -0.3233  0.7106
   32TCq2    C1  486   2.354   0.417  14.947 -0.0605 -0.6081 -0.2638
   32TCq2    O2  487   2.272   0.425  14.856 -0.1704  0.8703 -0.2873
   32TCq2    C2  488   2.346   0.296  15.023 -0.0745 -0.1033 -0.2123
   32TCq2    C3  489   2.279   0.188  14.970  0.0472  0.5140 -0.6210
   32TCq2    C4  490   2.255   0.073  15.045  0.0189  0.7160  0.2876
   32TCq2    C5  491   2.296   0.074  15.176 -0.1934  0.6053 -0.5072
   32TCq2    C6  492   2.363   0.181  15.223 -0.7437 -0.4966 -0.0614
   32TCq2    C7  493   2.391   0.293  15.151  0.0303 -0.7214  0.2743
   32TCq2    C8  494   2.391   0.171  15.365  0.1662  0.5095  0.1823
   32TCq2    O4  495   2.332   0.089  15.436  0.5712 -0.4324 -0.0158
   32TCq2    C9  496   2.175   4.681  14.998 -0.6466 -0.0015 -0.0843
   32TCq2    O5  497   2.129   4.603  15.088 -0.3530  0.3909  0.6906
   32TCq2    O6  498   2.144   4.691  14.877  0.1382  0.0914  0.5676
   32TCq2    H2  499   2.241   0.185  14.869 -0.1219 -2.0874 -0.5005
   32TCq2    H3  500   2.272   4.707  15.235 -0.5731  0.9236 -0.1871
   32TCq2    H4  501   2.429   0.384  15.197 -2.6651  0.2543  0.5536
   33MPD2     C  502   3.113   2.712  10.034 -0.8301 -0.1841 -0.7058
   33MPD2    C1  503   3.053   2.758  10.149 -0.7032 -0.5555 -0.3986
   33MPD2    C2  504   3.043   2.892  10.170  0.3439 -0.1117 -0.4825
   33MPD2    C3  505   3.102   2.988  10.085  0.0675  0.3118 -0.0595
   33MPD2    C4  506   3.170   2.940   9.976 -0.1330 -1.0958 -0.6711
   33MPD2    C5  507   3.179   2.805   9.952  0.0247  0.3794  0.3648
   33MPD2     H  508   2.977   2.930  10.247  1.7195 -1.6153  1.4555
   33MPD2    H1  509   3.215   3.009   9.905 -0.0300 -0.4296  0.0494
   33MPD2    H2  510   3.129   2.607  10.015 -0.4305 -0.2383 -0.0610
   33MPD2    H3  511   3.247   2.757   9.882 -0.2304 -1.8807  1.6686
   33MPD2     N  512   3.063   3.125  10.077 -0.0892 -0.8394 -0.3903
   33MPD2    H5  513   3.093   3.175   9.994 -2.5598  1.1748 -0.0507
   33MPD2    N1  514   2.978   2.667  10.231 -0.1313  0.1266 -0.5219
   33MPD2    H7  515   2.933   2.709  10.312 -0.4706 -0.6665 -0.2983
   34TCq2    C1  516   2.994   3.191  10.174 -0.7956 -0.3976  0.0043
   34TCq2    O2  517   2.975   3.156  10.289 -0.4179 -0.1721  0.7773
   34TCq2    C2  518   2.947   3.320  10.130 -0.3444  0.5511 -0.0994
   34TCq2    C3  519   2.920   3.413  10.218 -0.3958 -0.1810  0.4700
   34TCq2    C4  520   2.908   3.541  10.172  0.0314 -0.6746  1.0420
   34TCq2    C5  521   2.925   3.571  10.040 -0.4486  0.0780 -0.5100
   34TCq2    C6  522   2.943   3.477   9.951  0.2064 -0.1194 -0.4102
   34TCq2    C7  523   2.953   3.342   9.991 -0.7987  0.1214  0.1737
   34TCq2    C8  524   3.011   3.509   9.819 -0.5759 -0.3469  0.1314
   34TCq2    O4  525   3.006   3.422   9.728  0.2848 -0.0502  0.0160
   34TCq2    C9  526   2.889   3.648  10.266  0.5917 -0.1063 -0.1423
   34TCq2    O5  527   2.915   3.765  10.221 -0.4842 -0.3925 -0.3658
   34TCq2    O6  528   2.866   3.623  10.386  0.1728  0.2984  0.1837
   34TCq2    H2  529   2.928   3.394  10.324 -0.1903 -0.9759  0.3084
   34TCq2    H3  530   2.900   3.670  10.005 -2.0144  0.6367  2.2617
   34TCq2    H4  531   2.962   3.267   9.914 -4.0692 -0.0723 -0.0123
   35MPD2     C  532   4.123   4.124  11.948  0.5968  0.0344 -0.5240
   35MPD2    C1  533   4.080   4.015  12.016  0.5056 -0.0838  0.0715
   35MPD2    C2  534   3.963   3.950  11.970  0.6132 -0.0876  0.3158
   35MPD2    C3  535   3.899   3.989  11.858 -0.1424  0.4265  0.5745
   35MPD2    C4  536   3.939   4.105  11.785  0.4483  0.2038  0.1170
   35MPD2    C5  537   4.049   4.173  11.840 -0.1102 -0.5292  0.4834
   35MPD2     H  538   3.913   3.877  12.033 -1.0160  0.5991 -0.1976
   35MPD2    H1  539   3.895   4.150  11.697 -0.7522 -1.4802 -0.1566
   35MPD2    H2  540   4.201   4.192  11.980  0.8713 -0.5790  0.1233
   35MPD2    H3  541   4.083   4.266  11.797  0.8464 -0.7671  0.7325
   35MPD2     N  542   3.782   3.921  11.820 -0.3229 -0.6311  0.1355
   35MPD2    H5  543   3.771   3.844  11.885  2.1329 -0.4447  0.7774
   35MPD2    N1  544   4.148   3.965  12.124  0.0568  0.4182  0.1328
   35MPD2    H7  545   4.215   4.026  12.169 -1.7709  2.1800  0.4950
   36TCq2    C1  546   3.695   3.942  11.719  0.7987  1.0744 -0.3198
   36TCq2    O2  547   3.695   4.036  11.637  0.2660 -0.0938 -0.0151
   36TCq2    C2  548   3.587   3.836  11.726  0.0336 -0.2469  0.1040
   36TCq2    C3  549   3.478   3.864  11.646 -0.5717 -0.6044 -0.4574
   36TCq2    C4  550   3.401   3.762  11.593  0.1994 -0.3197  0.3383
   36TCq2    C5  551   3.445   3.636  11.609  0.6120 -0.0430  0.1245
   36TCq2    C6  552   3.563   3.613  11.674 -0.3140  0.7726  0.5282
   36TCq2    C7  553   3.638   3.712  11.737  0.1995  0.5564  0.2927
   36TCq2    C8  554   3.631   3.488  11.638 -0.3740 -0.3635  0.8072
   36TCq2    O4  555   3.555   3.392  11.602 -0.5421 -0.2015 -0.3592
   36TCq2    C9  556   3.279   3.783  11.533 -0.6293 -0.2876  0.4274
   36TCq2    O5  557   3.235   3.903  11.514  0.0814 -0.0041 -0.2963
   36TCq2    O6  558   3.210   3.679  11.523  0.0727  0.2239 -0.2944
   36TCq2    H2  559   3.447   3.964  11.617 -0.8878 -0.7310 -0.5495
   36TCq2    H3  560   3.407   3.558  11.544  0.2477 -0.9814  1.4546
   36TCq2    H4  561   3.712   3.682  11.809  0.2380 -4.6372 -1.9142
   37TMC2    C1  562   1.093   4.210  12.018  0.0579 -0.2794 -0.2295
   37TMC2    C2  563   1.096   4.271  11.894 -0.2897 -0.1823  0.0002
   37TMC2    C3  564   1.214   4.321  11.847  0.2634  0.1075  0.4894
   37TMC2    C4  565   1.211   4.199  12.091 -0.3191  0.2881 -0.2237
   37TMC2    C5  566   1.330   4.253  12.046  0.0948  0.4909  0.0642
   37TMC2    C6  567   1.330   4.322  11.922 -0.1441  0.2821  1.1964
   37TMC2     C  568   0.956   4.166  12.064 -0.0559  0.1006  0.0481
   37TMC2     O  569   0.867   4.170  11.980 -0.0620  0.4074  0.3957
   37TMC2     H  570   1.011   4.274  11.827 -1.0492  0.9585  1.0324
   37TMC2    H1  571   1.212   4.152  12.189 -0.3473  1.7231  0.4684
   37TMC2    H2  572   1.421   4.362  11.880 -1.3523 -0.3063 -2.0538
   37TMC2    C7  573   1.459   4.211  12.104  0.9843  0.9248  1.2629
   37TMC2    C8  574   1.193   4.374  11.715  0.5244  0.6643 -0.1219
   37TMC2    O1  575   1.448   4.198  12.226  0.3603  0.3036  0.4074
   37TMC2    O2  576   1.085   4.412  11.672 -0.5138 -0.2561  0.3081
   37TMC2    O5  577   1.310   4.360  11.642 -0.1368 -0.4696 -0.6328
   37TMC2    H5  578   1.389   4.322  11.686  0.3988  1.1123 -0.2528
   38MPD2     C  579   0.618   3.953  12.388 -0.2199 -0.4389  0.1883
   38MPD2    C1  580   0.735   3.980  12.458 -0.4271 -0.1832 -0.1887
   38MPD2    C2  581   0.848   4.024  12.390 -0.3041  0.0760 -0.3263
   38MPD2    C3  582   0.842   4.052  12.249  0.0377  0.0679 -0.2526
   38MPD2    C4  583   0.720   4.035  12.186 -1.1554 -0.6943  0.3070
   38MPD2    C5  584   0.615   3.981  12.253 -0.2998  0.0058 -0.7182
   38MPD2     H  585   0.942   4.049  12.438 -0.5346 -1.3389  0.8319
   38MPD2    H1  586   0.715   4.062  12.081  2.4240 -2.2834 -0.2705
   38MPD2    H2  587   0.533   3.903  12.431  1.2327 -0.8022  2.6479
   38MPD2    H3  588   0.525   3.978  12.193  0.1157 -0.0760 -1.3349
   38MPD2     N  589   0.956   4.106  12.190  0.1378 -0.6249 -0.5827
   38MPD2    H5  590   1.043   4.116  12.241 -1.9992  0.1144  2.9197
   38MPD2    N1  591   0.759   3.958  12.594 -0.3313 -0.4578 -0.2348
   38MPD2    H7  592   0.849   3.989  12.630 -0.0993  0.5031 -1.6452
   39MPD2     C  593   4.227   1.004   2.156 -0.1067 -0.2296  0.1553
   39MPD2    C1  594   4.124   0.986   2.252  0.8795  0.0610  0.4875
   39MPD2    C2  595   3.995   1.002   2.208 -0.2810 -0.4158 -0.1135
   39MPD2    C3  596   3.960   1.039   2.082 -0.0113 -0.2485 -0.3281
   39MPD2    C4  597   4.060   1.064   1.990  0.2475  0.1683 -0.2428
   39MPD2    C5  598   4.195   1.034   2.023  0.1107 -0.2549 -0.3694
   39MPD2     H  599   3.922   0.999   2.288 -0.0593 -0.6062  0.0833
   39MPD2    H1  600   4.036   1.082   1.885  1.1085 -0.8904 -0.6234
   39MPD2    H2  601   4.330   0.987   2.185  0.5049 -0.6560 -2.2440
   39MPD2    H3  602   4.271   1.032   1.947 -0.7250 -1.4127 -1.1841
   39MPD2     N  603   3.826   1.044   2.035 -0.2136 -0.1469 -0.5620
   39MPD2    H5  604   3.814   1.062   1.936 -3.2461  2.7736  0.3371
   39MPD2    N1  605   4.164   0.946   2.381 -0.0751 -0.0057  0.4877
   39MPD2    H7  606   4.264   0.937   2.393  0.0467  0.1929 -0.3833
   40TCq2    C1  607   4.084   0.910   2.483 -0.1695  0.4489  0.4824
   40TCq2    O2  608   3.966   0.877   2.474 -0.2110 -0.1235  0.1262
   40TCq2    C2  609   4.170   0.880   2.605  0.6379 -0.0072  0.0740
   40TCq2    C3  610   4.110   0.826   2.718  0.9199  0.4132  0.0473
   40TCq2    C4  611   4.180   0.801   2.834  0.6621  0.0297  0.4974
   40TCq2    C5  612   4.310   0.837   2.847 -0.4782 -0.1892 -0.0234
   40TCq2    C6  613   4.367   0.902   2.738  0.3308 -0.0449 -0.1680
   40TCq2    C7  614   4.296   0.932   2.620 -0.2880  0.2065 -0.3586
   40TCq2    C8  615   4.504   0.942   2.728 -0.0473 -0.7095  0.3218
   40TCq2    O4  616   4.583   0.886   2.802  0.7192  0.1416  0.1121
   40TCq2    C9  617   4.118   0.734   2.946 -0.2577 -0.2783 -0.3545
   40TCq2    O5  618   3.998   0.708   2.937  0.2480  0.5757 -0.0909
   40TCq2    O6  619   4.175   0.744   3.051 -0.2109  0.2502  0.5815
   40TCq2    H2  620   4.013   0.780   2.702  0.4649  0.2863  3.0634
   40TCq2    H3  621   4.368   0.806   2.933 -1.8861 -1.1463  0.5668
   40TCq2    H4  622   4.352   0.959   2.532 -0.0373 -2.6524 -1.0755
   41TMC2    C1  623   2.688   3.788  13.782 -0.3305 -1.1724 -0.5413
   41TMC2    C2  624   2.763   3.676  13.753  0.1029 -0.5312 -0.6318
   41TMC2    C3  625   2.782   3.643  13.621 -0.2750 -0.5256 -0.1476
   41TMC2    C4  626   2.638   3.872  13.681 -0.3115  0.0098 -0.4268
   41TMC2    C5  627   2.667   3.833  13.554  0.0108 -0.4367 -0.2671
   41TMC2    C6  628   2.739   3.720  13.520  0.8861  0.8435 -0.1846
   41TMC2     C  629   2.649   3.803  13.918 -0.3089 -0.2666 -0.1821
   41TMC2     O  630   2.654   3.702  13.986 -0.3266 -0.2219 -0.7697
   41TMC2     H  631   2.803   3.612  13.830 -0.1893  1.4466  1.1568
   41TMC2    H1  632   2.580   3.961  13.702 -0.6452 -0.7441  1.8305
   41TMC2    H2  633   2.750   3.688  13.417 -1.4976 -1.0068  0.1587
   41TMC2    C7  634   2.570   3.864  13.452 -0.5138  0.2404  0.1262
   41TMC2    C8  635   2.885   3.542  13.594 -0.8302  0.5294  0.0181
   41TMC2    O1  636   2.454   3.882  13.493 -0.1947 -0.4754 -0.1850
   41TMC2    O2  637   2.977   3.572  13.517  0.3657 -1.2308 -0.5816
   41TMC2    O5  638   2.897   3.456  13.697 -0.5139  0.3091  1.0210
   41TMC2    H5  639   2.804   3.445  13.724 -1.0834  1.2905 -0.5355
   42MPD2     C  640   2.508   3.894  14.164 -0.1758  0.2762 -0.5717
   42MPD2    C1  641   2.566   3.978  14.078  0.7372  0.4119 -0.7240
   42MPD2    C2  642   2.556   4.110  14.098 -0.5264  0.4302 -0.1071
   42MPD2    C3  643   2.485   4.158  14.205  0.3882  0.3157  0.1583
   42MPD2    C4  644   2.433   4.069  14.294 -0.8140  0.2690 -0.5794
   42MPD2    C5  645   2.441   3.937  14.274  0.1646 -0.6099  0.6924
   42MPD2     H  646   2.613   4.177  14.035 -2.3953  1.6607 -0.4904
   42MPD2    H1  647   2.384   4.105  14.383 -0.6555 -0.4599 -0.1950
   42MPD2    H2  648   2.508   3.786  14.151  1.7172  0.0211  1.4040
   42MPD2    H3  649   2.392   3.867  14.341 -0.9643  0.4982  1.0233
   42MPD2     N  650   2.481   4.294  14.239  0.6924 -0.4937  0.0947
   42MPD2    H5  651   2.474   4.321  14.336  0.3278  0.6370 -0.2449
   42MPD2    N1  652   2.620   3.932  13.953 -0.1431 -0.0357 -0.6664
   42MPD2    H7  653   2.643   4.003  13.883  0.6680 -0.7756 -1.1540
   43MPD2     C  654   0.302   2.615   1.674 -0.7723  0.2624  0.5433
   43MPD2    C1  655   0.239   2.527   1.758  0.2377 -0.8956 -0.2912
   43MPD2    C2  656   0.210   2.556   1.887  0.2597  0.1037 -0.3849
   43MPD2    C3  657   0.246   2.682   1.931  0.3577  0.2097  0.2737
   43MPD2    C4  658   0.305   2.771   1.844  0.0378  0.5646  0.3918
   43MPD2    C5  659   0.341   2.743   1.716  0.1656  0.7743 -0.3243
   43MPD2     H  660   0.154   2.490   1.952  1.3657 -1.5601 -1.1418
   43MPD2    H1  661   0.322   2.872   1.881  0.6451  0.0606  1.4879
   43MPD2    H2  662   0.297   2.612   1.566 -2.7852 -0.4999  0.6614
   43MPD2    H3  663   0.384   2.807   1.640  0.3772  0.4062 -0.5140
   43MPD2     N  664   0.220   2.717   2.071 -0.2747  0.0195  0.1543
   43MPD2    H5  665   0.259   2.805   2.102 -1.8304  0.5953  0.4742
   43MPD2    N1  666   0.175   2.411   1.708  0.0570 -0.5585  0.1731
   43MPD2    H7  667   0.126   2.353   1.777  1.0115 -0.1561  1.1926
   44TCq2    C1  668   0.168   3.015   2.464  0.4219  0.9449  0.0539
   44TCq2    O2  669   0.219   3.077   2.369  0.3066  0.0313  0.1390
   44TCq2    C2  670   0.186   2.875   2.451 -0.6882  0.1052 -0.2039
   44TCq2    C3  671   0.162   2.793   2.555 -0.5877  0.1420 -0.3661
   44TCq2    C4  672   0.141   2.656   2.532  0.3287  0.1586 -0.4905
   44TCq2    C5  673   0.145   2.604   2.408 -0.3755  0.0339 -0.0592
   44TCq2    C6  674   0.167   2.692   2.300 -0.7431  0.0218 -0.4529
   44TCq2    C7  675   0.190   2.826   2.318 -0.2913 -0.4754 -0.1392
   44TCq2    C8  676   0.182   2.633   2.170 -0.0959 -0.8410  0.2879
   44TCq2    O4  677   0.166   2.511   2.165  0.1486  0.0505 -0.3706
   44TCq2    C9  678   0.110   2.575   2.648 -0.1578  0.0664  0.5798
   44TCq2    O5  679   0.075   2.638   2.750  0.0879  0.6556  0.2495
   44TCq2    O6  680   0.083   2.453   2.631 -0.4065 -0.1765 -0.1879
   44TCq2    H2  681   0.149   2.827   2.657  1.0808 -0.4981  0.0683
   44TCq2    H3  682   0.111   2.502   2.391  0.2867 -0.0099 -1.1614
   44TCq2    H4  683   0.185   2.900   2.239 -1.4193  0.4109  0.7592
   45TMC2    C1  684   0.684   4.099   9.770  0.5679 -0.3921 -0.0643
   45TMC2    C2  685   0.817   4.136   9.757  0.1982  0.0685  0.3800
   45TMC2    C3  686   0.860   4.246   9.826  0.1885  0.0386  0.1928
   45TMC2    C4  687   0.585   4.179   9.830 -0.5338 -0.0690  0.1664
   45TMC2    C5  688   0.630   4.293   9.884 -1.2017  0.1056  0.5455
   45TMC2    C6  689   0.768   4.326   9.885 -0.0863 -0.2721  0.2131
   45TMC2     C  690   0.658   3.959   9.716 -0.0150  0.5750 -0.1032
   45TMC2     O  691   0.761   3.899   9.685 -0.5142 -0.2867 -0.1741
   45TMC2     H  692   0.888   4.077   9.700  0.2680  0.9619 -0.4531
   45TMC2    H1  693   0.487   4.136   9.848  0.0683 -2.1320 -1.5334
   45TMC2    H2  694   0.807   4.410   9.942  1.2007 -0.4388 -0.4297
   45TMC2    C7  695   0.532   4.375   9.954 -0.4363  0.7039  0.2930
   45TMC2    C8  696   0.996   4.295   9.807 -0.7433 -0.2877 -0.0397
   45TMC2    O1  697   0.412   4.361   9.933 -0.3951  0.3746 -0.5657
   45TMC2    O2  698   1.015   4.417   9.808  0.2148 -0.1215  0.5293
   45TMC2    O5  699   1.075   4.200   9.859 -0.1953 -0.4954  0.0577
   45TMC2    H5  700   1.037   4.109   9.858 -0.6880 -0.2882  0.5471
   46MPD2     C  701   0.552   3.691   9.735  0.3590  0.7142 -0.6280
   46MPD2    C1  702   0.473   3.795   9.713  0.2149  0.2029  0.4122
   46MPD2    C2  703   0.339   3.770   9.688  0.1801  0.2934  1.0202
   46MPD2    C3  704   0.288   3.641   9.688 -0.7527  0.3506  0.3884
   46MPD2    C4  705   0.370   3.531   9.699  0.2343 -0.8014 -0.1980
   46MPD2    C5  706   0.503   3.559   9.716  0.1262 -0.1537 -0.1977
   46MPD2     H  707   0.271   3.854   9.692 -0.0692  0.1380 -0.1143
   46MPD2    H1  708   0.337   3.428   9.685  1.0148 -0.9423 -1.0147
   46MPD2    H2  709   0.659   3.702   9.748  0.2367  1.1918 -0.0465
   46MPD2    H3  710   0.580   3.482   9.713 -1.5783 -1.8510 -0.8095
   46MPD2     N  711   0.147   3.633   9.670 -0.1633 -0.8792  0.2625
   46MPD2    H5  712   0.096   3.721   9.663 -1.6164 -1.7496 -0.1667
   46MPD2    N1  713   0.524   3.926   9.716  0.0561 -0.2234  0.0040
   46MPD2    H7  714   0.460   4.005   9.717  1.3765  0.8642 -0.7236
   47TMC2    C1  715   1.558   0.028   9.510  0.1369  0.1384 -0.7068
   47TMC2    C2  716   1.585   4.628   9.567 -0.3768 -0.6009  0.4513
   47TMC2    C3  717   1.489   4.571   9.651  0.2173  0.7528  0.8097
   47TMC2    C4  718   1.435   0.082   9.514  0.5759  0.4840  0.0080
   47TMC2    C5  719   1.341   0.021   9.595  0.0163  0.1032 -0.7555
   47TMC2    C6  720   1.369   4.630   9.660 -0.3585  0.4984  0.6912
   47TMC2     C  721   1.639   0.087   9.409 -0.1282 -0.5789  0.5175
   47TMC2     O  722   1.589   0.162   9.323  0.1775 -0.1972  0.2215
   47TMC2     H  723   1.680   4.579   9.546 -0.1443 -0.5057  1.2818
   47TMC2    H1  724   1.413   0.173   9.460  0.0947 -0.6024 -1.6410
   47TMC2    H2  725   1.295   4.584   9.725 -0.9561  0.2039 -0.1883
   47TMC2    C7  726   1.210   0.067   9.595  0.5311 -0.3705 -1.0120
   47TMC2    C8  727   1.496   4.454   9.725 -0.0867 -0.4663 -0.2721
   47TMC2    O1  728   1.131   4.697   9.614 -0.1342  0.1449 -0.6069
   47TMC2    O2  729   1.401   4.378   9.716 -0.1844  0.7491  0.3650
   47TMC2    O5  730   1.618   4.410   9.704 -0.0208 -0.0517  0.4341
   47TMC2    H5  731   1.682   4.476   9.738 -1.7723  2.3447 -0.9386
   48MPD2     C  732   1.857   0.171   9.216  0.1466 -0.1808  0.1906
   48MPD2    C1  733   1.873   0.096   9.331  0.5432 -0.6302 -0.3074
   48MPD2    C2  734   1.998   0.059   9.358 -0.1070 -0.2598  0.2366
   48MPD2    C3  735   2.114   0.093   9.293  0.3648 -0.5263  0.1333
   48MPD2    C4  736   2.103   0.172   9.177 -0.3716 -0.0501 -0.3489
   48MPD2    C5  737   1.974   0.214   9.147  0.3012  0.7138  0.4233
   48MPD2     H  738   2.011   0.003   9.450 -0.9396 -0.1899  0.3939
   48MPD2    H1  739   2.181   0.210   9.114  1.6077 -5.8718 -1.4054
   48MPD2    H2  740   1.763   0.194   9.168  0.3363  0.7286  0.2553
   48MPD2    H3  741   1.965   0.268   9.053  1.9343  0.1289 -0.0639
   48MPD2     N  742   2.235   0.045   9.349  0.3924  0.8745 -0.3869
   48MPD2    H5  743   2.222   4.716   9.437  0.3853 -0.4013 -1.1165
   48MPD2    N1  744   1.770   0.043   9.415 -0.2361  0.1194 -0.0949
   48MPD2    H7  745   1.802   4.713   9.497  1.5584 -1.5148 -1.8177
   49MPD2     C  746   1.320   2.096   9.920 -0.4088 -0.3368 -0.1659
   49MPD2    C1  747   1.227   2.039   9.994  0.1901 -0.5570  0.6629
   49MPD2    C2  748   1.244   2.000  10.124 -0.3306 -0.2925  0.5467
   49MPD2    C3  749   1.368   2.023  10.185  0.4120 -0.2860  1.1106
   49MPD2    C4  750   1.471   2.075  10.109 -0.7825  0.6806  0.7781
   49MPD2    C5  751   1.448   2.109   9.973 -0.3068 -0.7373  0.8086
   49MPD2     H  752   1.160   1.955  10.177  0.1512  0.1287  1.6638
   49MPD2    H1  753   1.571   2.080  10.149 -1.3137  0.0186  2.1932
   49MPD2    H2  754   1.310   2.123   9.815 -0.5201 -1.3281 -0.4158
   49MPD2    H3  755   1.522   2.157   9.910 -0.9836  1.0395  1.3504
   49MPD2     N  756   1.390   2.012  10.323  0.0260  0.4726 -0.0740
   49MPD2    H5  757   1.488   2.010  10.352 -0.4853  1.7437  1.7755
   49MPD2    N1  758   1.106   1.987   9.927  0.5085  0.4505 -0.0540
   49MPD2    H7  759   1.063   1.907   9.972 -2.5439  1.5875 -0.9548
   50TCq2    C1  760   1.060   2.029   9.801  0.6269 -0.1709  0.3790
   50TCq2    O2  761   1.092   2.134   9.746 -0.6788  0.5480  0.6498
   50TCq2    C2  762   0.946   1.957   9.752  0.0946  0.9074  0.3236
   50TCq2    C3  763   0.934   1.967   9.617 -0.4530  0.2736  0.5255
   50TCq2    C4  764   0.837   1.898   9.556 -0.2455 -0.0404 -0.1954
   50TCq2    C5  765   0.754   1.821   9.631  0.0370  0.3351 -0.7722
   50TCq2    C6  766   0.767   1.812   9.770 -0.3016 -0.2222  0.1279
   50TCq2    C7  767   0.869   1.879   9.830 -0.0832 -0.2615 -0.5229
   50TCq2    C8  768   0.688   1.717   9.849  0.5202  0.0965 -1.0043
   50TCq2    O4  769   0.578   1.698   9.798  0.2756  0.8397  0.0603
   50TCq2    C9  770   0.815   1.898   9.413  0.4685 -0.5269 -0.2703
   50TCq2    O5  771   0.905   1.944   9.338 -0.3542  0.1526 -0.5372
   50TCq2    O6  772   0.715   1.831   9.376 -0.0692 -0.1541  0.3259
   50TCq2    H2  773   1.000   2.026   9.553 -3.1616  1.1778 -1.4282
   50TCq2    H3  774   0.684   1.752   9.584  1.2679 -0.0944 -1.9826
   50TCq2    H4  775   0.883   1.887   9.937  0.4105  0.2807 -0.6292
   51MPD2     C  776   2.555   0.293   1.892  0.7026  0.4088 -0.7976
   51MPD2    C1  777   2.436   0.357   1.902  0.9313 -0.4150 -0.7640
   51MPD2    C2  778   2.375   0.344   2.027 -0.1403 -0.3838 -0.5855
   51MPD2    C3  779   2.426   0.269   2.131  0.2401 -0.2305  0.5600
   51MPD2    C4  780   2.547   0.207   2.116  0.0966 -0.2790 -0.3476
   51MPD2    C5  781   2.605   0.215   1.991 -0.4948 -0.0890 -0.2953
   51MPD2     H  782   2.285   0.400   2.050 -0.0284 -1.4257  2.4244
   51MPD2    H1  783   2.588   0.149   2.197  0.5665  4.3271  2.6940
   51MPD2    H2  784   2.614   0.295   1.801  0.5899  2.9688 -0.8141
   51MPD2    H3  785   2.702   0.168   1.989 -0.0892  0.6644  1.6432
   51MPD2     N  786   2.364   0.256   2.263  0.4490 -0.0250  0.1681
   51MPD2    H5  787   2.421   0.204   2.329  1.8578  2.3556  0.8609
   51MPD2    N1  788   2.367   0.414   1.796 -0.1804  0.0088  0.2442
   51MPD2    H7  789   2.269   0.435   1.811 -0.4439  0.4400 -2.0712
   52TCq2    C1  790   2.239   0.302   2.299 -0.3065 -0.5531  0.6961
   52TCq2    O2  791   2.158   0.358   2.228  0.1510 -0.1949  0.2793
   52TCq2    C2  792   2.186   0.250   2.424  0.4102  0.0809 -0.9578
   52TCq2    C3  793   2.246   0.146   2.488  0.3895 -0.4663  0.0493
   52TCq2    C4  794   2.217   0.122   2.620  0.1034  0.4301 -0.7254
   52TCq2    C5  795   2.127   0.193   2.689 -0.3840 -0.2029 -0.0005
   52TCq2    C6  796   2.068   0.295   2.619 -0.5877  0.4974  0.0150
   52TCq2    C7  797   2.089   0.312   2.486  0.0511 -0.0087 -0.0924
   52TCq2    C8  798   2.010   0.396   2.695 -0.3403  0.5226  0.5540
   52TCq2    O4  799   2.016   0.510   2.651  0.0840  0.2756  0.1243
   52TCq2    C9  800   2.293   0.021   2.683  0.6858 -0.7487 -0.1318
   52TCq2    O5  801   2.265   4.708   2.799 -0.1559  0.3417  0.5392
   52TCq2    O6  802   2.403   4.709   2.627  0.3233  0.8772  0.3444
   52TCq2    H2  803   2.317   0.086   2.433  0.9504 -1.1167  1.4731
   52TCq2    H3  804   2.114   0.179   2.796 -0.1185  4.0919  0.6171
   52TCq2    H4  805   2.032   0.391   2.439 -1.0567 -0.4053  0.5864
   53TMC2    C1  806   2.062   3.952  12.474 -0.0928  0.2942  0.6098
   53TMC2    C2  807   2.176   3.983  12.544  0.2144 -0.6374  0.4263
   53TMC2    C3  808   2.171   4.014  12.677 -0.4080 -0.0459 -0.4970
   53TMC2    C4  809   1.942   3.931  12.538  0.3426  0.8986 -0.2323
   53TMC2    C5  810   1.934   3.967  12.671  0.3219 -0.3538 -0.6027
   53TMC2    C6  811   2.045   4.015  12.743  0.7276  0.3310  0.5425
   53TMC2     C  812   2.047   3.985  12.334 -0.0966 -0.1942  0.2575
   53TMC2     O  813   2.147   3.985  12.263  0.5403 -0.0813  0.5949
   53TMC2     H  814   2.262   4.000  12.481  0.6594 -1.3963  0.8280
   53TMC2    H1  815   1.851   3.895  12.490  1.6771 -0.9728 -1.3317
   53TMC2    H2  816   2.043   4.040  12.849  2.7927  0.1574  0.6211
   53TMC2    C7  817   1.802   4.035  12.703  0.0897 -0.0042 -0.1728
   53TMC2    C8  818   2.254   4.121  12.725 -0.5765 -0.0378  0.5040
   53TMC2    O1  819   1.724   4.055  12.615 -0.4949 -0.1154 -0.0588
   53TMC2    O2  820   2.210   4.224  12.779  0.5748  0.3635  0.2202
   53TMC2    O5  821   2.384   4.105  12.674 -0.7033  0.5338  0.4477
   53TMC2    H5  822   2.399   4.009  12.664 -2.4750  0.5811 -2.6861
   54MPD2     C  823   1.950   4.073  12.071 -0.5638 -0.2667  0.3797
   54MPD2    C1  824   1.871   4.065  12.182 -0.1470 -0.0803  0.2315
   54MPD2    C2  825   1.739   4.101  12.162 -1.0048 -0.7872 -0.4038
   54MPD2    C3  826   1.689   4.143  12.041 -0.2456 -0.7719 -0.2174
   54MPD2    C4  827   1.772   4.159  11.932  1.0815  1.2683  0.3127
   54MPD2    C5  828   1.898   4.111  11.951 -0.1715 -0.1574  1.0383
   54MPD2     H  829   1.671   4.079  12.244 -0.0700  0.3282  0.6831
   54MPD2    H1  830   1.739   4.193  11.834 -0.5727 -1.5104 -0.0935
   54MPD2    H2  831   2.057   4.053  12.066 -0.3189  1.1290  0.1734
   54MPD2    H3  832   1.962   4.118  11.864  1.3702 -1.9428  2.0273
   54MPD2     N  833   1.562   4.197  12.017 -0.0052  0.3758 -0.3540
   54MPD2    H5  834   1.537   4.215  11.920 -1.4395 -1.5813 -0.3552
   54MPD2    N1  835   1.916   4.024  12.312 -0.1246  0.3356 -0.0857
   54MPD2    H7  836   1.849   4.021  12.388  1.0333  1.0967  0.9710
   55MPD2     C  837   2.130   3.169  17.585 -0.5721  0.1948  0.1105
   55MPD2    C1  838   2.114   3.057  17.660  0.3012  0.8226 -0.1425
   55MPD2    C2  839   2.024   3.054   0.077 -0.1844  0.1027  0.3734
   55MPD2    C3  840   1.954   3.158   0.111  0.1939  0.1256  0.5608
   55MPD2    C4  841   1.956   3.274   0.029 -0.1730  0.2087 -0.4130
   55MPD2    C5  842   2.044   3.276  17.607 -0.2902  0.6219 -0.6942
   55MPD2     H  843   2.018   2.966   0.140 -0.4917  0.4610  0.8484
   55MPD2    H1  844   1.904   3.367   0.051  2.2000  1.0695  1.6011
   55MPD2    H2  845   2.193   3.169  17.496  0.0457 -2.6813  0.5329
   55MPD2    H3  846   2.051   3.363  17.542  1.0137 -0.3868 -1.9018
   55MPD2     N  847   1.872   3.141   0.230  0.1979  0.0040 -0.6562
   55MPD2    H5  848   1.878   3.052   0.278  1.6038  0.6620  0.4121
   55MPD2    N1  849   2.213   2.955  17.641  0.0199  0.4317 -0.0274
   55MPD2    H7  850   2.278   2.964  17.563  0.8697 -0.4088  0.5978
   56TCq2    C1  851   2.244   2.846   0.039  0.4626  0.0589  0.5748
   56TCq2    O2  852   2.195   2.823   0.152 -0.1052 -0.3003  0.5264
   56TCq2    C2  853   2.354   2.756  17.675 -0.5489  0.3534  0.4460
   56TCq2    C3  854   2.429   2.793  17.574  0.3710 -0.0909  0.5663
   56TCq2    C4  855   2.555   2.739  17.566  0.2646 -0.0515  0.7707
   56TCq2    C5  856   2.607   2.641  17.648 -0.4315 -0.0911  0.4396
   56TCq2    C6  857   2.529   2.615   0.070 -0.5096  0.4742 -0.3156
   56TCq2    C7  858   2.404   2.676   0.087  0.5901  0.3638  0.3221
   56TCq2    C8  859   2.575   2.504   0.157 -0.5824  0.2074  0.7553
   56TCq2    O4  860   2.670   2.433   0.123  0.5701  0.6314 -0.1324
   56TCq2    C9  861   2.645   2.802  17.481 -1.0143  0.4387 -0.2792
   56TCq2    O5  862   2.768   2.770  17.497  0.5817  0.0060 -0.0533
   56TCq2    O6  863   2.598   2.894  17.407 -0.1066 -0.0366 -0.6643
   56TCq2    H2  864   2.406   2.882  17.516  0.8487 -1.2121 -1.3590
   56TCq2    H3  865   2.705   2.597  17.629 -0.3166 -0.2248  1.3436
   56TCq2    H4  866   2.337   2.652   0.170 -0.7139  2.7436 -0.0354
   57TMC2    C1  867   1.658   3.093  13.951  0.0239 -0.5146  1.0878
   57TMC2    C2  868   1.720   3.025  14.055  0.7751  0.0304  0.0417
   57TMC2    C3  869   1.812   2.933  14.017  0.5718 -0.4982 -1.4981
   57TMC2    C4  870   1.716   3.096  13.823  0.3005 -0.1989 -0.3771
   57TMC2    C5  871   1.825   3.018  13.795 -0.1362  0.4121 -0.6032
   57TMC2    C6  872   1.872   2.935  13.896  0.7476 -0.3519  0.3258
   57TMC2     C  873   1.531   3.152  13.982 -0.0461 -0.2318  0.4038
   57TMC2     O  874   1.519   3.184  14.097  0.7840  0.0307 -0.3940
   57TMC2     H  875   1.691   3.036  14.159  2.1960  0.7212  0.3793
   57TMC2    H1  876   1.692   3.168  13.745 -0.3080  0.7603  0.7087
   57TMC2    H2  877   1.964   2.878  13.883  0.1102 -1.5349  1.0948
   57TMC2    C7  878   1.889   3.023  13.668  0.6513  0.1394 -0.2348
   57TMC2    C8  879   1.850   2.835  14.115  0.4220 -0.0526 -0.4079
   57TMC2    O1  880   1.858   3.115  13.597  0.5154  0.5939 -0.1056
   57TMC2    O2  881   1.879   2.858  14.229  0.6348 -0.0995 -0.0735
   57TMC2    O5  882   1.811   2.724  14.054  0.6355 -0.7311 -0.1830
   57TMC2    H5  883   1.758   2.741  13.974  1.0066 -0.8208 -0.4497
   58MPD2     C  884   1.023   3.218  13.898 -0.6364  0.5026  0.3397
   58MPD2    C1  885   1.101   3.255  14.003  0.7230 -0.2928 -0.3281
   58MPD2    C2  886   1.242   3.242  13.998  0.2576 -0.2715 -0.5250
   58MPD2    C3  887   1.305   3.194  13.882 -0.2721  0.0159  0.3811
   58MPD2    C4  888   1.226   3.160  13.774 -0.0019 -0.0238 -0.2805
   58MPD2    C5  889   1.087   3.173  13.783  0.8016 -0.4337 -0.3317
   58MPD2     H  890   1.306   3.278  14.078  1.6938 -0.2522 -1.6728
   58MPD2    H1  891   1.277   3.118  13.688 -1.2355  1.9434 -1.9714
   58MPD2    H2  892   0.915   3.224  13.900 -0.5338  2.9585 -0.7371
   58MPD2    H3  893   1.034   3.137  13.695  0.6808 -1.4880  0.1668
   58MPD2     N  894   1.445   3.173  13.876  0.0630  0.6508  0.1393
   58MPD2    H5  895   1.469   3.129  13.787  1.5672  0.6399  0.5535
   58MPD2    N1  896   1.051   3.306  14.126 -0.0011  0.2644 -0.3388
   58MPD2    H7  897   1.112   3.323  14.206  0.9481  0.1943 -1.0614
   59MPD2     C  898   4.064   3.427  13.576  0.3751 -0.3089 -0.2114
   59MPD2    C1  899   4.182   3.414  13.515 -0.9087  0.4349 -0.7166
   59MPD2    C2  900   4.288   3.484  13.562  0.2124  0.2683 -0.2181
   59MPD2    C3  901   4.283   3.557  13.681 -0.0120 -0.6963  0.7095
   59MPD2    C4  902   4.154   3.578  13.735  0.2169  0.4163  0.1538
   59MPD2    C5  903   4.048   3.513  13.675 -0.2061  0.3512  0.6136
   59MPD2     H  904   4.381   3.467  13.508 -1.0446 -1.7501 -1.7729
   59MPD2    H1  905   4.142   3.640  13.823  2.3197  1.1995 -0.1118
   59MPD2    H2  906   3.975   3.384  13.530 -0.4387  0.2023  0.8845
   59MPD2    H3  907   3.947   3.520  13.714 -0.2862 -1.6962  0.7499
   59MPD2     N  908   4.389   3.609  13.752  0.4614  0.2315 -0.7213
   59MPD2    H5  909   4.368   3.673  13.828 -0.0035  0.0275 -0.6753
   59MPD2    N1  910   4.196   3.332  13.402 -0.6617  0.3948 -0.3257
   59MPD2    H7  911   4.116   3.279  13.369 -0.1542 -0.1073 -0.7599
   60TCq2    C1  912   4.303   3.317  13.312 -0.0852  0.4246 -0.2106
   60TCq2    O2  913   4.395   3.384  13.278 -0.0522  0.1399  0.4923
   60TCq2    C2  914   4.262   3.212  13.216  0.3163  0.0371 -0.5174
   60TCq2    C3  915   4.186   3.105  13.256 -0.5951  0.0682 -0.0711
   60TCq2    C4  916   4.185   2.989  13.188  0.4497  0.6419 -0.3021
   60TCq2    C5  917   4.260   2.982  13.077  0.1565 -0.4027  1.0176
   60TCq2    C6  918   4.344   3.082  13.038  0.2137 -0.5044 -0.3219
   60TCq2    C7  919   4.341   3.199  13.103 -0.3247 -0.4563  0.3525
   60TCq2    C8  920   4.383   3.080  12.898  0.7736 -0.1965  0.5100
   60TCq2    O4  921   4.424   2.977  12.845  0.2759 -0.2995  0.3599
   60TCq2    C9  922   4.086   2.887  13.217 -0.0534 -0.1999 -0.4845
   60TCq2    O5  923   4.084   2.789  13.145 -0.1207 -0.6122 -0.6013
   60TCq2    O6  924   4.005   2.910  13.310 -0.5858 -0.1305  0.0366
   60TCq2    H2  925   4.133   3.107  13.350 -1.6483 -1.7821 -0.6302
   60TCq2    H3  926   4.250   2.896  13.012 -1.5477 -1.2344  2.3755
   60TCq2    H4  927   4.413   3.269  13.061  1.5002 -1.5088  1.7314
   61MPD2     C  928   3.000   4.626  15.057 -0.3803 -0.6561  0.3152
   61MPD2    C1  929   3.108   4.697  15.100 -0.5255 -0.1096 -0.2414
   61MPD2    C2  930   3.193   0.028  15.005  0.9261 -0.2410 -0.1051
   61MPD2    C3  931   3.163   0.023  14.869 -1.0971  0.0985 -0.0427
   61MPD2    C4  932   3.056   4.672  14.832  0.4907  0.3889 -0.0066
   61MPD2    C5  933   2.976   4.603  14.922 -0.0863  0.3935  0.0447
   61MPD2     H  934   3.268   0.100  15.037  2.0176 -1.0008 -0.9837
   61MPD2    H1  935   3.032   4.658  14.727  2.5651  1.5589 -0.6493
   61MPD2    H2  936   2.933   4.580  15.129 -0.2004  0.2746  1.0707
   61MPD2    H3  937   2.895   4.536  14.897  2.1673 -2.7683  1.2909
   61MPD2     N  938   3.236   0.091  14.768  0.3636 -0.7509 -0.0924
   61MPD2    H5  939   3.180   0.101  14.684  0.2603 -0.4210  0.0158
   61MPD2    N1  940   3.116   0.032  15.225  0.0715 -0.6009  0.4124
   61MPD2    H7  941   3.192   0.098  15.238  0.3693 -1.1591  1.4976
   62TCq2    C1  942   3.047   4.711  15.331  0.2296 -0.1921  0.6693
   62TCq2    O2  943   2.988   4.605  15.352 -0.6487  0.7726  0.5454
   62TCq2    C2  944   3.094   0.065  15.449  0.2700  0.2951 -0.1784
   62TCq2    C3  945   3.115   4.710  15.566  0.1393  0.8550  0.8747
   62TCq2    C4  946   3.177   0.051  15.672 -0.7794  0.7033  0.4152
   62TCq2    C5  947   3.212   0.182  15.667 -0.2729  0.1009 -0.2123
   62TCq2    C6  948   3.195   0.252  15.548  1.0629 -0.5672  0.1992
   62TCq2    C7  949   3.145   0.192  15.435  0.6438 -0.7025 -0.6343
   62TCq2    C8  950   3.268   0.382  15.529  0.0551  0.3754 -0.3141
   62TCq2    O4  951   3.241   0.449  15.431 -0.7184 -0.0618  0.0409
   62TCq2    C9  952   3.206   4.699  15.804  0.0447 -0.8412  0.3826
   62TCq2    O5  953   3.157   4.586  15.809  0.6531 -0.2307  0.3762
   62TCq2    O6  954   3.240   0.046  15.906 -0.2738 -0.3165  0.0745
   62TCq2    H2  955   3.097   4.603  15.570  0.1995  0.8352  0.6160
   62TCq2    H3  956   3.251   0.226  15.758  0.1216  0.5821 -0.6152
   62TCq2    H4  957   3.149   0.247  15.342  2.6376  1.4814  0.7274
   63TMC2    C1  958   2.283   0.477  10.511  0.2635 -0.4821 -0.2359
   63TMC2    C2  959   2.283   0.613  10.522  0.5996  0.3646 -0.2775
   63TMC2    C3  960   2.332   0.696  10.422  0.3413  0.2184 -0.5993
   63TMC2    C4  961   2.336   0.416  10.403  0.0567  0.2425  0.2643
   63TMC2    C5  962   2.379   0.499  10.305  0.8039 -0.2902 -0.8816
   63TMC2    C6  963   2.377   0.638  10.311 -0.5209  0.0022  0.0119
   63TMC2     C  964   2.298   0.419  10.646  0.0856 -0.0599  1.0488
   63TMC2     O  965   2.242   0.471  10.743  0.2011  0.5275  0.1983
   63TMC2     H  966   2.252   0.650  10.619  0.6310 -1.2887  0.3616
   63TMC2    H1  967   2.355   0.312  10.383  0.4346  0.5659 -1.0632
   63TMC2    H2  968   2.414   0.704  10.233 -0.5008 -0.2129 -0.1588
   63TMC2    C7  969   2.421   0.436  10.186 -0.3163 -0.3134 -0.0676
   63TMC2    C8  970   2.250   0.814  10.393 -1.0378 -0.2933 -0.5124
   63TMC2    O1  971   2.392   0.317  10.172  0.0128 -0.6927  0.1347
   63TMC2    O2  972   2.289   0.919  10.338  0.1805 -0.4279 -0.5259
   63TMC2    O5  973   2.141   0.802  10.473 -0.4093 -0.0874  0.6944
   63TMC2    H5  974   2.122   0.707  10.485 -1.3909  0.0617  0.2444
   64MPD2     C  975   2.462   0.067  10.983  0.0943 -0.0912  0.2673
   64MPD2    C1  976   2.478   0.019  10.851 -0.8729  0.3361 -0.3257
   64MPD2    C2  977   2.434   0.089  10.742  0.7288  0.2830  0.0568
   64MPD2    C3  978   2.385   0.219  10.762 -0.0160 -0.3863  0.4873
   64MPD2    C4  979   2.353   0.253  10.890 -0.4141  0.2261  0.3284
   64MPD2    C5  980   2.391   0.181  10.997 -1.0316  0.1844 -0.7096
   64MPD2     H  981   2.452   0.053  10.642 -0.6443 -0.7298  0.1861
   64MPD2    H1  982   2.307   0.349  10.914 -0.0525  0.0027  1.9123
   64MPD2    H2  983   2.486   0.005  11.069  1.2620  0.3315  0.2431
   64MPD2    H3  984   2.360   0.227  11.090  2.2973  0.3105  0.3314
   64MPD2     N  985   2.364   0.296  10.644  0.7679 -0.3052 -0.3711
   64MPD2    H5  986   2.399   0.254  10.558  1.1457 -1.4267  0.3279
   64MPD2    N1  987   2.549   4.618  10.827 -0.5123 -1.0213 -0.7862
   64MPD2    H7  988   2.557   4.579  10.733  2.3246 -1.6793 -0.2735
   65MPD2     C  989   3.942   3.874  16.059 -0.1352 -0.4327 -0.4639
   65MPD2    C1  990   3.957   3.886  15.922 -0.1134  0.3874 -0.0000
   65MPD2    C2  991   3.970   3.769  15.846  0.3173  0.5424  0.4766
   65MPD2    C3  992   3.963   3.640  15.909 -0.9491  0.0914 -0.5692
   65MPD2    C4  993   3.928   3.637  16.042  0.0770  0.7518  0.1200
   65MPD2    C5  994   3.920   3.756  16.114  0.4306  0.2191 -0.1816
   65MPD2     H  995   3.979   3.777  15.738 -3.1854  0.9694  0.1909
   65MPD2    H1  996   3.897   3.546  16.093 -1.4263 -0.1549 -2.3830
   65MPD2    H2  997   3.928   3.957  16.128  0.5281 -0.4982 -0.2450
   65MPD2    H3  998   3.897   3.758  16.219  0.9171  2.9792 -0.1406
   65MPD2     N  999   3.954   3.517  15.846 -0.1605  0.3224  0.5957
   65MPD2    H5 1000   3.934   3.440  15.909  2.4250 -0.2395  0.7297
   65MPD2    N1 1001   3.970   4.005  15.850 -0.2480 -0.1663  0.1641
   65MPD2    H7 1002   3.969   4.006  15.749  0.4140 -1.1723  0.1480
   66TCq2    C1 1003   3.966   4.133  15.907 -0.4430  0.4849  0.2251
   66TCq2    O2 1004   3.937   4.158  16.021 -0.7435 -0.6416 -0.2824
   66TCq2    C2 1005   3.982   4.246  15.810  0.7340 -0.3541  0.1155
   66TCq2    C3 1006   3.990   4.206  15.680  0.0548 -0.0562  0.0189
   66TCq2    C4 1007   4.069   4.286  15.598 -0.8058  0.2965 -0.0091
   66TCq2    C5 1008   4.137   4.398  15.642  0.6202 -0.1387  0.4864
   66TCq2    C6 1009   4.120   4.431  15.775 -0.1572  0.0772 -0.7455
   66TCq2    C7 1010   4.051   4.353  15.860 -0.4056 -0.1913  0.4246
   66TCq2    C8 1011   4.190   4.556  15.825  0.6635 -0.3087  0.0902
   66TCq2    O4 1012   4.274   4.607  15.752 -0.2212  0.2285 -0.1521
   66TCq2    C9 1013   4.063   4.259  15.457 -0.5394 -0.2023 -0.5747
   66TCq2    O5 1014   4.023   4.149  15.416 -0.5841 -0.5744 -0.4104
   66TCq2    O6 1015   4.111   4.341  15.378  0.6913  0.1286 -0.5984
   66TCq2    H2 1016   3.909   4.154  15.631 -1.4306 -0.4823  2.8914
   66TCq2    H3 1017   4.194   4.455  15.569 -1.1181 -0.2998 -0.9969
   66TCq2    H4 1018   4.051   4.371  15.967  0.7521  0.9170  0.2392
   67MPD2     C 1019   3.759   3.599  14.365 -0.1024 -0.4338 -0.2418
   67MPD2    C1 1020   3.720   3.697  14.451 -0.1349 -0.4817  0.5255
   67MPD2    C2 1021   3.596   3.756  14.436 -0.8124  0.1802  0.1501
   67MPD2    C3 1022   3.509   3.716  14.338 -0.0564  0.6384  0.1733
   67MPD2    C4 1023   3.539   3.611  14.261  0.5473  0.1782 -0.2714
   67MPD2    C5 1024   3.667   3.558  14.274 -0.0243  0.9773  0.3114
   67MPD2     H 1025   3.567   3.840  14.499  0.0025  1.1866 -0.8212
   67MPD2    H1 1026   3.483   3.576  14.175  0.4264  0.5921 -0.3632
   67MPD2    H2 1027   3.858   3.555  14.374 -0.2860 -0.9971 -0.9829
   67MPD2    H3 1028   3.691   3.474  14.209 -3.1056  1.1443 -1.0644
   67MPD2     N 1029   3.380   3.769  14.325 -0.1546  0.2795  0.2466
   67MPD2    H5 1030   3.313   3.710  14.277 -2.2042  2.5743  0.2903
   67MPD2    N1 1031   3.801   3.748  14.564  0.1275  0.1722 -0.1191
   67MPD2    H7 1032   3.756   3.821  14.618  0.9865  1.2620 -0.8682
   68TCq2    C1 1033   3.915   3.692  14.616  0.4531  0.5264  0.3643
   68TCq2    O2 1034   3.976   3.593  14.572  0.2476 -0.6881 -0.2230
   68TCq2    C2 1035   3.971   3.765  14.725  0.1315  0.1908  0.5674
   68TCq2    C3 1036   3.905   3.867  14.795  0.5694  0.3493  0.0927
   68TCq2    C4 1037   3.940   3.895  14.927  0.2797  0.4700 -0.1443
   68TCq2    C5 1038   4.052   3.833  14.983  0.5907 -0.4898  0.6895
   68TCq2    C6 1039   4.127   3.745  14.906  0.2133 -0.0638  0.6120
   68TCq2    C7 1040   4.084   3.698  14.783  0.0420 -0.2021 -0.1555
   68TCq2    C8 1041   4.208   3.645  14.972 -0.9966 -0.0985 -0.1002
   68TCq2    O4 1042   4.284   3.574  14.902  0.2833 -0.1557  0.4636
   68TCq2    C9 1043   3.874   3.993  15.003  0.5567 -0.3593  0.3864
   68TCq2    O5 1044   3.776   4.055  14.955  0.2074 -0.3791  0.5127
   68TCq2    O6 1045   3.917   4.011  15.117 -0.1680  0.1318  0.1823
   68TCq2    H2 1046   3.822   3.922  14.751  1.1937  1.2943  0.0805
   68TCq2    H3 1047   4.083   3.867  15.081 -0.5766  3.0933 -0.1576
   68TCq2    H4 1048   4.135   3.615  14.736  1.1937  0.7657 -0.6237
   69TMC2    C1 1049   0.760   0.166  12.235  0.0890  0.8623 -0.4750
   69TMC2    C2 1050   0.637   0.236  12.243  1.0865 -0.1931  0.1812
   69TMC2    C3 1051   0.610   0.330  12.147 -0.2811 -0.0079  0.7726
   69TMC2    C4 1052   0.831   0.179  12.120  0.6999  0.1517 -0.3337
   69TMC2    C5 1053   0.779   0.250  12.017 -0.5321  0.1230 -0.3735
   69TMC2    C6 1054   0.677   0.334  12.028  0.6285  0.2206 -0.3265
   69TMC2     C 1055   0.814   0.115  12.361 -0.1896 -0.5606  0.4922
   69TMC2     O 1056   0.738   0.110  12.456 -0.3312 -0.0913 -0.1312
   69TMC2     H 1057   0.582   0.224  12.335 -0.3847 -0.8800 -0.7810
   69TMC2    H1 1058   0.907   0.103  12.108  0.6896  0.1391 -0.3179
   69TMC2    H2 1059   0.669   0.423  11.967 -1.9490  0.5145  0.4210
   69TMC2    C7 1060   0.880   0.282  11.920 -1.1071 -0.4668  0.0621
   69TMC2    C8 1061   0.485   0.397  12.156 -0.6210  0.4047 -0.5183
   69TMC2    O1 1062   0.993   0.231  11.932  0.0001  0.4092 -0.0485
   69TMC2    O2 1063   0.423   0.393  12.263  0.6908  0.8458 -0.4019
   69TMC2    O5 1064   0.432   0.423  12.036 -0.3912  0.1959 -0.3185
   69TMC2    H5 1065   0.489   0.416  11.956  1.1433 -0.7434  0.8570
   70MPD2     C 1066   1.164   0.114  12.477  0.0500  0.2194 -0.0189
   70MPD2    C1 1067   1.033   0.081  12.481  0.7507 -0.1357  0.1897
   70MPD2    C2 1068   0.985   0.024  12.602 -0.1370 -0.7781  0.4706
   70MPD2    C3 1069   1.077   4.716  12.705  0.2267 -1.4097  0.1420
   70MPD2    C4 1070   1.215   0.015  12.688 -0.1649  0.2014 -0.9250
   70MPD2    C5 1071   1.252   0.075  12.575  0.1203  0.3981  0.6030
   70MPD2     H 1072   0.880   4.720  12.607 -0.3816  0.3664  1.0165
   70MPD2    H1 1073   1.296   4.711  12.756 -2.0179 -1.9558  0.5067
   70MPD2    H2 1074   1.211   0.166  12.394  2.3559  0.4110  1.4183
   70MPD2    H3 1075   1.358   0.080  12.552  0.2304  1.1061  1.2489
   70MPD2     N 1076   1.041   4.640  12.822 -0.0949  0.4239 -0.0220
   70MPD2    H5 1077   1.122   4.615  12.877 -0.2893 -1.0364 -0.3848
   70MPD2    N1 1078   0.948   0.116  12.364 -0.0797  0.7693 -0.3971
   70MPD2    H7 1079   0.996   0.133  12.276 -2.0211  2.1317 -1.1928
   71TMC2    C1 1080   4.119   0.656   2.145 -0.3625 -0.3002 -0.6323
   71TMC2    C2 1081   4.244   0.680   2.189  0.6186  0.6163  0.7846
   71TMC2    C3 1082   4.277   0.634   2.315  0.6175 -0.2991 -0.2429
   71TMC2    C4 1083   4.023   0.591   2.226  0.0295 -0.3555 -0.3113
   71TMC2    C5 1084   4.050   0.560   2.356  0.6182  0.4372 -0.0755
   71TMC2    C6 1085   4.180   0.581   2.396  0.8351 -0.0750  0.5564
   71TMC2     C 1086   4.087   0.687   2.005  0.8843  0.3826  0.1132
   71TMC2     O 1087   3.966   0.697   1.975  0.6524  0.0955 -0.4371
   71TMC2     H 1088   4.306   0.750   2.132 -1.2843  0.5484 -1.3766
   71TMC2    H1 1089   3.927   0.572   2.179  0.7733 -2.2103 -1.1238
   71TMC2    H2 1090   4.207   0.553   2.497 -0.3854  1.9066  1.4236
   71TMC2    C7 1091   3.965   0.481   2.443  0.6390 -0.8609 -0.6791
   71TMC2    C8 1092   4.395   0.690   2.373 -0.6847  0.5922 -0.1018
   71TMC2    O1 1093   4.022   0.438   2.542 -0.4277  0.3757 -0.5228
   71TMC2    O2 1094   4.431   0.807   2.367  0.0796 -0.1477 -0.6306
   71TMC2    O5 1095   4.452   0.592   2.454 -0.3399  0.0154  0.1197
   71TMC2    H5 1096   4.413   0.502   2.458 -1.6038  0.5401 -0.4327
   72MPD2     C 1097   4.232   0.783   1.510 -0.6459 -0.3833 -0.3808
   72MPD2    C1 1098   4.106   0.775   1.568 -0.6030 -0.7135  0.5044
   72MPD2    C2 1099   4.097   0.740   1.701 -1.0017  0.5489 -1.2325
   72MPD2    C3 1100   4.211   0.726   1.784  0.4591 -0.0676 -0.9212
   72MPD2    C4 1101   4.338   0.736   1.724 -0.0851 -0.1652  0.0323
   72MPD2    C5 1102   4.344   0.763   1.593  0.4732  0.2534 -0.5336
   72MPD2     H 1103   3.996   0.742   1.741 -0.4235 -1.4573  0.3473
   72MPD2    H1 1104   4.429   0.742   1.783  0.0296  0.1695 -0.1832
   72MPD2    H2 1105   4.239   0.816   1.407  3.2002 -0.2852 -0.0825
   72MPD2    H3 1106   4.444   0.777   1.554  0.4982 -2.4506 -1.4659
   72MPD2     N 1107   4.198   0.709   1.925 -0.2053 -0.0191 -0.1555
   72MPD2    H5 1108   4.281   0.695   1.981 -1.0594 -0.9663  0.8872
   72MPD2    N1 1109   3.987   0.800   1.496  0.1553  0.3295  0.1037
   72MPD2    H7 1110   3.898   0.813   1.544  0.7552 -0.3347  1.3685
   73TMC2    C1 1111   3.450   2.682  13.191 -0.0686 -0.2745 -0.2524
   73TMC2    C2 1112   3.331   2.621  13.157  0.5830 -0.1905  0.1673
   73TMC2    C3 1113   3.320   2.482  13.187 -0.1693  0.0339  0.3642
   73TMC2    C4 1114   3.554   2.607  13.240  0.3443 -0.1576  0.3664
   73TMC2    C5 1115   3.536   2.474  13.262  0.6734  1.1599 -0.6077
   73TMC2    C6 1116   3.421   2.406  13.237  0.4463  0.2954 -0.3099
   73TMC2     C 1117   3.429   2.810  13.250  0.2750  0.0703  0.1918
   73TMC2     O 1118   3.325   2.869  13.223 -0.0722 -0.7917  0.0543
   73TMC2     H 1119   3.242   2.674  13.125  0.6699  0.5967  1.2262
   73TMC2    H1 1120   3.644   2.665  13.258  0.5946  0.3008 -2.2894
   73TMC2    H2 1121   3.411   2.303  13.270  0.1242 -0.0547 -1.5096
   73TMC2    C7 1122   3.637   2.408  13.346 -0.2259 -0.9922 -0.5103
   73TMC2    C8 1123   3.195   2.414  13.145  0.6004  0.0306 -0.9558
   73TMC2    O1 1124   3.666   2.292  13.337  0.0961  0.3557  0.2093
   73TMC2    O2 1125   3.187   2.331  13.057  0.2450  0.5293 -0.0391
   73TMC2    O5 1126   3.087   2.492  13.186 -0.3203  0.1351 -0.1545
   73TMC2    H5 1127   3.113   2.539  13.268 -0.3380 -0.5448  0.2395
   74MPD2     C 1128   3.585   3.192  13.558  0.8653 -0.1798 -0.0240
   74MPD2    C1 1129   3.644   3.078  13.609 -0.4104 -0.8461  0.1728
   74MPD2    C2 1130   3.612   2.958  13.543  1.3093  0.1942  0.2745
   74MPD2    C3 1131   3.517   2.956  13.440 -0.2918  0.3598  0.2742
   74MPD2    C4 1132   3.449   3.073  13.408 -0.7777  0.1119 -0.3173
   74MPD2    C5 1133   3.497   3.187  13.458  0.4073 -0.2310  0.4105
   74MPD2     H 1134   3.654   2.862  13.572 -1.8333 -0.8701  1.2617
   74MPD2    H1 1135   3.385   3.073  13.321  2.1592 -2.4273 -2.4949
   74MPD2    H2 1136   3.616   3.289  13.595  0.0209 -0.2455  0.8319
   74MPD2    H3 1137   3.470   3.278  13.407 -0.0638 -0.5238  0.1290
   74MPD2     N 1138   3.512   2.836  13.359 -0.4993  0.3145  0.6890
   74MPD2    H5 1139   3.591   2.773  13.373 -0.7971  0.2664  2.2062
   74MPD2    N1 1140   3.729   3.084  13.727 -0.4325  0.4526  0.9409
   74MPD2    H7 1141   3.748   3.174  13.770  1.7422  0.2225  0.4831
   75TCq2    C1 1142   3.340   3.890  14.367 -0.8119 -0.0537  0.1820
   75TCq2    O2 1143   3.397   3.975  14.433 -0.3176  0.0290  0.0653
   75TCq2    C2 1144   3.217   3.926  14.295 -0.4901  0.7201 -0.6641
   75TCq2    C3 1145   3.161   4.055  14.327  0.9508 -0.5981 -0.1387
   75TCq2    C4 1146   3.074   4.113  14.244 -0.0987 -0.0772  0.0508
   75TCq2    C5 1147   3.046   4.056  14.122 -0.1313  0.2546  0.0617
   75TCq2    C6 1148   3.104   3.936  14.091  0.5615 -0.2074 -0.8936
   75TCq2    C7 1149   3.183   3.868  14.174 -0.6223 -0.6369  0.9055
   75TCq2    C8 1150   3.097   3.882  13.952 -0.2756  0.0828  0.4441
   75TCq2    O4 1151   3.113   3.760  13.936 -0.0301 -0.0865  0.0102
   75TCq2    C9 1152   3.022   4.239  14.274  0.1638 -0.2615  0.3972
   75TCq2    O5 1153   3.029   4.283  14.390  0.0749  0.9320 -0.3584
   75TCq2    O6 1154   2.978   4.307  14.175  0.2569 -0.6913 -0.3384
   75TCq2    H2 1155   3.180   4.097  14.425  0.6113 -0.2699 -0.2146
   75TCq2    H3 1156   2.981   4.106  14.050 -0.3628  0.7032  0.5843
   75TCq2    H4 1157   3.220   3.772  14.140  0.2928  0.5182 -1.4140
   76MPD2     C 1158   2.046   0.530  11.761  0.5880  0.1601 -0.3524
   76MPD2    C1 1159   2.026   0.398  11.736 -0.3079 -0.7313  0.2038
   76MPD2    C2 1160   2.126   0.304  11.758  0.3641  0.1740 -0.6831
   76MPD2    C3 1161   2.242   0.343  11.820 -0.0599  0.9328  0.6552
   76MPD2    C4 1162   2.267   0.476  11.843  0.3050 -0.0544 -0.4955
   76MPD2    C5 1163   2.168   0.565  11.815 -0.6124 -0.3226 -0.3483
   76MPD2     H 1164   2.102   0.203  11.727 -0.3532 -0.0203  0.5205
   76MPD2    H1 1165   2.365   0.500  11.883 -0.3124 -0.0639  1.0067
   76MPD2    H2 1166   1.977   0.608  11.732  1.1092  0.4741 -0.7727
   76MPD2    H3 1167   2.176   0.667  11.849  1.3877 -0.5483 -0.1857
   76MPD2     N 1168   2.346   0.248  11.841  0.4268 -0.7804 -0.5412
   76MPD2    H5 1169   2.432   0.289  11.876 -0.1701  0.2450 -0.2541
   76MPD2    N1 1170   1.910   0.353  11.676  0.4354 -0.1945 -0.1538
   76MPD2    H7 1171   1.913   0.255  11.649 -2.2994  0.9554 -4.7130
   77TCq2    C1 1172   2.345   0.114  11.822  0.0690 -0.8176  0.7284
   77TCq2    O2 1173   2.250   0.047  11.772 -0.4823  0.2255  0.0700
   77TCq2    C2 1174   2.471   0.046  11.849  1.5393  0.0163 -0.6074
   77TCq2    C3 1175   2.574   0.117  11.908  0.7893 -0.4511  0.0503
   77TCq2    C4 1176   2.682   0.048  11.949  0.2476 -0.4838  0.1816
   77TCq2    C5 1177   2.691   4.633  11.945  0.0100  0.3705 -0.0659
   77TCq2    C6 1178   2.597   4.563  11.876  0.5095  0.4836  0.1904
   77TCq2    C7 1179   2.474   4.631  11.839  0.2402 -0.2966 -0.3998
   77TCq2    C8 1180   2.615   4.416  11.854 -0.1915 -0.0399 -0.3659
   77TCq2    O4 1181   2.593   4.382  11.737 -0.4587 -0.6030  0.1549
   77TCq2    C9 1182   2.782   0.118  12.023  0.8510 -0.4773  0.4880
   77TCq2    O5 1183   2.892   0.059  12.049 -0.1614 -0.6717 -0.1507
   77TCq2    O6 1184   2.755   0.228  12.078  1.2011  0.0060 -0.0262
   77TCq2    H2 1185   2.593   0.223  11.897 -0.9500 -0.1047  0.3716
   77TCq2    H3 1186   2.785   4.587  11.975 -0.7676  1.7402  4.3243
   77TCq2    H4 1187   2.397   4.571  11.793 -0.0346 -2.3914  2.8110
   78MPD1     C 1188   3.236   4.698   1.834  0.2050 -0.1758 -0.2854
   78MPD1    C1 1189   3.212   4.628   1.949 -0.5211 -0.1455  0.3402
   78MPD1    C2 1190   3.289   4.660   2.060  0.4229  0.3244  0.3813
   78MPD1    C3 1191   3.409   0.010   2.042 -0.0617 -0.8745 -0.1568
   78MPD1    C4 1192   3.432   0.076   1.923 -0.0018  0.0805  0.3005
   78MPD1    C5 1193   3.338   0.068   1.825 -0.1084  0.9296 -0.0063
   78MPD1     H 1194   3.270   4.616   2.158 -1.4236 -2.4001 -1.1926
   78MPD1    H1 1195   3.515   0.145   1.915 -1.8081  2.1201 -0.6983
   78MPD1    H2 1196   3.176   4.696   1.744  0.7431  3.4603 -0.7379
   78MPD1    H3 1197   3.344   0.126   1.734  1.4892 -0.4212 -0.7674
   78MPD1     N 1198   3.508   0.022   2.138  0.1660  0.1524  0.3742
   78MPD1    H5 1199   3.583   0.089   2.123  0.1660  0.1390  0.3145
   78MPD1    N1 1200   3.107   4.540   1.952  0.6270  0.0835 -0.0489
   78MPD1    H6 1201   3.087   4.505   2.045  2.5417  2.1507  1.1034
   78MPD1    H7 1202   3.107   4.458   1.891 -1.9739  0.1002 -0.0914
   79TCq2    C1 1203   3.514   4.677   2.259  0.9313 -0.0386  0.4235
   79TCq2    O2 1204   3.432   4.608   2.318 -0.0270 -0.2085  0.6156
   79TCq2    C2 1205   3.644   4.691   2.326 -0.6148 -0.0201 -0.0845
   79TCq2    C3 1206   3.667   4.604   2.429 -0.4227 -0.5146  0.3940
   79TCq2    C4 1207   3.789   4.600   2.485  0.6115  0.2019 -0.0622
   79TCq2    C5 1208   3.886   4.679   2.444  0.0224  0.0359 -0.0596
   79TCq2    C6 1209   3.863   0.043   2.338 -0.2171 -0.4858 -0.5725
   79TCq2    C7 1210   3.746   0.046   2.279  0.4235 -0.2053 -0.4309
   79TCq2    C8 1211   3.979   0.119   2.290 -0.3026 -0.1614  0.5098
   79TCq2    O4 1212   4.077   0.120   2.365  0.1740 -0.4223  0.0535
   79TCq2    C9 1213   3.800   4.521   2.609  0.4198  0.0121  0.1370
   79TCq2    O5 1214   3.724   4.424   2.620  0.4536 -0.5837  0.1338
   79TCq2    O6 1215   3.916   4.532   2.661 -0.1798  0.1111 -0.1195
   79TCq2    H2 1216   3.590   4.548   2.481  0.4648 -1.4042  0.7512
   79TCq2    H3 1217   3.990   4.657   2.466  0.2043  3.7650  2.9172
   79TCq2    H4 1218   3.723   0.124   2.207  4.4689  0.3933 -1.1292
   80MPD2     C 1219   1.497   3.798  12.541 -0.0145  0.4938 -0.1838
   80MPD2    C1 1220   1.368   3.799  12.497 -0.2291  0.0048  0.1105
   80MPD2    C2 1221   1.263   3.810  12.587 -0.3979  0.0473 -0.0583
   80MPD2    C3 1222   1.289   3.840  12.718  0.3673  0.1272  0.6537
   80MPD2    C4 1223   1.421   3.835  12.763  0.1361  0.3027  0.1538
   80MPD2    C5 1224   1.519   3.806  12.674 -0.0366  0.5874 -0.4587
   80MPD2     H 1225   1.159   3.791  12.562 -0.3147 -0.5862  0.0761
   80MPD2    H1 1226   1.452   3.844  12.866 -0.1167  1.5897  0.1167
   80MPD2    H2 1227   1.583   3.790  12.476  0.2608  0.1761  0.2166
   80MPD2    H3 1228   1.622   3.806  12.708  0.3673  2.9854 -1.7582
   80MPD2     N 1229   1.193   3.879  12.809 -0.3101 -0.2817  0.0011
   80MPD2    H5 1230   1.208   3.875  12.909  0.8993  0.6265 -0.1471
   80MPD2    N1 1231   1.336   3.778  12.358 -0.2146 -0.2252 -0.0710
   80MPD2    H7 1232   1.240   3.775  12.325 -0.1510 -1.8460 -0.1200
   81TCq2    C1 1233   1.424   3.781  12.248 -0.1307 -0.6335  0.3020
   81TCq2    O2 1234   1.545   3.801  12.241 -0.4843  0.6369 -0.1456
   81TCq2    C2 1235   1.351   3.741  12.133 -0.8625  0.0346  0.1614
   81TCq2    C3 1236   1.385   3.802  12.010  0.6336  0.0180 -0.0545
   81TCq2    C4 1237   1.378   3.724  11.897 -0.1624 -0.1040  0.1479
   81TCq2    C5 1238   1.317   3.600  11.902 -0.3164  0.6325  0.2164
   81TCq2    C6 1239   1.281   3.547  12.021 -0.4440 -1.3126  0.3357
   81TCq2    C7 1240   1.297   3.615  12.137  0.2414 -0.0507 -0.5823
   81TCq2    C8 1241   1.236   3.406  12.028  0.1416  0.0855 -0.5700
   81TCq2    O4 1242   1.202   3.357  11.923 -0.1481 -0.3775  0.2302
   81TCq2    C9 1243   1.417   3.778  11.772 -0.0858 -0.0125 -0.2255
   81TCq2    O5 1244   1.423   3.698  11.674  0.3348 -0.1309  0.0200
   81TCq2    O6 1245   1.414   3.900  11.755 -0.4499  0.7831 -0.7792
   81TCq2    H2 1246   1.443   3.893  12.006  1.0134 -0.1870  0.9029
   81TCq2    H3 1247   1.297   3.554  11.806  0.1336 -0.9451  0.8745
   81TCq2    H4 1248   1.264   3.568  12.228 -1.2785 -0.0613 -1.1400
   82MPD2     C 1249   4.551   3.832  10.743 -0.6674 -0.4410  0.0796
   82MPD2    C1 1250   4.595   3.741  10.655  0.2820 -0.0447  0.1827
   82MPD2    C2 1251   4.711   3.667  10.680 -0.0025 -0.0367 -0.4285
   82MPD2    C3 1252   0.059   3.682  10.796  0.3361  0.7427 -0.5419
   82MPD2    C4 1253   0.007   3.769  10.885 -0.4731 -0.2445  0.2767
   82MPD2    C5 1254   4.616   3.847  10.864  0.0175  0.1977  0.3319
   82MPD2     H 1255   0.032   3.605  10.601 -2.7268  0.9298 -2.6548
   82MPD2    H1 1256   0.072   3.799  10.966 -0.1466  1.9394 -0.8060
   82MPD2    H2 1257   4.464   3.889  10.716  1.3494  2.8620  0.5343
   82MPD2    H3 1258   4.572   3.921  10.931 -0.4380 -0.3967  0.6859
   82MPD2     N 1259   0.175   3.623  10.835 -0.6251 -0.2861 -0.1673
   82MPD2    H5 1260   0.203   3.635  10.931 -3.1015 -3.0499  0.9321
   82MPD2    N1 1261   4.515   3.724  10.538 -0.1269  0.0164  0.1665
   82MPD2    H7 1262   4.440   3.793  10.528 -0.1557  0.0357  0.5221
   83TCq2    C1 1263   0.226   3.519  10.770  0.9486  0.0601 -1.1712
   83TCq2    O2 1264   0.196   3.470  10.663  0.4829  0.0803  0.4405
   83TCq2    C2 1265   0.321   3.441  10.848 -0.4396  0.0205  0.1916
   83TCq2    C3 1266   0.393   3.494  10.949  0.3371 -0.6958  1.3534
   83TCq2    C4 1267   0.462   3.409  11.026 -0.1447 -0.5687  0.3836
   83TCq2    C5 1268   0.450   3.271  11.019  0.3374 -0.2443  0.3447
   83TCq2    C6 1269   0.375   3.219  10.914 -0.0336  0.9997  0.3026
   83TCq2    C7 1270   0.307   3.305  10.832 -0.0565  0.2870 -0.0527
   83TCq2    C8 1271   0.312   3.100  10.957 -0.1882  0.2304  0.1628
   83TCq2    O4 1272   0.313   3.067  11.073  0.5869 -0.3017  0.2604
   83TCq2    C9 1273   0.540   3.459  11.140 -0.3539  0.2301 -0.9333
   83TCq2    O5 1274   0.616   3.379  11.199  0.2326 -0.1692  0.3470
   83TCq2    O6 1275   0.489   3.564  11.187  0.6705 -0.8514  0.0685
   83TCq2    H2 1276   0.403   3.599  10.972  0.3205 -0.9192  2.4028
   83TCq2    H3 1277   0.492   3.216  11.103  1.6237 -1.6256 -1.2096
   83TCq2    H4 1278   0.249   3.266  10.750  0.4628  0.5357 -0.5408
   84TCq2    C1 1279   1.287   2.028  10.409  0.2359  0.2798 -0.2711
   84TCq2    O2 1280   1.166   2.035  10.397 -0.3790 -0.0868 -0.1002
   84TCq2    C2 1281   1.317   2.006  10.544 -0.0689  0.4782  0.3587
   84TCq2    C3 1282   1.426   1.931  10.585 -0.3658  0.2000 -0.8734
   84TCq2    C4 1283   1.430   1.870  10.707  0.1163 -0.0933 -0.2646
   84TCq2    C5 1284   1.336   1.899  10.803  0.2400  0.4441  0.2548
   84TCq2    C6 1285   1.235   1.987  10.765  0.2486  0.1569 -0.1166
   84TCq2    C7 1286   1.220   2.043  10.635 -0.1856 -0.6467  0.3973
   84TCq2    C8 1287   1.164   2.046  10.867 -0.4312  0.4827  0.5699
   84TCq2    O4 1288   1.224   2.049  10.976  0.1895  0.4171  0.7375
   84TCq2    C9 1289   1.531   1.772  10.744 -0.0776 -0.6403 -0.0507
   84TCq2    O5 1290   1.516   1.722  10.856 -0.2737  0.4823  0.4445
   84TCq2    O6 1291   1.595   1.722  10.648  0.2098 -0.2162  0.3603
   84TCq2    H2 1292   1.497   1.892  10.513  1.2957  1.0611  0.2968
   84TCq2    H3 1293   1.333   1.855  10.901 -0.4692  1.2283  0.5893
   84TCq2    H4 1294   1.156   2.125  10.604  1.5449 -0.6353 -3.0907
   85MPD2     C 1295   1.489   0.360  16.400  0.0704 -0.2073 -0.5080
   85MPD2    C1 1296   1.438   0.292  16.283 -0.3959  0.2162 -0.3973
   85MPD2    C2 1297   1.484   0.340  16.159 -0.0559  0.0124 -0.2045
   85MPD2    C3 1298   1.568   0.450  16.143 -0.0921 -0.2091 -0.6359
   85MPD2    C4 1299   1.606   0.517  16.257  0.6198  0.5592  0.1542
   85MPD2    C5 1300   1.570   0.470  16.383 -0.1147 -0.6332 -0.1161
   85MPD2     H 1301   1.446   0.291  16.070  0.3801  0.0946 -0.4316
   85MPD2    H1 1302   1.675   0.600  16.265 -0.6034  1.6535 -0.6619
   85MPD2    H2 1303   1.450   0.337  16.498 -1.2894  1.9212 -0.5441
   85MPD2    H3 1304   1.593   0.524  16.474 -2.3724 -0.2635  0.2476
   85MPD2     N 1305   1.608   0.491  16.012  0.5341 -0.0370  0.0642
   85MPD2    H5 1306   1.589   0.428  15.936  1.7412  0.1997 -0.4468
   85MPD2    N1 1307   1.340   0.189  16.289  0.6122  0.3269 -0.1973
   85MPD2    H7 1308   1.316   0.146  16.200  1.8231  2.1294 -1.4091
   86TCq2    C1 1309   1.665   0.609  15.983  0.6334  0.4341  0.1470
   86TCq2    O2 1310   1.697   0.700  16.057  0.2318  0.2652 -0.0792
   86TCq2    C2 1311   1.678   0.622  15.838 -0.0737 -0.8017  0.1575
   86TCq2    C3 1312   1.695   0.752  15.798  0.5323  0.6739 -0.1709
   86TCq2    C4 1313   1.737   0.775  15.675  0.8784 -0.2627  0.1626
   86TCq2    C5 1314   1.777   0.669  15.592  0.2264  0.5041 -0.5381
   86TCq2    C6 1315   1.769   0.539  15.635  0.0580 -0.0450 -0.0774
   86TCq2    C7 1316   1.707   0.513  15.757  0.2874 -0.1720  0.3689
   86TCq2    C8 1317   1.800   0.427  15.551 -0.2213  1.3077 -0.1084
   86TCq2    O4 1318   1.781   0.319  15.603  0.6406  0.2492  0.5216
   86TCq2    C9 1319   1.770   0.910  15.634  1.0840  0.3026 -0.7685
   86TCq2    O5 1320   1.742   1.003  15.713  0.0214  0.4999 -0.5994
   86TCq2    O6 1321   1.789   0.929  15.513  0.1868 -0.7764 -0.2821
   86TCq2    H2 1322   1.685   0.836  15.866  1.3229  1.6973 -1.3129
   86TCq2    H3 1323   1.843   0.696  15.511  1.1539  2.1058  0.7390
   86TCq2    H4 1324   1.712   0.413  15.800 -0.4736 -0.0873  0.6557
   87MPD2     C 1325   3.561   3.541   1.248 -0.3701 -0.1270  0.1822
   87MPD2    C1 1326   3.544   3.675   1.203  0.0587 -0.1992 -0.1646
   87MPD2    C2 1327   3.426   3.712   1.145  0.2527 -0.0323 -0.1496
   87MPD2    C3 1328   3.343   3.610   1.098 -0.1144 -0.0364 -0.0221
   87MPD2    C4 1329   3.379   3.477   1.105  0.1796 -0.5646 -0.0217
   87MPD2    C5 1330   3.482   3.448   1.190 -0.5380 -0.7659  0.3370
   87MPD2     H 1331   3.402   3.814   1.116  0.7419  0.2935  0.6201
   87MPD2    H1 1332   3.322   3.397   1.061 -0.8501  0.1332  0.0465
   87MPD2    H2 1333   3.647   3.504   1.304  1.0669 -0.4728 -2.2728
   87MPD2    H3 1334   3.503   3.343   1.210  0.7251 -0.9443 -1.9612
   87MPD2     N 1335   3.216   3.626   1.030 -0.0508 -0.5706 -0.4467
   87MPD2    H5 1336   3.167   3.543   0.999  3.3958 -2.8970  0.3499
   87MPD2    N1 1337   3.635   3.770   1.252 -0.7188 -0.3098  0.7158
   87MPD2    H7 1338   3.716   3.732   1.300  0.6639  0.4458 -1.0288
   88TCq2    C1 1339   3.626   3.909   1.251  0.7127  0.2965  0.3271
   88TCq2    O2 1340   3.530   3.975   1.232 -0.1839  0.2189 -0.4038
   88TCq2    C2 1341   3.759   3.976   1.269 -0.0197  0.1139 -0.0010
   88TCq2    C3 1342   3.763   4.098   1.329 -0.7887 -0.1926 -0.4499
   88TCq2    C4 1343   3.885   4.155   1.352  0.3433  0.1862  0.1302
   88TCq2    C5 1344   4.003   4.094   1.313  0.3197  0.4395 -0.1489
   88TCq2    C6 1345   3.994   3.973   1.255 -0.4182  0.0180  0.5138
   88TCq2    C7 1346   3.874   3.908   1.241  0.1175  0.3064  0.0198
   88TCq2    C8 1347   4.111   3.926   1.182  0.5099 -0.1677 -0.8710
   88TCq2    O4 1348   4.182   4.013   1.133  0.2585  0.5059 -0.3703
   88TCq2    C9 1349   3.893   4.291   1.409 -0.3882 -0.6478 -0.6038
   88TCq2    O5 1350   4.008   4.340   1.406  0.2235 -0.2756 -0.2184
   88TCq2    O6 1351   3.788   4.357   1.426 -0.2137  0.5798 -0.2266
   88TCq2    H2 1352   3.678   4.164   1.345 -0.2117  0.4168  0.0791
   88TCq2    H3 1353   4.099   4.144   1.315  1.1263 -1.0890 -0.9031
   88TCq2    H4 1354   3.867   3.818   1.180 -2.4234  2.3370 -2.6633
   89MPD2     C 1355   0.053   1.076   2.659  0.5433  0.0660 -0.0335
   89MPD2    C1 1356   4.646   1.132   2.636 -0.1878  0.0361 -0.8429
   89MPD2    C2 1357   4.642   1.251   2.569 -0.3385 -0.6796  0.6174
   89MPD2    C3 1358   0.042   1.318   2.526 -0.3815  0.9393  0.1830
   89MPD2    C4 1359   0.159   1.264   2.551  0.5119  0.5431  0.0382
   89MPD2    C5 1360   0.169   1.142   2.612  0.7062  0.4299 -0.5658
   89MPD2     H 1361   4.547   1.298   2.546  0.8171 -0.1857 -3.1927
   89MPD2    H1 1362   0.256   1.307   2.531  1.1357 -1.1617 -0.6340
   89MPD2    H2 1363   0.063   0.978   2.704 -0.5980  0.5582  1.2814
   89MPD2    H3 1364   0.271   1.108   2.627  1.0095  0.3771 -2.7503
   89MPD2     N 1365   0.031   1.450   2.465  0.0108  0.8292 -0.2379
   89MPD2    H5 1366   4.664   1.501   2.465 -0.1017  0.6360  1.1963
   89MPD2    N1 1367   4.521   1.060   2.656  0.0503 -0.4464  0.0532
   89MPD2    H7 1368   4.434   1.087   2.609  0.7779 -2.1304 -2.2691
   90TCq2    C1 1369   0.140   1.504   2.395 -0.1190  0.1763 -0.2454
   90TCq2    O2 1370   0.245   1.453   2.367  0.3349 -0.3761 -0.0850
   90TCq2    C2 1371   0.115   1.646   2.368 -0.1756 -0.1067  0.0227
   90TCq2    C3 1372   0.051   1.720   2.468  0.2199  0.1878 -0.0999
   90TCq2    C4 1373   0.042   1.857   2.453  0.1531 -0.1329  0.3545
   90TCq2    C5 1374   0.103   1.921   2.351  0.6589 -0.5328 -0.0089
   90TCq2    C6 1375   0.180   1.843   2.265  0.8460 -0.4703  0.1557
   90TCq2    C7 1376   0.179   1.706   2.268 -0.6177 -0.0127 -0.3188
   90TCq2    C8 1377   0.243   1.902   2.149 -0.4733  0.1564  0.7262
   90TCq2    O4 1378   0.272   1.821   2.062 -0.2799 -0.3632 -0.2528
   90TCq2    C9 1379   4.708   1.939   2.558  0.4491 -0.0422  0.5996
   90TCq2    O5 1380   4.716   2.064   2.542 -0.0389 -0.2198  0.0215
   90TCq2    O6 1381   4.684   1.883   2.668  0.7599  0.5892  0.2215
   90TCq2    H2 1382   0.027   1.677   2.565  0.1912 -1.3275 -0.7808
   90TCq2    H3 1383   0.106   2.030   2.349  0.2662 -0.5448 -1.5514
   90TCq2    H4 1384   0.237   1.641   2.202 -0.3345 -0.5548  0.4661
   91TMC2    C1 1385   1.485   1.589  17.015 -0.2767 -0.6816  0.0645
   91TMC2    C2 1386   1.508   1.563  17.147 -0.2278  0.0218 -0.2620
   91TMC2    C3 1387   1.414   1.541  17.237  0.1903  0.3354 -0.6029
   91TMC2    C4 1388   1.356   1.576  16.969  0.2498 -0.0309  0.9564
   91TMC2    C5 1389   1.255   1.563  17.064  0.5531  0.3097 -0.2447
   91TMC2    C6 1390   1.285   1.545  17.204 -0.0060 -0.3451  0.4479
   91TMC2     C 1391   1.591   1.565  16.914 -0.1438 -0.6895  0.4739
   91TMC2     O 1392   1.561   1.526  16.805 -0.0807 -0.2213  0.3089
   91TMC2     H 1393   1.612   1.568  17.177  0.1266  0.8889 -1.6245
   91TMC2    H1 1394   1.329   1.590  16.865  2.6881  0.1834  0.3526
   91TMC2    H2 1395   1.207   1.543  17.280 -2.1040  0.0463 -1.7001
   91TMC2    C7 1396   1.125   1.516  17.023 -0.0950 -0.1515  0.5468
   91TMC2    C8 1397   1.458   1.547  17.374 -0.5556 -0.3442 -0.6929
   91TMC2    O1 1398   1.067   1.441  17.101  0.1802 -0.2929  0.4639
   91TMC2    O2 1399   1.397   1.594  17.466  0.2361  0.0471  0.6403
   91TMC2    O5 1400   1.567   1.472  17.390 -0.1592  0.0283 -0.7275
   91TMC2    H5 1401   1.605   1.429  17.311  1.5484  1.6942 -0.7967
   92MPD2     C 1402   1.840   1.475  16.791 -0.1236  0.6834  0.1037
   92MPD2    C1 1403   1.836   1.542  16.910  0.7626 -0.4140 -0.7283
   92MPD2    C2 1404   1.950   1.594  16.968 -1.0029  0.2279  0.2316
   92MPD2    C3 1405   2.077   1.563  16.917  0.4555 -0.5477 -0.0129
   92MPD2    C4 1406   2.083   1.477  16.811 -0.4021 -0.1261 -0.7077
   92MPD2    C5 1407   1.963   1.433  16.746  0.3061 -0.2523 -1.1476
   92MPD2     H 1408   1.933   1.656  17.055  0.4327 -0.5683  1.0777
   92MPD2    H1 1409   2.176   1.440  16.769  1.5602  2.1514  1.6654
   92MPD2    H2 1410   1.750   1.441  16.741  0.0367 -0.2220  0.4306
   92MPD2    H3 1411   1.970   1.363  16.664 -0.6296  0.8428 -2.1515
   92MPD2     N 1412   2.189   1.615  16.990  0.7244 -0.8464 -0.2766
   92MPD2    H5 1413   2.155   1.677  17.063  0.7398 -0.6280 -0.4520
   92MPD2    N1 1414   1.715   1.575  16.973 -0.0105 -0.2174 -0.4850
   92MPD2    H7 1415   1.719   1.619  17.065 -2.2681  0.7826 -0.8612
   93MPD2     C 1416   3.096   1.979  14.168 -0.1416 -0.1999 -0.0496
   93MPD2    C1 1417   3.091   1.900  14.057  0.6555  0.4733  0.5745
   93MPD2    C2 1418   2.982   1.811  14.027  0.5056  0.1669 -0.2689
   93MPD2    C3 1419   2.878   1.811  14.122  0.1933  0.6749  0.5323
   93MPD2    C4 1420   2.882   1.902  14.229 -0.3595 -0.0909 -0.2911
   93MPD2    C5 1421   2.990   1.984  14.249  0.7232 -0.3213  0.5043
   93MPD2     H 1422   2.985   1.749  13.937 -0.3258 -1.9071  1.1273
   93MPD2    H1 1423   2.803   1.910  14.304 -0.1731  0.0736 -0.1135
   93MPD2    H2 1424   3.178   2.044  14.195 -1.5021  1.6153 -0.3307
   93MPD2    H3 1425   3.002   2.056  14.329  0.3976  0.9799 -0.6177
   93MPD2     N 1426   2.752   1.740  14.109 -0.6463 -0.4146  0.0429
   93MPD2    H5 1427   2.678   1.746  14.177  0.5845 -0.0401  1.3513
   93MPD2    N1 1428   3.204   1.888  13.973  0.1294 -0.0962  0.4117
   93MPD2    H7 1429   3.196   1.825  13.894 -1.3523  2.1263 -1.2400
   94TCq2    C1 1430   3.330   1.932  13.996 -0.1094 -0.3572 -0.2523
   94TCq2    O2 1431   3.378   1.996  14.090  0.5720 -0.4528  0.7449
   94TCq2    C2 1432   3.418   1.904  13.896  0.1143  0.1418  0.1237
   94TCq2    C3 1433   3.373   1.885  13.769  0.0799 -1.0528 -0.3322
   94TCq2    C4 1434   3.463   1.844  13.676 -0.2970  0.1580  0.5599
   94TCq2    C5 1435   3.598   1.836  13.706 -0.0803 -0.3878  0.0483
   94TCq2    C6 1436   3.641   1.867  13.833 -0.5096  0.1292 -1.4414
   94TCq2    C7 1437   3.550   1.901  13.930  0.1210 -0.5422  0.1893
   94TCq2    C8 1438   3.785   1.881  13.841 -0.0079 -0.9106 -0.3581
   94TCq2    O4 1439   3.852   1.838  13.748  0.1672  0.3628  0.5438
   94TCq2    C9 1440   3.422   1.829  13.536  0.2035 -0.3097 -0.5996
   94TCq2    O5 1441   3.508   1.826  13.445  0.4404  0.2084  0.0405
   94TCq2    O6 1442   3.296   1.854  13.524 -0.0684  0.3385  0.3558
   94TCq2    H2 1443   3.274   1.906  13.731  0.4201 -0.8884 -1.1297
   94TCq2    H3 1444   3.665   1.808  13.625 -0.5225 -0.3688 -0.3285
   94TCq2    H4 1445   3.592   1.913  14.029  0.7573 -2.1500  0.1200
   95TMC2    C1 1446   3.756   2.611  16.250 -0.0153  0.0412  0.6185
   95TMC2    C2 1447   3.812   2.545  16.355  0.3969 -0.4487 -0.0932
   95TMC2    C3 1448   3.731   2.525  16.461  0.0617  0.1583  0.8349
   95TMC2    C4 1449   3.638   2.669  16.257  0.3946 -0.2113 -0.0312
   95TMC2    C5 1450   3.554   2.637  16.366 -0.4188  0.2070 -0.5442
   95TMC2    C6 1451   3.605   2.569  16.470 -0.7388  0.0358  0.2803
   95TMC2     C 1452   3.846   2.666  16.143  0.8320  0.6733  0.1425
   95TMC2     O 1453   3.796   2.753  16.075 -0.6129  0.4136 -0.2489
   95TMC2     H 1454   3.916   2.516  16.361  0.5574  0.1831  0.2912
   95TMC2    H1 1455   3.601   2.737  16.181 -0.0542 -1.3963 -0.8731
   95TMC2    H2 1456   3.540   2.563  16.557  0.7226 -0.0065  1.3704
   95TMC2    C7 1457   3.413   2.625  16.341 -0.0470  0.4547 -0.3661
   95TMC2    C8 1458   3.769   2.426  16.558  0.1790 -0.7202 -0.9456
   95TMC2    O1 1459   3.347   2.546  16.412  0.1151 -0.0262 -0.2394
   95TMC2    O2 1460   3.693   2.367  16.632 -0.2406 -0.8524 -0.0412
   95TMC2    O5 1461   3.899   2.441  16.589  0.4499  0.0258  0.2975
   95TMC2    H5 1462   3.949   2.518  16.555  1.8564 -0.7694  0.5822
   96MPD2     C 1463   4.275   2.745  15.892 -0.4795 -0.4763 -0.6428
   96MPD2    C1 1464   4.162   2.817  15.911 -0.2294  0.8449  0.0114
   96MPD2    C2 1465   4.058   2.774  15.981  0.7521 -0.2446 -0.1684
   96MPD2    C3 1466   4.067   2.650  16.044  0.2960  0.3831  1.0279
   96MPD2    C4 1467   4.187   2.578  16.035 -0.5566  0.0558 -0.1038
   96MPD2    C5 1468   4.286   2.624  15.955  0.0837  0.1868 -0.5540
   96MPD2     H 1469   3.974   2.841  15.994 -0.5092 -1.4652 -1.9962
   96MPD2    H1 1470   4.201   2.482  16.084 -0.3987  0.1641  0.0628
   96MPD2    H2 1471   4.360   2.796  15.847 -0.1110  0.1789  0.7775
   96MPD2    H3 1472   4.383   2.575  15.956 -0.0737 -0.1565 -1.8594
   96MPD2     N 1473   3.971   2.612  16.134  0.0774  0.3994 -0.1237
   96MPD2    H5 1474   3.976   2.523  16.184 -2.6244 -0.4879 -1.3899
   96MPD2    N1 1475   4.162   2.942  15.846  0.2878  0.2067 -0.0613
   96MPD2    H7 1476   4.246   2.959  15.792  0.9309 -2.0713  0.1992
   97MPD2     C 1477   1.067   0.813   1.494  0.5773 -0.5386  0.2951
   97MPD2    C1 1478   0.968   0.893   1.552  0.9271  0.4377 -0.2815
   97MPD2    C2 1479   0.908   0.996   1.481  0.7126  0.0630  0.4353
   97MPD2    C3 1480   0.957   1.030   1.354 -0.2183  0.5438  0.6491
   97MPD2    C4 1481   1.071   0.962   1.304 -0.2740 -0.4944  0.8368
   97MPD2    C5 1482   1.121   0.848   1.369 -0.1824  0.2340  0.0082
   97MPD2     H 1483   0.821   1.050   1.516 -0.1444 -0.4122 -1.0064
   97MPD2    H1 1484   1.112   1.002   1.211 -0.0771 -0.7472  0.8156
   97MPD2    H2 1485   1.113   0.728   1.543  1.0539  0.0716  0.8992
   97MPD2    H3 1486   1.195   0.786   1.320  1.0356 -0.1263  2.2714
   97MPD2     N 1487   0.890   1.143   1.298 -0.1105  0.2818 -0.3493
   97MPD2    H5 1488   0.810   1.182   1.346  0.1064  1.0204 -0.5895
   97MPD2    N1 1489   0.915   0.847   1.678  0.3867 -0.1378 -1.0808
   97MPD2    H7 1490   0.968   0.772   1.721  1.3876 -0.0148 -2.1065
   98TCq2    C1 1491   0.929   1.197   1.180 -0.3851  0.3270  0.2668
   98TCq2    O2 1492   1.036   1.188   1.121  1.1933  0.3732  0.3691
   98TCq2    C2 1493   0.841   1.305   1.143  0.0987 -0.6357 -0.7918
   98TCq2    C3 1494   0.720   1.320   1.210  0.6400 -0.2300 -0.3791
   98TCq2    C4 1495   0.643   1.421   1.169 -0.3499  0.1546  0.1614
   98TCq2    C5 1496   0.673   1.499   1.061 -0.4658 -0.7238  0.0918
   98TCq2    C6 1497   0.780   1.472   0.991 -0.5537 -0.2806 -0.0360
   98TCq2    C7 1498   0.871   1.371   1.025  0.3398 -0.0255  0.2052
   98TCq2    C8 1499   0.822   1.553   0.880  0.4550 -0.0960  0.9006
   98TCq2    O4 1500   0.832   1.673   0.896 -0.3098 -0.1628 -0.5977
   98TCq2    C9 1501   0.522   1.456   1.255  0.6100 -0.1859 -0.7391
   98TCq2    O5 1502   0.453   1.557   1.219 -0.6678  0.3392 -0.6990
   98TCq2    O6 1503   0.507   1.397   1.366  0.2671  0.4188 -0.2164
   98TCq2    H2 1504   0.697   1.269   1.303 -1.7025  0.9466 -0.2958
   98TCq2    H3 1505   0.611   1.587   1.048 -0.9005 -1.0552 -0.1140
   98TCq2    H4 1506   0.961   1.350   0.969 -0.2498  1.0956 -1.1543
   99MPD2     C 1507   4.665   3.427   2.642  0.4013  0.9797 -0.0141
   99MPD2    C1 1508   4.585   3.323   2.666  0.2361  0.5648 -0.6224
   99MPD2    C2 1509   4.630   3.193   2.641  0.3631  0.5274  0.8348
   99MPD2    C3 1510   0.028   3.180   2.571 -0.2320 -0.5353  0.1093
   99MPD2    C4 1511   0.098   3.288   2.530 -0.0436  0.0368  1.1402
   99MPD2    C5 1512   0.055   3.411   2.573  0.5207 -0.4144 -0.7296
   99MPD2     H 1513   4.569   3.108   2.667  0.1387  1.2302  2.6123
   99MPD2    H1 1514   0.198   3.290   2.487 -0.5002  0.5957  0.1297
   99MPD2    H2 1515   4.641   3.530   2.664 -0.0309  0.9149 -0.1752
   99MPD2    H3 1516   0.124   3.491   2.550  0.4466  0.6347  2.8018
   99MPD2     N 1517   0.074   3.043   2.553 -0.0701 -0.4335  0.2683
   99MPD2    H5 1518   0.023   2.969   2.599  0.0224 -1.6431 -1.5447
   99MPD2    N1 1519   4.455   3.345   2.714 -0.2989 -0.4889 -0.0125
   99MPD2    H7 1520   4.408   3.257   2.731 -0.1857  0.1365  3.3903
  100TCq2    C1 1521   4.383   3.464   2.743  0.0962  0.3260 -0.1792
  100TCq2    O2 1522   4.414   3.579   2.738  0.4437  0.2669  0.5777
  100TCq2    C2 1523   4.240   3.445   2.779  0.8047  0.0721  0.5872
  100TCq2    C3 1524   4.212   3.344   2.867  0.4426  0.1371 -0.2843
  100TCq2    C4 1525   4.077   3.319   2.892 -0.1150 -0.0197  0.4392
  100TCq2    C5 1526   3.984   3.381   2.818 -0.8192  0.1389 -0.7294
  100TCq2    C6 1527   4.014   3.483   2.734 -0.5639  0.2852 -0.2370
  100TCq2    C7 1528   4.149   3.522   2.720 -0.0357  0.8590 -0.1906
  100TCq2    C8 1529   3.917   3.549   2.645 -0.6137 -0.1081 -0.7638
  100TCq2    O4 1530   3.952   3.664   2.617 -0.2488 -0.0940 -0.2253
  100TCq2    C9 1531   4.035   3.216   2.992 -0.1333  0.3929  0.4521
  100TCq2    O5 1532   4.129   3.140   3.033 -0.3280  0.2410 -0.5977
  100TCq2    O6 1533   3.908   3.196   3.018  0.4251  0.6902  0.4357
  100TCq2    H2 1534   4.294   3.304   2.927  1.2769  1.2550 -0.6816
  100TCq2    H3 1535   3.886   3.345   2.849 -1.1330  0.4177 -1.3881
  100TCq2    H4 1536   4.178   3.597   2.647 -0.4172  1.7524  0.5860
  101MPD2     C 1537   0.315   4.254  13.450  0.6415  0.7698 -0.3410
  101MPD2    C1 1538   0.194   4.209  13.394 -0.4008 -0.5160  0.2310
  101MPD2    C2 1539   0.109   4.132  13.470 -0.2494 -0.6889  0.2821
  101MPD2    C3 1540   0.140   4.101  13.600  0.8432 -0.6823 -0.3762
  101MPD2    C4 1541   0.256   4.148  13.657  0.0751 -0.1154  0.1396
  101MPD2    C5 1542   0.345   4.225  13.579  0.2295  0.3882  0.1934
  101MPD2     H 1543   0.017   4.090  13.429  0.5306 -1.0419 -1.0920
  101MPD2    H1 1544   0.283   4.129  13.760 -0.8109  0.8444  0.5488
  101MPD2    H2 1545   0.390   4.302  13.389  0.9500 -0.3427 -0.8347
  101MPD2    H3 1546   0.433   4.252  13.636 -0.3296  1.2688  0.6464
  101MPD2     N 1547   0.051   4.020  13.666  0.0034  0.0512 -0.1912
  101MPD2    H5 1548   4.704   3.969  13.610  0.3338  0.8511 -1.3271
  101MPD2    N1 1549   0.173   4.251  13.261  0.1402 -0.0712 -0.7349
  101MPD2    H7 1550   0.249   4.292  13.208 -0.1029  1.4037  0.0600
  102TCq2    C1 1551   0.285   4.300  12.786 -0.9714 -0.2188 -0.4466
  102TCq2    O2 1552   0.373   4.349  12.857 -0.0620  0.2336 -0.3448
  102TCq2    C2 1553   0.155   4.279  12.850 -0.1254  0.0123 -0.7449
  102TCq2    C3 1554   0.036   4.297  12.779  0.7273  0.2444  0.2546
  102TCq2    C4 1555   4.645   4.297  12.861 -0.4282 -0.2879  0.2095
  102TCq2    C5 1556   4.652   4.302  12.994  0.2656  0.5415 -0.2395
  102TCq2    C6 1557   0.056   4.295  13.055 -0.0398 -0.1938 -0.4092
  102TCq2    C7 1558   0.168   4.275  12.988 -0.3170 -0.0500  0.3361
  102TCq2    C8 1559   0.053   4.261  13.202 -0.0744 -0.4120  0.4159
  102TCq2    O4 1560   4.664   4.240  13.255 -0.4468  0.1249 -0.5505
  102TCq2    C9 1561   4.517   4.312  12.794 -0.7480  0.1976  0.4282
  102TCq2    O5 1562   4.518   4.342  12.672  0.0824 -0.4530 -0.3630
  102TCq2    O6 1563   4.418   4.323  12.871 -0.6010  0.2547  0.1011
  102TCq2    H2 1564   0.028   4.290  12.671  0.8735 -0.7013  0.3075
  102TCq2    H3 1565   4.562   4.324  13.051  0.5882  1.6004 -0.1404
  102TCq2    H4 1566   0.264   4.254  13.034  0.1202  2.8642  0.7341
  103TMC2    C1 1567   2.763   3.982  12.490 -1.3768  0.1622  0.6804
  103TMC2    C2 1568   2.897   3.957  12.468  0.5670 -0.2674 -0.4381
  103TMC2    C3 1569   2.986   3.972  12.570  0.7000  0.0301 -0.1818
  103TMC2    C4 1570   2.717   4.017  12.611  0.2885  0.5269 -0.3903
  103TMC2    C5 1571   2.804   4.015  12.714  0.3980  0.3223  0.9557
  103TMC2    C6 1572   2.944   3.997  12.694  0.6171 -0.6112 -0.1384
  103TMC2     C 1573   2.702   4.033  12.372 -0.8432  0.5114  0.0896
  103TMC2     O 1574   2.638   4.136  12.391  0.1889  0.0644 -0.5093
  103TMC2     H 1575   2.946   3.949  12.371  0.2965 -0.0757 -0.5898
  103TMC2    H1 1576   2.611   4.039  12.614  0.2997  0.7728 -1.7735
  103TMC2    H2 1577   3.010   4.012  12.778  0.1347 -2.6594  0.6064
  103TMC2    C7 1578   2.755   4.019  12.851 -0.0697 -0.0382 -0.5156
  103TMC2    C8 1579   3.117   3.924  12.552 -0.2468 -0.5014  0.7225
  103TMC2    O1 1580   2.839   4.023  12.938  0.1334 -0.5037 -0.4864
  103TMC2    O2 1581   3.209   3.961  12.476 -0.5676  0.1769  0.4985
  103TMC2    O5 1582   3.115   3.809  12.620 -0.1990  0.7540 -0.5202
  103TMC2    H5 1583   3.037   3.801  12.678 -0.8039  0.1321 -1.4170
  104MPD2     C 1584   2.773   3.949  12.010 -0.4287  0.8381 -0.0875
  104MPD2    C1 1585   2.742   4.026  12.123  0.7142  0.3681  0.2511
  104MPD2    C2 1586   2.688   4.152  12.103  0.1799 -0.1697  0.5285
  104MPD2    C3 1587   2.682   4.206  11.974 -0.3354 -0.2129  0.1235
  104MPD2    C4 1588   2.722   4.128  11.862  0.1528  0.0308 -0.1681
  104MPD2    C5 1589   2.770   4.002  11.882  0.0481 -0.0305  0.2663
  104MPD2     H 1590   2.649   4.216  12.181 -1.4887 -0.7549  0.1804
  104MPD2    H1 1591   2.723   4.171  11.763 -0.3300  0.4243 -0.0055
  104MPD2    H2 1592   2.805   3.845  12.015 -0.3004  0.9314  1.0441
  104MPD2    H3 1593   2.816   3.947  11.801  1.5690  1.5205  0.0750
  104MPD2     N 1594   2.650   4.341  11.964  0.6098  0.2547  0.3761
  104MPD2    H5 1595   2.642   4.384  12.055  2.2820 -0.2464  0.7676
  104MPD2    N1 1596   2.744   3.966  12.256  0.8921 -0.1178 -1.1253
  104MPD2    H7 1597   2.763   3.867  12.269  0.5550 -0.0610 -0.1966
  105MPD2     C 1598   0.297   3.533   0.009 -0.5529 -0.6767  0.2405
  105MPD2    C1 1599   0.164   3.552   0.045  0.0173  0.1291  0.3938
  105MPD2    C2 1600   0.127   3.629   0.154  0.1160  0.1824  0.9935
  105MPD2    C3 1601   0.215   3.682   0.237 -0.0231 -0.2321  0.0413
  105MPD2    C4 1602   0.350   3.675   0.197  0.3465 -0.1617  0.5773
  105MPD2    C5 1603   0.385   3.604   0.089 -0.2007  0.3934  0.5334
  105MPD2     H 1604   0.020   3.647   0.165  0.2625  1.7931 -0.2503
  105MPD2    H1 1605   0.423   3.727   0.259 -2.2972  4.7019 -0.3607
  105MPD2    H2 1606   0.330   3.497  17.598  0.6895 -2.8732  1.4873
  105MPD2    H3 1607   0.481   3.635   0.048 -1.5053  2.9753 -0.5437
  105MPD2     N 1608   0.169   3.734   0.361 -0.4793  0.5473 -0.4322
  105MPD2    H5 1609   0.070   3.750   0.370 -0.4239  0.5178  0.2146
  105MPD2    N1 1610   0.060   3.510  17.649 -0.1031 -0.1725 -0.0970
  105MPD2    H7 1611   4.687   3.523  17.685  1.2057  0.1746  3.1449
  106TCq2    C1 1612   0.255   3.759   0.466  0.3203 -0.7124 -0.7678
  106TCq2    O2 1613   0.378   3.762   0.467 -0.2816 -0.0490  0.4905
  106TCq2    C2 1614   0.178   3.808   0.582  0.1170  0.6751 -0.0547
  106TCq2    C3 1615   0.202   3.927   0.637 -0.4738 -0.6493  0.2422
  106TCq2    C4 1616   0.117   3.989   0.727 -0.7788 -0.3857 -0.6298
  106TCq2    C5 1617   4.713   3.933   0.749  0.8478  0.0344  0.2485
  106TCq2    C6 1618   4.688   3.815   0.686 -0.0887  0.3254  0.6771
  106TCq2    C7 1619   0.058   3.755   0.602  0.3435  0.4239 -0.1738
  106TCq2    C8 1620   4.580   3.732   0.731 -0.4657 -0.4507 -0.2331
  106TCq2    O4 1621   4.569   3.622   0.677 -0.2620  0.1133  0.1329
  106TCq2    C9 1622   0.127   4.131   0.757 -0.3054 -0.3168  0.1026
  106TCq2    O5 1623   0.022   4.197   0.781 -0.9842 -0.6201 -0.3016
  106TCq2    O6 1624   0.243   4.184   0.755  0.5136  0.3492 -0.0300
  106TCq2    H2 1625   0.289   3.978   0.599 -0.7621 -2.1121 -2.3646
  106TCq2    H3 1626   4.631   3.993   0.786 -0.4116 -1.5121 -0.0011
  106TCq2    H4 1627   0.044   3.657   0.558 -1.6512  0.8724 -0.5592
  107TMC2    C1 1628   0.849   2.470  11.679  0.0520 -0.3734 -0.4585
  107TMC2    C2 1629   0.966   2.410  11.724 -0.1485 -0.3708 -0.1181
  107TMC2    C3 1630   1.021   2.320  11.639  0.3553 -0.0229 -0.3176
  107TMC2    C4 1631   0.794   2.445  11.549 -0.2287 -0.0011 -0.1255
  107TMC2    C5 1632   0.855   2.359  11.472 -0.0633  0.4375  0.0989
  107TMC2    C6 1633   0.979   2.295  11.506  0.2653  0.5143 -0.9211
  107TMC2     C 1634   0.789   2.577  11.758 -0.5185 -0.0691  0.7149
  107TMC2     O 1635   0.787   2.560  11.880  0.3189 -0.5929 -0.2474
  107TMC2     H 1636   0.999   2.421  11.827 -0.2253 -0.5738 -0.0702
  107TMC2    H1 1637   0.703   2.497  11.522 -0.0647  0.3031 -0.0904
  107TMC2    H2 1638   1.041   2.235  11.441 -0.7735 -0.2432 -1.2269
  107TMC2    C7 1639   0.804   2.349  11.337  0.6264  0.1781  0.0155
  107TMC2    C8 1640   1.140   2.261  11.693 -0.1426 -0.2863  0.3691
  107TMC2    O1 1641   0.705   2.413  11.316  0.3577 -0.3095 -0.3165
  107TMC2    O2 1642   1.149   2.215  11.805  0.2757  0.0236 -0.4117
  107TMC2    O5 1643   1.219   2.227  11.585 -0.1592 -0.4071  0.5703
  107TMC2    H5 1644   1.197   2.278  11.504 -0.3555  1.4440  1.7734
  108MPD2     C 1645   0.664   2.893  11.626  0.2244 -0.0817 -0.1020
  108MPD2    C1 1646   0.669   2.789  11.719  0.2080 -0.2876 -0.0307
  108MPD2    C2 1647   0.617   2.819  11.844  0.6676 -0.3701  0.6421
  108MPD2    C3 1648   0.564   2.949  11.871 -0.8180  0.3059  0.3862
  108MPD2    C4 1649   0.579   3.049  11.778  0.1242  0.2525 -0.0793
  108MPD2    C5 1650   0.608   3.013  11.651 -0.0760 -0.1734 -0.0979
  108MPD2     H 1651   0.620   2.736  11.913 -1.2717 -1.4468 -0.5680
  108MPD2    H1 1652   0.559   3.155  11.774 -0.0431  0.2106 -0.3619
  108MPD2    H2 1653   0.672   2.887  11.518  0.4482 -0.6492 -0.0572
  108MPD2    H3 1654   0.597   3.089  11.574  0.0364 -0.6139 -0.5574
  108MPD2     N 1655   0.510   2.993  11.991  0.3151 -0.4917  0.1946
  108MPD2    H5 1656   0.494   3.093  11.990  1.6429 -0.2626  1.7914
  108MPD2    N1 1657   0.733   2.675  11.673  0.6487  0.0472  0.1163
  108MPD2    H7 1658   0.754   2.663  11.574  0.0865 -0.3414  0.0498
  109MPD2     C 1659   0.248   4.551   2.468  0.2143  0.2968  0.6960
  109MPD2    C1 1660   0.293   4.672   2.416 -0.9035 -0.2052 -0.0881
  109MPD2    C2 1661   0.416   4.716   2.458  0.2332 -0.0781 -0.4180
  109MPD2    C3 1662   0.503   4.639   2.535  0.4351  0.0784 -0.5955
  109MPD2    C4 1663   0.456   4.520   2.582  0.1630  0.0362  0.3568
  109MPD2    C5 1664   0.329   4.487   2.551  0.0268 -0.2804  0.0300
  109MPD2     H 1665   0.457   0.089   2.423 -2.7800  0.9139 -1.3052
  109MPD2    H1 1666   0.511   4.451   2.645 -1.1103 -2.3962 -1.1818
  109MPD2    H2 1667   0.159   4.497   2.437  2.4118 -1.6747 -2.2072
  109MPD2    H3 1668   0.299   4.386   2.573 -1.1860 -0.2155 -1.2742
  109MPD2     N 1669   0.639   4.680   2.548 -0.4593 -0.4352  0.3802
  109MPD2    H5 1670   0.664   0.054   2.523  0.1725 -0.5295  0.6580
  109MPD2    N1 1671   0.211   0.023   2.333 -0.0823  0.0168  0.1449
  109MPD2    H7 1672   0.123   4.694   2.326  0.4759 -1.0832  0.8315
  110TCq2    C1 1673   0.746   4.610   2.601 -0.7106 -0.3691  0.3359
  110TCq2    O2 1674   0.733   4.507   2.665  0.3908  0.5536  0.7267
  110TCq2    C2 1675   0.875   4.664   2.586  0.1029 -0.4224 -0.0682
  110TCq2    C3 1676   0.972   4.616   2.666  0.2281  0.9690  0.2857
  110TCq2    C4 1677   1.102   4.640   2.632  0.1189 -0.3343 -0.0519
  110TCq2    C5 1678   1.128   0.008   2.531  0.3786  0.4903  0.4078
  110TCq2    C6 1679   1.027   0.066   2.459  0.1933 -0.0482 -0.2847
  110TCq2    C7 1680   0.899   0.033   2.491 -0.1709  0.3273  0.5194
  110TCq2    C8 1681   1.035   0.182   2.367 -0.0444 -0.3435 -0.1106
  110TCq2    O4 1682   0.930   0.239   2.352 -0.4468 -0.6473  0.1819
  110TCq2    C9 1683   1.208   4.581   2.709  0.0966  0.1514 -0.4948
  110TCq2    O5 1684   1.331   4.623   2.692 -0.0211 -0.6290  0.1125
  110TCq2    O6 1685   1.173   4.497   2.794 -0.3026 -0.0001  0.4397
  110TCq2    H2 1686   0.953   4.548   2.748 -2.3373 -0.5522 -1.5559
  110TCq2    H3 1687   1.233   0.036   2.522  1.0306 -2.3693 -0.9292
  110TCq2    H4 1688   0.819   0.049   2.420 -0.3155  4.2693  1.5561
  111TMC2    C1 1689   1.228   0.026  11.619 -0.0271  0.4379  0.0202
  111TMC2    C2 1690   1.323   4.713  11.526 -0.1840  0.5510  0.2433
  111TMC2    C3 1691   1.444   4.663  11.569  0.2369 -0.1885 -0.6700
  111TMC2    C4 1692   1.259   0.036  11.749  0.0939  0.0515 -0.5257
  111TMC2    C5 1693   1.384   4.713  11.795  0.1658  0.0093 -0.6751
  111TMC2    C6 1694   1.481   4.673  11.702 -0.2667 -0.1612  0.1753
  111TMC2     C 1695   1.087   0.032  11.575 -0.5199  0.5176  0.2747
  111TMC2     O 1696   1.066   0.037  11.456 -1.3348 -0.2583  0.7471
  111TMC2     H 1697   1.289   4.704  11.423  0.2955 -0.2791  0.1602
  111TMC2    H1 1698   1.184   0.048  11.826 -0.8380  0.1061 -1.4491
  111TMC2    H2 1699   1.583   4.645  11.726 -0.2931 -0.5275 -0.1412
  111TMC2    C7 1700   1.384   4.655  11.923 -0.8493  0.0430 -0.5132
  111TMC2    C8 1701   1.561   4.665  11.476  0.2169 -0.0640  0.0916
  111TMC2    O1 1702   1.279   4.601  11.953 -0.1265 -0.1568  0.3020
  111TMC2    O2 1703   1.669   0.005  11.494  0.0278  0.5502  0.4285
  111TMC2    O5 1704   1.521   4.618  11.354 -0.8621 -0.0604 -0.6449
  111TMC2    H5 1705   1.437   4.567  11.354 -1.2799  0.6315 -1.5474
  112MPD2     C 1706   0.583   4.712  11.697  0.1564  1.1375 -0.4121
  112MPD2    C1 1707   0.641   0.029  11.574  0.0345 -0.4270  0.0643
  112MPD2    C2 1708   0.778   0.038  11.568  0.0588 -0.8600  1.1639
  112MPD2    C3 1709   0.856   0.006  11.675  0.8492 -0.1110  0.6335
  112MPD2    C4 1710   0.795   4.689  11.790 -0.0375 -0.5157 -0.1947
  112MPD2    C5 1711   0.659   4.690  11.801 -0.3554  0.3508 -0.6080
  112MPD2     H 1712   0.821   0.077  11.476 -0.9060 -0.9979  0.6570
  112MPD2    H1 1713   0.849   4.686  11.884  1.4773 -1.9045 -1.1013
  112MPD2    H2 1714   0.476   4.701  11.709  0.2326  1.7880  0.7998
  112MPD2    H3 1715   0.610   4.669  11.895 -0.3096 -0.5833 -0.7883
  112MPD2     N 1716   1.002   0.010  11.674  0.3820  0.1180 -0.1861
  112MPD2    H5 1717   1.046   0.009  11.766  0.5680 -2.3371 -0.2907
  112MPD2    N1 1718   0.570   0.050  11.452  0.1714 -0.3334  0.1724
  112MPD2    H7 1719   0.617   0.060  11.363 -0.3629  2.7878  0.2276
  113MPD2     C 1720   3.391   3.097   1.844  0.1005  0.2790  1.1520
  113MPD2    C1 1721   3.277   3.142   1.781  0.0029  0.1797 -0.8430
  113MPD2    C2 1722   3.164   3.064   1.793 -0.3220 -0.0027 -0.1297
  113MPD2    C3 1723   3.153   2.961   1.882  0.7436 -0.2146 -0.0937
  113MPD2    C4 1724   3.264   2.926   1.948 -0.2342 -0.0669  0.2977
  113MPD2    C5 1725   3.385   2.987   1.921 -0.3448  0.0019 -0.3662
  113MPD2     H 1726   3.078   3.096   1.735 -0.7421 -0.7880  0.0564
  113MPD2    H1 1727   3.255   2.847   2.021  0.3453 -0.9607 -0.5904
  113MPD2    H2 1728   3.490   3.142   1.836 -0.0519  0.6072  1.1242
  113MPD2    H3 1729   3.466   2.963   1.989 -1.3322 -0.2934  0.7083
  113MPD2     N 1730   3.038   2.892   1.921 -0.0174  0.6868 -0.4283
  113MPD2    H5 1731   3.062   2.826   1.994 -0.5958 -0.7190 -1.5166
  113MPD2    N1 1732   3.269   3.262   1.707 -0.1748  0.7293 -0.0884
  113MPD2    H7 1733   3.189   3.296   1.654 -0.3880  0.4737  0.0741
  114TCq2    C1 1734   2.913   2.899   1.864  0.2489 -0.0127 -0.3498
  114TCq2    O2 1735   2.868   2.985   1.793  0.0218  0.3015  0.4835
  114TCq2    C2 1736   2.822   2.789   1.911  1.1450  0.1546 -0.1992
  114TCq2    C3 1737   2.688   2.807   1.879 -0.2953 -0.1031 -0.4423
  114TCq2    C4 1738   2.598   2.710   1.911 -0.2775 -0.5014  1.1046
  114TCq2    C5 1739   2.638   2.590   1.963 -0.0550 -0.5957  0.4338
  114TCq2    C6 1740   2.776   2.575   1.976 -0.1048  0.0435 -0.9894
  114TCq2    C7 1741   2.866   2.674   1.970  0.6228  0.3541  0.0870
  114TCq2    C8 1742   2.828   2.438   1.999  0.3428 -0.3701  0.6192
  114TCq2    O4 1743   2.948   2.428   2.009  0.2456 -0.3500  0.3541
  114TCq2    C9 1744   2.465   2.713   1.861  0.0898  0.1078  0.3029
  114TCq2    O5 1745   2.430   2.824   1.805 -0.1449  0.8483  0.2184
  114TCq2    O6 1746   2.388   2.615   1.878 -0.0061  0.4288 -0.1052
  114TCq2    H2 1747   2.662   2.903   1.835  0.9525  0.9312  1.0701
  114TCq2    H3 1748   2.567   2.510   1.976 -1.7022  0.9173  0.7315
  114TCq2    H4 1749   2.968   2.638   1.976  0.6986  0.4565 -0.5167
  115TMC2    C1 1750   3.734   0.968  17.672 -0.9443  0.1500  0.1292
  115TMC2    C2 1751   3.736   0.984  17.537 -0.4505  1.0518 -0.6446
  115TMC2    C3 1752   3.771   1.105  17.490  0.6555  0.2249  0.9418
  115TMC2    C4 1753   3.772   1.064   0.074  0.6497  0.1299 -0.8029
  115TMC2    C5 1754   3.805   1.188   0.022  0.0102  0.5712 -0.3673
  115TMC2    C6 1755   3.799   1.213  17.566  0.8459 -0.5319 -0.2432
  115TMC2     C 1756   3.688   0.837   0.028 -0.3462  0.3373  0.0997
  115TMC2     O 1757   3.612   0.777  17.639 -0.2585  0.3268  1.0382
  115TMC2     H 1758   3.733   0.894  17.476  0.4344  0.7862 -0.3060
  115TMC2    H1 1759   3.781   1.060   0.182 -0.0171 -0.6788 -0.7813
  115TMC2    H2 1760   3.821   1.302  17.510  0.1230 -0.4367 -0.3681
  115TMC2    C7 1761   3.837   1.303   0.106  0.0811 -0.1334  0.5898
  115TMC2    C8 1762   3.806   1.096  17.348  0.5080 -0.3111  0.4060
  115TMC2    O1 1763   3.824   1.292   0.228  0.3353  0.7082  0.6218
  115TMC2    O2 1764   3.755   1.028  17.261 -0.2130 -0.3742  0.2711
  115TMC2    O5 1765   3.932   1.145  17.330 -0.2563  0.3837 -0.5302
  115TMC2    H5 1766   3.974   1.195  17.403 -1.0795 -2.4087  1.8263
  116MPD2     C 1767   3.739   0.432   0.327  0.7668 -1.1058 -0.4261
  116MPD2    C1 1768   3.663   0.456   0.214 -0.0731  0.4648 -0.7697
  116MPD2    C2 1769   3.657   0.582   0.155  0.4860 -0.0188  0.0891
  116MPD2    C3 1770   3.740   0.678   0.206 -0.1110 -1.0888 -0.5515
  116MPD2    C4 1771   3.807   0.659   0.323  0.3647 -0.3430 -0.1791
  116MPD2    C5 1772   3.802   0.538   0.382 -0.3920 -0.2320  0.8813
  116MPD2     H 1773   3.597   0.593   0.066  1.4535  1.4693 -0.3672
  116MPD2    H1 1774   3.876   0.731   0.367 -0.8359  0.8077 -0.1776
  116MPD2    H2 1775   3.764   0.338   0.376  0.4298 -1.0990 -0.2414
  116MPD2    H3 1776   3.869   0.517   0.465  0.2557 -3.2997 -0.4156
  116MPD2     N 1777   3.748   0.805   0.142 -0.0733  0.6317  0.1188
  116MPD2    H5 1778   3.807   0.872   0.190  1.0987 -1.6693  1.8840
  116MPD2    N1 1779   3.592   0.351   0.149 -0.0845  0.4791 -0.0932
  116MPD2    H7 1780   3.554   0.373   0.057  0.8862 -2.3143 -1.1652
  117TMC2    C1 1781   2.821   1.898  13.360  0.3592 -0.2289 -0.9522
  117TMC2    C2 1782   2.901   1.791  13.332  0.2214  0.9110 -0.1872
  117TMC2    C3 1783   3.031   1.810  13.329  0.3083  0.1953  0.3943
  117TMC2    C4 1784   2.872   2.026  13.379 -0.0356 -0.2007  0.5955
  117TMC2    C5 1785   3.007   2.037  13.373  0.2318 -0.2407 -0.8720
  117TMC2    C6 1786   3.092   1.929  13.350  0.9117 -0.2436  0.6471
  117TMC2     C 1787   2.677   1.896  13.353 -0.7552  0.0871 -0.6795
  117TMC2     O 1788   2.636   1.797  13.295 -0.2041 -0.5210  0.4437
  117TMC2     H 1789   2.847   1.701  13.305 -0.8522  0.8390  2.2648
  117TMC2    H1 1790   2.805   2.110  13.394  0.5549  0.6302 -1.4458
  117TMC2    H2 1791   3.193   1.949  13.318  1.0481 -1.3735  0.3879
  117TMC2    C7 1792   3.066   2.163  13.414  0.4580  0.5724 -0.1765
  117TMC2    C8 1793   3.106   1.696  13.291 -0.3213  0.0524  0.4960
  117TMC2    O1 1794   3.004   2.265  13.386  0.1421 -0.6649  0.1907
  117TMC2    O2 1795   3.065   1.611  13.212  0.7011  0.4170  0.0060
  117TMC2    O5 1796   3.230   1.705  13.329 -0.0649 -0.0381  0.1034
  117TMC2    H5 1797   3.246   1.769  13.402  1.9708 -0.5011  0.0712
  118MPD2     C 1798   3.364   2.196  13.611 -0.2461 -0.4397  0.7171
  118MPD2    C1 1799   3.258   2.246  13.544  0.3253  0.7343 -0.2895
  118MPD2    C2 1800   3.232   2.387  13.532  0.4822 -0.4251 -0.4530
  118MPD2    C3 1801   3.321   2.471  13.600 -0.6716 -0.1996 -0.4522
  118MPD2    C4 1802   3.426   2.416  13.667  0.7109 -0.1577  0.5608
  118MPD2    C5 1803   3.450   2.281  13.670  0.1145  0.4929  0.6086
  118MPD2     H 1804   3.140   2.423  13.488 -0.0275  1.6090  2.2494
  118MPD2    H1 1805   3.502   2.481  13.707 -1.1981  1.3111  1.7952
  118MPD2    H2 1806   3.373   2.089  13.619 -0.6237 -0.4049  1.5644
  118MPD2    H3 1807   3.548   2.250  13.706  0.0458 -0.0701  0.3104
  118MPD2     N 1808   3.300   2.610  13.603 -0.1998 -0.3743  0.1131
  118MPD2    H5 1809   3.348   2.663  13.676  0.7102  1.9222 -2.1325
  118MPD2    N1 1810   3.183   2.148  13.484 -0.5847 -0.3316  0.4182
  118MPD2    H7 1811   3.217   2.054  13.499  1.1934  0.2434  0.0021
  119MPD2     C 1812   1.425   3.590  14.432 -0.4134 -0.0916  0.2307
  119MPD2    C1 1813   1.307   3.629  14.372 -0.2013 -0.8106  1.5400
  119MPD2    C2 1814   1.306   3.644  14.235 -0.2969  0.7427 -0.8807
  119MPD2    C3 1815   1.420   3.626  14.155  0.4978 -0.3576  0.2931
  119MPD2    C4 1816   1.533   3.596  14.226  0.4128 -0.4530 -0.4309
  119MPD2    C5 1817   1.534   3.581  14.356 -0.5287  0.1488  0.9399
  119MPD2     H 1818   1.210   3.661  14.189 -0.5828 -0.9466 -0.9153
  119MPD2    H1 1819   1.626   3.583  14.172  0.0522 -0.0718 -1.1383
  119MPD2    H2 1820   1.429   3.583  14.540  0.6371  1.1847  0.2696
  119MPD2    H3 1821   1.622   3.554  14.415  2.1310  0.6625 -2.7936
  119MPD2     N 1822   1.432   3.635  14.018  0.8540  0.7300  0.1032
  119MPD2    H5 1823   1.527   3.616  13.987 -0.5033 -2.2714 -2.1248
  119MPD2    N1 1824   1.192   3.626  14.455 -0.1666 -0.6571  1.2154
  119MPD2    H7 1825   1.209   3.585  14.547  0.8483 -1.9472  0.4567
  120TCq2    C1 1826   1.324   3.644  13.936 -0.1996 -0.2025  0.7931
  120TCq2    O2 1827   1.202   3.662  13.962 -0.2123 -0.3056 -0.2924
  120TCq2    C2 1828   1.346   3.607  13.793  0.7454 -0.1576 -0.0184
  120TCq2    C3 1829   1.462   3.545  13.748 -0.0172  0.4984 -0.0465
  120TCq2    C4 1830   1.457   3.470  13.633  0.4000  0.9493  0.5603
  120TCq2    C5 1831   1.342   3.451  13.566  0.7891  0.1599  0.0808
  120TCq2    C6 1832   1.226   3.524  13.604 -0.3906  0.0573  0.6305
  120TCq2    C7 1833   1.229   3.598  13.718 -0.1037  0.1168 -0.2433
  120TCq2    C8 1834   1.100   3.492  13.533  0.1792  0.3019 -0.0512
  120TCq2    O4 1835   1.109   3.441  13.419 -0.3876 -0.8977 -0.0659
  120TCq2    C9 1836   1.570   3.399  13.581 -0.3637  0.5052  0.6738
  120TCq2    O5 1837   1.553   3.345  13.466  0.3707  0.2800  0.2129
  120TCq2    O6 1838   1.675   3.402  13.646 -0.2647  0.5120 -0.3476
  120TCq2    H2 1839   1.558   3.552  13.798 -0.6291 -0.3966  1.2631
  120TCq2    H3 1840   1.329   3.377  13.487 -0.6419  0.4318  0.0490
  120TCq2    H4 1841   1.140   3.655  13.741  0.5913  1.9166 -2.0809
  121TMC2    C1 1842   2.511   0.518  14.382  0.3905  0.6921  0.4824
  121TMC2    C2 1843   2.559   0.445  14.491  0.1296  0.2702  0.4356
  121TMC2    C3 1844   2.474   0.365  14.559  0.8153  0.2779  0.6796
  121TMC2    C4 1845   2.376   0.515  14.356  0.7090 -0.7452 -0.2277
  121TMC2    C5 1846   2.290   0.449  14.440 -0.6678  0.2279 -0.0975
  121TMC2    C6 1847   2.339   0.371  14.543 -0.0591  0.0738 -0.1859
  121TMC2     C 1848   2.593   0.612  14.307 -0.0305 -0.5325  0.0448
  121TMC2     O 1849   2.655   0.688  14.383  0.2692 -0.0178  0.4498
  121TMC2     H 1850   2.667   0.435  14.497  0.2092  2.0152  1.8568
  121TMC2    H1 1851   2.332   0.568  14.273  3.3617  0.8226 -0.6431
  121TMC2    H2 1852   2.277   0.317  14.614  0.4237 -2.0096 -1.3285
  121TMC2    C7 1853   2.168   0.415  14.373  0.0767 -0.0585 -0.3918
  121TMC2    C8 1854   2.528   0.303  14.679  0.4248 -0.5240 -0.6057
  121TMC2    O1 1855   2.126   0.491  14.292  0.3115  0.0030  0.1261
  121TMC2    O2 1856   2.617   0.352  14.749  0.6064 -0.4598 -0.0911
  121TMC2    O5 1857   2.484   0.183  14.700  0.2101 -0.0198 -0.3697
  121TMC2    H5 1858   2.410   0.170  14.637 -0.0540  0.0336 -0.0691
  122MPD2     C 1859   2.733   0.797  14.121 -0.5150 -1.0138  1.0905
  122MPD2    C1 1860   2.674   0.677  14.079  0.6629 -0.1737  1.0083
  122MPD2    C2 1861   2.677   0.638  13.948  0.1533 -0.0521  0.0520
  122MPD2    C3 1862   2.744   0.711  13.853  0.0628 -0.1976  0.2793
  122MPD2    C4 1863   2.810   0.829  13.892 -0.0272 -0.4167  0.0870
  122MPD2    C5 1864   2.788   0.873  14.022 -0.2880  0.3182  0.6018
  122MPD2     H 1865   2.624   0.547  13.921  1.0182 -0.3271 -0.7082
  122MPD2    H1 1866   2.843   0.898  13.815 -0.0000 -0.3257  0.1808
  122MPD2    H2 1867   2.720   0.835  14.222 -3.2123  1.2565 -0.1335
  122MPD2    H3 1868   2.811   0.977  14.042 -0.4687  0.7334 -1.3728
  122MPD2     N 1869   2.728   0.683  13.717 -0.0633 -0.2970 -0.5465
  122MPD2    H5 1870   2.766   0.750  13.651  2.3986 -0.7548  0.4088
  122MPD2    N1 1871   2.596   0.599  14.168  0.3015 -0.2654  0.4631
  122MPD2    H7 1872   2.538   0.526  14.128 -0.6095  1.0727 -0.6781
  123MPD2     C 1873   1.608   2.280  10.541 -0.1082 -0.3947  1.0733
  123MPD2    C1 1874   1.507   2.346  10.470  1.0317  0.0965  0.1443
  123MPD2    C2 1875   1.532   2.370  10.340  0.4421  0.3554 -0.6111
  123MPD2    C3 1876   1.644   2.325  10.275  0.1519 -0.0403  0.2589
  123MPD2    C4 1877   1.729   2.243  10.342 -0.4309  0.3270 -0.4767
  123MPD2    C5 1878   1.713   2.226  10.480 -0.2665 -0.1380  0.0364
  123MPD2     H 1879   1.455   2.431  10.294  1.4011  2.1254  0.1603
  123MPD2    H1 1880   1.809   2.185  10.299 -0.7140  0.6513 -1.4335
  123MPD2    H2 1881   1.603   2.279  10.650 -2.0644  1.7887  1.0051
  123MPD2    H3 1882   1.792   2.182  10.540  0.0735 -0.7958 -0.8880
  123MPD2     N 1883   1.668   2.366  10.141  0.7735 -0.0579  0.5661
  123MPD2    H5 1884   1.600   2.428  10.099 -1.0931 -2.1747  0.4290
  123MPD2    N1 1885   1.384   2.372  10.532 -0.3236  0.8115 -0.5012
  123MPD2    H7 1886   1.369   2.339  10.627  0.7748 -0.6246 -0.8218
  124TCq2    C1 1887   1.785   2.347  10.071  0.1791 -0.6713 -0.6404
  124TCq2    O2 1888   1.892   2.309  10.117 -0.1997  0.2287  0.3972
  124TCq2    C2 1889   1.787   2.408   9.939  0.2715 -0.1669  0.3760
  124TCq2    C3 1890   1.902   2.458   9.887 -0.1623  0.4734  0.3647
  124TCq2    C4 1891   1.904   2.520   9.767 -0.1645 -0.4835 -0.1190
  124TCq2    C5 1892   1.798   2.511   9.684 -0.0819 -0.0500 -0.1722
  124TCq2    C6 1893   1.682   2.451   9.740  0.1990  0.4647  0.2537
  124TCq2    C7 1894   1.672   2.406   9.870 -0.2478  0.4133  0.3601
  124TCq2    C8 1895   1.554   2.443   9.665  0.2684  0.7684  1.1060
  124TCq2    O4 1896   1.453   2.426   9.736  0.8634  0.9155  0.6074
  124TCq2    C9 1897   2.029   2.568   9.716  0.6198 -0.0786 -0.2053
  124TCq2    O5 1898   2.128   2.557   9.794  0.2909 -0.1796 -0.5424
  124TCq2    O6 1899   2.031   2.598   9.592  0.1006 -0.3957  0.0001
  124TCq2    H2 1900   1.994   2.448   9.942  0.5838  0.3839 -0.8987
  124TCq2    H3 1901   1.805   2.581   9.602  1.3866 -0.2918 -0.2538
  124TCq2    H4 1902   1.582   2.372   9.919 -1.2517  0.2339 -1.5935
  125TMC2    C1 1903   0.483   4.606   9.634 -0.5734  0.4020  0.5316
  125TMC2    C2 1904   0.350   4.626   9.645 -0.4273 -0.2698  0.1059
  125TMC2    C3 1905   0.302   0.030   9.644  0.0870  0.6435 -0.7638
  125TMC2    C4 1906   0.569   4.712   9.615  0.5574  0.0063  0.4601
  125TMC2    C5 1907   0.514   0.118   9.633  0.3455 -0.1386  0.0614
  125TMC2    C6 1908   0.385   0.142   9.643 -0.8703 -0.5010  0.0005
  125TMC2     C 1909   0.510   4.466   9.599  0.9194 -0.3533 -0.4420
  125TMC2     O 1910   0.428   4.379   9.619 -0.3581 -0.0679  0.3357
  125TMC2     H 1911   0.278   4.547   9.630 -0.1551 -0.4635 -0.1908
  125TMC2    H1 1912   0.676   4.696   9.611  1.0327  3.2136  0.5211
  125TMC2    H2 1913   0.354   0.246   9.655 -0.2593 -0.6215  2.6311
  125TMC2    C7 1914   0.601   0.235   9.639  0.6959  0.2742  0.1957
  125TMC2    C8 1915   0.158   0.058   9.619 -0.2483 -0.2498  0.5913
  125TMC2    O1 1916   0.565   0.344   9.681 -0.0782 -0.3673 -0.4539
  125TMC2    O2 1917   0.088   4.696   9.564  0.5421 -0.5734 -0.0354
  125TMC2    O5 1918   0.125   0.189   9.626 -0.1888 -0.7189  0.6226
  125TMC2    H5 1919   0.191   0.241   9.677  1.1992  0.2959 -2.2501
  126MPD1     C 1920   0.790   4.126   9.351  0.2689 -0.1838  0.2819
  126MPD1    C1 1921   0.654   4.137   9.367 -0.3411 -0.4480  0.5241
  126MPD1    C2 1922   0.606   4.245   9.434  0.2638  0.0597 -0.1572
  126MPD1    C3 1923   0.684   4.339   9.489 -0.2730 -0.0005  0.2259
  126MPD1    C4 1924   0.820   4.321   9.473  0.1941  0.6214 -0.1544
  126MPD1    C5 1925   0.874   4.224   9.401  0.1747 -0.4674 -0.3759
  126MPD1     H 1926   0.498   4.252   9.443  0.1325 -3.0903  0.5889
  126MPD1    H1 1927   0.892   4.394   9.509  0.0149  0.5145  0.4152
  126MPD1    H2 1928   0.844   4.040   9.312  0.1518 -0.8199  1.5456
  126MPD1    H3 1929   0.982   4.212   9.396  0.4894  2.9393 -1.6970
  126MPD1     N 1930   0.636   4.446   9.558 -0.1170 -0.1298  0.1817
  126MPD1    H5 1931   0.712   4.508   9.584  2.9818 -4.5715  1.7370
  126MPD1    N1 1932   0.582   4.020   9.343 -0.8132 -0.1047  0.6614
  126MPD1    H6 1933   0.483   4.043   9.332  0.0280  1.7103 -3.0660
  126MPD1    H7 1934   0.607   3.981   9.253  0.4054 -1.6306  1.6612
  127MPD2     C 1935   3.305   4.546   9.196  0.1478  0.2644 -0.2562
  127MPD2    C1 1936   3.274   4.535   9.328  0.6517  0.0051  0.2795
  127MPD2    C2 1937   3.149   4.583   9.368 -0.4532  0.2304 -0.1874
  127MPD2    C3 1938   3.054   4.631   9.279 -0.0515 -0.0593 -0.1788
  127MPD2    C4 1939   3.096   4.643   9.145 -0.0500  0.4267 -0.7033
  127MPD2    C5 1940   3.218   4.596   9.106 -0.0083  0.1687 -0.1111
  127MPD2     H 1941   3.123   4.572   9.473 -0.3422 -0.1947 -0.2058
  127MPD2    H1 1942   3.030   4.674   9.065  0.1828  1.8520 -0.3570
  127MPD2    H2 1943   3.401   4.513   9.158  0.4649 -0.2186  0.9361
  127MPD2    H3 1944   3.239   4.601   9.000 -0.0597  2.2446 -0.0107
  127MPD2     N 1945   2.930   4.675   9.328 -0.4062 -0.1931 -0.3618
  127MPD2    H5 1946   2.916   4.666   9.428 -1.1662  2.4633 -0.2197
  127MPD2    N1 1947   3.363   4.470   9.418 -0.4192  0.0785  1.3041
  127MPD2    H7 1948   3.430   4.409   9.373 -0.5754  0.2913  0.7744
  128TCq2    C1 1949   3.367   4.491   9.553  0.3141  0.6654  0.4351
  128TCq2    O2 1950   3.301   4.569   9.621 -0.3713 -0.5518  0.0130
  128TCq2    C2 1951   3.441   4.387   9.615 -0.1494 -0.3250  0.2010
  128TCq2    C3 1952   3.458   4.406   9.754 -0.1159 -0.6530  0.4081
  128TCq2    C4 1953   3.504   4.305   9.834 -0.2744  1.2425  0.3318
  128TCq2    C5 1954   3.516   4.183   9.776 -0.3749 -0.4539  0.3696
  128TCq2    C6 1955   3.503   4.167   9.644  0.0696 -0.5228  0.4277
  128TCq2    C7 1956   3.463   4.271   9.555  0.4287  0.5505  0.2526
  128TCq2    C8 1957   3.477   4.030   9.593 -0.0452 -0.3856  0.2391
  128TCq2    O4 1958   3.494   4.013   9.474  0.3066  0.1969  0.2611
  128TCq2    C9 1959   3.505   4.319   9.977  1.5140  0.0454  0.6748
  128TCq2    O5 1960   3.458   4.420  10.033 -0.1460 -0.3953  0.0033
  128TCq2    O6 1961   3.508   4.207  10.041 -0.0869 -0.0693 -0.1973
  128TCq2    H2 1962   3.437   4.503   9.796 -0.1025 -0.8941  0.9671
  128TCq2    H3 1963   3.560   4.103   9.832  1.3884  0.8349  0.8114
  128TCq2    H4 1964   3.450   4.260   9.448  0.8747  2.0303  0.0478
  129MPD2     C 1965   1.461   0.555   1.545 -0.9279 -0.0074  0.3298
  129MPD2    C1 1966   1.534   0.449   1.586 -0.0765  0.0759  0.1928
  129MPD2    C2 1967   1.670   0.459   1.568  0.4802  0.5561 -0.1997
  129MPD2    C3 1968   1.729   0.567   1.504  0.5515 -0.2581  0.0839
  129MPD2    C4 1969   1.655   0.674   1.470 -0.7731 -0.4521  0.0191
  129MPD2    C5 1970   1.521   0.666   1.485  0.3675  0.3815 -0.1695
  129MPD2     H 1971   1.721   0.371   1.606  0.7438  0.9959  0.4760
  129MPD2    H1 1972   1.705   0.763   1.433 -0.3169 -0.7831 -0.1630
  129MPD2    H2 1973   1.353   0.551   1.538 -0.8271 -1.0059 -0.5914
  129MPD2    H3 1974   1.455   0.747   1.457  2.3465  1.1466 -2.5537
  129MPD2     N 1975   1.872   0.578   1.506 -0.6209 -0.2988  0.1270
  129MPD2    H5 1976   1.917   0.661   1.470 -1.0949 -0.1044 -0.0087
  129MPD2    N1 1977   1.485   0.332   1.651  0.5669 -0.3456 -0.0443
  129MPD2    H7 1978   1.555   0.266   1.685 -0.2915 -0.7057  1.0150
  130TCq2    C1 1979   1.358   0.311   1.686  0.0310  0.2323 -0.0110
  130TCq2    O2 1980   1.272   0.399   1.690 -0.1434  0.6566  0.0748
  130TCq2    C2 1981   1.339   0.192   1.766  0.3777  0.7256  0.5772
  130TCq2    C3 1982   1.432   0.100   1.770  0.6773 -0.5258 -0.4586
  130TCq2    C4 1983   1.421   4.709   1.840 -0.2237  0.5622  0.1271
  130TCq2    C5 1984   1.311   4.684   1.917  1.0907  0.0517  0.2351
  130TCq2    C6 1985   1.209   0.055   1.913  0.1697 -0.1676  0.1064
  130TCq2    C7 1986   1.223   0.165   1.831 -0.2358 -0.2667 -0.3035
  130TCq2    C8 1987   1.092   0.043   1.997  0.2839  0.3794  0.2177
  130TCq2    O4 1988   0.986   0.085   1.951 -0.1251 -0.1515 -0.5144
  130TCq2    C9 1989   1.524   4.614   1.825  0.4186  0.1429  0.0692
  130TCq2    O5 1990   1.492   4.490   1.853 -0.2145 -0.1479 -0.1800
  130TCq2    O6 1991   1.641   4.660   1.816 -0.3985 -0.0392 -0.3574
  130TCq2    H2 1992   1.516   0.099   1.702 -2.0313  2.3759 -3.8513
  130TCq2    H3 1993   1.302   4.589   1.968 -0.3915  1.1969  2.1361
  130TCq2    H4 1994   1.136   0.229   1.820  1.9378  2.6875 -0.5699
  131MPD2     C 1995   0.502   2.585  10.106 -0.3063  1.2045 -0.3923
  131MPD2    C1 1996   0.628   2.590  10.061 -0.1723 -0.7266  0.0116
  131MPD2    C2 1997   0.733   2.583  10.151  0.2629 -0.1069 -0.0121
  131MPD2    C3 1998   0.715   2.569  10.287  0.4004 -0.4453  0.0295
  131MPD2    C4 1999   0.585   2.574  10.329  1.0295 -0.3372 -0.0799
  131MPD2    C5 2000   0.481   2.574  10.238 -0.3493 -0.2558  0.9039
  131MPD2     H 2001   0.835   2.576  10.114  0.3779 -2.1670  0.6944
  131MPD2    H1 2002   0.543   2.555  10.428  1.4045  3.2881  0.7966
  131MPD2    H2 2003   0.414   2.603  10.045  0.5424  0.9535 -1.6908
  131MPD2    H3 2004   0.376   2.576  10.265 -0.8493  0.4468 -1.0925
  131MPD2     N 2005   0.827   2.541  10.372 -0.3635 -0.5915  0.3985
  131MPD2    H5 2006   0.918   2.547  10.328 -1.3596  2.5571 -1.2134
  131MPD2    N1 2007   0.638   2.606   9.923 -0.2505  0.0479 -0.3507
  131MPD2    H7 2008   0.557   2.633   9.869  0.8481 -1.8516 -2.9624
  132TCq2    C1 2009   0.942   2.730   9.410 -0.5170  0.5039  0.2643
  132TCq2    O2 2010   0.965   2.667   9.312 -0.3718  0.9978  0.1922
  132TCq2    C2 2011   0.824   2.700   9.482 -0.9914 -0.5150 -0.4084
  132TCq2    C3 2012   0.708   2.662   9.417  0.6615  0.3383  0.7494
  132TCq2    C4 2013   0.610   2.603   9.494  0.0501  0.4278 -0.5277
  132TCq2    C5 2014   0.614   2.585   9.628  0.4897 -0.9922 -0.7400
  132TCq2    C6 2015   0.731   2.623   9.693  1.2001  0.4794  0.0718
  132TCq2    C7 2016   0.837   2.680   9.620 -0.0633  0.4321 -0.5670
  132TCq2    C8 2017   0.753   2.603   9.841  0.6439  0.4508  0.3162
  132TCq2    O4 2018   0.863   2.568   9.879  0.2231  0.1704 -0.6014
  132TCq2    C9 2019   0.500   2.542   9.422  0.9692 -0.3982 -0.2898
  132TCq2    O5 2020   0.512   2.547   9.295  0.2803  0.4175  0.0812
  132TCq2    O6 2021   0.416   2.467   9.492 -0.5808  0.3525  0.3203
  132TCq2    H2 2022   0.702   2.679   9.310  2.4983 -1.2017  0.3888
  132TCq2    H3 2023   0.533   2.541   9.685  0.8759  0.1739  0.6898
  132TCq2    H4 2024   0.929   2.692   9.676 -0.2762  0.7935 -0.2977
  133MPD2     C 2025   3.953   3.070   9.374  0.2519  0.2779 -0.3615
  133MPD2    C1 2026   4.061   3.020   9.449  0.6838 -0.0862 -0.5731
  133MPD2    C2 2027   4.168   3.101   9.476  0.2318 -0.2496 -0.0701
  133MPD2    C3 2028   4.171   3.230   9.444  0.3563 -0.6972 -0.8836
  133MPD2    C4 2029   4.061   3.290   9.379 -0.1005 -0.3516  0.6113
  133MPD2    C5 2030   3.957   3.207   9.343  0.1597 -0.1439  0.7716
  133MPD2     H 2031   4.257   3.061   9.525  0.9880  1.0965 -0.3441
  133MPD2    H1 2032   4.058   3.394   9.349  2.1806  0.2048  2.3018
  133MPD2    H2 2033   3.872   3.009   9.336  0.4444 -0.5056  0.4854
  133MPD2    H3 2034   3.872   3.257   9.298  1.7918  1.5472 -0.4167
  133MPD2     N 2035   4.264   3.322   9.503 -0.1774 -0.3720 -0.1289
  133MPD2    H5 2036   4.246   3.422   9.496 -1.2466 -0.6078 -0.7256
  133MPD2    N1 2037   4.063   2.880   9.479 -0.6373 -0.0849 -0.1250
  133MPD2    H7 2038   3.983   2.830   9.441  0.0092  0.1150 -1.7650
  134TCq2    C1 2039   4.173   2.811   9.531 -0.2104 -0.1305  0.9807
  134TCq2    O2 2040   4.279   2.842   9.587 -0.4159  0.4278  0.0433
  134TCq2    C2 2041   4.151   2.665   9.519  0.7175  0.4620 -0.1879
  134TCq2    C3 2042   4.036   2.620   9.457  0.0017  0.7931  0.3881
  134TCq2    C4 2043   4.010   2.485   9.467  0.0990 -0.3025  0.5230
  134TCq2    C5 2044   4.088   2.395   9.532 -0.5173  0.2706 -0.4008
  134TCq2    C6 2045   4.198   2.444   9.596 -0.1765  0.4742 -0.9598
  134TCq2    C7 2046   4.238   2.575   9.581  0.0978  0.0032 -0.0541
  134TCq2    C8 2047   4.300   2.357   9.641  0.7320  0.6896 -0.4442
  134TCq2    O4 2048   4.402   2.412   9.671 -0.1750 -0.1502 -0.4888
  134TCq2    C9 2049   3.894   2.428   9.405 -0.0607  0.6084 -0.1550
  134TCq2    O5 2050   3.869   2.305   9.428  0.0751 -0.0367 -0.5121
  134TCq2    O6 2051   3.833   2.505   9.326  0.8879  0.2416  0.4292
  134TCq2    H2 2052   3.966   2.686   9.406 -0.4871 -0.7024 -0.8677
  134TCq2    H3 2053   4.062   2.291   9.522 -3.0365  0.5860  2.8163
  134TCq2    H4 2054   4.326   2.624   9.621 -0.4620  1.2393 -0.3246
  135MPD2     C 2055   1.953   0.611   9.409 -0.0199  0.3913 -0.0143
  135MPD2    C1 2056   2.004   0.488   9.435  0.4875  0.8844  0.1144
  135MPD2    C2 2057   2.124   0.457   9.383 -0.5369  0.0643  0.0422
  135MPD2    C3 2058   2.188   0.548   9.296 -0.5098  0.2248  0.9818
  135MPD2    C4 2059   2.131   0.669   9.265  0.1240  0.5611 -0.3693
  135MPD2    C5 2060   2.008   0.694   9.314 -0.7393  0.3847 -0.2030
  135MPD2     H 2061   2.165   0.357   9.392  2.7540  1.6356  2.5306
  135MPD2    H1 2062   2.166   0.736   9.187 -0.4137  0.1578 -0.9521
  135MPD2    H2 2063   1.866   0.646   9.462  0.3121  0.1234  0.7105
  135MPD2    H3 2064   1.953   0.784   9.292  0.1498  0.7153 -1.0854
  135MPD2     N 2065   2.315   0.517   9.236  0.3596  0.2821 -0.5900
  135MPD2    H5 2066   2.341   0.577   9.158 -0.1828 -0.9567 -1.7085
  135MPD2    N1 2067   1.950   0.409   9.540 -0.1073  0.1256 -0.6193
  135MPD2    H7 2068   2.000   0.321   9.549 -1.4140 -0.4696  0.8869
  136TCq2    C1 2069   1.849   0.443   9.632  0.0885  0.5600  0.0611
  136TCq2    O2 2070   1.800   0.556   9.655  0.3431  0.1426  0.4434
  136TCq2    C2 2071   1.805   0.338   9.717  0.0756  0.3417 -0.1652
  136TCq2    C3 2072   1.845   0.210   9.690 -0.3983  0.1856  0.4372
  136TCq2    C4 2073   1.801   0.107   9.769 -0.1242  0.1313 -0.5831
  136TCq2    C5 2074   1.696   0.128   9.849  0.3680  0.0832 -0.1309
  136TCq2    C6 2075   1.640   0.249   9.863  0.2759 -0.1699  0.0943
  136TCq2    C7 2076   1.697   0.357   9.797 -0.0329  0.7094  0.6375
  136TCq2    C8 2077   1.496   0.254   9.872  0.3204 -0.1296 -0.0752
  136TCq2    O4 2078   1.440   0.327   9.791  0.1391 -0.0174 -0.1923
  136TCq2    C9 2079   1.847   4.688   9.751  0.5534  0.1687 -0.2764
  136TCq2    O5 2080   1.772   4.593   9.787 -0.2052 -0.1934  0.1417
  136TCq2    O6 2081   1.918   4.679   9.649  0.2960  0.0536  0.1418
  136TCq2    H2 2082   1.931   0.181   9.631 -0.4485  0.3316  0.2934
  136TCq2    H3 2083   1.654   0.037   9.890 -0.6642  0.9118  0.6553
  136TCq2    H4 2084   1.645   0.452   9.800 -1.4136  0.0173 -2.0518
  137MPD2     C 2085   2.692   4.100   9.765 -0.3843  0.2162 -0.0076
  137MPD2    C1 2086   2.560   4.072   9.760 -0.2436 -0.0659  0.3167
  137MPD2    C2 2087   2.478   4.091   9.872  0.2951  0.2692 -1.1234
  137MPD2    C3 2088   2.535   4.126   9.990  0.3743  0.0894 -0.2803
  137MPD2    C4 2089   2.671   4.146   9.996  0.1784 -0.2525 -0.4433
  137MPD2    C5 2090   2.748   4.143   9.881  1.1079  0.6399 -0.3825
  137MPD2     H 2091   2.370   4.092   9.867  0.1715 -1.1991  1.6459
  137MPD2    H1 2092   2.725   4.179  10.084 -1.1383 -0.8280  0.5733
  137MPD2    H2 2093   2.766   4.084   9.687 -0.7038 -1.2836 -0.0008
  137MPD2    H3 2094   2.854   4.168   9.879  1.3160 -0.1600  0.4275
  137MPD2     N 2095   2.454   4.135  10.102  0.4524 -0.4074 -0.4267
  137MPD2    H5 2096   2.355   4.114  10.093  0.0226  1.8363 -0.8976
  137MPD2    N1 2097   2.514   4.028   9.629 -0.0413  0.2410  0.0688
  137MPD2    H7 2098   2.587   4.033   9.559 -0.7731 -0.2896 -0.7324
  138TCq2    C1 2099   2.387   3.991   9.591 -0.3921 -0.4149  0.3224
  138TCq2    O2 2100   2.287   4.000   9.659 -0.7950  0.1849 -0.1303
  138TCq2    C2 2101   2.376   3.948   9.448  0.4470  0.3438  0.5323
  138TCq2    C3 2102   2.486   3.946   9.361  0.1706  0.9918 -0.1939
  138TCq2    C4 2103   2.470   3.931   9.227 -0.4512  0.2457 -0.1756
  138TCq2    C5 2104   2.348   3.896   9.177 -0.0156 -0.1264  0.2967
  138TCq2    C6 2105   2.240   3.897   9.266 -0.4538  0.3322  0.0550
  138TCq2    C7 2106   2.248   3.936   9.395  0.0146  0.1360  0.3142
  138TCq2    C8 2107   2.123   3.827   9.217 -0.0587  0.2345  0.2864
  138TCq2    O4 2108   2.110   3.813   9.095  0.0386  0.1448 -0.3905
  138TCq2    C9 2109   2.577   3.939   9.130 -0.2160  0.0189  0.6463
  138TCq2    O5 2110   2.679   3.998   9.162  0.5018  0.1699  0.4228
  138TCq2    O6 2111   2.580   3.853   9.040 -0.1072  0.8189  0.0095
  138TCq2    H2 2112   2.586   3.955   9.401 -0.0652  0.9522  0.4027
  138TCq2    H3 2113   2.336   3.852   9.079  0.2835  0.2520  0.0861
  138TCq2    H4 2114   2.164   3.918   9.461 -0.7537  0.2130 -0.6340
  139TMC2    C1 2115   2.786   2.398  13.117  0.3800 -0.3091  0.0677
  139TMC2    C2 2116   2.845   2.474  13.019 -0.0309  1.2855  0.7062
  139TMC2    C3 2117   2.822   2.604  13.017  0.1344 -0.3576 -0.2001
  139TMC2    C4 2118   2.692   2.448  13.201 -0.1294 -0.2787  0.3748
  139TMC2    C5 2119   2.668   2.581  13.194  0.0537  0.2836  0.0481
  139TMC2    C6 2120   2.729   2.666  13.105  0.2042  0.8207 -0.4628
  139TMC2     C 2121   2.790   2.254  13.110  0.4344  0.6707  0.5720
  139TMC2     O 2122   2.687   2.198  13.144 -0.1580  0.4108 -0.1480
  139TMC2     H 2123   2.916   2.434  12.948 -1.6904 -0.8254  0.2250
  139TMC2    H1 2124   2.656   2.377  13.273  0.5325 -0.7962  0.2040
  139TMC2    H2 2125   2.702   2.771  13.110  1.6437  1.0377  2.6864
  139TMC2    C7 2126   2.595   2.647  13.298  1.1805 -0.6029  0.1090
  139TMC2    C8 2127   2.898   2.683  12.922  0.6917 -0.1838 -0.1692
  139TMC2    O1 2128   2.536   2.747  13.263 -0.5207  0.8259 -0.6537
  139TMC2    O2 2129   3.015   2.668  12.899  0.3188 -0.0369 -0.1170
  139TMC2    O5 2130   2.839   2.809  12.925  0.1179  0.1900 -0.8742
  139TMC2    H5 2131   2.742   2.794  12.921  0.2032 -0.2918 -1.1112
  140MPD2     C 2132   3.066   2.024  13.017 -0.2722 -0.2913  0.2643
  140MPD2    C1 2133   2.936   2.074  13.020 -0.3726 -1.5863 -0.8888
  140MPD2    C2 2134   2.827   1.982  12.989  0.0762 -0.2765 -0.4366
  140MPD2    C3 2135   2.859   1.850  12.977 -0.2499 -0.8225  0.1303
  140MPD2    C4 2136   2.988   1.804  12.993 -0.3459  0.0057  0.3984
  140MPD2    C5 2137   3.091   1.892  13.002  0.1862 -0.3347 -0.2874
  140MPD2     H 2138   2.723   2.010  12.977  0.2279  0.6905  0.5907
  140MPD2    H1 2139   3.014   1.700  12.979 -0.6099 -0.1484  1.0378
  140MPD2    H2 2140   3.145   2.097  13.027 -2.7731  2.5793 -1.0619
  140MPD2    H3 2141   3.196   1.870  12.992 -0.2392 -3.0668  1.3960
  140MPD2     N 2142   2.746   1.762  12.948  0.3411 -0.6567 -0.4274
  140MPD2    H5 2143   2.660   1.811  12.928  1.1903  1.2910  0.6587
  140MPD2    N1 2144   2.911   2.209  13.054  0.4396  0.0807 -0.3697
  140MPD2    H7 2145   2.983   2.277  13.029  0.0885  0.7525  0.4574
  141TCq2    C1 2146   2.497   4.398  14.154 -0.9826  0.8755  0.7596
  141TCq2    O2 2147   2.537   4.393  14.038 -0.0243  0.1109  0.1411
  141TCq2    C2 2148   2.479   4.535  14.217  0.0949  0.4353 -0.0940
  141TCq2    C3 2149   2.401   4.552  14.331  0.3874  0.4433 -0.2070
  141TCq2    C4 2150   2.391   4.672  14.398  0.9448  0.3275 -0.9314
  141TCq2    C5 2151   2.464   0.057  14.351 -0.4752  0.7032  0.1203
  141TCq2    C6 2152   2.515   0.039  14.222 -0.6608 -0.1742  0.1917
  141TCq2    C7 2153   2.530   4.643  14.151 -0.4372  0.3057 -0.3280
  141TCq2    C8 2154   2.596   0.144  14.166  0.7755 -0.0655 -0.2834
  141TCq2    O4 2155   2.591   0.165  14.048  0.5880  0.0646 -0.0929
  141TCq2    C9 2156   2.310   4.679  14.520 -0.1189 -0.2587  0.0656
  141TCq2    O5 2157   2.291   0.073  14.570  0.5610  0.1502  0.3170
  141TCq2    O6 2158   2.229   4.579  14.525 -0.1008  0.0779  0.3735
  141TCq2    H2 2159   2.347   4.467  14.373 -0.3457  1.1830  0.3427
  141TCq2    H3 2160   2.464   0.156  14.394 -3.0332  0.4707  0.6859
  141TCq2    H4 2161   2.580   4.639  14.055 -0.1893 -0.3711 -0.1754
  142MPD2     C 2162   0.912   2.129  10.263  0.2940  0.7507 -0.0380
  142MPD2    C1 2163   0.800   2.082  10.203  0.0535  0.4301  0.3207
  142MPD2    C2 2164   0.775   2.117  10.067 -0.7208 -0.0436  0.5784
  142MPD2    C3 2165   0.849   2.218  10.012 -1.1633  0.1975  0.8403
  142MPD2    C4 2166   0.950   2.272  10.080  0.4962 -0.3216 -0.2941
  142MPD2    C5 2167   0.988   2.226  10.204 -1.0043 -0.3377 -0.1892
  142MPD2     H 2168   0.699   2.061  10.014  1.4788 -1.5406 -0.9951
  142MPD2    H1 2169   1.014   2.343  10.029 -0.8497  1.6041  0.7003
  142MPD2    H2 2170   0.948   2.081  10.353  2.2338  0.7829 -0.7876
  142MPD2    H3 2171   1.084   2.254  10.247  0.1923 -1.7699 -1.9623
  142MPD2     N 2172   0.818   2.269   9.883  0.7145  0.1246  0.0508
  142MPD2    H5 2173   0.869   2.350   9.848  0.9620  0.7681  1.9268
  142MPD2    N1 2174   0.724   1.988  10.269  0.1384 -0.2740  0.4306
  142MPD2    H7 2175   0.761   1.956  10.358  0.6273  0.4868  0.5042
  143TCq2    C1 2176   0.732   2.221   9.789 -0.2576 -0.2711  0.2268
  143TCq2    O2 2177   0.633   2.148   9.802 -0.3602 -0.3817  0.0676
  143TCq2    C2 2178   0.756   2.275   9.656  0.0177  0.8756  0.0962
  143TCq2    C3 2179   0.681   2.233   9.553 -0.5633  0.1806 -0.2242
  143TCq2    C4 2180   0.721   2.268   9.429 -0.0669 -0.4165 -0.0283
  143TCq2    C5 2181   0.842   2.328   9.409 -1.2170 -0.2307 -0.9105
  143TCq2    C6 2182   0.917   2.359   9.513  0.2710  0.6031  0.2321
  143TCq2    C7 2183   0.874   2.340   9.640 -0.9230 -0.4317  0.5382
  143TCq2    C8 2184   1.051   2.405   9.493  0.1325  1.6135 -0.2604
  143TCq2    O4 2185   1.098   2.470   9.583  0.4848  0.4660 -0.5770
  143TCq2    C9 2186   0.646   2.225   9.314  0.3196  0.2271 -0.5819
  143TCq2    O5 2187   0.522   2.200   9.328 -0.1189  0.4190 -0.0299
  143TCq2    O6 2188   0.708   2.229   9.205  0.3309 -0.2809 -0.6120
  143TCq2    H2 2189   0.586   2.184   9.569 -1.1680  0.4880 -2.8202
  143TCq2    H3 2190   0.868   2.371   9.313  1.2770 -0.9577 -0.5812
  143TCq2    H4 2191   0.947   2.356   9.718  0.4560  1.8108 -1.2093
  144MPD2     C 2192   2.876   2.642   1.493  0.3765  0.3155 -0.9991
  144MPD2    C1 2193   2.914   2.520   1.439 -0.5141 -0.1830  0.5113
  144MPD2    C2 2194   3.010   2.446   1.504 -0.7855 -0.5421  0.7063
  144MPD2    C3 2195   3.068   2.496   1.623 -0.2175 -0.1721 -0.1659
  144MPD2    C4 2196   3.042   2.629   1.659 -0.4688  0.1408 -0.0012
  144MPD2    C5 2197   2.950   2.703   1.589  1.4273  0.3405  0.2268
  144MPD2     H 2198   3.031   2.349   1.460 -0.8858 -0.1616 -0.1750
  144MPD2    H1 2199   3.092   2.679   1.742  1.7712  1.2824 -2.0295
  144MPD2    H2 2200   2.798   2.704   1.450 -1.2393 -0.2247  1.1430
  144MPD2    H3 2201   2.918   2.799   1.626  0.1921  0.2342 -0.5597
  144MPD2     N 2202   3.147   2.420   1.708 -0.0339  0.7154 -0.1759
  144MPD2    H5 2203   3.179   2.476   1.787  0.4929  0.5465 -0.2698
  144MPD2    N1 2204   2.843   2.457   1.327 -0.0830  0.2452  0.0886
  144MPD2    H7 2205   2.873   2.365   1.295 -1.9817 -0.1301 -0.5972
  145TCq2    C1 2206   3.175   2.290   1.692  0.1366  0.5181 -0.1939
  145TCq2    O2 2207   3.156   2.216   1.598  0.0837 -0.4279 -0.3550
  145TCq2    C2 2208   3.259   2.233   1.803 -0.3387  0.9593 -0.4839
  145TCq2    C3 2209   3.336   2.125   1.781  0.1376 -0.7183 -0.0509
  145TCq2    C4 2210   3.391   2.054   1.887  0.4935  0.6906 -0.9093
  145TCq2    C5 2211   3.384   2.108   2.012  0.1281 -0.5832  0.1738
  145TCq2    C6 2212   3.293   2.211   2.036  0.4062  0.6573  0.4120
  145TCq2    C7 2213   3.227   2.274   1.930 -0.2684  0.0033  0.4345
  145TCq2    C8 2214   3.274   2.256   2.173  0.9288  0.2207  0.0611
  145TCq2    O4 2215   3.317   2.186   2.261  0.0752 -0.1769 -0.0306
  145TCq2    C9 2216   3.479   1.950   1.857 -0.0008  0.0739 -0.7484
  145TCq2    O5 2217   3.568   1.931   1.938  0.0908  0.4496  0.3694
  145TCq2    O6 2218   3.472   1.891   1.744 -0.6687 -0.3045 -0.4860
  145TCq2    H2 2219   3.356   2.087   1.682  0.8832  1.4791 -0.7568
  145TCq2    H3 2220   3.434   2.053   2.091 -0.9687 -1.8722 -0.0362
  145TCq2    H4 2221   3.153   2.352   1.948  0.2914  1.3804 -3.1502
  146TMC2    C1 2222   4.480   0.757  13.132  0.9619  0.4849 -0.3425
  146TMC2    C2 2223   4.415   0.854  13.055 -0.0164  0.9565  0.0558
  146TMC2    C3 2224   4.427   0.839  12.919 -0.2089 -0.3772 -0.5294
  146TMC2    C4 2225   4.552   0.649  13.077 -0.2438 -0.6520  0.9127
  146TMC2    C5 2226   4.557   0.644  12.941  0.5795 -1.0062  0.5764
  146TMC2    C6 2227   4.498   0.731  12.860  0.5576  0.7021  0.0699
  146TMC2     C 2228   4.498   0.776  13.273 -0.2546 -0.0033  0.3683
  146TMC2     O 2229   4.403   0.833  13.326 -0.0668 -0.3126 -0.4571
  146TMC2     H 2230   4.364   0.941  13.094  1.1434  1.6739 -0.0544
  146TMC2    H1 2231   4.598   0.571  13.136 -0.2071  0.0468  1.7921
  146TMC2    H2 2232   4.497   0.722  12.752 -0.6047 -0.4139  0.1612
  146TMC2    C7 2233   4.633   0.547  12.866 -0.1864  0.0814  0.1971
  146TMC2    C8 2234   4.372   0.942  12.835  0.0741 -0.1407  0.5086
  146TMC2    O1 2235   4.617   0.534  12.746  0.9425 -0.4490 -0.1976
  146TMC2    O2 2236   4.284   1.019  12.863  0.9831  0.2310 -0.1252
  146TMC2    O5 2237   4.470   0.959  12.741 -0.4450 -0.0538  0.2060
  146TMC2    H5 2238   4.555   0.913  12.758 -0.4386 -0.6032 -1.3785
  147MPD2     C 2239   0.263   0.168  12.839 -0.0728 -0.9342 -0.3139
  147MPD2    C1 2240   0.285   0.246  12.951 -0.3754  0.0838  0.1129
  147MPD2    C2 2241   0.203   0.355  12.984  0.3023  0.0816  0.7022
  147MPD2    C3 2242   0.103   0.394  12.892  0.9197 -0.3012  0.0394
  147MPD2    C4 2243   0.082   0.322  12.774 -0.2472 -0.1559 -0.0530
  147MPD2    C5 2244   0.166   0.212  12.746  0.4292 -0.0178 -0.1342
  147MPD2     H 2245   0.222   0.413  13.074 -0.2138  0.1050  0.7955
  147MPD2    H1 2246   4.720   0.348  12.709 -0.3262 -1.3964 -0.4442
  147MPD2    H2 2247   0.327   0.085  12.813  2.3554  1.1770 -0.9910
  147MPD2    H3 2248   0.155   0.148  12.660 -4.0682  0.4033  0.1027
  147MPD2     N 2249   0.022   0.499  12.937  0.5036  0.3140  0.1819
  147MPD2    H5 2250   0.036   0.536  13.030 -0.3183  0.5326  0.2238
  147MPD2    N1 2251   0.390   0.204  13.035  0.4198 -0.2428  0.1258
  147MPD2    H7 2252   0.442   0.124  13.000  0.1293  0.0961 -1.0861
  148MPD2     C 2253   1.002   3.918  10.616 -0.6205 -0.0806  0.1824
  148MPD2    C1 2254   0.987   3.790  10.563  0.7212 -0.2124  0.2448
  148MPD2    C2 2255   0.864   3.746  10.512 -0.4482  0.5442  0.0245
  148MPD2    C3 2256   0.755   3.820  10.529  0.0741 -0.4007 -0.1339
  148MPD2    C4 2257   0.775   3.945  10.584  0.1958  0.2313  0.0348
  148MPD2    C5 2258   0.892   3.992  10.624 -0.5734  0.3261  0.2373
  148MPD2     H 2259   0.861   3.643  10.477 -0.3411 -0.0355  1.7369
  148MPD2    H1 2260   0.691   4.009  10.610 -1.1776  0.4570 -4.8334
  148MPD2    H2 2261   1.095   3.963  10.651 -0.4378 -0.0074 -0.4009
  148MPD2    H3 2262   0.886   4.090  10.670  2.2070  1.5197 -1.9328
  148MPD2     N 2263   0.623   3.776  10.495 -0.7608 -0.8157  0.1940
  148MPD2    H5 2264   0.543   3.833  10.519 -1.4785 -2.6603  2.1931
  148MPD2    N1 2265   1.099   3.708  10.546 -0.0551  0.2762 -0.1143
  148MPD2    H7 2266   1.079   3.619  10.501  0.6814 -0.5871  1.2543
  149TCq2    C1 2267   1.232   3.745  10.567 -0.7176 -0.0182  0.5518
  149TCq2    O2 2268   1.282   3.852  10.596 -0.2358 -0.0805  0.4785
  149TCq2    C2 2269   1.306   3.627  10.529  0.5976  0.0088 -0.5025
  149TCq2    C3 2270   1.407   3.589  10.612  0.4257 -0.1231  0.0954
  149TCq2    C4 2271   1.460   3.463  10.607  0.2991 -0.0531 -0.0732
  149TCq2    C5 2272   1.425   3.392  10.491 -0.6981  0.7630 -0.2762
  149TCq2    C6 2273   1.317   3.427  10.419 -0.0781  0.1039  1.1772
  149TCq2    C7 2274   1.251   3.542  10.443 -0.5952 -0.6582 -1.0959
  149TCq2    C8 2275   1.236   3.328  10.348  0.3803  0.4763  0.0581
  149TCq2    O4 2276   1.116   3.346  10.367  0.4966 -0.0943  0.2776
  149TCq2    C9 2277   1.593   3.450  10.659  0.6126  0.2195 -0.3418
  149TCq2    O5 2278   1.674   3.395  10.583  0.0920 -0.5449  0.6984
  149TCq2    O6 2279   1.626   3.518  10.761  0.3488 -0.5950  0.1703
  149TCq2    H2 2280   1.463   3.663  10.667  0.5630 -0.5499  0.5286
  149TCq2    H3 2281   1.480   3.306  10.454  1.8042  1.7851  1.0633
  149TCq2    H4 2282   1.182   3.579  10.368  0.5152  0.7726 -1.3951
  150MPD2     C 2283   2.187   2.906  12.471 -0.3076  1.0378  0.1726
  150MPD2    C1 2284   2.138   3.023  12.433 -0.5275  0.0515  0.5468
  150MPD2    C2 2285   2.205   3.141  12.458  0.1914 -0.2442 -0.1705
  150MPD2    C3 2286   2.323   3.137  12.531  0.1014 -0.1445 -0.3084
  150MPD2    C4 2287   2.362   3.013  12.578  0.3266 -0.1789  0.3688
  150MPD2    C5 2288   2.299   2.894  12.546 -0.7460 -0.3383 -0.1217
  150MPD2     H 2289   2.172   3.237  12.422  1.7186  1.2056  2.2518
  150MPD2    H1 2290   2.461   3.000  12.621  1.4816  1.2353 -1.8510
  150MPD2    H2 2291   2.119   2.824  12.455 -0.1747  1.0468 -0.4344
  150MPD2    H3 2292   2.337   2.800  12.584 -0.9560 -0.1865  0.4500
  150MPD2     N 2293   2.376   3.263  12.573  0.4377 -0.2277 -0.0829
  150MPD2    H5 2294   2.327   3.345  12.540 -0.2102 -1.0285 -1.1152
  150MPD2    N1 2295   2.017   3.020  12.354  0.1372 -0.1302 -1.0878
  150MPD2    H7 2296   1.989   2.927  12.327 -0.1519 -0.5120  0.5815
  151TCq2    C1 2297   2.496   3.280  12.634 -0.3105 -0.2428  0.6215
  151TCq2    O2 2298   2.565   3.187  12.662 -0.8102 -0.0564  0.1841
  151TCq2    C2 2299   2.552   3.411  12.646 -0.2005  0.2894 -0.1230
  151TCq2    C3 2300   2.466   3.515  12.629  0.3325 -0.4894  0.2343
  151TCq2    C4 2301   2.510   3.644  12.651  0.3875  0.0764  0.5117
  151TCq2    C5 2302   2.641   3.666  12.694 -0.2247  0.3792 -0.3375
  151TCq2    C6 2303   2.727   3.562  12.707 -0.2958  0.0425 -0.7630
  151TCq2    C7 2304   2.682   3.428  12.692  0.1283  0.4301  1.0209
  151TCq2    C8 2305   2.867   3.589  12.739 -0.0001  0.1021  0.1546
  151TCq2    O4 2306   2.895   3.705  12.770  0.4969  0.2262 -0.1299
  151TCq2    C9 2307   2.414   3.754  12.621  0.3102  0.1099  0.7187
  151TCq2    O5 2308   2.301   3.724  12.570  0.2734 -0.1433 -0.1459
  151TCq2    O6 2309   2.455   3.869  12.651  0.7015 -0.0523  0.5031
  151TCq2    H2 2310   2.360   3.498  12.610  0.6557  0.1619 -2.0373
  151TCq2    H3 2311   2.675   3.764  12.726 -0.5236 -0.3663  2.3429
  151TCq2    H4 2312   2.741   3.343  12.723 -0.9022 -0.7276 -0.2474
  152MPD2     C 2313   1.859   2.613  13.108 -0.0358 -0.8146  0.0362
  152MPD2    C1 2314   1.866   2.704  13.005 -0.3668  0.1695 -0.5722
  152MPD2    C2 2315   1.756   2.738  12.934 -0.8927 -0.2041 -0.4215
  152MPD2    C3 2316   1.624   2.694  12.974 -0.1234 -0.4738 -0.0225
  152MPD2    C4 2317   1.621   2.606  13.086  0.6482  0.1819 -0.2818
  152MPD2    C5 2318   1.736   2.567  13.147  0.5611 -0.0072 -0.4465
  152MPD2     H 2319   1.762   2.806  12.850 -1.3593  0.7089  0.2894
  152MPD2    H1 2320   1.525   2.562  13.113  0.9547 -1.0173 -1.1615
  152MPD2    H2 2321   1.948   2.591  13.166 -0.6929 -0.5621  1.1342
  152MPD2    H3 2322   1.728   2.503  13.234 -0.3965 -0.1187 -0.6142
  152MPD2     N 2323   1.505   2.733  12.904  0.3267 -0.0466  0.1322
  152MPD2    H5 2324   1.522   2.794  12.824 -1.4312  1.1065  0.6439
  152MPD2    N1 2325   1.997   2.751  12.977  0.4708  0.3672 -0.7026
  152MPD2    H7 2326   2.073   2.698  13.018  1.0866  0.6687 -1.4613
  153TCq2    C1 2327   2.013   2.869  12.908 -0.1888  0.3166 -0.3178
  153TCq2    O2 2328   1.934   2.961  12.892 -0.1621 -0.1225  0.0771
  153TCq2    C2 2329   2.155   2.900  12.893 -0.2615  0.0054 -0.7165
  153TCq2    C3 2330   2.245   2.801  12.880  1.0710 -0.5089 -0.3474
  153TCq2    C4 2331   2.374   2.832  12.907 -0.0516  0.2717 -1.0416
  153TCq2    C5 2332   2.413   2.960  12.941 -0.0034  0.5527  0.3199
  153TCq2    C6 2333   2.317   3.056  12.944 -0.4072 -0.3819 -0.4885
  153TCq2    C7 2334   2.184   3.033  12.928  0.6159 -0.4656 -0.7002
  153TCq2    C8 2335   2.352   3.192  12.974 -0.4359  0.4283  0.5640
  153TCq2    O4 2336   2.255   3.269  12.978 -0.2731 -0.0606 -0.0243
  153TCq2    C9 2337   2.474   2.732  12.892  0.1436  0.0841 -0.1757
  153TCq2    O5 2338   2.440   2.612  12.889 -0.2969 -0.1384 -0.1661
  153TCq2    O6 2339   2.591   2.777  12.880  0.6655 -0.1693 -0.6148
  153TCq2    H2 2340   2.212   2.704  12.845 -2.4989  1.1966 -1.7884
  153TCq2    H3 2341   2.520   2.975  12.953  0.7292 -2.9948 -1.7695
  153TCq2    H4 2342   2.108   3.108  12.913 -2.1751 -2.9417  1.0779
  154MPD2     C 2343   3.315   2.783   1.497  0.4722 -0.6876 -0.4965
  154MPD2    C1 2344   3.292   2.677   1.419 -0.4827  0.5403  0.0380
  154MPD2    C2 2345   3.187   2.685   1.319  0.2767 -0.8789 -0.5579
  154MPD2    C3 2346   3.099   2.793   1.320 -0.8818 -0.1165  0.1376
  154MPD2    C4 2347   3.130   2.898   1.417 -0.2458  0.1400  0.6514
  154MPD2    C5 2348   3.242   2.898   1.494  0.6798 -0.3839  0.0557
  154MPD2     H 2349   3.163   2.601   1.255  0.4979  1.0614 -3.1860
  154MPD2    H1 2350   3.073   2.990   1.420  0.2607  0.4048  2.5946
  154MPD2    H2 2351   3.398   2.780   1.565 -0.3129 -2.4685  0.3849
  154MPD2    H3 2352   3.269   2.978   1.563 -1.9479 -0.4271  1.1639
  154MPD2     N 2353   2.999   2.815   1.221  0.2943  0.1341 -0.3977
  154MPD2    H5 2354   2.985   2.740   1.155 -2.3846  1.5533 -1.4667
  154MPD2    N1 2355   3.369   2.567   1.435 -0.1674 -0.2690  0.5097
  154MPD2    H7 2356   3.442   2.579   1.505  0.9217 -4.4385  0.1236
  155TCq2    C1 2357   3.341   2.435   1.396  0.4855  0.8340 -0.2019
  155TCq2    O2 2358   3.247   2.388   1.333  0.3317 -0.0551 -0.0380
  155TCq2    C2 2359   3.437   2.342   1.445  0.4308  0.4827  0.0579
  155TCq2    C3 2360   3.508   2.363   1.562 -0.7362  0.1196 -0.1253
  155TCq2    C4 2361   3.620   2.287   1.571 -0.3162  0.5050  0.8078
  155TCq2    C5 2362   3.665   2.188   1.484 -0.4059 -0.4057  0.1763
  155TCq2    C6 2363   3.593   2.176   1.369 -0.1093 -0.6980 -1.3468
  155TCq2    C7 2364   3.478   2.249   1.343 -0.2052  0.4903 -0.9881
  155TCq2    C8 2365   3.633   2.077   1.268 -0.1528 -0.2094 -0.2223
  155TCq2    O4 2366   3.555   2.050   1.181 -0.0323  0.1810 -0.0749
  155TCq2    C9 2367   3.686   2.306   1.699  0.4471 -0.0490  0.0989
  155TCq2    O5 2368   3.652   2.398   1.776 -0.1185  0.5294 -0.3259
  155TCq2    O6 2369   3.758   2.208   1.733  0.0187 -0.5376  0.3650
  155TCq2    H2 2370   3.466   2.430   1.637  1.4924 -0.7622  1.9161
  155TCq2    H3 2371   3.761   2.141   1.500 -0.4878  0.3371  2.7635
  155TCq2    H4 2372   3.440   2.254   1.242  1.3942 -2.1419 -1.7272
  156MPD2     C 2373   2.372   0.455  12.656 -0.3139  0.5655  0.3173
  156MPD2    C1 2374   2.381   0.564  12.579  0.4951  0.0874 -0.5161
  156MPD2    C2 2375   2.290   0.665  12.586  0.6472 -0.0684 -0.6506
  156MPD2    C3 2376   2.178   0.650  12.677 -0.9470  0.0453 -0.2800
  156MPD2    C4 2377   2.161   0.532  12.736 -0.1491  0.1605 -0.0177
  156MPD2    C5 2378   2.257   0.433  12.733 -0.6026  0.7571  0.1494
  156MPD2     H 2379   2.306   0.763  12.541  0.8765  0.9337  1.6356
  156MPD2    H1 2380   2.077   0.509  12.801 -0.5884 -0.0715 -0.6692
  156MPD2    H2 2381   2.434   0.367  12.642 -0.1488  0.9810 -1.5571
  156MPD2    H3 2382   2.238   0.341  12.787 -0.2422  0.9433  0.5905
  156MPD2     N 2383   2.095   0.762  12.691  0.1607 -0.7139 -0.5282
  156MPD2    H5 2384   2.113   0.849  12.642 -1.3285  0.0129  0.2230
  156MPD2    N1 2385   2.495   0.569  12.491 -0.0356  0.0477  0.3169
  156MPD2    H7 2386   2.555   0.487  12.488 -0.0965  0.0100  0.1212
  157TCq2    C1 2387   2.538   0.687  12.424 -0.2376 -0.1980  0.1998
  157TCq2    O2 2388   2.476   0.794  12.399  0.1737  0.0839 -0.2620
  157TCq2    C2 2389   2.676   0.677  12.377  0.2912 -0.0344 -0.2502
  157TCq2    C3 2390   2.748   0.564  12.388 -0.5032 -0.2375 -0.2275
  157TCq2    C4 2391   2.851   0.549  12.306  0.4684  0.1915  0.2889
  157TCq2    C5 2392   2.887   0.637  12.208  1.0894 -0.0952  0.3449
  157TCq2    C6 2393   2.806   0.745  12.193 -0.2911  0.2752 -0.2262
  157TCq2    C7 2394   2.714   0.776  12.288 -0.5312  0.2923  0.0005
  157TCq2    C8 2395   2.799   0.830  12.077 -0.1475 -0.3895  0.3259
  157TCq2    O4 2396   2.753   0.942  12.106  0.0128  0.1307 -0.3668
  157TCq2    C9 2397   2.920   0.421  12.306 -0.3020  0.2257  0.1012
  157TCq2    O5 2398   2.883   0.333  12.391  0.5848 -0.4168 -0.1967
  157TCq2    O6 2399   3.004   0.390  12.223  0.0169  0.4125  0.1793
  157TCq2    H2 2400   2.723   0.496  12.468 -1.0809  1.6053  1.1695
  157TCq2    H3 2401   2.966   0.618  12.136  1.0115  2.8876 -0.5514
  157TCq2    H4 2402   2.646   0.859  12.279 -0.3989  0.4142  0.1334
  158TMC2    C1 2403   2.144   4.301  13.514  0.0549  0.1220  0.3273
  158TMC2    C2 2404   2.223   4.342  13.414  0.8245 -0.0910 -0.2695
  158TMC2    C3 2405   2.199   4.295  13.285 -0.1815  0.1956 -0.1178
  158TMC2    C4 2406   2.041   4.218  13.491 -0.7537  0.8784 -0.0840
  158TMC2    C5 2407   2.019   4.178  13.368  0.4266 -0.1014 -0.0159
  158TMC2    C6 2408   2.091   4.215  13.257 -0.6066  0.4698  0.3366
  158TMC2     C 2409   2.154   4.383  13.633 -0.4170  0.6903  0.7091
  158TMC2     O 2410   2.188   4.497  13.612 -0.3439 -0.0191 -0.2493
  158TMC2     H 2411   2.296   4.419  13.434 -1.0281  1.4465  0.5991
  158TMC2    H1 2412   1.985   4.180  13.575  2.2853  1.6767  2.3057
  158TMC2    H2 2413   2.068   4.178  13.158 -0.7236 -1.4314  1.0726
  158TMC2    C7 2414   1.925   4.069  13.352 -0.0675 -0.9462  0.7683
  158TMC2    C8 2415   2.284   4.335  13.181  0.6167 -0.4581 -0.3949
  158TMC2    O1 2416   1.858   4.072  13.248  0.2521  0.0898  0.3892
  158TMC2    O2 2417   2.241   4.333  13.070  0.0872  0.3081 -0.0970
  158TMC2    O5 2418   2.414   4.315  13.224  0.4256 -0.0663  0.2225
  158TMC2    H5 2419   2.438   4.284  13.314 -0.5471  1.3521  0.9723
  159MPD2     C 2420   2.150   4.445  14.147 -0.1387  0.3469 -1.1192
  159MPD2    C1 2421   2.122   4.315  14.117  0.3855 -0.3683  0.1264
  159MPD2    C2 2422   2.116   4.276  13.985  0.0684  0.7021 -0.0208
  159MPD2    C3 2423   2.132   4.373  13.881  0.1566  0.2561 -0.6690
  159MPD2    C4 2424   2.161   4.505  13.915  0.6028 -0.5241 -0.1902
  159MPD2    C5 2425   2.166   4.537  14.045  0.1492  0.1062  0.3878
  159MPD2     H 2426   2.102   4.177  13.944  1.6819  0.5511 -0.2156
  159MPD2    H1 2427   2.191   4.579  13.842 -0.6565  0.8627  0.6931
  159MPD2    H2 2428   2.173   4.477  14.248 -1.2768 -1.2444 -0.3464
  159MPD2    H3 2429   2.193   4.638  14.072  1.6454 -0.2370  0.1714
  159MPD2     N 2430   2.126   4.316  13.748  0.0361 -0.8625  0.9319
  159MPD2    H5 2431   2.116   4.215  13.738  1.8175 -0.8583 -0.9642
  159MPD2    N1 2432   2.099   4.226  14.219  1.0259 -0.1288 -0.5840
  159MPD2    H7 2433   2.107   4.263  14.313  1.1745 -1.0841 -0.2246
  160TMC2    C1 2434   1.541   3.130   0.948  0.1525  0.2623  0.6024
  160TMC2    C2 2435   1.566   3.231   0.851  0.2508 -0.5506 -0.3628
  160TMC2    C3 2436   1.698   3.274   0.854 -0.4014  0.0463  0.4159
  160TMC2    C4 2437   1.629   3.081   1.033  0.1354 -0.0180 -0.7887
  160TMC2    C5 2438   1.753   3.137   1.034  0.7112  0.5046 -0.0451
  160TMC2    C6 2439   1.793   3.233   0.938  0.0613 -0.6630 -0.1311
  160TMC2     C 2440   1.403   3.094   0.962  0.0441  0.6848  0.1904
  160TMC2     O 2441   1.329   3.124   0.870 -0.0445 -0.3114 -0.1788
  160TMC2     H 2442   1.490   3.268   0.783 -0.6909  0.1630  1.0722
  160TMC2    H1 2443   1.603   3.005   1.107  1.5891  1.1133  0.8838
  160TMC2    H2 2444   1.894   3.270   0.925 -0.0452  0.3073  1.8675
  160TMC2    C7 2445   1.859   3.066   1.110 -0.2791 -0.7547  0.2449
  160TMC2    C8 2446   1.728   3.373   0.750  0.0244 -0.8837 -0.1848
  160TMC2    O1 2447   1.833   2.960   1.168  0.0802 -0.0162 -0.1845
  160TMC2    O2 2448   1.843   3.379   0.711  0.1156 -0.6554 -0.2918
  160TMC2    O5 2449   1.641   3.474   0.754  0.3397  0.5837  0.4097
  160TMC2    H5 2450   1.574   3.456   0.823  1.4923 -1.2896  1.0469
  161MPD2     C 2451   1.131   3.016   1.063 -0.6427  0.4554 -0.1982
  161MPD2    C1 2452   1.240   3.051   1.143  0.0009 -0.1310 -0.4269
  161MPD2    C2 2453   1.211   3.090   1.276  0.2080  0.0685  0.1011
  161MPD2    C3 2454   1.082   3.094   1.321  1.0392  0.4609 -0.0358
  161MPD2    C4 2455   0.981   3.042   1.242  0.7183  1.2424 -0.0416
  161MPD2    C5 2456   1.006   2.994   1.118 -0.4456  0.1238  0.3218
  161MPD2     H 2457   1.295   3.131   1.330 -0.2633 -1.1851  1.8059
  161MPD2    H1 2458   0.879   3.041   1.279  0.6289 -0.7923 -0.3348
  161MPD2    H2 2459   1.150   2.985   0.961 -1.8220 -0.5151 -0.1250
  161MPD2    H3 2460   0.927   2.966   1.049  0.0613 -0.5389  0.0104
  161MPD2     N 2461   1.043   3.132   1.456  0.5953 -0.2214 -0.9060
  161MPD2    H5 2462   0.947   3.125   1.489  0.2959 -1.2938 -1.9654
  161MPD2    N1 2463   1.374   3.074   1.096 -1.3452 -0.0412  0.6575
  161MPD2    H7 2464   1.449   3.089   1.162 -0.7275  3.4562 -0.8384
  162TMC2    C1 2465   0.182   0.543   1.454  0.1428 -0.7631  0.0897
  162TMC2    C2 2466   0.178   0.681   1.470  0.3530 -0.0601 -0.9338
  162TMC2    C3 2467   0.094   0.721   1.567 -0.3692  0.0377  0.6554
  162TMC2    C4 2468   0.112   0.450   1.521 -0.5068 -0.1678 -0.4493
  162TMC2    C5 2469   0.028   0.503   1.614 -0.1036 -0.0810  0.1040
  162TMC2    C6 2470   0.027   0.637   1.646 -0.0706  0.2882 -0.2894
  162TMC2     C 2471   0.282   0.482   1.364 -0.0606  0.0721  0.4667
  162TMC2     O 2472   0.319   0.368   1.382  0.0617  0.0504 -0.0523
  162TMC2     H 2473   0.247   0.743   1.415  1.0977  2.3088  2.6574
  162TMC2    H1 2474   0.107   0.346   1.490 -2.5903  0.2866 -1.6311
  162TMC2    H2 2475   4.673   0.672   1.716  0.4452 -0.3725  0.5794
  162TMC2    C7 2476   4.668   0.416   1.689  0.4037  0.0975  0.1233
  162TMC2    C8 2477   0.036   0.849   1.554 -0.1528 -0.3244 -0.1236
  162TMC2    O1 2478   4.554   0.456   1.712  0.1932  0.4100 -0.1027
  162TMC2    O2 2479   4.682   0.894   1.640  0.0323  0.5243 -0.0455
  162TMC2    O5 2480   0.014   0.870   1.425 -0.1987 -0.3758 -0.1433
  162TMC2    H5 2481   0.064   0.815   1.362  1.2405  0.2042  0.4812
  163MPD2     C 2482   0.550   0.493   0.916 -0.1440 -0.0190  0.0629
  163MPD2    C1 2483   0.525   0.391   1.001  0.3978 -0.1811  0.4738
  163MPD2    C2 2484   0.447   0.409   1.116 -0.5349 -0.1229 -1.0319
  163MPD2    C3 2485   0.399   0.532   1.149 -0.3474  0.0179  0.2847
  163MPD2    C4 2486   0.427   0.635   1.060  0.6303  0.0981  0.3679
  163MPD2    C5 2487   0.502   0.621   0.942 -0.0858  0.3427  0.5031
  163MPD2     H 2488   0.416   0.323   1.175  0.7947 -1.1559 -1.8218
  163MPD2    H1 2489   0.392   0.734   1.085  1.3813  1.1584 -2.7863
  163MPD2    H2 2490   0.631   0.480   0.844 -0.3302 -1.4972  0.1135
  163MPD2    H3 2491   0.540   0.706   0.887 -0.0723  0.7763  1.1770
  163MPD2     N 2492   0.309   0.562   1.251  0.5830 -0.4616 -0.2782
  163MPD2    H5 2493   0.276   0.658   1.255 -1.3115 -1.1370  0.3402
  163MPD2    N1 2494   0.570   0.266   0.955  0.1273 -0.1702  0.4370
  163MPD2    H7 2495   0.623   0.264   0.868  2.2018 -0.1023  1.6826
  164TCq2    C1 2496   0.671   3.815  10.872  0.2383  0.9072  0.3230
  164TCq2    O2 2497   0.550   3.803  10.855 -0.1123 -1.0712  0.1502
  164TCq2    C2 2498   0.731   3.937  10.935 -0.2246 -0.0330  0.3043
  164TCq2    C3 2499   0.861   3.959  10.958  0.1204  0.5543  0.3437
  164TCq2    C4 2500   0.907   4.078  11.001 -0.2983 -0.1349 -0.1733
  164TCq2    C5 2501   0.816   4.169  11.050 -0.1439 -0.0832  0.0036
  164TCq2    C6 2502   0.678   4.147  11.036 -0.6003  0.1961  0.8113
  164TCq2    C7 2503   0.634   4.033  10.967  0.2141 -0.1408  0.4553
  164TCq2    C8 2504   0.581   4.215  11.130 -0.3608 -0.6649  0.5473
  164TCq2    O4 2505   0.465   4.185  11.115 -0.0203  0.1370 -0.0606
  164TCq2    C9 2506   1.047   4.103  11.011  0.4514 -0.1819  0.2535
  164TCq2    O5 2507   1.123   4.013  10.962 -0.4000  0.1599  0.4435
  164TCq2    O6 2508   1.088   4.196  11.083 -0.2645  0.3973 -0.2933
  164TCq2    H2 2509   0.938   3.886  10.935  0.6868  0.8424  1.3153
  164TCq2    H3 2510   0.862   4.261  11.085  0.1288 -0.5145  0.7735
  164TCq2    H4 2511   0.528   4.009  10.962  0.2411 -0.5532  1.8705
  165MPD2     C 2512   1.769   0.371   2.967  0.4439  0.0315 -0.1504
  165MPD2    C1 2513   1.873   0.423   2.894 -0.2221  0.0864  0.0575
  165MPD2    C2 2514   1.917   0.557   2.921 -0.3357  0.2331  0.8197
  165MPD2    C3 2515   1.871   0.618   3.039 -0.2355  0.5132  0.5880
  165MPD2    C4 2516   1.777   0.552   3.119  0.0210 -0.5287  0.2285
  165MPD2    C5 2517   1.726   0.435   3.076 -0.2094  0.5776 -0.5304
  165MPD2     H 2518   1.986   0.610   2.857  0.6823 -1.8485  0.1672
  165MPD2    H1 2519   1.735   0.590   3.211 -1.6403 -2.3727  0.2201
  165MPD2    H2 2520   1.725   0.279   2.930  1.6249 -0.2846 -0.7909
  165MPD2    H3 2521   1.659   0.390   3.148  1.4340 -0.7190  0.1768
  165MPD2     N 2522   1.924   0.748   3.070 -0.0333  0.4178 -0.1038
  165MPD2    H5 2523   1.887   0.797   3.151  3.5010 -0.3495  1.9591
  165MPD2    N1 2524   1.933   0.345   2.795  0.3599  0.3790  0.3069
  165MPD2    H7 2525   1.899   0.250   2.796 -0.4074  0.6482 -0.3036
  166TCq2    C1 2526   2.028   0.815   3.003 -0.6929 -0.3440  0.0477
  166TCq2    O2 2527   2.107   0.781   2.918 -0.0590  0.1928 -0.0059
  166TCq2    C2 2528   2.039   0.952   3.048  0.4069  0.4042  0.2052
  166TCq2    C3 2529   2.016   0.979   3.184  0.4209 -0.2279 -0.9131
  166TCq2    C4 2530   2.029   1.106   3.234 -0.4064  0.3785 -1.1715
  166TCq2    C5 2531   2.066   1.206   3.145  0.0650  0.1757  0.2841
  166TCq2    C6 2532   2.103   1.172   3.014 -0.1961  0.6415  0.3590
  166TCq2    C7 2533   2.080   1.045   2.968 -0.2522 -0.1449 -0.9936
  166TCq2    C8 2534   2.145   1.274   2.919  0.1900  0.9600  0.3199
  166TCq2    O4 2535   2.205   1.234   2.820  0.1374  0.1710  0.4462
  166TCq2    C9 2536   2.014   1.136   3.374  0.1756 -1.6492 -0.0019
  166TCq2    O5 2537   1.978   1.035   3.447  0.2402  0.0433  0.3009
  166TCq2    O6 2538   2.034   1.255   3.410  0.0205 -0.1925 -0.0303
  166TCq2    H2 2539   2.000   0.900   3.256  0.8454  0.7370  0.2350
  166TCq2    H3 2540   2.067   1.303   3.193  0.7146 -0.4326  1.4970
  166TCq2    H4 2541   2.101   1.021   2.865  0.5744 -0.1615 -0.8220
  167TMC2    C1 2542   0.083   3.829  12.724  0.6710  0.2530  0.4251
  167TMC2    C2 2543   0.041   3.891  12.843 -0.0934  0.2662 -0.0177
  167TMC2    C3 2544   0.043   3.812  12.957  0.1336 -0.3370 -0.2561
  167TMC2    C4 2545   0.136   3.703  12.728 -0.2526 -0.4316 -0.0800
  167TMC2    C5 2546   0.133   3.631  12.841 -0.5388 -0.2290  0.2257
  167TMC2    C6 2547   0.088   3.681  12.962  0.5630  0.5133 -0.8528
  167TMC2     C 2548   0.080   3.920  12.616  0.1152  0.1552 -0.7336
  167TMC2     O 2549   0.040   4.030  12.638  0.8681  0.1032 -0.3789
  167TMC2     H 2550   4.711   3.987  12.845  1.5593  1.1440 -0.4545
  167TMC2    H1 2551   0.157   3.650  12.635  0.6321  0.8358 -0.6112
  167TMC2    H2 2552   0.094   3.626  13.056 -2.0429  0.4600 -0.7035
  167TMC2    C7 2553   0.195   3.502  12.852  0.5442 -0.2538 -0.0458
  167TMC2    C8 2554   0.052   3.865  13.095  0.1637  0.6788  0.6592
  167TMC2    O1 2555   0.189   3.447  12.960  0.3900 -0.3623  0.1148
  167TMC2    O2 2556   0.104   3.808  13.189 -0.4256  0.1367  0.1126
  167TMC2    O5 2557   4.688   3.969  13.100  0.1539  0.0428 -0.0891
  167TMC2    H5 2558   4.629   3.960  13.022  0.7031  0.2611 -0.5261
  168MPD2     C 2559   0.057   4.061  12.357  0.5426  0.8219 -0.3881
  168MPD2    C1 2560   0.138   3.950  12.378 -0.1974 -0.9392  0.5295
  168MPD2    C2 2561   0.218   3.911  12.276  0.0919 -0.5212 -0.0868
  168MPD2    C3 2562   0.207   3.962  12.150  0.2125  0.1720 -0.1038
  168MPD2    C4 2563   0.112   4.061  12.129  0.6309 -0.4304 -0.2549
  168MPD2    C5 2564   0.034   4.100  12.231 -0.0799  0.2053  0.2297
  168MPD2     H 2565   0.277   3.823  12.300  0.7285  0.3275  1.5004
  168MPD2    H1 2566   0.087   4.084  12.026  0.2272  1.7937  0.3489
  168MPD2    H2 2567   4.709   4.107  12.427  0.6962  1.5077 -0.6912
  168MPD2    H3 2568   4.679   4.174  12.206 -0.2273 -0.9849 -2.8077
  168MPD2     N 2569   0.270   3.911  12.033 -0.1398  0.0090  0.3788
  168MPD2    H5 2570   0.244   3.944  11.940 -0.9349  1.2090  1.0374
  168MPD2    N1 2571   0.135   3.874  12.499 -0.6852  1.0079  0.2200
  168MPD2    H7 2572   0.184   3.786  12.513 -0.5947  0.7935 -1.4605
  169MPD1     C 2573   2.608   2.976   9.162  0.4698  0.5794  0.3327
  169MPD1    C1 2574   2.695   3.010   9.265  0.4033  1.8088 -0.5163
  169MPD1    C2 2575   2.759   2.905   9.335 -0.5045  0.2908  0.2217
  169MPD1    C3 2576   2.720   2.776   9.314 -0.1335  0.4908 -0.2582
  169MPD1    C4 2577   2.643   2.747   9.206 -0.2309 -0.2347 -0.8400
  169MPD1    C5 2578   2.581   2.842   9.132  1.0966 -0.3338 -0.0404
  169MPD1     H 2579   2.830   2.918   9.416  0.4224 -0.6139 -0.4459
  169MPD1    H1 2580   2.621   2.644   9.182 -2.3523  0.5920 -2.4704
  169MPD1    H2 2581   2.561   3.057   9.108  0.9925 -0.0703 -1.1021
  169MPD1    H3 2582   2.521   2.824   9.044 -2.4147  3.7813  1.5195
  169MPD1     N 2583   2.784   2.677   9.392 -0.3871 -0.0258 -0.0782
  169MPD1    H5 2584   2.844   2.713   9.464  1.5538 -1.4777 -0.9596
  169MPD1    N1 2585   2.705   3.150   9.305 -0.2549  0.0075  0.4491
  169MPD1    H6 2586   2.697   3.209   9.223  1.6721  0.5243  0.6175
  169MPD1    H7 2587   2.785   3.177   9.363 -1.8834  2.2212  1.6489
  170MPD1     C 2588   0.308   1.321  13.093  0.5777  0.2926  0.4914
  170MPD1    C1 2589   0.380   1.439  13.100  0.0060  0.2726  0.8800
  170MPD1    C2 2590   0.463   1.453  13.213 -0.0292 -0.7415  0.0485
  170MPD1    C3 2591   0.466   1.368  13.322 -0.3909 -0.1820  0.2676
  170MPD1    C4 2592   0.390   1.251  13.319  0.1578 -0.1809 -0.6725
  170MPD1    C5 2593   0.313   1.230  13.202  0.4405 -0.1979 -0.5415
  170MPD1     H 2594   0.529   1.538  13.221 -0.7209 -0.2771  0.7785
  170MPD1    H1 2595   0.385   1.176  13.398 -0.4928 -0.3050 -0.8315
  170MPD1    H2 2596   0.246   1.293  13.008  1.1183 -3.2117  1.2271
  170MPD1    H3 2597   0.240   1.150  13.200  0.5124 -0.2182 -2.2405
  170MPD1     N 2598   0.565   1.389  13.421  0.5905  0.0367 -0.1558
  170MPD1    H5 2599   0.620   1.474  13.409 -0.2850  0.6329  0.0467
  170MPD1    N1 2600   0.378   1.522  12.993 -0.7708 -0.7065  0.6870
  170MPD1    H6 2601   0.417   1.614  13.014 -0.2686 -0.4550 -1.3397
  170MPD1    H7 2602   0.283   1.538  12.959  0.4152  0.7161 -1.9254
  171MPD1     C 2603   4.474   2.377  15.550 -0.9321 -0.4850  0.1439
  171MPD1    C1 2604   4.513   2.421  15.672 -0.8168 -0.7549 -0.5063
  171MPD1    C2 2605   4.536   2.318  15.761  0.6057 -0.7463  0.8062
  171MPD1    C3 2606   4.519   2.182  15.733 -0.4840 -0.8583  0.0955
  171MPD1    C4 2607   4.474   2.147  15.606 -0.4247 -0.0118 -0.0668
  171MPD1    C5 2608   4.465   2.241  15.512 -0.6907  0.0568  0.6037
  171MPD1     H 2609   4.579   2.347  15.856 -2.5116  2.6495  1.1784
  171MPD1    H1 2610   4.453   2.044  15.581  3.0096 -0.7839  0.1635
  171MPD1    H2 2611   4.472   2.456  15.476  0.0375 -0.7164 -0.1257
  171MPD1    H3 2612   4.435   2.211  15.412 -1.5401  2.1673  0.2369
  171MPD1     N 2613   4.540   2.076  15.828  0.0756  0.1947 -0.8297
  171MPD1    H5 2614   4.522   1.983  15.791 -1.2465  1.9000 -4.5254
  171MPD1    N1 2615   4.561   2.550  15.706 -0.4473  0.4128 -0.2973
  171MPD1    H6 2616   4.560   2.556  15.807 -2.3997  2.3549 -0.4159
  171MPD1    H7 2617   4.510   2.629  15.666 -0.4152 -0.1110 -1.3767
  172MPD1     C 2618   3.739   1.877   0.496 -0.4059 -0.1881  0.0080
  172MPD1    C1 2619   3.620   1.877   0.558  0.2265 -0.2417 -0.0825
  172MPD1    C2 2620   3.605   1.966   0.662 -0.3053  0.3198 -0.2792
  172MPD1    C3 2621   3.694   2.066   0.681  0.0131  0.0106 -0.4529
  172MPD1    C4 2622   3.810   2.073   0.603 -0.7122  0.1732  0.3794
  172MPD1    C5 2623   3.838   1.967   0.526 -1.2148  0.0927  0.3262
  172MPD1     H 2624   3.509   1.960   0.711 -0.1454  0.1573  0.0145
  172MPD1    H1 2625   3.875   2.157   0.628 -0.0448 -0.3453  0.3765
  172MPD1    H2 2626   3.769   1.811   0.415  2.5691  2.6302 -1.1951
  172MPD1    H3 2627   3.933   1.962   0.474 -1.0209  1.8447  0.4970
  172MPD1     N 2628   3.670   2.170   0.780 -0.0929  0.4786  0.0052
  172MPD1    H5 2629   3.749   2.231   0.796  0.5994 -1.0053  2.1353
  172MPD1    N1 2630   3.526   1.780   0.524 -0.8639 -0.0415  0.5591
  172MPD1    H6 2631   3.432   1.796   0.559 -0.1877  0.3660  2.1784
  172MPD1    H7 2632   3.517   1.758   0.425 -2.0559  1.0989  0.4168
  173MPD1     C 2633   0.254   2.116  13.852  0.0030  0.2802  1.0020
  173MPD1    C1 2634   0.132   2.118  13.923  0.2611  0.8830  0.4679
  173MPD1    C2 2635   0.136   2.051  14.043  0.3109  0.4135 -0.0037
  173MPD1    C3 2636   0.246   1.974  14.084 -0.0599 -0.5457  0.2489
  173MPD1    C4 2637   0.358   1.961  14.008 -0.0549 -0.6081 -0.0412
  173MPD1    C5 2638   0.357   2.031  13.889  0.0868 -0.2328 -0.1935
  173MPD1     H 2639   0.057   2.059  14.117  1.3304  1.9406  0.9016
  173MPD1    H1 2640   0.441   1.895  14.030  0.0619 -0.3492  0.3008
  173MPD1    H2 2641   0.273   2.174  13.762 -1.2678 -0.8738 -0.0136
  173MPD1    H3 2642   0.447   2.023  13.829  0.3969  0.9646  0.0996
  173MPD1     N 2643   0.223   1.891  14.201  0.0202  1.1692  0.2037
  173MPD1    H5 2644   0.133   1.886  14.247 -1.1490 -0.2646 -2.2397
  173MPD1    N1 2645   0.042   2.221  13.896 -0.1776 -0.1020  0.7633
  173MPD1    H6 2646   4.671   2.217  13.938  0.2254 -0.3030  1.6292
  173MPD1    H7 2647   0.028   2.233  13.796  0.1343 -2.2142  0.4638
  174MPD1     C 2648   0.933   1.324  14.548  0.3341 -0.4480  0.7207
  174MPD1    C1 2649   0.825   1.251  14.603  0.3623  0.1127  0.2150
  174MPD1    C2 2650   0.697   1.297  14.576  0.4498 -0.1778 -0.2141
  174MPD1    C3 2651   0.675   1.409  14.500 -0.3827 -0.7241  0.2030
  174MPD1    C4 2652   0.775   1.474  14.442 -0.7012  0.3852  0.4143
  174MPD1    C5 2653   0.905   1.429  14.462  0.2616  0.3136  0.2088
  174MPD1     H 2654   0.611   1.246  14.620  0.7144 -0.8676 -0.4914
  174MPD1    H1 2655   0.759   1.553  14.369 -1.7135 -0.8047 -0.6645
  174MPD1    H2 2656   1.037   1.306  14.570 -0.5610 -3.5141  2.4059
  174MPD1    H3 2657   0.989   1.471  14.409  0.5244  0.3903  0.6821
  174MPD1     N 2658   0.540   1.460  14.468  0.3481 -0.6102 -0.5747
  174MPD1    H5 2659   0.537   1.536  14.400 -0.8041  0.3622  0.5693
  174MPD1    N1 2660   0.843   1.147  14.695  0.0600 -0.3758 -0.5663
  174MPD1    H6 2661   0.933   1.100  14.688  1.7702  2.5539  1.7577
  174MPD1    H7 2662   0.764   1.083  14.685  0.5816 -1.2988  1.4065
  175MPD1     C 2663   2.726   2.146  16.264  0.0066 -0.0198 -0.2417
  175MPD1    C1 2664   2.664   2.195  16.377  0.5212 -0.1323 -0.5789
  175MPD1    C2 2665   2.725   2.284  16.464  0.2308 -0.1059  0.4939
  175MPD1    C3 2666   2.861   2.303  16.451 -0.4625  0.0556 -0.0568
  175MPD1    C4 2667   2.925   2.236  16.346  0.3678  0.7689 -0.9761
  175MPD1    C5 2668   2.859   2.162  16.253  0.8719 -0.0502  0.1208
  175MPD1     H 2669   2.675   2.318  16.554 -1.1954  0.3683 -0.4732
  175MPD1    H1 2670   3.033   2.245  16.340  0.4528  1.5614  1.4911
  175MPD1    H2 2671   2.671   2.077  16.202  1.0727  1.0509 -2.3816
  175MPD1    H3 2672   2.914   2.088  16.196  1.6816 -1.0419  2.2101
  175MPD1     N 2673   2.939   2.390  16.533 -0.0366  0.3236 -0.0188
  175MPD1    H5 2674   3.037   2.399  16.506  0.5640 -2.6082  1.1875
  175MPD1    N1 2675   2.521   2.191  16.374  0.1742  0.1690 -0.4978
  175MPD1    H6 2676   2.487   2.222  16.465  0.4535  1.0499 -0.6956
  175MPD1    H7 2677   2.493   2.094  16.363 -0.4631  0.2045  0.8588
  176MPD1     C 2678   0.789   4.701  16.628 -0.2067  0.7680  0.1008
  176MPD1    C1 2679   0.798   0.106  16.681 -0.6760  0.3338 -0.0715
  176MPD1    C2 2680   0.727   0.134  16.798 -0.8337 -0.0264  0.2972
  176MPD1    C3 2681   0.645   0.044  16.862 -0.1409  0.1901 -0.7645
  176MPD1    C4 2682   0.631   4.642  16.800  0.1678 -0.3575  0.3771
  176MPD1    C5 2683   0.705   4.611  16.686  0.5205  0.4785 -0.7219
  176MPD1     H 2684   0.746   0.228  16.849  0.3425  0.3976 -0.9158
  176MPD1    H1 2685   0.563   4.565  16.835 -0.4500 -0.4601 -1.0156
  176MPD1    H2 2686   0.846   4.665  16.543 -0.5277 -1.1109  0.6813
  176MPD1    H3 2687   0.701   4.507  16.655 -0.9273  0.3931 -0.2724
  176MPD1     N 2688   0.584   0.079  16.985  0.0139  0.2401 -0.6249
  176MPD1    H5 2689   0.619   0.167  17.022  0.3451 -0.4194  0.6067
  176MPD1    N1 2690   0.894   0.185  16.635  0.1865  0.2834 -0.1104
  176MPD1    H6 2691   0.877   0.282  16.659  2.3098  0.9721 -1.3659
  176MPD1    H7 2692   0.924   0.176  16.538  2.4143 -2.0017  0.7889
  177MPD1     C 2693   2.868   0.175  10.121 -0.4553 -0.5027  0.3948
  177MPD1    C1 2694   2.942   0.083  10.056  0.3522 -0.1180  1.0731
  177MPD1    C2 2695   2.906   0.071   9.920 -0.7183  0.0874  0.6270
  177MPD1    C3 2696   2.784   0.112   9.870  0.4905 -0.0465  0.2688
  177MPD1    C4 2697   2.704   0.194   9.949  0.2664  0.2921  0.3727
  177MPD1    C5 2698   2.746   0.214  10.076  0.2328 -0.5026 -0.1240
  177MPD1     H 2699   2.968   0.009   9.856  1.2140 -0.0166  2.6107
  177MPD1    H1 2700   2.607   0.233   9.919  0.4877  1.1487  0.7549
  177MPD1    H2 2701   2.891   0.206  10.222 -2.6338 -0.2480  0.8120
  177MPD1    H3 2702   2.686   0.269  10.149 -0.8665 -1.8784  0.0231
  177MPD1     N 2703   2.750   0.088   9.736 -0.5162  0.4855 -0.6066
  177MPD1    H5 2704   2.823   0.052   9.676 -0.4054  0.4332 -0.4416
  177MPD1    N1 2705   3.063   0.031  10.099 -0.1260  0.1382 -0.2181
  177MPD1    H6 2706   3.060   0.025  10.201 -1.3756 -0.9500 -0.3175
  177MPD1    H7 2707   3.093   4.666  10.052  0.0731  0.5150 -0.7770
  178MPD1     C 2708   0.737   1.475   0.122 -0.4241 -0.3131 -0.5776
  178MPD1    C1 2709   0.727   1.433  17.673  0.0402 -0.4245 -0.4979
  178MPD1    C2 2710   0.794   1.319  17.639  0.6361  0.5215  0.1509
  178MPD1    C3 2711   0.874   1.243   0.041  0.0376 -0.4360 -0.6564
  178MPD1    C4 2712   0.880   1.287   0.166  0.0903  0.6408 -0.0228
  178MPD1    C5 2713   0.810   1.400   0.210 -0.5524  0.5504 -0.7174
  178MPD1     H 2714   0.800   1.286  17.535 -0.9866  1.8588 -0.3613
  178MPD1    H1 2715   0.926   1.236   0.250  0.8845 -0.0571 -0.8806
  178MPD1    H2 2716   0.689   1.565   0.160 -1.0978 -0.5909 -0.7686
  178MPD1    H3 2717   0.823   1.443   0.308  1.1099 -1.3600 -0.0908
  178MPD1     N 2718   0.941   1.131  17.682 -0.1910  0.0488  0.6390
  178MPD1    H5 2719   1.009   1.099   0.064  1.3299  1.2610 -0.3274
  178MPD1    N1 2720   0.641   1.504  17.587  0.2514 -0.3055 -0.3055
  178MPD1    H6 2721   0.661   1.493  17.487  0.1132  0.5657 -0.4267
  178MPD1    H7 2722   0.637   1.604  17.606  0.5319 -0.7204  1.8332
  179MPD1     C 2723   1.181   2.527  15.791  0.0473  0.0138 -0.8863
  179MPD1    C1 2724   1.096   2.587  15.695 -0.7888 -0.3430 -0.0566
  179MPD1    C2 2725   0.985   2.661  15.747 -0.5294  0.9522  0.7049
  179MPD1    C3 2726   0.980   2.693  15.884 -0.4620  0.6932 -0.3122
  179MPD1    C4 2727   1.082   2.648  15.970 -0.3249  0.1857 -0.0720
  179MPD1    C5 2728   1.174   2.560  15.925 -0.1785 -0.2465 -0.3065
  179MPD1     H 2729   0.919   2.698  15.670  0.4636 -0.8997 -1.0337
  179MPD1    H1 2730   1.084   2.680  16.074  1.4406  1.2684 -0.4447
  179MPD1    H2 2731   1.267   2.469  15.760  0.1821 -0.1678 -0.1681
  179MPD1    H3 2732   1.254   2.535  15.993 -0.5688  0.4111  0.3982
  179MPD1     N 2733   0.883   2.774  15.949 -0.1295  0.0601 -0.2676
  179MPD1    H5 2734   0.891   2.798  16.047  0.8043 -2.3077  0.2335
  179MPD1    N1 2735   1.091   2.543  15.560 -0.2623 -0.6357 -0.3999
  179MPD1    H6 2736   1.183   2.522  15.524  0.7054  1.0713  1.0943
  179MPD1    H7 2737   1.035   2.599  15.496  1.8996 -0.4595 -2.1003
  180MPD1     C 2738   1.146   3.674  15.337 -0.4319 -0.0680  0.2899
  180MPD1    C1 2739   1.133   3.782  15.421 -0.3498 -0.0824  0.4688
  180MPD1    C2 2740   1.018   3.854  15.415  0.7937  0.5332  0.1844
  180MPD1    C3 2741   0.917   3.826  15.325  0.3943  0.5881 -0.1452
  180MPD1    C4 2742   0.930   3.716  15.240 -0.1240  0.9141 -0.2803
  180MPD1    C5 2743   1.042   3.639  15.251  0.7105 -0.0605  0.3478
  180MPD1     H 2744   1.004   3.933  15.487  2.7273 -0.7100  1.9010
  180MPD1    H1 2745   0.854   3.682  15.170  0.2174 -0.2570 -0.0828
  180MPD1    H2 2746   1.230   3.606  15.340 -1.2437 -1.0526  0.6605
  180MPD1    H3 2747   1.051   3.553  15.185  0.3602  0.8682 -0.9128
  180MPD1     N 2748   0.806   3.914  15.326 -0.0896  0.8635  0.3538
  180MPD1    H5 2749   0.801   3.977  15.406 -1.4435  0.5574  0.5114
  180MPD1    N1 2750   1.226   3.802  15.518 -0.4358 -0.5066  0.2198
  180MPD1    H6 2751   1.240   3.900  15.542  0.3661 -0.5811  0.0474
  180MPD1    H7 2752   1.311   3.752  15.494 -0.0300  0.7182 -0.8890
  181MPD1     C 2753   2.519   2.171  11.213 -0.6139  0.0291 -0.4177
  181MPD1    C1 2754   2.492   2.256  11.106  0.4105  0.6040 -0.0163
  181MPD1    C2 2755   2.478   2.210  10.978  0.0753  0.3888 -0.2634
  181MPD1    C3 2756   2.513   2.074  10.953  0.0491 -0.2231  0.1330
  181MPD1    C4 2757   2.545   1.994  11.060 -0.2607  0.5810 -0.3180
  181MPD1    C5 2758   2.555   2.038  11.189 -0.1004 -0.3134 -0.1604
  181MPD1     H 2759   2.443   2.271  10.896  0.9518  1.0359 -0.1618
  181MPD1    H1 2760   2.580   1.894  11.035  1.4157  0.1126  3.9183
  181MPD1    H2 2761   2.527   2.213  11.312 -0.5958  0.2319 -0.5051
  181MPD1    H3 2762   2.581   1.977  11.274  1.8219 -1.3687 -1.4961
  181MPD1     N 2763   2.517   2.009  10.828 -0.3503 -1.1718  0.1321
  181MPD1    H5 2764   2.526   1.908  10.827  0.2502 -1.0885 -2.3144
  181MPD1    N1 2765   2.445   2.384  11.137  0.0883  0.1780 -0.0308
  181MPD1    H6 2766   2.495   2.431  11.212  0.8628 -0.4213 -0.1698
  181MPD1    H7 2767   2.448   2.445  11.055 -0.2685  1.2308  0.7414
  182MPD1     C 2768   3.605   0.711   2.483 -0.5536 -0.3203  0.0370
  182MPD1    C1 2769   3.641   0.736   2.353 -0.2785  0.3539  0.8262
  182MPD1    C2 2770   3.554   0.734   2.253 -0.5522  0.4835 -0.1532
  182MPD1    C3 2771   3.419   0.717   2.283 -0.1262 -0.5349  0.2301
  182MPD1    C4 2772   3.381   0.698   2.411 -0.0080 -0.0337 -0.0804
  182MPD1    C5 2773   3.472   0.708   2.516 -0.1841 -0.4590 -0.5808
  182MPD1     H 2774   3.592   0.739   2.151 -1.9082  2.1724 -0.5633
  182MPD1    H1 2775   3.280   0.665   2.435  0.0916 -0.8205 -0.7400
  182MPD1    H2 2776   3.681   0.706   2.561 -1.5077 -0.3410  0.9639
  182MPD1    H3 2777   3.438   0.715   2.618 -0.5362  0.4624 -0.7586
  182MPD1     N 2778   3.319   0.718   2.181  0.1824  0.0430  0.2442
  182MPD1    H5 2779   3.224   0.697   2.208  0.6348 -1.2200  0.8789
  182MPD1    N1 2780   3.774   0.765   2.317 -0.2620 -0.1323 -0.1440
  182MPD1    H6 2781   3.841   0.786   2.390  0.7084 -0.3802 -0.9710
  182MPD1    H7 2782   3.774   0.842   2.250  0.8012  1.6052  1.8915
  183MPD1     C 2783   2.950   0.657   9.007  0.7533 -0.1626  0.3572
  183MPD1    C1 2784   2.846   0.748   9.017  0.6994 -1.0306  0.2431
  183MPD1    C2 2785   2.865   0.854   9.102  0.0843  0.3252 -0.2949
  183MPD1    C3 2786   2.970   0.861   9.195  0.3328  0.2176 -0.1768
  183MPD1    C4 2787   3.058   0.753   9.194 -0.3656 -0.8465  0.0094
  183MPD1    C5 2788   3.051   0.658   9.096  0.3140  0.7152  0.1064
  183MPD1     H 2789   2.795   0.937   9.101  1.6101  1.6151  0.4756
  183MPD1    H1 2790   3.136   0.745   9.269  0.1873 -0.5348 -0.5366
  183MPD1    H2 2791   2.945   0.567   8.947 -2.0516  0.6287 -0.6154
  183MPD1    H3 2792   3.116   0.572   9.097 -1.9277 -0.9779 -1.9551
  183MPD1     N 2793   2.994   0.972   9.270  0.2079  0.8323  0.4586
  183MPD1    H5 2794   2.908   1.025   9.275 -0.9094 -0.6377 -2.9710
  183MPD1    N1 2795   2.755   0.768   8.910  0.2626  0.4149  0.4695
  183MPD1    H6 2796   2.669   0.808   8.948 -0.0536  0.6434 -0.4921
  183MPD1    H7 2797   2.727   0.686   8.856 -0.5077  1.0437 -0.0776
  184MPD1     C 2798   3.148   4.220   9.560 -0.0990 -0.5077  0.3515
  184MPD1    C1 2799   3.058   4.271   9.473  0.3156 -0.4019 -0.2819
  184MPD1    C2 2800   2.959   4.353   9.534  0.3254 -0.6565  0.7405
  184MPD1    C3 2801   2.955   4.381   9.666  0.0876  0.8843 -0.8540
  184MPD1    C4 2802   3.049   4.330   9.745 -0.3287  0.6828  0.1879
  184MPD1    C5 2803   3.140   4.249   9.690 -0.4528 -0.3924 -0.3652
  184MPD1     H 2804   2.894   4.404   9.464  2.4932  0.0806 -0.7015
  184MPD1    H1 2805   3.052   4.342   9.853  0.8091  1.4724  0.0637
  184MPD1    H2 2806   3.218   4.143   9.530  0.1417 -0.0749 -0.1960
  184MPD1    H3 2807   3.203   4.189   9.756 -1.0488 -2.2252 -1.4469
  184MPD1     N 2808   2.841   4.443   9.727  0.4892  0.7644 -0.0639
  184MPD1    H5 2809   2.842   4.446   9.828 -1.1692 -0.3546 -0.0217
  184MPD1    N1 2810   3.044   4.233   9.338  0.1157 -1.4561 -0.4668
  184MPD1    H6 2811   2.982   4.293   9.284  2.2528 -0.5271 -1.8666
  184MPD1    H7 2812   3.133   4.230   9.290 -1.0932 -0.6426 -2.7384
  185MPD1     C 2813   1.815   4.130   9.703  0.1857  1.1356  0.0164
  185MPD1    C1 2814   1.911   4.124   9.613  0.1942 -0.8064  0.3733
  185MPD1    C2 2815   2.029   4.187   9.645 -0.4197  0.0671 -0.4700
  185MPD1    C3 2816   2.050   4.261   9.762  0.0883  0.1658 -0.2819
  185MPD1    C4 2817   1.940   4.254   9.852 -0.1351  0.8753 -0.1231
  185MPD1    C5 2818   1.819   4.195   9.823  0.3518  0.4652 -0.1879
  185MPD1     H 2819   2.123   4.164   9.595 -0.3849 -0.0010 -0.3743
  185MPD1    H1 2820   1.948   4.295   9.952  0.6921  0.0253  0.1574
  185MPD1    H2 2821   1.720   4.081   9.686  0.8076 -0.2053  0.4575
  185MPD1    H3 2822   1.738   4.189   9.895  0.3454  3.0768  0.0119
  185MPD1     N 2823   2.167   4.326   9.799 -0.1588 -0.5697 -0.3857
  185MPD1    H5 2824   2.174   4.361   9.894 -2.1473 -0.4821 -0.2796
  185MPD1    N1 2825   1.904   4.028   9.508  0.2521 -0.6027  0.3265
  185MPD1    H6 2826   1.936   4.056   9.416 -0.0877  0.4282  0.5200
  185MPD1    H7 2827   1.808   3.999   9.492 -1.0563  2.7869  1.9770
  186MPD1     C 2828   1.439   3.444  16.129 -0.5288  0.1802  0.4569
  186MPD1    C1 2829   1.373   3.400  16.241 -0.1524 -0.3247 -0.7349
  186MPD1    C2 2830   1.317   3.489  16.330  0.5884 -1.2102 -0.6181
  186MPD1    C3 2831   1.327   3.618  16.302 -0.6479  0.4923  0.7280
  186MPD1    C4 2832   1.397   3.665  16.194  0.6960  0.4026 -0.0262
  186MPD1    C5 2833   1.461   3.578  16.114 -0.1486  0.5135 -0.3453
  186MPD1     H 2834   1.283   3.453  16.427 -1.5926  1.4357 -0.3872
  186MPD1    H1 2835   1.393   3.769  16.163  1.2737  0.2361 -0.6514
  186MPD1    H2 2836   1.482   3.377  16.054 -0.2693  1.5185 -0.5841
  186MPD1    H3 2837   1.523   3.615  16.034 -1.0715 -0.7176 -1.6294
  186MPD1     N 2838   1.274   3.721  16.380  0.2186  0.4139  0.4234
  186MPD1    H5 2839   1.282   3.813  16.337 -1.4973  0.1869 -0.3640
  186MPD1    N1 2840   1.338   3.262  16.244  0.5000  0.5029  0.1478
  186MPD1    H6 2841   1.353   3.230  16.340  0.8782 -0.5567 -0.2610
  186MPD1    H7 2842   1.398   3.206  16.184 -0.3211 -0.9436  0.6849
  187MPD1     C 2843   0.573   0.191   0.287  0.2073 -0.0605  0.5744
  187MPD1    C1 2844   0.458   0.181   0.211  0.4331  0.1555 -1.0144
  187MPD1    C2 2845   0.391   0.300   0.185  0.5914 -0.2480  0.3752
  187MPD1    C3 2846   0.452   0.424   0.196  0.0499 -0.2272 -1.1213
  187MPD1    C4 2847   0.578   0.431   0.253 -0.0555 -0.7918  0.2336
  187MPD1    C5 2848   0.633   0.313   0.298  0.7536 -0.4565  0.0412
  187MPD1     H 2849   0.292   0.288   0.144  1.2889 -0.5249 -1.2239
  187MPD1    H1 2850   0.625   0.528   0.262 -2.5325  0.2820  1.6450
  187MPD1    H2 2851   0.602   0.106   0.348 -2.6810 -0.0195  1.9748
  187MPD1    H3 2852   0.729   0.324   0.348  2.0416  0.1801 -2.5961
  187MPD1     N 2853   0.391   0.545   0.150  1.1778  0.0686 -0.0694
  187MPD1    H5 2854   0.450   0.628   0.145  0.4570  0.6600  0.9858
  187MPD1    N1 2855   0.388   0.058   0.211 -0.2909  0.1499 -0.9313
  187MPD1    H6 2856   0.456   4.704   0.210  1.0140  1.3851 -3.4593
  187MPD1    H7 2857   0.322   0.054   0.134  0.7177 -0.3268 -1.7616
  188MPD1     C 2858   0.416   0.593  11.012 -1.1555  0.8713 -0.4867
  188MPD1    C1 2859   0.320   0.620  10.910  0.4913 -0.9479 -0.1738
  188MPD1    C2 2860   0.282   0.523  10.822  0.7110 -1.0357 -0.3103
  188MPD1    C3 2861   0.336   0.395  10.831  0.0013 -0.1840  0.2935
  188MPD1    C4 2862   0.433   0.369  10.933  0.2832 -0.4824 -0.0744
  188MPD1    C5 2863   0.472   0.469  11.019  0.2950  0.4404  0.2600
  188MPD1     H 2864   0.205   0.549  10.751  1.3093  2.1940  0.1871
  188MPD1    H1 2865   0.491   0.278  10.928  1.4106  0.1754  0.9784
  188MPD1    H2 2866   0.464   0.676  11.064 -1.1889  0.8866 -0.4800
  188MPD1    H3 2867   0.558   0.450  11.082 -0.5028  0.7138  1.4396
  188MPD1     N 2868   0.303   0.296  10.737 -0.1197  0.2456  0.1805
  188MPD1    H5 2869   0.353   0.209  10.753  0.8663  0.9371  0.8602
  188MPD1    N1 2870   0.287   0.758  10.891 -0.3988  0.4230  0.3658
  188MPD1    H6 2871   0.357   0.820  10.933 -0.1793  1.5284 -1.6409
  188MPD1    H7 2872   0.280   0.779  10.792 -1.5539  0.5050  0.4634
  189MPD1     C 2873   1.935   1.802   0.598  0.1077  0.0027 -0.1965
  189MPD1    C1 2874   1.837   1.728   0.663 -0.6471 -0.0230  0.3683
  189MPD1    C2 2875   1.705   1.785   0.667 -0.5942  0.2416  0.0931
  189MPD1    C3 2876   1.687   1.900   0.598  0.5746 -0.1873  0.5626
  189MPD1    C4 2877   1.785   1.961   0.533  0.5538 -0.0018  0.1911
  189MPD1    C5 2878   1.915   1.921   0.535 -0.1150 -0.3242  0.2787
  189MPD1     H 2879   1.623   1.732   0.715 -0.7525  1.2177  0.9041
  189MPD1    H1 2880   1.762   2.034   0.456 -0.7284  0.2025  0.7693
  189MPD1    H2 2881   2.038   1.770   0.594  0.6800  1.5427  2.6880
  189MPD1    H3 2882   1.992   1.975   0.481  1.0652 -2.0667  0.2003
  189MPD1     N 2883   1.554   1.946   0.581 -0.0437 -0.5266  0.1117
  189MPD1    H5 2884   1.481   1.890   0.622  1.0767 -2.5483 -0.6867
  189MPD1    N1 2885   1.863   1.630   0.763 -0.0312  0.3529 -0.6260
  189MPD1    H6 2886   1.946   1.578   0.734 -0.5857 -0.6988 -0.2944
  189MPD1    H7 2887   1.788   1.562   0.773  1.7937 -1.4148  1.0367
  190MPD1     C 2888   0.833   4.104  16.436 -0.1660  0.3181  0.1803
  190MPD1    C1 2889   0.899   4.069  16.325 -0.0381  0.0557  0.4409
  190MPD1    C2 2890   0.924   4.166  16.227 -0.0212 -0.1740 -0.5223
  190MPD1    C3 2891   0.877   4.300  16.245  0.3888  0.0634 -0.9532
  190MPD1    C4 2892   0.814   4.325  16.365 -0.3212  0.7528 -0.1071
  190MPD1    C5 2893   0.801   4.232  16.463  0.6124 -0.0574  0.0670
  190MPD1     H 2894   0.971   4.149  16.131  0.1578  0.5326 -0.5585
  190MPD1    H1 2895   0.780   4.428  16.372 -0.5724  0.6379  0.3457
  190MPD1    H2 2896   0.810   4.038  16.519 -2.0554  1.2522  0.3887
  190MPD1    H3 2897   0.750   4.271  16.550  0.8300  1.4215 -0.4703
  190MPD1     N 2898   0.898   4.397  16.140  0.0341  1.0193 -0.0825
  190MPD1    H5 2899   0.923   4.356  16.051 -1.0749  0.9279 -0.3570
  190MPD1    N1 2900   0.924   3.937  16.303  0.1613 -0.2949 -0.6765
  190MPD1    H6 2901   0.896   3.870  16.375 -0.2039  0.4580 -0.1208
  190MPD1    H7 2902   1.005   3.905  16.250  0.4418  0.8419 -0.9341
  191MPD1     C 2903   4.470   1.639  13.144  0.6528 -0.5026 -0.6363
  191MPD1    C1 2904   4.549   1.750  13.157 -0.2253  0.6025  0.2115
  191MPD1    C2 2905   4.512   1.868  13.092  0.1916  0.0155 -0.3476
  191MPD1    C3 2906   4.395   1.877  13.023  0.1687 -0.3806 -0.5041
  191MPD1    C4 2907   4.310   1.768  13.020 -0.3658  0.2444 -0.0257
  191MPD1    C5 2908   4.353   1.649  13.080  0.3267  0.3760 -0.7660
  191MPD1     H 2909   4.572   1.958  13.091  0.6065 -0.2626 -0.2140
  191MPD1    H1 2910   4.209   1.779  12.984  0.4465  2.0899 -1.7280
  191MPD1    H2 2911   4.495   1.540  13.181 -0.1244 -0.9143 -1.2079
  191MPD1    H3 2912   4.288   1.565  13.063  1.6155 -0.9513  0.8969
  191MPD1     N 2913   4.356   2.011  12.983 -0.5679 -0.1537  0.6706
  191MPD1    H5 2914   4.429   2.081  12.995 -0.0597 -0.6305  0.3674
  191MPD1    N1 2915   4.668   1.739  13.230  0.4319  0.1731 -0.2361
  191MPD1    H6 2916   0.024   1.771  13.172 -0.4315  0.0193 -1.4636
  191MPD1    H7 2917   4.676   1.642  13.261  0.3555  0.7803  1.7109
  192MPD1     C 2918   3.474   2.393  12.872  0.3384 -0.2629 -0.2062
  192MPD1    C1 2919   3.541   2.516  12.857 -0.1954 -0.6488 -0.0236
  192MPD1    C2 2920   3.678   2.522  12.875 -0.4589  0.0344 -0.2176
  192MPD1    C3 2921   3.728   2.419  12.954 -0.2318  0.0327  0.4036
  192MPD1    C4 2922   3.653   2.311  12.986  0.5064  0.0762 -0.0190
  192MPD1    C5 2923   3.526   2.291  12.934 -0.0440 -0.0853  0.2982
  192MPD1     H 2924   3.736   2.604  12.833 -1.9682  0.7205 -0.9748
  192MPD1    H1 2925   3.705   2.227  13.031 -2.0434 -0.5792  1.7548
  192MPD1    H2 2926   3.368   2.385  12.853  0.3723  1.5534 -1.1888
  192MPD1    H3 2927   3.466   2.205  12.962 -0.2681 -0.0355 -0.0342
  192MPD1     N 2928   3.864   2.400  12.982 -0.6899 -0.0778  0.2302
  192MPD1    H5 2929   3.880   2.321  13.043 -1.7995 -1.3953 -1.2096
  192MPD1    N1 2930   3.477   2.626  12.805 -0.0201 -0.1383 -0.2376
  192MPD1    H6 2931   3.378   2.633  12.830 -0.2510 -0.3413 -1.0706
  192MPD1    H7 2932   3.530   2.704  12.842 -0.8070 -0.2992  1.2175
  193MPD1     C 2933   4.102   2.406  16.984  0.6899 -0.3719 -0.1138
  193MPD1    C1 2934   4.228   2.389  16.924 -0.1202  0.6469  0.0008
  193MPD1    C2 2935   4.337   2.440  16.990  0.8966  0.3345 -0.3853
  193MPD1    C3 2936   4.314   2.525  17.098  0.5417  0.3309 -0.4452
  193MPD1    C4 2937   4.195   2.553  17.145  0.2877 -0.9840 -0.1002
  193MPD1    C5 2938   4.084   2.499  17.090  0.5137  0.3195  0.8709
  193MPD1     H 2939   4.437   2.418  16.954  1.3635 -0.7307  1.5678
  193MPD1    H1 2940   4.181   2.627  17.223  0.1021 -0.2293 -0.8457
  193MPD1    H2 2941   4.018   2.348  16.949  0.8738  0.2603 -1.6440
  193MPD1    H3 2942   3.990   2.527  17.136  0.7088  1.5454  0.5341
  193MPD1     N 2943   4.426   2.576  17.176 -0.1123 -0.0579  0.0703
  193MPD1    H5 2944   4.402   2.636  17.254  1.1266  0.7430 -0.1529
  193MPD1    N1 2945   4.250   2.292  16.820 -0.3740 -0.5500  0.0726
  193MPD1    H6 2946   4.165   2.281  16.765  0.4734 -1.1257 -1.1126
  193MPD1    H7 2947   4.331   2.310  16.762  0.8731  0.9657  2.2776
  194MPD1     C 2948   1.927   0.203  17.628  0.5325 -0.6629 -0.2652
  194MPD1    C1 2949   1.935   0.174  17.492  1.0559 -1.1361  0.7928
  194MPD1    C2 2950   2.058   0.162  17.428  0.6264 -0.9128  0.0121
  194MPD1    C3 2951   2.174   0.172  17.499 -1.1824  0.2422  0.2173
  194MPD1    C4 2952   2.168   0.211  17.630 -0.5850  0.7316  0.0009
  194MPD1    C5 2953   2.047   0.221   0.007  0.3814  0.2795 -0.5502
  194MPD1     H 2954   2.067   0.128  17.326 -1.8746 -0.4718 -0.3498
  194MPD1    H1 2955   2.257   0.218   0.006 -1.7205  1.0926  1.5716
  194MPD1    H2 2956   1.834   0.198  17.684  1.0629  0.1070  0.6943
  194MPD1    H3 2957   2.034   0.260   0.107  2.6328  0.3693 -0.2977
  194MPD1     N 2958   2.303   0.140  17.455  0.3341  0.4661  0.5364
  194MPD1    H5 2959   2.382   0.145  17.518 -0.0792 -1.0840  1.1867
  194MPD1    N1 2960   1.816   0.120  17.432  0.6592 -0.0510  0.2128
  194MPD1    H6 2961   1.830   0.109  17.332  1.1355  0.3665  0.2351
  194MPD1    H7 2962   1.732   0.174  17.454 -1.7502 -2.8997 -2.0365
  195MPD1     C 2963   0.329   0.596   0.618 -0.2727 -0.3209  0.2162
  195MPD1    C1 2964   0.212   0.619   0.689 -0.1433 -0.3134 -0.4995
  195MPD1    C2 2965   0.097   0.555   0.658 -0.7503 -0.6723  0.0874
  195MPD1    C3 2966   0.089   0.474   0.547  0.1247  0.3843 -0.5672
  195MPD1    C4 2967   0.206   0.445   0.484 -0.5115  0.3407 -0.3950
  195MPD1    C5 2968   0.319   0.508   0.515 -0.1705 -0.0449 -0.5393
  195MPD1     H 2969   0.008   0.581   0.714 -1.2043  1.0307 -1.3998
  195MPD1    H1 2970   0.204   0.382   0.396  0.9524  0.3979 -0.4772
  195MPD1    H2 2971   0.424   0.634   0.653 -0.3395  0.1835 -0.1492
  195MPD1    H3 2972   0.409   0.481   0.461 -0.9214 -0.4965 -1.5652
  195MPD1     N 2973   4.692   0.425   0.488  0.4941  0.1355 -0.2886
  195MPD1    H5 2974   4.698   0.367   0.405  1.6935 -2.0379  1.3235
  195MPD1    N1 2975   0.220   0.678   0.819  0.0335 -0.4405  0.4931
  195MPD1    H6 2976   0.285   0.756   0.827  1.3707 -1.5411  0.2819
  195MPD1    H7 2977   0.128   0.709   0.849 -1.2143 -2.8783 -0.7967
  196MPD1     C 2978   3.587   0.680   0.569  0.2599  0.4907 -0.1783
  196MPD1    C1 2979   3.588   0.814   0.586 -0.2306  0.4561  0.1401
  196MPD1    C2 2980   3.611   0.873   0.712 -0.6823  0.2690 -0.6382
  196MPD1    C3 2981   3.648   0.793   0.818 -0.2119 -0.0410  0.1508
  196MPD1    C4 2982   3.636   0.656   0.800  0.6553  0.1438  0.3638
  196MPD1    C5 2983   3.626   0.604   0.675 -0.4251 -0.8470 -0.8864
  196MPD1     H 2984   3.610   0.980   0.729 -0.7540  0.3201 -0.9790
  196MPD1    H1 2985   3.652   0.583   0.878  1.0793  1.3878  1.4466
  196MPD1    H2 2986   3.573   0.631   0.474 -0.8580 -2.0727  1.2975
  196MPD1    H3 2987   3.636   0.498   0.654 -0.3253 -1.2239  1.0792
  196MPD1     N 2988   3.680   0.829   0.951 -0.3493 -0.3995  0.3730
  196MPD1    H5 2989   3.676   0.766   1.030 -2.1831 -0.1121  0.5112
  196MPD1    N1 2990   3.534   0.901   0.483  0.5131 -0.1461 -0.2180
  196MPD1    H6 2991   3.563   0.866   0.391 -0.0831  0.8023 -0.7649
  196MPD1    H7 2992   3.562   0.997   0.496  0.2710  0.1041 -1.4838
  197MPD1     C 2993   3.321   3.528   0.621  0.7127  0.4002 -0.3628
  197MPD1    C1 2994   3.368   3.628   0.536 -0.2881 -0.1083  0.0527
  197MPD1    C2 2995   3.347   3.615   0.399  0.3196  0.1565  0.6973
  197MPD1    C3 2996   3.277   3.502   0.346  0.5493  0.4068 -0.1794
  197MPD1    C4 2997   3.237   3.398   0.434 -0.3351 -0.0341  0.3947
  197MPD1    C5 2998   3.256   3.414   0.567  0.0086  0.0492  0.0078
  197MPD1     H 2999   3.370   3.701   0.338  1.3872 -1.7329 -1.5718
  197MPD1    H1 3000   3.185   3.308   0.402  0.8758 -0.4937 -0.2654
  197MPD1    H2 3001   3.337   3.545   0.727 -1.7500 -0.1334  0.0785
  197MPD1    H3 3002   3.234   3.326   0.626  2.3678  0.9724  2.3285
  197MPD1     N 3003   3.248   3.484   0.207  0.0170  0.2509 -0.2536
  197MPD1    H5 3004   3.210   3.393   0.185 -0.4479  0.4001 -0.0644
  197MPD1    N1 3005   3.434   3.740   0.591  0.1188  0.3156  0.1732
  197MPD1    H6 3006   3.422   3.825   0.537  0.0266  0.5926  0.6258
  197MPD1    H7 3007   3.407   3.772   0.684  0.3504 -0.0344  0.3626
  198MPD1     C 3008   0.123   1.972  15.758  0.7729 -0.1173  0.6961
  198MPD1    C1 3009   0.148   1.840  15.744 -0.0702 -0.0306  0.1188
  198MPD1    C2 3010   0.225   1.783  15.848  0.4310  0.2545  0.2493
  198MPD1    C3 3011   0.295   1.863  15.941 -0.5470  0.2513 -0.6049
  198MPD1    C4 3012   0.261   1.994  15.947 -0.7938  0.0579 -0.4141
  198MPD1    C5 3013   0.172   2.051  15.861  0.4480 -0.8112 -0.0243
  198MPD1     H 3014   0.245   1.678  15.861 -0.1959  0.0571 -0.3676
  198MPD1    H1 3015   0.307   2.060  16.020  0.3685 -0.4540 -0.6817
  198MPD1    H2 3016   0.054   2.020  15.690  3.6455 -0.0045 -2.1232
  198MPD1    H3 3017   0.149   2.157  15.857 -0.5741 -1.0002  0.9451
  198MPD1     N 3018   0.379   1.800  16.033 -0.5249 -0.2340  0.0855
  198MPD1    H5 3019   0.375   1.699  16.046 -0.3273 -0.3633 -0.8953
  198MPD1    N1 3020   0.083   1.772  15.644  0.1335  0.3714 -0.1391
  198MPD1    H6 3021   0.064   1.837  15.568 -1.8638 -0.4763 -0.3736
  198MPD1    H7 3022   0.143   1.703  15.600  3.2423  3.3673 -0.5146
  199MPD1     C 3023   2.041   2.004  10.680 -0.3138  0.7312  0.0184
  199MPD1    C1 3024   1.965   1.907  10.613 -1.1450  0.1949  0.4092
  199MPD1    C2 3025   1.973   1.905  10.474  0.0241 -0.2218  0.3099
  199MPD1    C3 3026   2.029   2.010  10.405  0.3736 -0.6208 -0.3326
  199MPD1    C4 3027   2.097   2.106  10.474 -0.7760 -0.4480  0.0056
  199MPD1    C5 3028   2.106   2.104  10.613  0.1865 -0.0752 -0.5193
  199MPD1     H 3029   1.925   1.831  10.412 -1.0227  0.5087  0.2402
  199MPD1    H1 3030   2.147   2.186  10.420  1.4949 -1.5236  0.5149
  199MPD1    H2 3031   2.044   2.012  10.788  1.5159 -0.5622  0.0588
  199MPD1    H3 3032   2.173   2.171  10.666 -1.3009 -1.3567  2.9563
  199MPD1     N 3033   2.023   2.024  10.268  0.0265 -0.2210 -0.7275
  199MPD1    H5 3034   2.090   2.086  10.225 -0.4841  0.3633 -0.6827
  199MPD1    N1 3035   1.905   1.808  10.682 -0.4805 -0.4235 -0.2135
  199MPD1    H6 3036   1.888   1.830  10.780  0.8434 -1.5751  0.2876
  199MPD1    H7 3037   1.817   1.796  10.634 -1.7169 -0.3087  2.0360
  200MPD1     C 3038   1.287   2.282  15.488 -0.1488 -0.2994 -0.0781
  200MPD1    C1 3039   1.226   2.300  15.366 -0.6966 -0.1311 -0.5248
  200MPD1    C2 3040   1.314   2.300  15.247  0.2151 -0.1489 -0.8452
  200MPD1    C3 3041   1.451   2.312  15.267 -0.2034 -0.0063  0.0107
  200MPD1    C4 3042   1.506   2.296  15.389 -0.2653  0.0093  0.2111
  200MPD1    C5 3043   1.424   2.281  15.503  0.4138  0.7139  0.5569
  200MPD1     H 3044   1.272   2.306  15.147  1.0162 -0.9069 -1.2230
  200MPD1    H1 3045   1.613   2.301  15.403 -0.0557 -1.8561 -0.6991
  200MPD1    H2 3046   1.227   2.278  15.579 -2.2887 -1.0067 -1.5288
  200MPD1    H3 3047   1.467   2.281  15.602  1.6300 -0.2312  0.0242
  200MPD1     N 3048   1.527   2.330  15.154  0.0107  0.2759 -0.1820
  200MPD1    H5 3049   1.485   2.325  15.062 -1.0144  1.3756  0.2290
  200MPD1    N1 3050   1.086   2.274  15.350  0.2829  0.1673 -0.1061
  200MPD1    H6 3051   1.060   2.311  15.441  0.0094  0.6732 -0.3880
  200MPD1    H7 3052   1.053   2.339  15.279 -0.5793  0.3570  0.4677
  201MPD1     C 3053   3.361   1.467  13.480 -0.7324 -0.3734 -0.1587
  201MPD1    C1 3054   3.379   1.399  13.359  0.1047 -0.5967  0.2928
  201MPD1    C2 3055   3.498   1.327  13.343  0.0610  0.6114 -0.8982
  201MPD1    C3 3056   3.595   1.335  13.437  0.1265  0.3645 -0.5131
  201MPD1    C4 3057   3.575   1.409  13.551  0.2506  0.5599 -0.4446
  201MPD1    C5 3058   3.459   1.478  13.574 -0.7202 -0.2025 -0.9425
  201MPD1     H 3059   3.515   1.272  13.251 -1.1076  2.2850 -2.1238
  201MPD1    H1 3060   3.646   1.418  13.632 -1.4545 -0.5329  1.1679
  201MPD1    H2 3061   3.268   1.513  13.511  1.3654  2.4942  1.8124
  201MPD1    H3 3062   3.443   1.534  13.665 -0.8184 -2.8951  0.7151
  201MPD1     N 3063   3.712   1.259  13.416 -0.9352  0.4847  0.5332
  201MPD1    H5 3064   3.711   1.190  13.342  1.5934  0.2074  0.7599
  201MPD1    N1 3065   3.268   1.388  13.274  0.0309 -0.4137 -0.1549
  201MPD1    H6 3066   3.219   1.477  13.272  0.9245  0.0216 -2.3983
  201MPD1    H7 3067   3.292   1.367  13.177  0.9587  1.1550 -0.2747
  202MPD1     C 3068   3.676   0.515   9.211 -0.1065 -0.2374  0.7097
  202MPD1    C1 3069   3.798   0.477   9.278 -0.1733 -1.1057  0.4547
  202MPD1    C2 3070   3.782   0.459   9.416 -0.0279 -0.1724 -0.4807
  202MPD1    C3 3071   3.679   0.505   9.487 -0.3627 -0.0156 -0.2760
  202MPD1    C4 3072   3.574   0.568   9.421  0.5959 -0.3107  0.3851
  202MPD1    C5 3073   3.571   0.559   9.279 -0.8149 -0.3354 -0.1390
  202MPD1     H 3074   3.870   0.428   9.472 -0.9895  1.8816  2.1283
  202MPD1    H1 3075   3.484   0.605   9.468  1.3792  0.6597  1.1201
  202MPD1    H2 3076   3.660   0.504   9.104  1.1442  0.6928  0.4201
  202MPD1    H3 3077   3.485   0.593   9.221  0.4491  1.8854 -0.7081
  202MPD1     N 3078   3.673   0.503   9.632  0.3341 -0.6978 -0.3530
  202MPD1    H5 3079   3.609   0.563   9.684  0.0016  0.4962 -2.1476
  202MPD1    N1 3080   3.884   0.394   9.203 -0.1934 -0.2519 -0.1102
  202MPD1    H6 3081   3.975   0.374   9.243  0.6953 -0.1237 -2.0827
  202MPD1    H7 3082   3.904   0.429   9.109 -1.3655  0.8988  0.0792
  203MPD1     C 3083   2.703   1.960  12.198  0.1204 -0.5721  0.2009
  203MPD1    C1 3084   2.648   1.846  12.145 -0.7810  0.4739 -0.9592
  203MPD1    C2 3085   2.652   1.729  12.219 -0.0737  0.2756 -0.7423
  203MPD1    C3 3086   2.721   1.715  12.335 -0.7124  0.2910 -0.9772
  203MPD1    C4 3087   2.778   1.832  12.386 -0.5605 -0.6629  0.0705
  203MPD1    C5 3088   2.772   1.948  12.315  0.2101 -0.6082  0.2821
  203MPD1     H 3089   2.599   1.641  12.184  0.9770 -1.3393  1.7135
  203MPD1    H1 3090   2.840   1.833  12.475  0.3704  1.2320 -0.5882
  203MPD1    H2 3091   2.701   2.056  12.148  0.4109 -0.5070  0.3197
  203MPD1    H3 3092   2.826   2.034  12.353  0.8379 -0.1675 -1.5935
  203MPD1     N 3093   2.756   1.584  12.392 -0.3755  0.1886  0.5578
  203MPD1    H5 3094   2.723   1.504  12.340  0.8893 -0.4739  0.7835
  203MPD1    N1 3095   2.570   1.845  12.028  0.4995 -1.2048 -0.2932
  203MPD1    H6 3096   2.605   1.917  11.965  0.7258  0.0449  1.2414
  203MPD1    H7 3097   2.585   1.759  11.977 -1.3885 -1.8423  0.2344
  204MPD1     C 3098   1.863   2.541   0.625  0.5710 -0.3472 -0.6406
  204MPD1    C1 3099   1.803   2.428   0.581  0.1100 -0.4952 -0.4718
  204MPD1    C2 3100   1.860   2.349   0.483  0.0010  0.2007 -0.4432
  204MPD1    C3 3101   1.981   2.387   0.424 -0.3203 -0.4595 -0.2544
  204MPD1    C4 3102   2.045   2.498   0.476  0.0656 -0.6121 -0.3871
  204MPD1    C5 3103   1.982   2.577   0.571  0.3293  0.3308 -0.3618
  204MPD1     H 3104   1.810   2.257   0.456 -0.7549  0.8791 -1.3700
  204MPD1    H1 3105   2.148   2.524   0.454 -0.1952  1.6842  1.0068
  204MPD1    H2 3106   1.812   2.596   0.703  0.8925  0.0454 -0.7054
  204MPD1    H3 3107   2.033   2.668   0.600 -0.2919  0.2937  0.8109
  204MPD1     N 3108   2.046   2.304   0.331  0.2373  0.1692 -0.2285
  204MPD1    H5 3109   2.007   2.213   0.307  2.5194 -0.7905 -0.3247
  204MPD1    N1 3110   1.689   2.383   0.648  0.0106 -0.0809  0.5056
  204MPD1    H6 3111   1.621   2.455   0.671  0.0443 -0.0711  0.5749
  204MPD1    H7 3112   1.645   2.302   0.606 -0.0927  0.1450  0.1762
  205MPD1     C 3113   2.705   1.010  16.723 -0.8783  0.4599 -0.8489
  205MPD1    C1 3114   2.602   0.995  16.811  0.0474  0.1714  0.1173
  205MPD1    C2 3115   2.625   1.019  16.947 -0.1491 -0.4171  0.9706
  205MPD1    C3 3116   2.742   1.070  16.988 -0.1199 -0.1909  0.1608
  205MPD1    C4 3117   2.845   1.091  16.895 -0.2318 -0.6195  0.4738
  205MPD1    C5 3118   2.828   1.062  16.762  0.3027  0.6237 -0.5446
  205MPD1     H 3119   2.535   0.998  17.004 -2.2789 -0.6426 -2.4662
  205MPD1    H1 3120   2.944   1.125  16.926 -0.5807  0.0677  0.8278
  205MPD1    H2 3121   2.697   1.005  16.615 -0.4317  1.7044 -0.9402
  205MPD1    H3 3122   2.903   1.083  16.688  2.0314 -0.6828  0.8356
  205MPD1     N 3123   2.766   1.092  17.122  0.0678  0.6939 -0.6450
  205MPD1    H5 3124   2.860   1.118  17.151 -1.1416  2.0749  2.0335
  205MPD1    N1 3125   2.494   0.924  16.765  0.6532  0.0672 -0.3711
  205MPD1    H6 3126   2.474   0.942  16.666  0.0609  0.8545 -0.1073
  205MPD1    H7 3127   2.404   0.942  16.810  0.8478  1.2891 -0.4736
  206MPD1     C 3128   2.507   0.036  16.876  0.2311  0.5592 -0.1821
  206MPD1    C1 3129   2.389   0.023  16.822  0.7263 -0.2915 -0.1172
  206MPD1    C2 3130   2.384   4.697  16.687  0.2022 -0.0476 -0.6657
  206MPD1    C3 3131   2.493   4.690  16.608  0.1958  0.3566 -0.2994
  206MPD1    C4 3132   2.609   4.707  16.677  0.0065 -0.0132  0.9266
  206MPD1    C5 3133   2.621   0.012  16.813 -0.3377 -0.3961 -0.6200
  206MPD1     H 3134   2.287   4.673  16.647  0.9703 -1.1775 -1.8400
  206MPD1    H1 3135   2.704   4.692  16.627 -0.1886 -0.3464  0.6573
  206MPD1    H2 3136   2.507   0.067  16.980 -0.7985  0.2570 -0.0924
  206MPD1    H3 3137   2.712   0.010  16.872 -0.6305 -2.2253 -0.2374
  206MPD1     N 3138   2.489   4.657  16.469  0.6916 -0.1106  0.2538
  206MPD1    H5 3139   2.582   4.663  16.426  0.3104  0.4470 -0.5065
  206MPD1    N1 3140   2.277   0.022  16.904  0.1457  0.0692 -0.0284
  206MPD1    H6 3141   2.281   0.097  16.973  0.7638  0.0680 -0.0673
  206MPD1    H7 3142   2.184   0.017  16.863  0.3507  1.7800 -0.6839
  207MPD1     C 3143   0.061   1.222  10.001  0.9074 -0.1022 -0.1859
  207MPD1    C1 3144   0.066   1.231  10.138  0.1446  1.0968  0.0500
  207MPD1    C2 3145   0.140   1.330  10.187  0.2740  0.2799  0.8546
  207MPD1    C3 3146   0.223   1.419  10.112  0.3474 -0.2203 -0.4178
  207MPD1    C4 3147   0.223   1.405   9.979  0.2490 -0.2608 -0.1132
  207MPD1    C5 3148   0.139   1.305   9.925  0.4840  0.0447 -0.4443
  207MPD1     H 3149   0.136   1.336  10.295  0.1710 -0.1865  0.8732
  207MPD1    H1 3150   0.282   1.472   9.917 -0.2311  0.1993 -0.0857
  207MPD1    H2 3151   0.016   1.140   9.947 -0.6994 -0.4490  1.6800
  207MPD1    H3 3152   0.135   1.279   9.820 -1.3896  1.7954 -0.7964
  207MPD1     N 3153   0.305   1.521  10.172  0.1948  0.5731  0.6908
  207MPD1    H5 3154   0.342   1.589  10.106  0.5637 -1.0232 -0.7461
  207MPD1    N1 3155   4.696   1.154  10.213 -0.0816 -1.3147 -0.4469
  207MPD1    H6 3156   4.719   1.144  10.312  0.9598  0.0532 -0.5331
  207MPD1    H7 3157   4.689   1.066  10.163  0.9092 -0.4204 -2.1849
  208MPD1     C 3158   3.327   1.638   1.018  0.7427  0.3803  0.4389
  208MPD1    C1 3159   3.211   1.630   1.094  0.6538  0.2936 -0.2941
  208MPD1    C2 3160   3.124   1.521   1.069 -0.2454 -0.5725  0.6677
  208MPD1    C3 3161   3.154   1.427   0.963 -0.2398 -0.3455  0.2654
  208MPD1    C4 3162   3.266   1.450   0.883  0.3671 -0.1854 -0.1429
  208MPD1    C5 3163   3.354   1.550   0.919  0.5048  0.1766 -0.0794
  208MPD1     H 3164   3.037   1.506   1.131 -3.2712  1.3562 -3.0973
  208MPD1    H1 3165   3.296   1.374   0.811  1.5399  0.3913 -0.2623
  208MPD1    H2 3166   3.404   1.710   1.043 -0.4407  2.2199 -1.3012
  208MPD1    H3 3167   3.443   1.569   0.861  1.4213 -0.3060  1.1624
  208MPD1     N 3168   3.069   1.310   0.947 -0.1959 -0.0608 -0.4626
  208MPD1    H5 3169   2.993   1.302   1.014  0.4686  0.6571  0.3810
  208MPD1    N1 3170   3.201   1.694   1.215  0.0011 -0.7536 -0.1280
  208MPD1    H6 3171   3.103   1.707   1.238 -0.0416  3.1334 -2.4799
  208MPD1    H7 3172   3.245   1.784   1.197 -0.0845 -0.1525  2.6225
  209MPD1     C 3173   0.500   2.162  11.672  1.2149  1.2115  0.0203
  209MPD1    C1 3174   0.474   2.106  11.551 -0.0541 -0.0786 -0.2129
  209MPD1    C2 3175   0.583   2.053  11.487  0.1746  0.3663  0.0540
  209MPD1    C3 3176   0.708   2.040  11.552 -0.5002  0.6115  0.4834
  209MPD1    C4 3177   0.729   2.090  11.684 -0.6691 -0.4296  0.1283
  209MPD1    C5 3178   0.621   2.158  11.735 -0.1234  0.4744  0.4106
  209MPD1     H 3179   0.573   2.018  11.384 -1.5732 -1.8418  0.9641
  209MPD1    H1 3180   0.826   2.079  11.731 -1.0447  0.9822  1.2089
  209MPD1    H2 3181   0.413   2.211  11.716  0.5584 -0.8962  1.0919
  209MPD1    H3 3182   0.635   2.196  11.836  1.9311 -0.5524  0.5138
  209MPD1     N 3183   0.804   1.957  11.485 -0.4689  0.1943 -0.0693
  209MPD1    H5 3184   0.778   1.900  11.406  2.3835  0.4839 -1.2072
  209MPD1    N1 3185   0.353   2.121  11.475 -0.6994 -0.0716 -0.0820
  209MPD1    H6 3186   0.266   2.104  11.525 -1.3170  0.7227 -0.8928
  209MPD1    H7 3187   0.346   2.067  11.390 -3.3774 -1.7064  1.1619
  210MPD1     C 3188   1.781   2.141  11.079  0.1963 -1.1726 -0.0583
  210MPD1    C1 3189   1.758   2.101  11.212 -0.3365 -0.9045 -0.4297
  210MPD1    C2 3190   1.643   2.033  11.247 -0.9553  0.5048 -0.7821
  210MPD1    C3 3191   1.537   2.027  11.153 -0.4889  0.2615  0.3887
  210MPD1    C4 3192   1.555   2.080  11.023  0.7027 -0.1514 -0.1799
  210MPD1    C5 3193   1.675   2.129  10.992  0.7376 -0.2117  0.7849
  210MPD1     H 3194   1.617   2.016  11.351  0.8714 -1.9393 -0.7277
  210MPD1    H1 3195   1.480   2.077  10.945  2.1361 -0.8408 -1.5361
  210MPD1    H2 3196   1.871   2.182  11.035  0.2596  0.4360  1.5672
  210MPD1    H3 3197   1.687   2.163  10.890 -1.8234  2.6354  1.4303
  210MPD1     N 3198   1.408   1.972  11.187 -0.4975  0.0820  0.1756
  210MPD1    H5 3199   1.344   1.985  11.109  0.1977  4.3355  0.3611
  210MPD1    N1 3200   1.866   2.108  11.298  0.2383  0.7721 -0.0303
  210MPD1    H6 3201   1.838   2.098  11.395  2.3692 -4.3204  0.0654
  210MPD1    H7 3202   1.909   2.198  11.275 -1.3080  1.1054 -1.6523
  211MPD1     C 3203   3.070   1.354  17.575  0.1946 -0.9909 -0.0749
  211MPD1    C1 3204   2.991   1.444  17.639  0.0191 -0.1965  0.7299
  211MPD1    C2 3205   2.885   1.500  17.574 -0.2472  0.1931  0.3281
  211MPD1    C3 3206   2.868   1.485  17.438  0.0117 -0.8839  0.5229
  211MPD1    C4 3207   2.963   1.409  17.365  0.0531  0.7355  0.4957
  211MPD1    C5 3208   3.060   1.344  17.438 -0.2593  0.3445 -0.2736
  211MPD1     H 3209   2.820   1.566  17.629 -0.2022 -0.5694  1.2991
  211MPD1    H1 3210   2.961   1.408  17.257  1.5896  2.8558  0.4567
  211MPD1    H2 3211   3.151   1.304  17.627 -0.0779 -0.1308  1.1804
  211MPD1    H3 3212   3.133   1.284  17.384 -0.9319 -1.1897  0.5336
  211MPD1     N 3213   2.760   1.559  17.384  0.7169  0.4955  0.5177
  211MPD1    H5 3214   2.702   1.613  17.448  0.9449 -2.1893  2.9963
  211MPD1    N1 3215   2.998   1.459   0.094  0.1963  0.1655 -0.5601
  211MPD1    H6 3216   2.957   1.549   0.119  0.5672 -0.1802  1.2782
  211MPD1    H7 3217   3.094   1.449   0.126  0.2719  2.5681 -0.0582
  212MPD1     C 3218   2.012   0.060  16.684  0.5823 -0.2337  0.3691
  212MPD1    C1 3219   1.995   0.111  16.810 -0.0491  0.2168 -0.6817
  212MPD1    C2 3220   1.905   0.048  16.896 -0.3667 -0.3601  0.1200
  212MPD1    C3 3221   1.854   4.638  16.870  0.0824  0.4219  0.3840
  212MPD1    C4 3222   1.885   4.584  16.743 -0.1550  0.2959  0.6746
  212MPD1    C5 3223   1.962   4.657  16.647  0.6269 -0.5550 -0.0456
  212MPD1     H 3224   1.884   0.100  16.989  2.0230  0.5991  0.1054
  212MPD1    H1 3225   1.851   4.487  16.710  2.3411  0.0193 -1.0204
  212MPD1    H2 3226   2.057   0.117  16.604 -2.1298  1.6632  0.2250
  212MPD1    H3 3227   1.978   4.619  16.547  0.1804 -2.0588  0.4462
  212MPD1     N 3228   1.776   4.561  16.960  0.1814 -0.3437 -0.0853
  212MPD1    H5 3229   1.772   4.463  16.935  0.7371 -0.7795  1.5022
  212MPD1    N1 3230   2.042   0.241  16.840 -0.5046  0.1962 -0.9262
  212MPD1    H6 3231   2.128   0.270  16.794  0.9337 -2.2903  0.2168
  212MPD1    H7 3232   2.048   0.278  16.935  1.2715 -1.1442 -0.5321
  213MPD1     C 3233   0.164   0.304  15.680 -0.1816 -0.2742 -0.2528
  213MPD1    C1 3234   0.199   0.393  15.577  0.4331 -0.2225 -0.5264
  213MPD1    C2 3235   0.088   0.416  15.491  0.1940  0.5668  0.7379
  213MPD1    C3 3236   4.678   0.382  15.530 -0.1608 -0.3049  0.0072
  213MPD1    C4 3237   4.654   0.321  15.650  0.2448  0.6841 -0.5469
  213MPD1    C5 3238   0.036   0.289  15.729 -0.1123  0.4416 -0.5925
  213MPD1     H 3239   0.109   0.466  15.397  2.9928 -0.5469  0.7709
  213MPD1    H1 3240   4.557   0.282  15.679 -0.5049  1.2581 -2.2413
  213MPD1    H2 3241   0.239   0.266  15.748  0.1659  0.4316 -0.2417
  213MPD1    H3 3242   0.022   0.215  15.807  2.5406 -1.2698 -1.7405
  213MPD1     N 3243   4.576   0.396  15.432 -0.2250  0.2465  0.8228
  213MPD1    H5 3244   4.605   0.439  15.344 -0.0062 -2.8864 -0.6187
  213MPD1    N1 3245   0.316   0.372  15.498 -0.3159 -0.2718 -0.1762
  213MPD1    H6 3246   0.400   0.385  15.554 -0.7242  0.0883  0.3487
  213MPD1    H7 3247   0.326   0.435  15.418 -1.4560 -0.0905 -0.1703
  214MPD1     C 3248   3.779   4.546  15.309 -0.5980 -0.0438 -0.1294
  214MPD1    C1 3249   3.787   4.618  15.194  0.5185  0.6356 -0.1014
  214MPD1    C2 3250   3.877   4.719  15.191 -0.6594 -0.1890  0.0600
  214MPD1    C3 3251   3.970   0.021  15.294 -0.5654 -0.3540 -0.3340
  214MPD1    C4 3252   3.975   4.655  15.399  0.1799  0.1522 -0.1534
  214MPD1    C5 3253   3.876   4.562  15.412  0.1360 -0.8343  0.0379
  214MPD1     H 3254   3.868   0.063  15.104  3.4650 -1.7447 -1.5274
  214MPD1    H1 3255   4.043   4.659  15.484  0.1652  1.7615 -0.2091
  214MPD1    H2 3256   3.702   4.473  15.333 -1.8816  1.6367  0.8116
  214MPD1    H3 3257   3.872   4.491  15.494  2.4658 -2.6631 -1.4500
  214MPD1     N 3258   4.057   0.135  15.300 -0.0755 -0.2285  0.0153
  214MPD1    H5 3259   4.129   0.139  15.372  1.1009  0.0699 -1.1689
  214MPD1    N1 3260   3.688   4.608  15.098 -0.3204  0.4654  0.6170
  214MPD1    H6 3261   3.651   4.514  15.089  1.4919 -0.2558  0.5800
  214MPD1    H7 3262   3.728   4.630  15.007 -0.7706  0.1157  0.3391
  215MPD1     C 3263   0.260   0.743  11.379 -0.3231 -0.0699 -0.3360
  215MPD1    C1 3264   0.290   0.781  11.508 -0.2368 -0.8395 -0.4035
  215MPD1    C2 3265   0.363   0.899  11.530 -0.5206  0.6811 -0.0240
  215MPD1    C3 3266   0.388   0.978  11.420 -0.3831 -0.3026 -0.2616
  215MPD1    C4 3267   0.339   0.939  11.293 -0.6702 -0.1945 -0.0371
  215MPD1    C5 3268   0.283   0.817  11.269 -0.2467  0.4101  0.4104
  215MPD1     H 3269   0.378   0.919  11.635  0.7618  2.4894 -0.5396
  215MPD1    H1 3270   0.350   0.999  11.203  1.5678 -0.2314  0.2130
  215MPD1    H2 3271   0.221   0.645  11.351 -0.2188 -0.6589  1.6098
  215MPD1    H3 3272   0.253   0.789  11.169 -0.9306 -0.4839  0.8588
  215MPD1     N 3273   0.470   1.091  11.444  0.1644  0.3872 -0.4020
  215MPD1    H5 3274   0.493   1.109  11.541 -1.1137 -1.1808  0.1822
  215MPD1    N1 3275   0.260   0.697  11.619 -0.2733  0.0256 -0.7540
  215MPD1    H6 3276   0.315   0.722  11.701 -1.3313 -0.4458  0.1032
  215MPD1    H7 3277   0.275   0.602  11.585  0.0524 -0.4996  0.8834
  216MPD1     C 3278   2.136   4.020  16.526 -0.6176  0.1370  0.0706
  216MPD1    C1 3279   2.183   3.887  16.521  0.5678 -0.6821 -0.3649
  216MPD1    C2 3280   2.228   3.834  16.635  0.7985  0.9534 -0.4300
  216MPD1    C3 3281   2.208   3.896  16.763 -0.2447 -0.4357  0.4604
  216MPD1    C4 3282   2.162   4.030  16.768  0.3382  0.0062  0.7525
  216MPD1    C5 3283   2.127   4.084  16.646  0.4664 -0.0118 -0.0436
  216MPD1     H 3284   2.277   3.738  16.630 -1.3025 -0.1405 -0.1953
  216MPD1    H1 3285   2.143   4.082  16.862  0.0602 -1.9122  1.7670
  216MPD1    H2 3286   2.104   4.068  16.435 -3.3013 -1.7994  0.0004
  216MPD1    H3 3287   2.090   4.186  16.647 -0.7466 -0.4574  0.2242
  216MPD1     N 3288   2.235   3.813  16.870  0.1039 -0.3087  0.0098
  216MPD1    H5 3289   2.260   3.716  16.852  1.6852  0.2824 -1.0101
  216MPD1    N1 3290   2.224   3.836  16.397  0.3024  0.4178  0.1048
  216MPD1    H6 3291   2.165   3.876  16.324  1.2516 -0.1729 -0.9927
  216MPD1    H7 3292   2.236   3.735  16.396  0.9540  0.4971  0.1371
  217MPD1     C 3293   2.376   0.417   8.405 -1.1286 -0.0549  0.4503
  217MPD1    C1 3294   2.501   0.475   8.435  0.0974 -0.7131 -0.4487
  217MPD1    C2 3295   2.540   0.476   8.560  0.3368  0.2544  0.3819
  217MPD1    C3 3296   2.467   0.412   8.666 -0.1762  0.2129 -0.2915
  217MPD1    C4 3297   2.338   0.364   8.642  0.3160  0.5007 -0.6023
  217MPD1    C5 3298   2.298   0.366   8.510  0.3657 -0.3876  0.4419
  217MPD1     H 3299   2.635   0.520   8.588  0.4535  0.9442 -1.1104
  217MPD1    H1 3300   2.271   0.323   8.716 -0.3465  0.1798 -1.3813
  217MPD1    H2 3301   2.327   0.416   8.309 -0.7918  2.3371  0.2491
  217MPD1    H3 3302   2.203   0.327   8.478  0.1915 -0.8500  1.5431
  217MPD1     N 3303   2.509   0.407   8.800 -0.2620 -0.4769 -0.5584
  217MPD1    H5 3304   2.444   0.350   8.853 -2.3273 -0.0298 -2.6197
  217MPD1    N1 3305   2.589   0.514   8.337 -0.0976 -0.0068  0.0673
  217MPD1    H6 3306   2.640   0.599   8.364 -0.5332  0.5773 -0.9361
  217MPD1    H7 3307   2.542   0.542   8.251 -1.6404  0.3717  1.0471
  218MPD1     C 3308   3.559   1.448  12.678 -0.1275  0.2243 -0.4726
  218MPD1    C1 3309   3.620   1.325  12.672 -0.3889 -0.1046  0.2622
  218MPD1    C2 3310   3.762   1.321  12.686  0.5869 -0.0755  0.5247
  218MPD1    C3 3311   3.833   1.434  12.730  0.4570  0.0272  0.6283
  218MPD1    C4 3312   3.756   1.551  12.742 -0.6015 -0.0009  0.1940
  218MPD1    C5 3313   3.626   1.552  12.714  0.8434  0.4316  0.1313
  218MPD1     H 3314   3.824   1.233  12.678 -0.6686 -0.7490 -1.8437
  218MPD1    H1 3315   3.803   1.645  12.771  2.1107 -0.9223 -1.2632
  218MPD1    H2 3316   3.454   1.461  12.657 -0.2975  0.7424  0.7369
  218MPD1    H3 3317   3.580   1.651  12.718  1.2756  0.7245 -2.4251
  218MPD1     N 3318   3.969   1.423  12.763 -0.0735 -0.1690  0.2916
  218MPD1    H5 3319   4.010   1.330  12.768 -1.2939 -0.7847 -1.4689
  218MPD1    N1 3320   3.551   1.218  12.609 -0.2602  0.1062  0.1642
  218MPD1    H6 3321   3.451   1.215  12.631 -0.3914  2.5813 -0.0715
  218MPD1    H7 3322   3.589   1.128  12.637 -1.0759 -0.3088 -0.0710
  219MPD1     C 3323   4.678   2.142  12.689 -0.4452  0.7436 -0.4881
  219MPD1    C1 3324   4.719   2.049  12.784 -0.7734  0.3629  0.2916
  219MPD1    C2 3325   4.661   1.924  12.774  0.0005 -0.1181 -1.0962
  219MPD1    C3 3326   4.556   1.896  12.676  0.0919  0.1996  0.2917
  219MPD1    C4 3327   4.505   1.997  12.611  0.6608 -0.2539  0.2440
  219MPD1    C5 3328   4.562   2.116  12.616  0.3459  0.0356  0.3639
  219MPD1     H 3329   4.701   1.843  12.832  2.8359  1.3732 -0.9792
  219MPD1    H1 3330   4.412   1.994  12.556  1.2792  0.9646 -0.8631
  219MPD1    H2 3331   0.004   2.238  12.672  0.1075  0.5915  0.2050
  219MPD1    H3 3332   4.514   2.186  12.549 -1.0339 -0.4436  0.8322
  219MPD1     N 3333   4.489   1.774  12.674  0.3382  0.1984  0.8369
  219MPD1    H5 3334   4.413   1.759  12.609  0.0489 -0.6853  1.3840
  219MPD1    N1 3335   0.119   2.063  12.846 -0.1468  0.3586  0.5374
  219MPD1    H6 3336   0.133   2.159  12.876  2.0293 -0.0691  0.8751
  219MPD1    H7 3337   0.128   2.006  12.930 -2.3131 -1.4460 -0.4500
  220MPD1     C 3338   0.088   2.463   9.985  0.0078 -0.2596  0.0973
  220MPD1    C1 3339   0.106   2.482  10.118  0.2601  0.2281 -0.4069
  220MPD1    C2 3340   0.121   2.381  10.213  0.5130 -0.9340  0.0629
  220MPD1    C3 3341   0.121   2.255  10.167 -0.4527 -0.0692 -0.2653
  220MPD1    C4 3342   0.109   2.233  10.030 -0.3310  0.3804 -0.2515
  220MPD1    C5 3343   0.096   2.334   9.944 -0.5994 -0.1518  0.1319
  220MPD1     H 3344   0.111   2.415  10.315 -2.9860 -0.8717 -0.2795
  220MPD1    H1 3345   0.129   2.136   9.986  0.2895  0.8465 -0.9919
  220MPD1    H2 3346   0.084   2.545   9.914  0.5194  1.3341  1.8793
  220MPD1    H3 3347   0.100   2.315   9.837  1.9791 -1.4728  0.4616
  220MPD1     N 3348   0.128   2.161  10.272 -0.1431 -0.1291 -0.5923
  220MPD1    H5 3349   0.118   2.203  10.364 -0.5299  0.7650 -1.0457
  220MPD1    N1 3350   0.096   2.613  10.160 -0.0917  0.0697  0.2571
  220MPD1    H6 3351   0.131   2.683  10.096  1.3430  1.5214  2.6205
  220MPD1    H7 3352   0.117   2.634  10.258  2.4305 -1.0869 -0.0434
  221MPD1     C 3353   2.214   0.877  17.079 -0.1053 -0.0675  0.1581
  221MPD1    C1 3354   2.084   0.874  17.041 -0.1135 -0.5960  0.2294
  221MPD1    C2 3355   2.043   0.827  16.920  0.0255 -0.1864  0.1602
  221MPD1    C3 3356   2.140   0.770  16.840  0.0917 -0.7832 -0.4782
  221MPD1    C4 3357   2.268   0.747  16.889  0.4573  0.5345  0.3279
  221MPD1    C5 3358   2.307   0.807  17.010  0.6051 -0.8418  0.3491
  221MPD1     H 3359   1.939   0.839  16.890  0.6158  1.7711 -1.0679
  221MPD1    H1 3360   2.333   0.683  16.830  0.1079  0.6439 -0.1696
  221MPD1    H2 3361   2.245   0.918  17.175  1.5769 -0.3433 -0.2693
  221MPD1    H3 3362   2.408   0.788  17.044  0.9548  1.6421  0.7004
  221MPD1     N 3363   2.104   0.714  16.719  0.0185 -0.0905 -0.2503
  221MPD1    H5 3364   2.179   0.687  16.657  1.6265  0.4335  1.5012
  221MPD1    N1 3365   1.996   0.945  17.119 -0.6373  0.5678 -0.5471
  221MPD1    H6 3366   2.040   0.923  17.208 -0.6173  0.1021 -0.6743
  221MPD1    H7 3367   1.902   0.907  17.118  0.6042 -2.4904 -0.8099
  222MPD1     C 3368   2.248   4.305  17.157 -0.1304  0.1177  0.0215
  222MPD1    C1 3369   2.225   4.430  17.209 -0.1546 -0.0273  0.0134
  222MPD1    C2 3370   2.265   4.456  17.339  0.8512  0.0602 -0.3890
  222MPD1    C3 3371   2.336   4.357  17.408 -0.0413  0.0705 -0.6086
  222MPD1    C4 3372   2.357   4.234  17.353  0.5671 -0.6773  0.3720
  222MPD1    C5 3373   2.315   4.208  17.226  0.1938  0.3073 -0.4099
  222MPD1     H 3374   2.256   4.555  17.383  0.0253  0.4401 -1.4333
  222MPD1    H1 3375   2.418   4.172  17.418 -1.4573 -2.7832  0.2364
  222MPD1    H2 3376   2.216   4.283  17.056 -2.6428  0.1572  0.8259
  222MPD1    H3 3377   2.317   4.113  17.175 -1.2785 -0.3282  0.7048
  222MPD1     N 3378   2.380   4.371  17.539  0.0947 -0.1138 -0.6627
  222MPD1    H5 3379   2.397   4.281  17.585  1.5401  1.3904  1.7492
  222MPD1    N1 3380   2.140   4.522  17.138  0.5863  0.8610 -0.1265
  222MPD1    H6 3381   2.164   4.616  17.168  0.1744  0.5050  1.2785
  222MPD1    H7 3382   2.150   4.508  17.037 -0.9239  1.8929 -0.4012
  223MPD1     C 3383   2.045   3.997   0.717  0.1523 -0.1591  0.7359
  223MPD1    C1 3384   2.137   4.086   0.766 -0.0468 -0.0661 -0.2952
  223MPD1    C2 3385   2.205   4.175   0.675  0.0849  0.9934  0.3019
  223MPD1    C3 3386   2.188   4.154   0.538  0.3274 -0.3348  0.9819
  223MPD1    C4 3387   2.105   4.052   0.498 -0.6231  0.3508  0.0031
  223MPD1    C5 3388   2.032   3.974   0.588 -0.1737  0.2236 -0.2650
  223MPD1     H 3389   2.265   4.255   0.716  2.5168 -0.0503 -1.2456
  223MPD1    H1 3390   2.095   4.019   0.395 -1.6826  0.4474  0.0832
  223MPD1    H2 3391   1.989   3.932   0.784 -1.0046 -0.5429 -0.5978
  223MPD1    H3 3392   1.964   3.898   0.552  0.1499 -0.3940  0.4298
  223MPD1     N 3393   2.261   4.249   0.460  0.4975  0.3988 -0.2400
  223MPD1    H5 3394   2.309   4.325   0.505 -0.0315  0.3397  0.4252
  223MPD1    N1 3395   2.136   4.104   0.906  0.3162  0.0114  0.7477
  223MPD1    H6 3396   2.226   4.144   0.931  0.5575  0.0244 -0.1408
  223MPD1    H7 3397   2.113   4.025   0.966  2.4019 -0.2774  1.1809
  224MPD1     C 3398   2.626   0.906   9.331  0.1761  0.2989 -0.4383
  224MPD1    C1 3399   2.570   1.018   9.403 -0.3423  0.8356 -0.3990
  224MPD1    C2 3400   2.616   1.050   9.531  0.1886  0.0624  0.1837
  224MPD1    C3 3401   2.706   0.967   9.588 -0.6444 -0.3205  0.0079
  224MPD1    C4 3402   2.747   0.855   9.520  0.1395 -0.7017  0.2257
  224MPD1    C5 3403   2.710   0.826   9.392 -0.9772  0.3174 -0.1374
  224MPD1     H 3404   2.580   1.139   9.582 -0.0187 -0.9261  1.7931
  224MPD1    H1 3405   2.821   0.791   9.567 -1.3739 -0.1566  3.3048
  224MPD1    H2 3406   2.597   0.877   9.231  1.6354 -1.3104 -0.3880
  224MPD1    H3 3407   2.747   0.742   9.335  1.6594  0.1932  1.7702
  224MPD1     N 3408   2.764   0.989   9.714 -0.2285 -0.3950  0.3368
  224MPD1    H5 3409   2.822   0.912   9.746 -1.0660 -2.2969 -2.6680
  224MPD1    N1 3410   2.493   1.109   9.335  0.0006  0.2372  0.1930
  224MPD1    H6 3411   2.429   1.063   9.270 -0.1548 -2.1543  2.0374
  224MPD1    H7 3412   2.441   1.165   9.403 -1.5865  0.2266 -0.9883
  225MPD1     C 3413   0.292   2.640  12.128 -0.3213  0.7906 -0.9075
  225MPD1    C1 3414   0.242   2.669  12.008  0.0754 -1.0906  0.0011
  225MPD1    C2 3415   0.107   2.672  11.985 -0.5122  0.1313  0.1956
  225MPD1    C3 3416   0.020   2.684  12.098 -0.0539  0.1201  0.1362
  225MPD1    C4 3417   0.073   2.678  12.224 -0.2204  0.0782 -0.1905
  225MPD1    C5 3418   0.203   2.651  12.238 -0.0376  0.4420  0.6079
  225MPD1     H 3419   0.070   2.690  11.885 -0.2296 -0.4734 -0.0193
  225MPD1    H1 3420   0.010   2.686  12.311  1.9951  0.5469  1.3710
  225MPD1    H2 3421   0.399   2.626  12.142 -0.7101  0.3742  1.6138
  225MPD1    H3 3422   0.243   2.641  12.338 -0.5137 -0.2544  0.7247
  225MPD1     N 3423   4.601   2.712  12.086 -0.3354 -0.3379  0.0536
  225MPD1    H5 3424   4.546   2.723  12.171 -0.8381  1.3885 -0.4842
  225MPD1    N1 3425   0.339   2.681  11.906  0.0570  0.4962  0.1478
  225MPD1    H6 3426   0.311   2.749  11.835 -0.8743  0.7892  0.8082
  225MPD1    H7 3427   0.427   2.713  11.947  0.3806 -2.9646  2.0948
  226MPD1     C 3428   1.857   1.971   9.020 -0.0209  0.8543  0.6232
  226MPD1    C1 3429   1.917   1.860   9.073 -1.1348  0.0332 -0.1019
  226MPD1    C2 3430   2.047   1.864   9.106 -1.3673 -0.3174 -0.1841
  226MPD1    C3 3431   2.124   1.974   9.087 -0.0701 -0.4123 -0.0219
  226MPD1    C4 3432   2.054   2.089   9.041 -0.4256  0.3743 -0.8015
  226MPD1    C5 3433   1.924   2.092   9.017  0.0988  0.0738 -0.3501
  226MPD1     H 3434   2.095   1.781   9.158 -0.7800 -0.5938 -1.1700
  226MPD1    H1 3435   2.108   2.182   9.026  0.6838  0.1776  1.8427
  226MPD1    H2 3436   1.758   1.977   8.976 -0.2299 -0.6398  0.8855
  226MPD1    H3 3437   1.883   2.180   8.969  3.0727  1.9232  0.4869
  226MPD1     N 3438   2.263   1.972   9.114  0.1807 -0.0182 -0.1607
  226MPD1    H5 3439   2.309   1.883   9.131  1.5778  0.5820 -0.8564
  226MPD1    N1 3440   1.843   1.743   9.083  0.5507 -0.0392  0.4060
  226MPD1    H6 3441   1.878   1.683   9.158 -0.6505 -1.3818 -0.1140
  226MPD1    H7 3442   1.742   1.754   9.089  0.8529  1.2082  3.4983
  227MPD1     C 3443   3.218   2.502   9.211  0.4700  0.0110  0.0654
  227MPD1    C1 3444   3.249   2.365   9.233  0.2255  0.4157  0.5113
  227MPD1    C2 3445   3.147   2.272   9.213  0.0406 -1.2877 -0.3754
  227MPD1    C3 3446   3.020   2.316   9.183  0.5419 -0.1177  0.6830
  227MPD1    C4 3447   2.992   2.450   9.172 -0.5305  0.0257 -0.0888
  227MPD1    C5 3448   3.089   2.541   9.184 -0.1402 -0.1019  0.4740
  227MPD1     H 3449   3.161   2.165   9.220  1.2764 -1.0979 -0.0101
  227MPD1    H1 3450   2.890   2.480   9.157 -0.7269 -0.7068 -0.2175
  227MPD1    H2 3451   3.293   2.581   9.204 -1.9530  2.2755 -0.3356
  227MPD1    H3 3452   3.067   2.647   9.174 -1.6512 -0.4464  0.1587
  227MPD1     N 3453   2.913   2.223   9.186  0.2391 -0.3803  0.1043
  227MPD1    H5 3454   2.947   2.130   9.207 -0.9932 -0.2781  2.5398
  227MPD1    N1 3455   3.380   2.319   9.242  0.3997  0.0538  0.2031
  227MPD1    H6 3456   3.373   2.263   9.327 -0.6906  3.8993  2.6705
  227MPD1    H7 3457   3.444   2.395   9.266 -0.5379  1.1732 -0.8609
  228MPD1     C 3458   1.230   0.296  12.845 -0.2174  0.2317 -0.4686
  228MPD1    C1 3459   1.114   0.349  12.790 -0.3243  0.2285 -0.0017
  228MPD1    C2 3460   0.994   0.322  12.854 -0.3977 -0.3425  0.0787
  228MPD1    C3 3461   0.998   0.241  12.974  0.3192 -0.6233 -0.1138
  228MPD1    C4 3462   1.119   0.201  13.023  0.2734  0.2384  0.3184
  228MPD1    C5 3463   1.230   0.228  12.961  0.6508  0.0338 -0.1557
  228MPD1     H 3464   0.900   0.367  12.827 -0.7160 -0.9778  0.1253
  228MPD1    H1 3465   1.143   0.140  13.109 -0.7128 -1.1198 -0.3821
  228MPD1    H2 3466   1.326   0.322  12.802  0.0588  1.2182  0.7452
  228MPD1    H3 3467   1.326   0.206  13.005  1.1174  0.0445 -1.1868
  228MPD1     N 3468   0.874   0.197  13.037 -0.5339  0.3066 -0.3496
  228MPD1    H5 3469   0.788   0.210  12.985 -0.0460 -0.8373 -1.4279
  228MPD1    N1 3470   1.110   0.454  12.697  0.3864  0.2586 -0.4215
  228MPD1    H6 3471   1.196   0.462  12.644 -0.2654  0.8937 -1.3771
  228MPD1    H7 3472   1.035   0.447  12.628  1.1996  3.2109 -1.5837
  229MPD1     C 3473   0.558   3.692  15.553  0.2201  0.4861  0.1630
  229MPD1    C1 3474   0.573   3.659  15.680  0.4251 -1.0896 -0.0346
  229MPD1    C2 3475   0.639   3.543  15.710 -0.2411  0.2615 -0.1187
  229MPD1    C3 3476   0.691   3.461  15.609 -0.0579  0.4664 -0.1494
  229MPD1    C4 3477   0.689   3.513  15.482 -0.7120  0.3963 -0.2383
  229MPD1    C5 3478   0.620   3.625  15.454  0.1964  0.0023 -0.6369
  229MPD1     H 3479   0.645   3.533  15.818 -0.5788  0.4931 -0.0783
  229MPD1    H1 3480   0.743   3.465  15.402  0.9745  0.1755  1.0434
  229MPD1    H2 3481   0.516   3.789  15.529 -1.8816 -0.5932 -0.4904
  229MPD1    H3 3482   0.622   3.666  15.353  3.7122 -1.4501 -1.1294
  229MPD1     N 3483   0.768   3.339  15.626 -0.0939 -0.1426 -0.1419
  229MPD1    H5 3484   0.817   3.307  15.543 -1.2306  0.8090 -1.1900
  229MPD1    N1 3485   0.512   3.742  15.775 -0.4815  0.0773 -0.3194
  229MPD1    H6 3486   0.519   3.842  15.759 -0.6398  0.2297  0.5557
  229MPD1    H7 3487   0.545   3.724  15.870 -1.3473 -0.5236 -0.1269
  230MPD1     C 3488   1.395   2.816  16.343 -0.2792  0.1717  0.0794
  230MPD1    C1 3489   1.465   2.814  16.230  0.1916 -0.8389 -0.0911
  230MPD1    C2 3490   1.405   2.858  16.114 -0.6440  0.3929  0.1078
  230MPD1    C3 3491   1.274   2.912  16.113  0.0710 -0.2176 -0.4301
  230MPD1    C4 3492   1.218   2.926  16.234 -0.1257 -0.3048 -0.4689
  230MPD1    C5 3493   1.273   2.875  16.348  1.0320 -0.3659 -0.2220
  230MPD1     H 3494   1.456   2.843  16.019  0.2617 -1.4789  0.8845
  230MPD1    H1 3495   1.117   2.958  16.255 -1.0326 -3.4954 -0.0736
  230MPD1    H2 3496   1.433   2.774  16.436 -0.5857 -0.6208 -0.1506
  230MPD1    H3 3497   1.215   2.868  16.439 -1.5655  2.5476 -1.6654
  230MPD1     N 3498   1.214   2.957  15.994  0.1126  0.5967 -0.4323
  230MPD1    H5 3499   1.266   2.930  15.911  2.2864  0.6363  0.9341
  230MPD1    N1 3500   1.582   2.743  16.224  1.2911  0.2359 -0.0848
  230MPD1    H6 3501   1.645   2.772  16.150  2.0662 -0.2187  0.3978
  230MPD1    H7 3502   1.624   2.750  16.316 -2.1259  1.0752  1.4036
  231MPD1     C 3503   3.850   0.468  15.431  0.6952 -0.0995 -0.0890
  231MPD1    C1 3504   3.785   0.537  15.329 -0.0988  0.7764  0.8099
  231MPD1    C2 3505   3.841   0.644  15.259  0.1223  0.3494 -0.9152
  231MPD1    C3 3506   3.957   0.696  15.303  0.0172  0.4578 -0.0108
  231MPD1    C4 3507   4.028   0.646  15.410  0.1964  0.7398 -0.4969
  231MPD1    C5 3508   3.974   0.524  15.461 -0.2220  0.1414  0.0197
  231MPD1     H 3509   3.770   0.687  15.189 -0.0723  1.3981 -0.0749
  231MPD1    H1 3510   4.118   0.693  15.448  0.2653 -0.4653  0.8520
  231MPD1    H2 3511   3.806   0.394  15.497  1.2610  1.0385  1.5696
  231MPD1    H3 3512   4.026   0.483  15.546 -1.9640 -3.0893 -0.4676
  231MPD1     N 3513   4.006   0.798  15.217 -0.4578  0.2643  0.3016
  231MPD1    H5 3514   3.936   0.818  15.146 -0.9034  0.7118  0.8691
  231MPD1    N1 3515   3.657   0.490  15.294  0.1939  0.2854  0.0102
  231MPD1    H6 3516   3.606   0.453  15.374  2.6944  0.2249  1.6080
  231MPD1    H7 3517   3.600   0.557  15.242  0.5960 -0.2410 -1.1097
  232MPD1     C 3518   3.842   3.515   1.837 -0.4388  0.5715 -0.3251
  232MPD1    C1 3519   3.865   3.392   1.785  0.8290 -0.5232 -0.1116
  232MPD1    C2 3520   4.002   3.363   1.772  0.0545  0.1509  0.9148
  232MPD1    C3 3521   4.099   3.461   1.784  0.2833 -0.1812  0.3220
  232MPD1    C4 3522   4.068   3.578   1.848 -0.0943 -0.1756 -0.0625
  232MPD1    C5 3523   3.938   3.606   1.873  0.2824  1.0076 -0.4431
  232MPD1     H 3524   4.038   3.268   1.732  0.7330  0.6300  0.3919
  232MPD1    H1 3525   4.143   3.645   1.889  0.6800 -2.6555  2.5462
  232MPD1    H2 3526   3.743   3.556   1.855 -1.5420 -2.2365 -0.0064
  232MPD1    H3 3527   3.912   3.701   1.920  0.9390  0.3811  1.1727
  232MPD1     N 3528   4.238   3.431   1.755  0.1017  0.0328 -0.1708
  232MPD1    H5 3529   4.261   3.341   1.712 -0.9883  0.3308 -1.3684
  232MPD1    N1 3530   3.759   3.297   1.806 -0.3133 -0.5546  0.9096
  232MPD1    H6 3531   3.667   3.327   1.777 -0.7400 -1.5213  1.2669
  232MPD1    H7 3532   3.782   3.207   1.764  0.0544 -0.3828  0.7381
  233MPD1     C 3533   1.632   0.972   2.727 -0.1923  0.8362  0.8664
  233MPD1    C1 3534   1.722   1.072   2.700  0.0227 -0.7100  0.4658
  233MPD1    C2 3535   1.857   1.039   2.686  0.1547  0.4630 -0.7305
  233MPD1    C3 3536   1.887   0.906   2.688 -0.4434  0.2274  0.8660
  233MPD1    C4 3537   1.794   0.810   2.708  0.3190 -0.2990 -0.2597
  233MPD1    C5 3538   1.665   0.839   2.729  0.4072  1.0452  0.4536
  233MPD1     H 3539   1.931   1.113   2.659 -0.3442  0.0340 -3.2359
  233MPD1    H1 3540   1.826   0.707   2.716  0.6057 -0.0219  2.2368
  233MPD1    H2 3541   1.526   0.996   2.737 -0.1760  1.3074 -0.1616
  233MPD1    H3 3542   1.593   0.757   2.733  0.0848  1.2077 -2.5282
  233MPD1     N 3543   2.018   0.862   2.660  0.0113  0.4685 -0.6787
  233MPD1    H5 3544   2.033   0.766   2.632 -0.7927  0.5759 -1.4547
  233MPD1    N1 3545   1.688   1.209   2.713  0.8817 -0.2173 -0.4053
  233MPD1    H6 3546   1.744   1.263   2.647  0.8520 -1.4485 -1.4286
  233MPD1    H7 3547   1.594   1.222   2.675  0.7247 -0.9359 -0.2569
  234MPD1     C 3548   3.882   4.311   9.608  0.5910 -0.4931 -0.6469
  234MPD1    C1 3549   3.833   4.396   9.512 -0.4054 -0.2901  0.1586
  234MPD1    C2 3550   3.767   4.515   9.557  0.7277 -0.3712  0.0939
  234MPD1    C3 3551   3.751   4.545   9.688 -0.1956  0.3733  0.4555
  234MPD1    C4 3552   3.804   4.457   9.782 -0.1358  0.1890 -0.6277
  234MPD1    C5 3553   3.871   4.351   9.741 -0.4819 -0.2746 -0.0648
  234MPD1     H 3554   3.732   4.582   9.478 -1.9296  1.7209  3.0512
  234MPD1    H1 3555   3.820   4.488   9.885  0.8308 -0.5089 -0.5593
  234MPD1    H2 3556   3.930   4.217   9.583  1.4027 -0.3488  0.3391
  234MPD1    H3 3557   3.906   4.282   9.816  1.2072 -1.0058 -1.5275
  234MPD1     N 3558   3.702   4.674   9.720 -0.0658 -0.0017 -0.5186
  234MPD1    H5 3559   3.663   0.020   9.654  1.8651 -0.2611 -1.9137
  234MPD1    N1 3560   3.857   4.367   9.382 -0.2443  0.4151 -0.0742
  234MPD1    H6 3561   3.799   4.419   9.316 -0.2453 -1.0508 -1.2285
  234MPD1    H7 3562   3.838   4.270   9.356 -0.5918  0.3790  0.3133
  235MPD1     C 3563   0.893   2.787  11.328  0.2576 -0.3719 -0.5046
  235MPD1    C1 3564   0.867   2.867  11.220 -0.6133  0.0585 -0.6099
  235MPD1    C2 3565   0.888   2.809  11.096  0.2526  0.0656  0.3415
  235MPD1    C3 3566   0.948   2.691  11.081  0.5555 -0.1243  0.4922
  235MPD1    C4 3567   0.988   2.620  11.191  1.1044 -0.3987 -0.1605
  235MPD1    C5 3568   0.943   2.666  11.311 -0.9763  0.2988 -0.2921
  235MPD1     H 3569   0.859   2.871  11.012  3.0828 -1.2277 -1.6065
  235MPD1    H1 3570   1.041   2.526  11.185 -1.5152 -1.9172  0.5875
  235MPD1    H2 3571   0.872   2.818  11.429 -0.9346 -1.9595 -0.2546
  235MPD1    H3 3572   0.985   2.608  11.392 -0.2477  2.2312  0.7182
  235MPD1     N 3573   0.970   2.645  10.949  0.5638  0.0815  0.3201
  235MPD1    H5 3574   0.932   2.706  10.878  0.3699  1.3562  1.5075
  235MPD1    N1 3575   0.794   2.984  11.254 -0.0860 -0.1677 -0.5734
  235MPD1    H6 3576   0.792   3.050  11.177 -1.8178 -1.4800 -1.6539
  235MPD1    H7 3577   0.697   2.958  11.271 -0.7038  2.4982  0.0278
  236MPD1     C 3578   4.664   4.203  10.676  0.3401  0.7933  0.0837
  236MPD1    C1 3579   4.626   4.139  10.562 -0.5750 -0.5130 -0.1703
  236MPD1    C2 3580   4.694   4.032  10.514 -1.1322 -0.7825  0.2249
  236MPD1    C3 3581   0.088   3.987  10.568  0.0302 -0.4317 -0.1543
  236MPD1    C4 3582   0.121   4.047  10.689 -0.5318 -0.3360  0.6499
  236MPD1    C5 3583   0.058   4.159  10.736  0.0152 -0.1058 -0.1266
  236MPD1     H 3584   4.656   3.995  10.419 -0.1190 -0.0682 -0.4645
  236MPD1    H1 3585   0.217   4.019  10.733  0.2087  1.4665  0.1993
  236MPD1    H2 3586   4.604   4.285  10.711  1.7311  0.6831  2.7115
  236MPD1    H3 3587   0.111   4.208  10.817 -0.4129  1.7356 -0.9454
  236MPD1     N 3588   0.164   3.880  10.516 -0.1469  0.0708 -0.0502
  236MPD1    H5 3589   0.238   3.843  10.576  0.8793 -0.2395 -1.5059
  236MPD1    N1 3590   4.505   4.175  10.509 -0.5040 -0.3044 -0.1686
  236MPD1    H6 3591   4.478   4.271  10.532 -3.6138 -1.6458  1.7488
  236MPD1    H7 3592   4.503   4.158  10.408 -1.3903  0.8047 -0.3429
  237MPD1     C 3593   3.491   3.202  15.526  0.5499 -0.2735 -0.1545
  237MPD1    C1 3594   3.417   3.111  15.601 -0.1759 -0.0440 -0.4166
  237MPD1    C2 3595   3.432   2.982  15.571 -0.5970 -0.5483 -0.6286
  237MPD1    C3 3596   3.494   2.934  15.458  0.5754 -0.2022 -0.2026
  237MPD1    C4 3597   3.567   3.026  15.381  1.2199 -0.0915 -0.2173
  237MPD1    C5 3598   3.569   3.156  15.417  0.6194  0.5433 -0.4559
  237MPD1     H 3599   3.388   2.915  15.644 -2.2680  2.4690  1.1165
  237MPD1    H1 3600   3.617   3.004  15.288  0.9396 -1.7709  0.0192
  237MPD1    H2 3601   3.514   3.305  15.552 -2.2137  0.3664 -0.3080
  237MPD1    H3 3602   3.638   3.219  15.362  2.1100 -3.0094 -2.6516
  237MPD1     N 3603   3.501   2.796  15.432 -0.4899  0.7541  0.2104
  237MPD1    H5 3604   3.533   2.774  15.339 -0.4940  1.8732 -0.0502
  237MPD1    N1 3605   3.350   3.145  15.718  0.5377  0.7362 -0.0578
  237MPD1    H6 3606   3.264   3.091  15.732  1.6532 -0.3227  2.7531
  237MPD1    H7 3607   3.312   3.237  15.697  0.0224  0.1305 -1.8105
  238MPD1     C 3608   1.542   0.418  14.943  0.4810  0.2395  0.2218
  238MPD1    C1 3609   1.510   0.298  15.017  0.8769  0.1542  0.5140
  238MPD1    C2 3610   1.386   0.251  14.994  0.1416  0.4010 -0.3250
  238MPD1    C3 3611   1.283   0.323  14.941 -0.4297  0.0042  0.2924
  238MPD1    C4 3612   1.318   0.438  14.877 -0.3316  0.0541  0.0563
  238MPD1    C5 3613   1.445   0.485  14.873  0.1201  0.1447  0.0873
  238MPD1     H 3614   1.365   0.153  15.037 -3.4839  0.7877 -1.1643
  238MPD1    H1 3615   1.246   0.488  14.813 -0.2113  1.1391  0.7638
  238MPD1    H2 3616   1.645   0.452  14.938  0.7764 -0.6256  0.3372
  238MPD1    H3 3617   1.472   0.574  14.818  0.4646  1.1907  1.9582
  238MPD1     N 3618   1.145   0.286  14.941  0.1314  0.0475 -0.1096
  238MPD1    H5 3619   1.089   0.357  14.895 -0.8419  0.0769  1.1359
  238MPD1    N1 3620   1.609   0.222  15.081  0.9464  0.5270  0.7355
  238MPD1    H6 3621   1.661   0.294  15.132  2.1835 -0.9716  1.5950
  238MPD1    H7 3622   1.560   0.158  15.144  3.9933 -0.9811  1.5708
  239MPD1     C 3623   1.045   1.424  15.234  0.1585  0.5096 -0.6015
  239MPD1    C1 3624   1.048   1.354  15.115  0.0906 -0.4435 -0.7638
  239MPD1    C2 3625   1.040   1.418  14.988 -0.7100 -0.5815  0.6295
  239MPD1    C3 3626   1.061   1.554  14.993 -0.8957  0.7194  0.2798
  239MPD1    C4 3627   1.074   1.622  15.112  0.6872 -0.3170  0.6643
  239MPD1    C5 3628   1.056   1.560  15.234 -0.0361 -0.8763  0.3214
  239MPD1     H 3629   1.016   1.375  14.891  1.2246 -1.4460  0.5309
  239MPD1    H1 3630   1.090   1.729  15.102  3.4596 -0.9165 -1.1748
  239MPD1    H2 3631   1.041   1.373  15.329 -1.5277 -1.2569 -1.6323
  239MPD1    H3 3632   1.060   1.611  15.330 -2.2233 -0.8792  0.4327
  239MPD1     N 3633   1.068   1.643  14.880 -0.0726 -0.2412  0.4074
  239MPD1    H5 3634   1.056   1.743  14.892  0.8143  0.0387 -0.9822
  239MPD1    N1 3635   1.043   1.215  15.134 -0.3267  0.9119 -0.0763
  239MPD1    H6 3636   1.106   1.187  15.209 -0.7865  3.7806  1.3862
  239MPD1    H7 3637   1.082   1.170  15.052 -0.8352 -0.6753  0.5457
  240MPD1     C 3638   0.687   1.126  14.192 -0.2372 -0.0216  0.4940
  240MPD1    C1 3639   0.553   1.136  14.190  0.0092 -0.3401  0.0693
  240MPD1    C2 3640   0.485   1.097  14.306  0.3143 -0.5080  0.4680
  240MPD1    C3 3641   0.559   1.039  14.402  0.7894  0.3182  0.3910
  240MPD1    C4 3642   0.690   1.026  14.406  0.4371  0.3611 -0.4542
  240MPD1    C5 3643   0.754   1.072  14.298  0.5327  0.3336 -0.0027
  240MPD1     H 3644   0.377   1.103  14.317  0.4049  0.5046  0.8045
  240MPD1    H1 3645   0.740   0.987  14.494  3.1555  0.3312 -2.0165
  240MPD1    H2 3646   0.754   1.161  14.114 -2.4547  1.4901 -0.7386
  240MPD1    H3 3647   0.862   1.083  14.301  0.6857 -1.2166  0.1506
  240MPD1     N 3648   0.476   1.004  14.514  0.1335 -0.3680  0.6152
  240MPD1    H5 3649   0.379   1.024  14.492  0.2104  1.0177  1.5404
  240MPD1    N1 3650   0.487   1.208  14.092  0.0410 -0.8970 -0.3852
  240MPD1    H6 3651   0.532   1.188  14.003  1.1432 -0.5677  0.0963
  240MPD1    H7 3652   0.387   1.192  14.086  0.2611 -1.6553 -1.8903
  241MPD1     C 3653   0.370   1.284  15.426  0.1849 -0.5163 -0.0967
  241MPD1    C1 3654   0.342   1.149  15.437 -0.4207 -0.0697  0.6111
  241MPD1    C2 3655   0.326   1.081  15.318 -0.3150  0.2138 -0.4237
  241MPD1    C3 3656   0.344   1.131  15.196  0.2720  0.2572 -0.2973
  241MPD1    C4 3657   0.362   1.268  15.189  0.5936  0.3161  0.4907
  241MPD1    C5 3658   0.373   1.339  15.304  0.7296 -0.4302  0.4278
  241MPD1     H 3659   0.309   0.974  15.321  1.6588 -0.0300  1.2167
  241MPD1    H1 3660   0.388   1.319  15.097 -1.8316 -1.5969 -1.2738
  241MPD1    H2 3661   0.384   1.341  15.518  0.9070  0.3148 -0.7170
  241MPD1    H3 3662   0.397   1.442  15.280 -0.1324 -0.1262  0.8747
  241MPD1     N 3663   0.342   1.056  15.074  0.0240 -0.1068  0.0457
  241MPD1    H5 3664   0.368   1.108  14.991 -2.2000 -1.0904 -1.2996
  241MPD1    N1 3665   0.360   1.084  15.558 -0.1191  0.8600 -0.1669
  241MPD1    H6 3666   0.317   1.136  15.634  1.2275  0.8457  0.5959
  241MPD1    H7 3667   0.322   0.989  15.560  1.3668  0.2230 -2.1100
  242MPD1     C 3668   0.277   0.014  16.217 -0.3672  0.0731  0.0542
  242MPD1    C1 3669   0.410   4.687  16.247  0.6493 -0.1103 -0.0158
  242MPD1    C2 3670   0.438   4.585  16.159 -0.1915  0.1253  0.2918
  242MPD1    C3 3671   0.355   4.542  16.055 -0.0811  0.7076  0.3692
  242MPD1    C4 3672   0.229   4.589  16.042  0.3813  0.1151 -0.1971
  242MPD1    C5 3673   0.191   4.686  16.128  0.3511 -0.2265 -0.0706
  242MPD1     H 3674   0.538   4.544  16.161  0.5084  1.7405 -2.5694
  242MPD1    H1 3675   0.158   4.552  15.969 -1.9293  4.6203 -0.2378
  242MPD1    H2 3676   0.234   0.089  16.282 -2.3455 -1.2130  0.2023
  242MPD1    H3 3677   0.092   0.007  16.115  0.8698  1.8112  2.5801
  242MPD1     N 3678   0.394   4.448  15.958 -0.3694 -0.2630 -0.4180
  242MPD1    H5 3679   0.331   4.448  15.878 -1.8087 -1.3282  0.7147
  242MPD1    N1 3680   0.484   0.004  16.358  0.2559 -0.2041 -0.1525
  242MPD1    H6 3681   0.583   0.011  16.339  0.3134 -1.0858 -0.1572
  242MPD1    H7 3682   0.458   0.092  16.402  0.2995  0.2983 -1.1507
  243MPD1     C 3683   1.719   2.460  17.619  0.1958  0.7063  0.0841
  243MPD1    C1 3684   1.701   2.499  17.486 -0.1165 -0.3858 -0.1194
  243MPD1    C2 3685   1.784   2.454  17.392 -0.1156 -0.4930 -0.0816
  243MPD1    C3 3686   1.880   2.352  17.415  0.0406 -0.1708 -0.1067
  243MPD1    C4 3687   1.882   2.306  17.549 -0.8027  0.2551 -0.2371
  243MPD1    C5 3688   1.806   2.361  17.648  0.6059 -0.7654 -0.8292
  243MPD1     H 3689   1.777   2.492  17.291 -2.4152 -0.6940  0.0125
  243MPD1    H1 3690   1.953   2.237  17.594 -2.6461 -0.0866  2.1523
  243MPD1    H2 3691   1.683   2.522   0.014 -1.3203 -0.8420  0.6110
  243MPD1    H3 3692   1.839   2.352   0.065 -0.9923  0.3639 -0.2154
  243MPD1     N 3693   1.968   2.306  17.316  0.3580  0.5774  0.0030
  243MPD1    H5 3694   1.964   2.347  17.223 -1.2195  1.7387  0.5809
  243MPD1    N1 3695   1.612   2.609  17.464  0.5429 -0.0398 -0.6998
  243MPD1    H6 3696   1.600   2.624  17.364  0.6675  2.6854 -0.3085
  243MPD1    H7 3697   1.661   2.694  17.490  0.2790  0.2107 -1.0144
  244MPD1     C 3698   2.915   1.852  17.321  0.0635 -0.2217  0.5014
  244MPD1    C1 3699   2.872   1.944  17.422  0.0813 -1.1266 -0.2133
  244MPD1    C2 3700   2.747   1.999  17.399 -0.2903 -0.0446 -0.1590
  244MPD1    C3 3701   2.681   1.988  17.277 -0.0181 -0.3584 -0.2366
  244MPD1    C4 3702   2.738   1.919  17.175  0.1845 -0.3126  0.3893
  244MPD1    C5 3703   2.852   1.850  17.199  0.6057  0.1656 -0.7876
  244MPD1     H 3704   2.692   2.055  17.474  0.0074 -1.9898  1.5012
  244MPD1    H1 3705   2.689   1.915  17.079 -0.4799  0.6284  0.6815
  244MPD1    H2 3706   3.002   1.788  17.328  0.1010 -0.5018 -2.9405
  244MPD1    H3 3707   2.903   1.798  17.120 -0.4291  0.3771 -1.5960
  244MPD1     N 3708   2.555   2.059  17.265 -0.8403 -0.1262  0.4464
  244MPD1    H5 3709   2.527   2.118  17.343 -0.2588  0.8730 -0.0966
  244MPD1    N1 3710   2.912   1.931  17.560 -0.0967 -0.1361 -0.2060
  244MPD1    H6 3711   3.003   1.888  17.572  0.4091  0.9445 -0.1083
  244MPD1    H7 3712   2.919   2.017  17.614 -0.1780  0.9094 -1.8403
  245MPD1     C 3713   3.452   4.054  13.819  0.2051  0.1141 -0.0193
  245MPD1    C1 3714   3.522   3.942  13.769  0.3506 -0.2574  1.1359
  245MPD1    C2 3715   3.618   3.892  13.854  0.2103  0.1396 -0.0629
  245MPD1    C3 3716   3.647   3.939  13.982 -0.0549 -0.7241 -0.0124
  245MPD1    C4 3717   3.576   4.039  14.030 -0.7680  0.1626 -0.1475
  245MPD1    C5 3718   3.482   4.095  13.944 -0.1324 -0.4617 -0.1402
  245MPD1     H 3719   3.683   3.812  13.819 -0.4773 -1.3685  2.0619
  245MPD1    H1 3720   3.584   4.084  14.128 -3.0811 -1.8363  0.9379
  245MPD1    H2 3721   3.384   4.113  13.758  0.1467  0.0905  0.0240
  245MPD1    H3 3722   3.431   4.182  13.983 -2.9350 -1.8925 -0.6422
  245MPD1     N 3723   3.770   3.888  14.044  0.3212 -0.2992 -0.6053
  245MPD1    H5 3724   3.822   3.821  13.989  2.3316 -0.4118  1.4137
  245MPD1    N1 3725   3.513   3.892  13.637 -0.2092  0.5970 -0.5067
  245MPD1    H6 3726   3.533   3.793  13.627 -0.7190  0.5502 -1.0908
  245MPD1    H7 3727   3.418   3.901  13.603 -0.1895  0.9700 -0.4642
  246MPD1     C 3728   4.427   1.923   9.891  0.1030  0.0977  0.1508
  246MPD1    C1 3729   4.308   1.907   9.824 -0.2434 -0.1529  0.1590
  246MPD1    C2 3730   4.251   2.008   9.748  0.2686  0.6404 -0.0744
  246MPD1    C3 3731   4.316   2.138   9.754  0.2830  0.1236  0.3872
  246MPD1    C4 3732   4.438   2.145   9.808  0.1762 -0.5422 -0.9792
  246MPD1    C5 3733   4.480   2.046   9.895  0.0724 -0.0646  0.2428
  246MPD1     H 3734   4.162   1.993   9.688 -0.3205 -1.8180  1.3744
  246MPD1    H1 3735   4.489   2.241   9.804 -1.1034  0.1379 -0.9871
  246MPD1    H2 3736   4.475   1.853   9.958  1.2822  2.3368  1.6555
  246MPD1    H3 3737   4.580   2.066   9.934  0.4855  0.8237 -1.3006
  246MPD1     N 3738   4.250   2.232   9.672 -0.3145 -0.8634  0.4747
  246MPD1    H5 3739   4.151   2.212   9.662 -0.6741  1.3019 -0.1915
  246MPD1    N1 3740   4.257   1.769   9.815 -0.3582  0.3569  0.6609
  246MPD1    H6 3741   4.270   1.705   9.893  0.4716  0.0279  0.2555
  246MPD1    H7 3742   4.161   1.788   9.789  0.3959  2.1141 -0.8609
  247MPD1     C 3743   2.974   2.745  16.106  0.6525 -0.3407 -0.4931
  247MPD1    C1 3744   3.001   2.643  16.197  0.0174  0.0256 -0.2322
  247MPD1    C2 3745   3.125   2.631  16.253 -0.2479  0.1537 -0.2339
  247MPD1    C3 3746   3.229   2.704  16.203 -0.0382 -0.3126  0.4961
  247MPD1    C4 3747   3.208   2.796  16.107 -0.3220 -0.2962  0.6793
  247MPD1    C5 3748   3.080   2.819  16.064 -0.0534  0.0639 -0.5750
  247MPD1     H 3749   3.142   2.550  16.323  0.9811  1.7613  1.3339
  247MPD1    H1 3750   3.290   2.855  16.068 -0.7663  0.1508  0.4225
  247MPD1    H2 3751   2.874   2.758  16.068  1.3039  2.8892 -1.0894
  247MPD1    H3 3752   3.053   2.894  15.990 -0.5119  1.9258  1.4848
  247MPD1     N 3753   3.362   2.705  16.242  0.1209 -0.2162  0.3139
  247MPD1    H5 3754   3.425   2.775  16.204  1.3736 -1.5102 -0.0106
  247MPD1    N1 3755   2.894   2.574  16.256 -0.4359 -0.1038  0.9766
  247MPD1    H6 3756   2.808   2.564  16.203  1.2040 -0.1166 -1.6980
  247MPD1    H7 3757   2.913   2.489  16.309  1.3121  0.7254  1.6788
  248MPD1     C 3758   3.959   1.718   1.115  0.2875  0.1626  1.0233
  248MPD1    C1 3759   4.018   1.790   1.215 -0.9527 -0.1119 -0.3774
  248MPD1    C2 3760   3.953   1.901   1.259 -0.5132  0.1356  0.3047
  248MPD1    C3 3761   3.829   1.929   1.213 -0.5357 -0.1138 -0.7479
  248MPD1    C4 3762   3.767   1.857   1.116  0.1805 -0.0276  0.4128
  248MPD1    C5 3763   3.835   1.750   1.069  0.0414 -0.1803  0.0069
  248MPD1     H 3764   4.001   1.964   1.333  2.5108  0.3301 -1.8184
  248MPD1    H1 3765   3.672   1.880   1.069  0.9986  1.3356 -0.5719
  248MPD1    H2 3766   4.000   1.621   1.092 -1.8880  0.1582 -2.7505
  248MPD1    H3 3767   3.787   1.687   0.994  2.7912  0.4691 -2.3096
  248MPD1     N 3768   3.759   2.022   1.296 -0.0703 -0.2907 -0.3565
  248MPD1    H5 3769   3.818   2.062   1.369  0.7444  0.3770 -1.3859
  248MPD1    N1 3770   4.152   1.765   1.232 -0.5584  0.3466 -0.1434
  248MPD1    H6 3771   4.173   1.787   1.329  1.6075 -0.4347 -0.4306
  248MPD1    H7 3772   4.158   1.665   1.218 -0.6535  0.1953  0.8914
  249MPD1     C 3773   0.605   1.368  10.212  0.1137 -0.2918 -0.6048
  249MPD1    C1 3774   0.707   1.457  10.259  0.4537 -0.3432  0.8457
  249MPD1    C2 3775   0.740   1.570  10.177 -0.4619  0.1723  0.2439
  249MPD1    C3 3776   0.694   1.574  10.048  0.7607 -0.3748  0.1121
  249MPD1    C4 3777   0.614   1.480   9.995  0.5358 -0.5696 -0.6719
  249MPD1    C5 3778   0.569   1.380  10.079  0.1753  0.3246  0.8433
  249MPD1     H 3779   0.801   1.655  10.207  0.4018 -0.8525  1.4345
  249MPD1    H1 3780   0.567   1.486   9.897  1.1119 -0.9699 -0.9724
  249MPD1    H2 3781   0.567   1.283  10.267  0.3897 -0.1108 -0.1338
  249MPD1    H3 3782   0.491   1.313  10.046 -1.8696  3.3634 -0.4448
  249MPD1     N 3783   0.748   1.682   9.970 -1.1325 -0.1657  0.1310
  249MPD1    H5 3784   0.834   1.730   9.994 -0.7962 -1.3465  1.3037
  249MPD1    N1 3785   0.744   1.445  10.390  0.1637  0.1929 -0.0246
  249MPD1    H6 3786   0.740   1.352  10.431  2.8442 -0.1233 -0.4794
  249MPD1    H7 3787   0.834   1.487  10.410 -0.8407  1.2455  2.2664
  250MPD2     C 3788   1.678   2.009  13.593  0.2720 -0.5305 -0.2631
  250MPD2    C1 3789   1.703   2.018  13.457  0.2971  0.4355 -0.2498
  250MPD2    C2 3790   1.624   1.939  13.373 -0.1907  0.3881  0.0313
  250MPD2    C3 3791   1.545   1.836  13.430  0.6081 -0.1894 -0.1055
  250MPD2    C4 3792   1.533   1.831  13.564 -0.4955  1.2646  0.2102
  250MPD2    C5 3793   1.609   1.905  13.645 -0.5946 -0.1752 -0.3609
  250MPD2     H 3794   1.617   1.952  13.266  1.7861  1.3447  0.0178
  250MPD2    H1 3795   1.471   1.757  13.614  0.6458  0.4866  0.4680
  250MPD2    H2 3796   1.739   2.065  13.663 -2.7158  0.2257  1.7737
  250MPD2    H3 3797   1.605   1.889  13.752  0.4615  0.8682 -0.1648
  250MPD2     N 3798   1.462   1.743  13.358  0.0536  0.0535 -0.0034
  250MPD2    H5 3799   1.395   1.686  13.410  1.2228  0.0331  1.4875
  250MPD2    N1 3800   1.801   2.106  13.412 -0.0502 -0.2561 -0.2573
  250MPD2    H7 3801   1.829   2.175  13.481  0.6385  1.2846 -2.0739
  251TMC3    C1 3802   1.982   2.183  13.270 -0.1227 -0.3432 -0.0019
  251TMC3    C2 3803   2.014   2.274  13.371  0.1384 -0.1926  0.0159
  251TMC3    C3 3804   2.121   2.354  13.343  0.6618  0.3396  0.2770
  251TMC3    C4 3805   2.056   2.177  13.154  0.2816 -0.4712  0.0709
  251TMC3    C5 3806   2.164   2.254  13.134 -0.3069 -0.3981  0.4441
  251TMC3    C6 3807   2.205   2.333  13.233  0.5044 -0.4499 -0.8850
  251TMC3     C 3808   1.877   2.086  13.293 -0.8400  1.0423  0.4123
  251TMC3     O 3809   1.857   1.995  13.210 -0.2415 -0.0736 -0.2028
  251TMC3     H 3810   1.937   2.305  13.440 -0.1954  0.5902 -0.7135
  251TMC3    H1 3811   2.027   2.109  13.075 -0.7954  2.8292 -2.3601
  251TMC3    H2 3812   2.287   2.399  13.210 -0.3807  1.0849  0.3510
  251TMC3    C7 3813   2.266   2.181  13.065 -0.5292 -0.7888  0.2270
  251TMC3    C8 3814   2.125   2.475  13.415 -0.1766 -0.0459 -0.0328
  251TMC3    O1 3815   2.242   2.056  13.064 -0.0386 -0.1476 -0.9240
  251TMC3    O2 3816   2.075   2.471  13.527  0.2995  0.5615 -0.1338
  252TMC3    C1 3817   2.834   2.476   9.496  0.1111  0.4767 -0.4172
  252TMC3    C2 3818   2.965   2.519   9.503 -0.3311  0.0387  0.1867
  252TMC3    C3 3819   3.064   2.431   9.550 -0.0266 -0.4799 -0.1811
  252TMC3    C4 3820   2.803   2.345   9.535  0.5284  0.4687 -0.2835
  252TMC3    C5 3821   2.908   2.255   9.566  0.0458 -0.8105  0.9553
  252TMC3    C6 3822   3.042   2.299   9.583  0.2634 -0.6132  0.4270
  252TMC3     C 3823   2.745   2.546   9.402  0.3366 -0.2738 -0.2422
  252TMC3     O 3824   2.651   2.486   9.359 -0.1255  0.0685 -0.4628
  252TMC3     H 3825   3.000   2.617   9.472 -0.7895 -0.1659 -0.9658
  252TMC3    H1 3826   2.703   2.308   9.515  0.7113 -0.0747 -0.1795
  252TMC3    H2 3827   3.117   2.226   9.612  1.1632 -0.7022 -2.0736
  252TMC3    C7 3828   2.875   2.144   9.648 -0.6229 -0.8382  0.2336
  252TMC3    C8 3829   3.204   2.477   9.566  0.1123 -0.4621  0.1837
  252TMC3    O1 3830   2.965   2.068   9.681 -0.3310  0.5875  0.2691
  252TMC3    O2 3831   3.285   2.384   9.559  0.0728  0.3873 -0.3214
  253MPD2     C 3832   3.569   2.343  16.111  0.5782 -0.5844  0.0081
  253MPD2    C1 3833   3.442   2.288  16.102  0.0689 -0.0775 -0.2018
  253MPD2    C2 3834   3.407   2.192  16.189 -0.2096  0.1347  0.4024
  253MPD2    C3 3835   3.501   2.160  16.290  0.4335 -0.1410 -1.1959
  253MPD2    C4 3836   3.629   2.210  16.289  0.3560 -0.0013 -0.3876
  253MPD2    C5 3837   3.659   2.293  16.193 -0.3751 -0.1591  0.4502
  253MPD2     H 3838   3.306   2.153  16.187 -0.4785  0.8165  0.7931
  253MPD2    H1 3839   3.696   2.184  16.370 -1.4260  0.4898  1.2682
  253MPD2    H2 3840   3.600   2.427  16.050  1.9082 -1.2165 -0.1986
  253MPD2    H3 3841   3.755   2.343  16.184 -2.0069  2.8132 -0.7645
  253MPD2     N 3842   3.471   2.076  16.399  0.5249  0.3082  0.4441
  253MPD2    H5 3843   3.544   2.061  16.468  1.4391  0.7495 -0.4332
  253MPD2    N1 3844   3.345   2.333  16.010  0.4647  0.0185 -0.1035
  253MPD2    H7 3845   3.264   2.271  16.004 -0.0173  0.3969  2.4305
  254TMC3    C1 3846   3.364   1.905  16.515 -0.6018 -0.6206  0.4833
  254TMC3    C2 3847   3.293   1.785  16.493 -0.0324 -0.0589  0.1854
  254TMC3    C3 3848   3.303   1.696  16.598 -0.7299  0.4396  0.2326
  254TMC3    C4 3849   3.433   1.939  16.630  0.2650 -0.7566 -0.2399
  254TMC3    C5 3850   3.440   1.844  16.720  0.1029 -0.7488  0.9046
  254TMC3    C6 3851   3.378   1.722  16.708  0.6400  0.1561 -0.1842
  254TMC3     C 3852   3.364   1.987  16.397 -0.0286  0.6136  0.2893
  254TMC3     O 3853   3.294   1.948  16.299  0.4166 -0.3836 -0.2230
  254TMC3     H 3854   3.230   1.768  16.406  0.7432 -3.2146  0.2315
  254TMC3    H1 3855   3.495   2.028  16.635 -0.5516 -0.2892  1.5323
  254TMC3    H2 3856   3.378   1.647  16.786  0.2496 -0.4626 -0.7781
  254TMC3    C7 3857   3.456   1.886  16.853 -0.2036  0.0217 -0.1768
  254TMC3    C8 3858   3.217   1.574  16.600 -0.4470 -0.6347 -0.0136
  254TMC3    O1 3859   3.494   1.803  16.933  0.2825 -0.3850  0.5049
  254TMC3    O2 3860   3.280   1.471  16.615 -0.0725  0.2057 -0.3180
  255MPD2     C 3861   1.574   3.907  10.499  0.4595  0.1358  0.0179
  255MPD2    C1 3862   1.573   4.037  10.454 -0.0201 -0.0834 -0.0616
  255MPD2    C2 3863   1.687   4.103  10.414 -1.0247  0.3757  0.2692
  255MPD2    C3 3864   1.802   4.029  10.407  0.0052  0.3467 -0.2255
  255MPD2    C4 3865   1.808   3.896  10.441  0.0691 -0.3636 -0.2298
  255MPD2    C5 3866   1.690   3.837  10.494  0.9873  0.4835  0.7895
  255MPD2     H 3867   1.689   4.205  10.377  0.6411  0.7831  1.4933
  255MPD2    H1 3868   1.890   3.829  10.421  0.0615 -0.9367  1.7021
  255MPD2    H2 3869   1.490   3.853  10.542  0.7075 -1.3727 -1.4255
  255MPD2    H3 3870   1.693   3.733  10.522 -1.7089  0.0145 -0.6800
  255MPD2     N 3871   1.925   4.104  10.380 -0.3057  0.2007 -0.1669
  255MPD2    H5 3872   1.912   4.204  10.368  1.7552  0.6594  1.4945
  255MPD2    N1 3873   1.449   4.105  10.453 -0.6095 -0.2631 -0.5728
  255MPD2    H7 3874   1.362   4.063  10.485 -2.0113  0.2473 -3.7665
  256TMC3    C1 3875   1.276   4.236  10.378  0.6204 -0.7408  0.1145
  256TMC3    C2 3876   1.231   4.361  10.345  0.6614  1.0142 -0.6222
  256TMC3    C3 3877   1.110   4.364  10.274 -0.6919  0.6912 -0.2762
  256TMC3    C4 3878   1.196   4.120  10.375 -0.3648 -0.4680  0.0409
  256TMC3    C5 3879   1.082   4.136  10.305 -0.1523 -0.2199 -0.2013
  256TMC3    C6 3880   1.035   4.251  10.258  0.1134 -0.0694 -0.1051
  256TMC3     C 3881   1.420   4.229  10.399 -0.0000  0.0825 -0.3599
  256TMC3     O 3882   1.488   4.319  10.349 -0.5896  0.0839  0.0376
  256TMC3     H 3883   1.291   4.449  10.361 -0.2585  1.1366  2.1892
  256TMC3    H1 3884   1.229   4.020  10.402 -0.0652 -0.8789 -1.8817
  256TMC3    H2 3885   0.950   4.255  10.191 -1.5984  2.2006  2.2517
  256TMC3    C7 3886   1.018   4.016  10.263  0.2014  0.2598 -0.0440
  256TMC3    C8 3887   1.076   4.476  10.191 -0.3683  0.4756 -0.1047
  256TMC3    O1 3888   0.896   4.023  10.251  1.3452 -0.8841  0.2999
  256TMC3    O2 3889   0.958   4.499  10.183 -0.2175  0.4201 -0.6507
  257MPD2     C 3890   0.867   2.155  13.537 -0.3032 -0.2889  0.1054
  257MPD2    C1 3891   0.812   2.069  13.441 -0.2412  0.3882 -0.4136
  257MPD2    C2 3892   0.806   1.939  13.464 -0.0627  0.5238 -0.4823
  257MPD2    C3 3893   0.830   1.897  13.597  0.6606 -0.2338 -0.5193
  257MPD2    C4 3894   0.866   1.980  13.698 -0.0777  0.0634 -0.2664
  257MPD2    C5 3895   0.893   2.114  13.660  0.1090 -0.5123 -0.4377
  257MPD2     H 3896   0.774   1.873  13.385  0.2897 -0.3321  0.0897
  257MPD2    H1 3897   0.882   1.944  13.800  1.5988  0.7954 -0.2719
  257MPD2    H2 3898   0.887   2.261  13.526  2.3168 -0.5729  2.0373
  257MPD2    H3 3899   0.933   2.185  13.731 -1.3495 -1.5760  1.4516
  257MPD2     N 3900   0.806   1.757  13.621  0.4537  0.2099 -0.0683
  257MPD2    H5 3901   0.773   1.703  13.542  0.4586  2.4443 -1.5986
  257MPD2    N1 3902   0.769   2.126  13.312  0.1187  0.4848  0.2402
  257MPD2    H7 3903   0.794   2.220  13.284 -0.1199  0.0061 -1.6427
  258TMC3    C1 3904   0.799   1.554  13.721  0.2815 -0.4002  0.3533
  258TMC3    C2 3905   0.710   1.507  13.630 -0.1489  0.6533  0.1244
  258TMC3    C3 3906   0.712   1.367  13.613 -0.0224  0.6416 -0.9144
  258TMC3    C4 3907   0.879   1.472  13.803  0.3009 -0.4129 -0.5248
  258TMC3    C5 3908   0.861   1.337  13.794  0.0212  0.1011  0.3017
  258TMC3    C6 3909   0.778   1.284  13.701  0.2318  0.5514 -0.1982
  258TMC3     C 3910   0.820   1.690  13.743  0.0453 -0.5431 -0.6501
  258TMC3     O 3911   0.857   1.725  13.850  0.1251 -0.2977 -0.0192
  258TMC3     H 3912   0.649   1.575  13.571 -1.9396 -0.5690  0.5725
  258TMC3    H1 3913   0.951   1.527  13.863 -1.3291  0.3976  0.6943
  258TMC3    H2 3914   0.787   1.179  13.677 -1.0171  0.8296 -1.8770
  258TMC3    C7 3915   0.910   1.247  13.894 -0.0196  0.4446 -0.4776
  258TMC3    C8 3916   0.602   1.314  13.530 -0.0525 -0.3930  0.4477
  258TMC3    O1 3917   0.885   1.130  13.875  0.0873 -0.1258 -0.2878
  258TMC3    O2 3918   0.562   1.204  13.568  0.4539 -0.0549  0.0035
  259MPD2     C 3919   0.087   3.869   1.114  0.1393  0.6961 -0.2997
  259MPD2    C1 3920   4.716   3.776   1.159 -0.7957 -0.2222 -0.4019
  259MPD2    C2 3921   0.009   3.644   1.119  0.8351 -0.1921  0.0387
  259MPD2    C3 3922   0.100   3.610   1.020 -0.9454  0.2164 -0.5079
  259MPD2    C4 3923   0.182   3.712   0.972  0.3190  0.7880 -0.9219
  259MPD2    C5 3924   0.176   3.838   1.026  0.0907 -0.0455 -0.0874
  259MPD2     H 3925   4.663   3.562   1.144  0.1572  0.3268 -0.0631
  259MPD2    H1 3926   0.260   3.699   0.898  1.5053 -1.1997  0.6542
  259MPD2    H2 3927   0.075   3.973   1.141  0.1120  1.0669 -1.7086
  259MPD2    H3 3928   0.228   3.919   0.976 -0.5536  1.9442  2.4404
  259MPD2     N 3929   0.101   3.473   0.977 -0.0831 -0.3216  0.1777
  259MPD2    H5 3930   0.051   3.408   1.036  0.2569 -0.0240  0.7974
  259MPD2    N1 3931   4.617   3.819   1.253 -0.4769  0.0188 -0.5279
  259MPD2    H7 3932   4.618   3.920   1.267 -2.6149 -0.1092  0.5320
  260TMC3    C1 3933   0.171   3.278   0.860 -0.1503  0.2588  0.4980
  260TMC3    C2 3934   0.183   3.198   0.972  1.0964 -0.3022 -0.5602
  260TMC3    C3 3935   0.237   3.073   0.943  0.2022 -0.0611 -0.0792
  260TMC3    C4 3936   0.217   3.233   0.739 -0.1305 -0.0881  0.3044
  260TMC3    C5 3937   0.302   3.123   0.727 -0.0429  0.0630  0.5842
  260TMC3    C6 3938   0.296   3.029   0.829  0.6426 -0.1812  0.0231
  260TMC3     C 3939   0.176   3.424   0.872  0.0560 -0.2890 -0.2593
  260TMC3     O 3940   0.241   3.486   0.789  0.1048  0.0414  0.2928
  260TMC3     H 3941   0.170   3.244   1.069  0.0564 -1.5896 -0.0920
  260TMC3    H1 3942   0.225   3.304   0.657  0.4441 -0.9967 -0.4244
  260TMC3    H2 3943   0.352   2.937   0.820 -0.6238 -0.7772 -1.8131
  260TMC3    C7 3944   0.346   3.076   0.594 -0.2044  0.7968 -0.3299
  260TMC3    C8 3945   0.229   2.969   1.047  0.4545 -0.3849  0.3547
  260TMC3    O1 3946   0.345   2.953   0.572  0.1646  0.2696  0.0837
  260TMC3    O2 3947   0.303   2.868   1.040 -0.0138  0.1120  0.7124
  261MPD2     C 3948   0.958   1.702  12.670 -0.0333  0.5038  0.0461
  261MPD2    C1 3949   1.094   1.726  12.700 -0.2004 -0.8424  0.5973
  261MPD2    C2 3950   1.177   1.774  12.601 -0.4263  0.7430 -0.5045
  261MPD2    C3 3951   1.134   1.821  12.481  0.3363  0.2355 -0.3986
  261MPD2    C4 3952   0.995   1.814  12.456  0.2721 -0.3620 -0.1518
  261MPD2    C5 3953   0.918   1.751  12.547 -0.0982 -0.2107 -0.5922
  261MPD2     H 3954   1.284   1.773  12.620 -0.5476 -0.3558  0.1011
  261MPD2    H1 3955   0.951   1.858  12.367 -0.3743  2.1863  1.4155
  261MPD2    H2 3956   0.885   1.653  12.733  0.8188 -1.0128 -0.1447
  261MPD2    H3 3957   0.813   1.738  12.521  0.4913 -4.4092 -0.8681
  261MPD2     N 3958   1.222   1.882  12.395  0.8720  0.1029 -0.3315
  261MPD2    H5 3959   1.319   1.886  12.423  0.4612  0.7757  1.0073
  261MPD2    N1 3960   1.160   1.696  12.822  0.7538  0.1756 -0.5028
  261MPD2    H7 3961   1.255   1.731  12.834  0.9990  0.1067 -2.3522
  262TMC3    C1 3962   1.301   2.029  12.225 -0.1617 -0.3642  1.3017
  262TMC3    C2 3963   1.285   2.158  12.183  0.3045 -0.1638  0.0982
  262TMC3    C3 3964   1.393   2.213  12.134  0.4119  0.0576 -0.1527
  262TMC3    C4 3965   1.418   1.953  12.213  0.4102  0.2224  0.0022
  262TMC3    C5 3966   1.523   2.015  12.151 -0.6198 -0.0640  0.3588
  262TMC3    C6 3967   1.514   2.151  12.120 -0.1661 -1.0335  0.2501
  262TMC3     C 3968   1.189   1.966  12.289  0.6580  0.1610  0.2375
  262TMC3     O 3969   1.081   2.016  12.256  1.0882 -0.3832  0.1105
  262TMC3     H 3970   1.201   2.216  12.218 -0.5449  0.9630 -3.8324
  262TMC3    H1 3971   1.424   1.850  12.247 -0.3756  0.3331  0.4829
  262TMC3    H2 3972   1.601   2.211  12.094 -0.6365 -0.3055  0.3789
  262TMC3    C7 3973   1.651   1.950  12.153  0.2866 -0.3549 -0.0945
  262TMC3    C8 3974   1.392   2.349  12.091 -0.8838 -0.5894 -0.0816
  262TMC3    O1 3975   1.670   1.856  12.229 -0.0873 -0.1012  0.0094
  262TMC3    O2 3976   1.339   2.434  12.165  0.1656 -0.3600  0.1959
  263MPD2     C 3977   2.884   1.286  11.435  0.7798 -0.3389  0.2673
  263MPD2    C1 3978   2.972   1.209  11.370 -0.3887 -0.2484 -0.2129
  263MPD2    C2 3979   2.997   1.218  11.234  0.1659  0.0229  0.2976
  263MPD2    C3 3980   2.942   1.322  11.162  0.4038 -0.1774 -0.2054
  263MPD2    C4 3981   2.845   1.392  11.231  0.0636 -0.6302 -0.1811
  263MPD2    C5 3982   2.818   1.381  11.363  0.1156  0.1565  0.0808
  263MPD2     H 3983   3.070   1.157  11.182  0.8734  0.4350  0.8025
  263MPD2    H1 3984   2.785   1.468  11.183 -0.9658 -1.2159  0.1752
  263MPD2    H2 3985   2.866   1.264  11.539  0.0321  0.5365  0.3298
  263MPD2    H3 3986   2.747   1.445  11.413 -0.2364  0.6451 -1.0399
  263MPD2     N 3987   2.989   1.349  11.033  0.2461  0.1434  0.1821
  263MPD2    H5 3988   3.053   1.281  10.994 -0.5050 -0.5168  0.0999
  263MPD2    N1 3989   3.038   1.113  11.447 -0.1903 -0.0722  0.4151
  263MPD2    H7 3990   3.010   1.107  11.544 -0.6909  2.3258  0.4125
  264TMC3    C1 3991   3.015   1.495  10.840 -0.7998  0.0378 -0.6387
  264TMC3    C2 3992   2.960   1.594  10.769  0.5499  0.3460  0.9576
  264TMC3    C3 3993   3.038   1.653  10.675 -0.1745  0.1161  0.4076
  264TMC3    C4 3994   3.138   1.435  10.816 -0.1089 -0.1864 -0.2439
  264TMC3    C5 3995   3.205   1.494  10.710  0.1774 -0.7536 -0.7474
  264TMC3    C6 3996   3.159   1.604  10.640 -0.0547  0.6200  0.0235
  264TMC3     C 3997   2.944   1.461  10.964  0.4049 -0.1568 -0.3638
  264TMC3     O 3998   2.849   1.537  10.983 -0.3460  0.1101 -0.0991
  264TMC3     H 3999   2.859   1.628  10.791  0.3878 -0.5318  1.5491
  264TMC3    H1 4000   3.184   1.357  10.876  0.8965 -1.1241 -2.2385
  264TMC3    H2 4001   3.223   1.653  10.567  0.7629  0.2123  0.4629
  264TMC3    C7 4002   3.312   1.419  10.647 -0.2590  0.0868  0.2838
  264TMC3    C8 4003   3.017   1.793  10.649  0.4359 -0.3422  0.5713
  264TMC3    O1 4004   3.385   1.489  10.574 -0.3427  0.3682  0.4710
  264TMC3    O2 4005   3.083   1.846  10.559 -0.4565 -0.7038 -0.6086
  265MPD2     C 4006   4.653   1.350  15.772  0.1766  0.0442 -0.8971
  265MPD2    C1 4007   4.637   1.483  15.725 -0.5002  1.2817  0.2883
  265MPD2    C2 4008   4.667   1.501  15.587  0.3742  0.5334 -1.0300
  265MPD2    C3 4009   4.708   1.392  15.508 -1.0919  0.4377 -0.3340
  265MPD2    C4 4010   4.716   1.270  15.563 -0.4490  0.1802 -0.5989
  265MPD2    C5 4011   4.682   1.243  15.691 -0.1873  0.0087  0.0103
  265MPD2     H 4012   4.638   1.601  15.556  2.8841  0.9201 -2.1206
  265MPD2    H1 4013   0.025   1.188  15.498  0.4722 -0.2531  0.3785
  265MPD2    H2 4014   4.618   1.324  15.872  3.1221  0.7693  0.3166
  265MPD2    H3 4015   4.693   1.140  15.722 -0.2497  0.4343  1.4515
  265MPD2     N 4016   0.005   1.395  15.369  1.0254  0.4488  0.0535
  265MPD2    H5 4017   0.016   1.299  15.335  0.1012  0.8864 -1.4862
  265MPD2    N1 4018   4.591   1.591  15.809 -0.3575  0.5726  0.2506
  265MPD2    H7 4019   4.573   1.671  15.749 -3.0676  0.1339  0.4918
  266TMC3    C1 4020   4.538   1.712  16.006 -1.0734 -0.2572  0.6738
  266TMC3    C2 4021   4.521   1.706  16.140  0.8910  0.1280  0.7556
  266TMC3    C3 4022   4.513   1.823  16.210  0.1174 -0.4976  0.9967
  266TMC3    C4 4023   4.573   1.831  15.947  0.3537  0.4424 -0.5057
  266TMC3    C5 4024   4.563   1.943  16.017  0.0255  0.7527 -0.3280
  266TMC3    C6 4025   4.533   1.950  16.149  0.4165  0.2046  0.0813
  266TMC3     C 4026   4.576   1.589  15.952  0.2438 -0.4116  0.0530
  266TMC3     O 4027   4.631   1.511  16.024 -0.2092 -0.3472  0.8645
  266TMC3     H 4028   4.516   1.611  16.192 -0.2744 -1.1618 -1.7361
  266TMC3    H1 4029   4.596   1.839  15.841  2.9435  0.0700  0.0462
  266TMC3    H2 4030   4.523   2.039  16.209 -0.9373 -0.5824  1.0087
  266TMC3    C7 4031   4.568   2.074  15.959 -1.1149  0.5475 -0.3223
  266TMC3    C8 4032   4.569   1.812  16.342  0.5695  0.6884 -0.2684
  266TMC3    O1 4033   4.582   2.172  16.037 -0.2958 -0.1307 -0.8587
  266TMC3    O2 4034   4.657   1.727  16.355  0.0500 -1.0633  0.2022
  267MPD2     C 4035   2.511   3.526   0.206 -0.3165  0.2484 -1.1112
  267MPD2    C1 4036   2.496   3.655   0.157 -0.1830 -0.5187 -1.8981
  267MPD2    C2 4037   2.447   3.681   0.030 -0.1044 -0.0761 -0.3465
  267MPD2    C3 4038   2.414   3.576  17.634  0.4695 -0.3974  0.0050
  267MPD2    C4 4039   2.428   3.447  17.679 -0.7255 -0.1908 -0.0519
  267MPD2    C5 4040   2.484   3.423   0.121 -0.1577  0.4228  0.4258
  267MPD2     H 4041   2.447   3.777  17.666  0.0916 -0.7268 -1.5942
  267MPD2    H1 4042   2.425   3.364  17.610  1.1899  1.3429 -1.9926
  267MPD2    H2 4043   2.546   3.507   0.306 -0.4876  1.5704 -0.7972
  267MPD2    H3 4044   2.511   3.323   0.151 -0.3771  0.6669  1.4349
  267MPD2     N 4045   2.372   3.594  17.498 -0.3436  0.1290 -0.7926
  267MPD2    H5 4046   2.371   3.509  17.443  0.2344 -0.1269 -0.4069
  267MPD2    N1 4047   2.516   3.757   0.253 -0.0631 -0.0618  0.2576
  267MPD2    H7 4048   2.551   3.735   0.346 -3.8754 -1.9203  1.2573
  268TMC3    C1 4049   2.505   3.971   0.352  0.1299 -0.8481 -0.6456
  268TMC3    C2 4050   2.561   4.097   0.335 -0.3560  0.1908 -0.0779
  268TMC3    C3 4051   2.605   4.166   0.441 -0.1083  0.0524  0.0455
  268TMC3    C4 4052   2.482   3.928   0.484 -0.3989 -0.0628  0.2202
  268TMC3    C5 4053   2.525   4.003   0.591 -0.4237 -0.0794  0.5364
  268TMC3    C6 4054   2.589   4.124   0.571  0.4577 -0.0135 -0.3157
  268TMC3     C 4055   2.486   3.885   0.236 -0.3224 -0.6166 -1.2287
  268TMC3     O 4056   2.451   3.942   0.133  0.1813 -0.5290  0.0485
  268TMC3     H 4057   2.581   4.117   0.231 -1.0800  2.9004  0.3112
  268TMC3    H1 4058   2.433   3.835   0.507 -3.0785  0.8731 -1.6678
  268TMC3    H2 4059   2.653   4.171   0.644 -0.1616  2.7671 -1.5926
  268TMC3    C7 4060   2.484   3.965   0.720 -0.2790  0.0308  0.2532
  268TMC3    C8 4061   2.654   4.298   0.412  0.7065 -0.5423 -0.2658
  268TMC3    O1 4062   2.474   3.848   0.751 -0.2180 -0.2883  0.4366
  268TMC3    O2 4063   2.627   4.378   0.502  0.4363 -0.6533 -0.7457
  269MPD2     C 4064   2.818   2.310  15.919 -0.0717  0.2135  0.3107
  269MPD2    C1 4065   2.682   2.306  15.882  0.3367 -0.2094  0.4104
  269MPD2    C2 4066   2.624   2.431  15.851  0.8281  0.4884 -0.2038
  269MPD2    C3 4067   2.700   2.551  15.857 -0.1885  0.1406  0.2276
  269MPD2    C4 4068   2.836   2.550  15.893 -0.0162  0.0068  0.0140
  269MPD2    C5 4069   2.886   2.428  15.927  0.0135  0.2258 -0.2333
  269MPD2     H 4070   2.523   2.437  15.811 -0.9427 -0.7492  4.1277
  269MPD2    H1 4071   2.901   2.637  15.894 -1.7624  1.3283 -0.5332
  269MPD2    H2 4072   2.870   2.215  15.930 -0.2954  0.0157 -0.3296
  269MPD2    H3 4073   2.990   2.423  15.957  0.3994 -0.3198 -1.6253
  269MPD2     N 4074   2.633   2.662  15.805 -0.0597 -0.2075  0.5725
  269MPD2    H5 4075   2.534   2.647  15.786 -0.9298  1.5850  3.5606
  269MPD2    N1 4076   2.621   2.182  15.888 -0.6429  0.4199 -0.7981
  269MPD2    H7 4077   2.688   2.106  15.902 -0.9957  0.2456 -0.0409
  270TMC3    C1 4078   2.446   2.020  15.850 -0.2924  0.3386  0.1349
  270TMC3    C2 4079   2.306   1.994  15.839  0.2306 -0.2725 -0.2647
  270TMC3    C3 4080   2.270   1.863  15.824  0.0683 -0.2917  0.0458
  270TMC3    C4 4081   2.542   1.918  15.834  0.1679  0.0436  0.1916
  270TMC3    C5 4082   2.499   1.795  15.803  0.5088  0.1372  0.2613
  270TMC3    C6 4083   2.363   1.767  15.795  0.1736 -0.0737 -0.0640
  270TMC3     C 4084   2.492   2.160  15.855 -0.1774  0.1153  0.3040
  270TMC3     O 4085   2.401   2.238  15.863 -0.8103  0.0564  0.1816
  270TMC3     H 4086   2.229   2.069  15.850  0.5953 -0.2073  1.8732
  270TMC3    H1 4087   2.648   1.935  15.845  0.0103  2.3251 -1.8614
  270TMC3    H2 4088   2.338   1.661  15.795 -0.9287  0.1844 -0.0935
  270TMC3    C7 4089   2.599   1.704  15.748 -0.3599 -0.1818  0.2212
  270TMC3    C8 4090   2.133   1.836  15.789  0.0855  0.0225 -0.2778
  270TMC3    O1 4091   2.715   1.708  15.796 -0.2083  0.4335 -0.1848
  270TMC3    O2 4092   2.048   1.916  15.828  0.2765 -0.7212  0.0841
  271MPD2     C 4093   1.454   1.962  14.057 -0.1174 -0.5149  0.2682
  271MPD2    C1 4094   1.407   1.959  14.186 -0.2561  0.0006 -0.4766
  271MPD2    C2 4095   1.276   2.012  14.218  0.4083 -0.1242 -0.3715
  271MPD2    C3 4096   1.202   2.075  14.122 -0.0126 -0.0220  0.4209
  271MPD2    C4 4097   1.256   2.081  13.999  0.8624 -0.3425  0.6693
  271MPD2    C5 4098   1.378   2.026  13.962 -0.4045 -0.2549 -0.5658
  271MPD2     H 4099   1.248   2.003  14.323  1.5103  0.5723 -0.0182
  271MPD2    H1 4100   1.195   2.115  13.916  2.3551  2.1031  0.5993
  271MPD2    H2 4101   1.551   1.921  14.032 -1.0388 -1.4385 -1.8155
  271MPD2    H3 4102   1.408   2.025  13.858 -1.4844 -0.1004 -0.8771
  271MPD2     N 4103   1.078   2.143  14.138 -0.4413  0.5917  0.1324
  271MPD2    H5 4104   1.050   2.202  14.060  1.0327  0.4880 -0.4785
  271MPD2    N1 4105   1.487   1.905  14.290  0.6459 -0.2412 -0.1461
  271MPD2    H7 4106   1.441   1.901  14.380 -3.6776  0.7502 -2.3355
  272TMC3    C1 4107   1.673   1.825  14.407 -0.2299  0.7108  0.0046
  272TMC3    C2 4108   1.808   1.792  14.397 -0.3951  0.0904  0.3690
  272TMC3    C3 4109   1.871   1.757  14.516 -0.0737  0.4717  0.4972
  272TMC3    C4 4110   1.607   1.834  14.523 -0.3556 -0.7581 -0.4777
  272TMC3    C5 4111   1.675   1.806  14.641 -0.1390 -0.4071  0.0819
  272TMC3    C6 4112   1.802   1.757  14.637  0.3541 -0.4319  0.2734
  272TMC3     C 4113   1.623   1.892  14.293 -0.2097  0.3710 -0.4715
  272TMC3     O 4114   1.709   1.939  14.215  0.2001  0.0589  0.2054
  272TMC3     H 4115   1.856   1.794  14.300 -0.4064 -1.8876  0.3215
  272TMC3    H1 4116   1.508   1.876  14.538 -0.7012 -2.2302  1.3870
  272TMC3    H2 4117   1.862   1.738  14.726  1.7179 -0.6991 -0.6996
  272TMC3    C7 4118   1.615   1.829  14.772  0.6134 -0.5374  0.3485
  272TMC3    C8 4119   2.014   1.778  14.519  0.2871  0.4741 -0.1695
  272TMC3    O1 4120   1.492   1.824  14.771 -0.5149 -0.2809 -0.3294
  272TMC3    O2 4121   2.055   1.853  14.432 -0.2479  0.3540 -0.0984
  273MPD2     C 4122   3.120   4.480  11.855 -0.3012 -0.3967  0.0255
  273MPD2    C1 4123   3.247   4.501  11.885 -0.6668  0.2514 -0.9190
  273MPD2    C2 4124   3.331   4.551  11.791 -0.6616  0.0287 -0.3587
  273MPD2    C3 4125   3.294   4.570  11.659 -0.4386  0.7951 -0.3585
  273MPD2    C4 4126   3.157   4.558  11.634 -0.5190  0.5063 -0.3943
  273MPD2    C5 4127   3.069   4.512  11.733  0.5009  0.2045 -0.4615
  273MPD2     H 4128   3.436   4.557  11.817 -0.5523  0.1277 -0.8229
  273MPD2    H1 4129   3.121   4.572  11.533  0.9331 -0.5676 -1.0424
  273MPD2    H2 4130   3.050   4.431  11.923 -2.0106  1.5142 -0.3360
  273MPD2    H3 4131   2.964   4.498  11.709  0.4505  2.5617 -1.5977
  273MPD2     N 4132   3.382   4.616  11.559  0.0586 -0.0262  0.0494
  273MPD2    H5 4133   3.348   4.629  11.465 -1.4857 -1.6690  0.3817
  273MPD2    N1 4134   3.286   4.478  12.023 -0.3926 -0.6737 -0.5670
  273MPD2    H7 4135   3.222   4.420  12.077  1.0533 -1.8598 -0.1196
  274TMC3    C1 4136   3.578   4.680  11.451 -0.0678 -0.0912  0.2290
  274TMC3    C2 4137   3.506   4.683  11.337  0.4218 -1.3478  0.1738
  274TMC3    C3 4138   3.539   0.060  11.245  0.5185  0.9278 -0.4568
  274TMC3    C4 4139   3.673   0.051  11.475 -0.5863  0.0291 -0.0564
  274TMC3    C5 4140   3.699   0.152  11.386  0.6886 -0.6183  0.5073
  274TMC3    C6 4141   3.626   0.164  11.265  0.2090  0.5987 -0.0372
  274TMC3     C 4142   3.517   4.635  11.575 -0.3374  0.1248 -0.6455
  274TMC3     O 4143   3.579   4.632  11.677  0.7584 -0.0417 -0.2692
  274TMC3     H 4144   3.427   4.610  11.320  0.7822 -1.3240 -1.6107
  274TMC3    H1 4145   3.724   0.046  11.571  0.0037 -1.9247 -0.4721
  274TMC3    H2 4146   3.657   0.237  11.192  2.1645  0.4467  0.6509
  274TMC3    C7 4147   3.713   0.286  11.433 -0.3977  1.0949 -1.0089
  274TMC3    C8 4148   3.461   0.056  11.125  0.2176  0.5770 -0.0321
  274TMC3    O1 4149   3.712   0.383  11.361 -0.0617  0.1367 -0.1651
  274TMC3    O2 4150   3.372   4.690  11.130 -0.3075  0.2162  0.3978
  275MPD2     C 4151   3.189   2.794  14.706 -0.5514  0.1128 -0.1089
  275MPD2    C1 4152   3.103   2.882  14.776 -0.1780  0.0342 -0.4278
  275MPD2    C2 4153   2.968   2.870  14.753 -0.2692 -0.1620  0.6331
  275MPD2    C3 4154   2.917   2.785  14.657  0.2326  0.3588 -0.7134
  275MPD2    C4 4155   3.006   2.699  14.587 -0.5135  0.2065 -0.0079
  275MPD2    C5 4156   3.137   2.707  14.615 -0.1597  0.2157 -0.6650
  275MPD2     H 4157   2.899   2.937  14.802 -0.6157  0.4628 -0.7005
  275MPD2    H1 4158   2.970   2.620  14.522  0.7563  0.0522 -0.5053
  275MPD2    H2 4159   3.298   2.798  14.710 -0.7074  1.6812  2.3964
  275MPD2    H3 4160   3.207   2.650  14.554  0.8034 -0.3269  0.9525
  275MPD2     N 4161   2.782   2.767  14.635 -0.3214 -0.5904 -0.1768
  275MPD2    H5 4162   2.756   2.715  14.551  1.4996 -0.2894 -0.9216
  275MPD2    N1 4163   3.150   2.978  14.870  0.6822  0.4851 -0.2875
  275MPD2    H7 4164   3.079   3.030  14.921 -0.6090 -0.5435 -1.0424
  276TMC3    C1 4165   3.293   3.130  14.974  0.8365 -0.3358  0.4573
  276TMC3    C2 4166   3.220   3.141  15.080 -0.0391 -0.1920 -0.1729
  276TMC3    C3 4167   3.241   3.253  15.163 -0.2109 -0.1764  0.5594
  276TMC3    C4 4168   3.393   3.223  14.948  0.6148  0.2127  0.2416
  276TMC3    C5 4169   3.414   3.334  15.025  0.5347 -0.4229 -0.2617
  276TMC3    C6 4170   3.334   3.350  15.131  0.4232 -0.4269  0.1263
  276TMC3     C 4171   3.281   3.013  14.892  0.3462  0.3469 -0.7331
  276TMC3     O 4172   3.378   2.983  14.824  0.1943  0.3714  0.0404
  276TMC3     H 4173   3.145   3.066  15.106 -0.1924  0.1368  0.3355
  276TMC3    H1 4174   3.449   3.212  14.856  0.8655  0.8108  0.3192
  276TMC3    H2 4175   3.344   3.442  15.188  1.2357 -0.3605 -0.1145
  276TMC3    C7 4176   3.553   3.348  15.065  0.1979  1.1300  0.4167
  276TMC3    C8 4177   3.174   3.269  15.288 -1.0259  0.3646 -0.0618
  276TMC3    O1 4178   3.565   3.399  15.178 -0.0317  0.5165  0.3186
  276TMC3    O2 4179   3.151   3.382  15.330  0.0983 -0.4182  0.2963
  277MPD2     C 4180   0.380   2.193  13.398 -0.1664 -0.3610  0.8651
  277MPD2    C1 4181   0.242   2.225  13.389 -0.4635 -0.4963 -0.5441
  277MPD2    C2 4182   0.156   2.131  13.442 -0.0859  0.6319 -0.0101
  277MPD2    C3 4183   0.200   2.021  13.516  0.4457 -0.5377  0.2063
  277MPD2    C4 4184   0.335   1.995  13.530  0.2795 -0.4993 -0.0081
  277MPD2    C5 4185   0.420   2.086  13.474  0.2753 -0.7374 -0.0206
  277MPD2     H 4186   0.050   2.156  13.440 -0.9022 -2.9191 -0.0285
  277MPD2    H1 4187   0.377   1.916  13.591  3.2832 -0.2665 -1.7730
  277MPD2    H2 4188   0.447   2.263  13.350 -1.7056  0.1467 -0.5543
  277MPD2    H3 4189   0.527   2.066  13.481  0.4084  0.1660  0.5483
  277MPD2     N 4190   0.097   1.956  13.586 -0.1673 -0.4587 -0.0761
  277MPD2    H5 4191   4.720   1.979  13.572 -0.0338 -0.4024 -0.9201
  277MPD2    N1 4192   0.195   2.340  13.322 -0.7619  0.4007 -0.1385
  277MPD2    H7 4193   0.272   2.397  13.289 -0.3699 -1.6302 -2.6460
  278TMC3    C1 4194   0.010   1.806  13.743 -0.0047 -0.1006  0.4092
  278TMC3    C2 4195   0.001   1.676  13.790  0.1618  0.7812 -0.7881
  278TMC3    C3 4196   4.608   1.629  13.860 -0.3484  0.3767  1.0187
  278TMC3    C4 4197   4.628   1.891  13.768  0.1520  0.2916 -0.0816
  278TMC3    C5 4198   4.524   1.846  13.839 -0.1684 -0.2043 -0.2904
  278TMC3    C6 4199   4.507   1.717  13.883  0.3208 -0.7628 -0.5899
  278TMC3     C 4200   0.116   1.839  13.653 -0.1317 -0.3036 -0.1276
  278TMC3     O 4201   0.213   1.766  13.644  0.0116 -0.3680 -0.3703
  278TMC3     H 4202   0.075   1.607  13.752  0.2490  0.8029 -0.6608
  278TMC3    H1 4203   4.637   1.997  13.750  0.7596  0.0920 -0.9633
  278TMC3    H2 4204   4.422   1.687  13.943 -0.0927  0.7256 -0.4479
  278TMC3    C7 4205   4.434   1.948  13.892  0.2763  0.0162 -0.3624
  278TMC3    C8 4206   4.600   1.486  13.902 -0.4711 -0.3113  0.7783
  278TMC3    O1 4207   4.469   2.068  13.896  0.5487  0.0404 -0.4187
  278TMC3    O2 4208   4.707   1.427  13.900  0.4008  0.0054 -1.1813
  279MPD2     C 4209   4.009   2.773   1.184 -0.0879  0.1026 -0.1241
  279MPD2    C1 4210   3.960   2.683   1.095  0.2125 -0.4537 -0.1460
  279MPD2    C2 4211   4.007   2.698   0.958  0.7142  0.1492  0.0576
  279MPD2    C3 4212   4.087   2.799   0.914 -0.1372  0.1583 -0.3218
  279MPD2    C4 4213   4.137   2.882   1.010 -0.4939 -0.2095 -0.2314
  279MPD2    C5 4214   4.090   2.875   1.138  0.7501  0.1174  0.0251
  279MPD2     H 4215   3.973   2.634   0.877  0.7514 -1.0281  0.9921
  279MPD2    H1 4216   4.208   2.957   0.978  2.7065 -1.8202  3.0681
  279MPD2    H2 4217   4.000   2.762   1.291  0.1963 -0.3749 -0.1487
  279MPD2    H3 4218   4.130   2.945   1.210  0.4796  2.5934 -2.2413
  279MPD2     N 4219   4.144   2.819   0.787 -0.6985 -0.0066  0.3554
  279MPD2    H5 4220   4.212   2.891   0.768  1.6809 -1.8752  1.7955
  279MPD2    N1 4221   3.872   2.580   1.135  0.1379 -0.1590  0.2207
  279MPD2    H7 4222   3.831   2.574   1.228 -0.2807  3.3606  0.2556
  280TMC3    C1 4223   3.699   2.424   1.088 -0.2253 -0.4270 -0.4551
  280TMC3    C2 4224   3.683   2.312   1.008 -0.2423 -0.1773 -0.1483
  280TMC3    C3 4225   3.563   2.293   0.954  0.5093  0.1769 -0.4889
  280TMC3    C4 4226   3.604   2.516   1.109 -0.7557 -0.5368  0.3507
  280TMC3    C5 4227   3.479   2.495   1.043 -0.1688  0.1232  0.2310
  280TMC3    C6 4228   3.457   2.377   0.973 -0.6833  0.1875 -0.1868
  280TMC3     C 4229   3.833   2.475   1.048  0.3664 -0.2014  0.3678
  280TMC3     O 4230   3.868   2.437   0.937  0.2465 -0.1451  0.0046
  280TMC3     H 4231   3.755   2.231   1.006 -0.7945 -0.7006  1.4851
  280TMC3    H1 4232   3.605   2.595   1.183 -1.9875 -0.2244  0.0430
  280TMC3    H2 4233   3.364   2.351   0.922 -0.2327 -0.7908 -0.5026
  280TMC3    C7 4234   3.398   2.617   1.014 -0.4357  0.3527 -0.2428
  280TMC3    C8 4235   3.555   2.185   0.858 -0.2425  0.3231  0.2058
  280TMC3    O1 4236   3.424   2.717   1.076  0.0568  0.2707 -0.1017
  280TMC3    O2 4237   3.443   2.138   0.840 -0.2370 -0.2823 -0.7630
  281TMC3    C1 4238   2.619   1.584  12.899 -0.3655  0.3476  0.2726
  281TMC3    C2 4239   2.567   1.663  12.804 -0.2267  0.5027  0.1251
  281TMC3    C3 4240   2.433   1.666  12.793  0.0802 -0.8172  0.3668
  281TMC3    C4 4241   2.541   1.527  12.996 -0.3018  0.0212  0.4556
  281TMC3    C5 4242   2.405   1.535  12.984 -0.4817  0.5004 -0.1218
  281TMC3    C6 4243   2.353   1.603  12.882 -0.1815 -0.5971 -0.0644
  281TMC3     C 4244   2.746   1.629  12.943  0.7660 -0.5044 -0.6380
  281TMC3     O 4245   2.832   1.546  12.964 -0.1052 -0.1783 -0.1581
  281TMC3     H 4246   2.639   1.704  12.735 -0.5842  0.1123 -0.4885
  281TMC3    H1 4247   2.589   1.457  13.063 -0.5680  1.3412  2.0021
  281TMC3    H2 4248   2.246   1.616  12.876 -0.0299  0.9666  0.5785
  281TMC3    C7 4249   2.322   1.497  13.099 -0.3460  0.3667 -0.1025
  281TMC3    C8 4250   2.384   1.795  12.750  0.3987  0.1700 -0.1100
  281TMC3    O1 4251   2.201   1.490  13.074 -0.3424 -0.1645 -0.4197
  281TMC3    O2 4252   2.263   1.828  12.769  0.3500 -0.0742 -0.0814
  282MPD2     C 4253   4.355   3.378  15.375 -0.2854 -0.1159  0.1242
  282MPD2    C1 4254   4.299   3.500  15.419  0.4191  0.5846 -0.6120
  282MPD2    C2 4255   4.236   3.586  15.329  0.3855 -0.5974  0.4632
  282MPD2    C3 4256   4.251   3.551  15.201 -0.2742 -0.2713 -0.3331
  282MPD2    C4 4257   4.300   3.432  15.158 -0.3052  0.6069  0.0713
  282MPD2    C5 4258   4.357   3.347  15.244  0.2605  0.7415  0.5179
  282MPD2     H 4259   4.179   3.671  15.366  1.1930  0.2483 -0.2532
  282MPD2    H1 4260   4.305   3.409  15.052 -0.2599 -0.2871  0.2662
  282MPD2    H2 4261   4.421   3.316  15.435 -1.3281  1.4134  2.8461
  282MPD2    H3 4262   4.405   3.256  15.211 -0.3240  0.0019  1.6956
  282MPD2     N 4263   4.187   3.643  15.108  0.0924 -0.2835  0.1816
  282MPD2    H5 4264   4.119   3.709  15.146  0.9599  1.1947 -0.8448
  282MPD2    N1 4265   4.302   3.536  15.562  0.0338 -0.5100 -0.4033
  282MPD2    H7 4266   4.256   3.622  15.587  0.0137 -0.8725  0.8079
  283TMC3    C1 4267   4.343   3.504  15.796  0.5104  0.0233 -0.2205
  283TMC3    C2 4268   4.346   3.640  15.832  0.2906 -0.1734 -0.3294
  283TMC3    C3 4269   4.338   3.673  15.962 -0.2164 -0.5085  0.0792
  283TMC3    C4 4270   4.323   3.408  15.899 -0.2362 -0.6815  0.1028
  283TMC3    C5 4271   4.325   3.451  16.032 -0.9333 -0.0623 -0.2115
  283TMC3    C6 4272   4.328   3.582  16.063  0.2030  0.9568  0.5652
  283TMC3     C 4273   4.350   3.455  15.661  0.1353  0.2862 -0.4816
  283TMC3     O 4274   4.370   3.333  15.656  0.3475 -0.1183  0.0457
  283TMC3     H 4275   4.382   3.716  15.762  0.1405  1.6745  1.5892
  283TMC3    H1 4276   4.305   3.304  15.878 -1.4328 -0.4181 -0.1493
  283TMC3    H2 4277   4.319   3.617  16.165 -2.1877 -0.8520  0.9715
  283TMC3    C7 4278   4.230   3.391  16.117  0.1139 -0.1180 -0.4241
  283TMC3    C8 4279   4.319   3.811  16.005  0.9009 -0.9605  0.5024
  283TMC3    O1 4280   4.151   3.468  16.168 -0.1715 -0.1943 -0.3657
  283TMC3    O2 4281   4.301   3.832  16.121  0.0951 -0.0732  0.4584
  284MPD2     C 4282   3.093   2.702  11.767 -0.3975 -0.2829  0.9726
  284MPD2    C1 4283   3.168   2.637  11.676 -0.1383 -0.0375 -0.3642
  284MPD2    C2 4284   3.106   2.544  11.599 -0.3109  0.4853 -0.5421
  284MPD2    C3 4285   2.976   2.503  11.618 -0.8034 -0.5019 -0.0974
  284MPD2    C4 4286   2.901   2.563  11.715 -0.8069 -0.9343 -0.3216
  284MPD2    C5 4287   2.957   2.666  11.786 -0.1169 -0.1976 -0.0575
  284MPD2     H 4288   3.160   2.500  11.516  2.1488 -1.2987  2.0526
  284MPD2    H1 4289   2.798   2.535  11.729 -0.6753 -1.1568  0.2185
  284MPD2    H2 4290   3.137   2.785  11.821 -1.7098  0.0722  1.4993
  284MPD2    H3 4291   2.898   2.718  11.860 -0.6158  0.2530 -0.7695
  284MPD2     N 4292   2.910   2.403  11.539  0.2785  0.1674  0.1576
  284MPD2    H5 4293   2.817   2.371  11.566  0.3201  0.0824  0.2009
  284MPD2    N1 4294   3.305   2.678  11.661  0.4586  0.3969  0.5580
  284MPD2    H7 4295   3.350   2.734  11.732  4.9596  0.1145 -2.0806
  285TMC3    C1 4296   3.506   2.695  11.529  0.2856  0.2507  0.2624
  285TMC3    C2 4297   3.579   2.628  11.432  0.2182 -0.0992  0.7281
  285TMC3    C3 4298   3.692   2.701  11.391  0.3313  1.4903 -0.4440
  285TMC3    C4 4299   3.548   2.807  11.597  0.2264 -0.3819  0.2847
  285TMC3    C5 4300   3.672   2.857  11.565 -0.3363 -0.2735  0.2889
  285TMC3    C6 4301   3.742   2.807  11.461  0.6513  0.3313  0.2376
  285TMC3     C 4302   3.370   2.660  11.536  0.3514  0.8363 -0.1926
  285TMC3     O 4303   3.331   2.607  11.433 -0.3699 -0.4059  0.3121
  285TMC3     H 4304   3.539   2.545  11.375  1.3160  0.8820 -1.4614
  285TMC3    H1 4305   3.485   2.847  11.675 -0.8375 -1.5061  0.0017
  285TMC3    H2 4306   3.824   2.858  11.410  1.1823  0.2510  1.0032
  285TMC3    C7 4307   3.717   2.976  11.638 -0.3782 -0.3423 -0.4501
  285TMC3    C8 4308   3.709   2.688  11.252  0.4349  0.2997 -0.0093
  285TMC3    O1 4309   3.631   3.031  11.707 -0.4799 -0.2160  0.1221
  285TMC3    O2 4310   3.681   2.582  11.200 -0.1030 -0.3114  0.6955
  286MPD2     C 4311   3.034   1.466   2.501  0.3092 -0.6686  0.2525
  286MPD2    C1 4312   3.002   1.469   2.365  0.0736 -0.3579  0.0946
  286MPD2    C2 4313   3.094   1.414   2.273 -0.4623  0.5816 -0.7297
  286MPD2    C3 4314   3.204   1.349   2.305 -0.2899 -0.1882  0.1356
  286MPD2    C4 4315   3.237   1.355   2.440 -0.1723 -0.0952  0.5737
  286MPD2    C5 4316   3.156   1.415   2.526 -0.0566 -0.1038 -0.2548
  286MPD2     H 4317   3.058   1.425   2.172  0.1193 -0.1118 -1.0132
  286MPD2    H1 4318   3.328   1.308   2.474 -1.2452 -3.0959 -0.7154
  286MPD2    H2 4319   2.988   1.514   2.587 -0.1594 -0.2243 -0.2509
  286MPD2    H3 4320   3.197   1.420   2.626 -0.1590 -0.2877 -0.2031
  286MPD2     N 4321   3.300   1.291   2.216  0.3779 -0.1660  0.2303
  286MPD2    H5 4322   3.380   1.253   2.265 -1.2310 -1.5156  1.7944
  286MPD2    N1 4323   2.887   1.535   2.318  0.2383  0.2530 -0.1866
  286MPD2    H7 4324   2.868   1.558   2.221 -1.5667 -0.8102 -0.0902
  287TMC3    C1 4325   3.407   1.215   2.023 -0.1405  0.3115 -0.6145
  287TMC3    C2 4326   3.400   1.189   1.889  0.5220  0.4622 -0.0607
  287TMC3    C3 4327   3.497   1.116   1.830 -0.1580  0.1349  0.4584
  287TMC3    C4 4328   3.504   1.142   2.095  0.2810  0.3890 -0.6123
  287TMC3    C5 4329   3.599   1.074   2.029 -0.1445 -0.6479  0.3588
  287TMC3    C6 4330   3.602   1.060   1.895  0.5865  0.0835  0.3724
  287TMC3     C 4331   3.294   1.284   2.077  0.9667  0.1347 -1.0793
  287TMC3     O 4332   3.205   1.327   2.012  0.2910 -0.3992 -0.4022
  287TMC3     H 4333   3.308   1.212   1.836  1.1446  0.0212 -1.3318
  287TMC3    H1 4334   3.507   1.151   2.203  0.1821  2.2235 -0.7577
  287TMC3    H2 4335   3.679   1.003   1.845 -0.4860  0.6174 -1.8489
  287TMC3    C7 4336   3.712   1.049   2.108 -0.0155  0.0593 -0.1223
  287TMC3    C8 4337   3.487   1.086   1.685  0.6894 -0.3516  0.9186
  287TMC3    O1 4338   3.703   1.054   2.227  0.2120  0.3706  0.3432
  287TMC3    O2 4339   3.544   0.987   1.644  0.2668  0.2739  0.6042
  288TMC3    C1 4340   0.315   1.512  14.465 -0.7270  0.0197 -0.3379
  288TMC3    C2 4341   0.198   1.516  14.533  0.0183 -0.4862  0.4984
  288TMC3    C3 4342   0.127   1.636  14.528 -0.1713 -0.2014 -0.5505
  288TMC3    C4 4343   0.361   1.610  14.380  0.8778  0.0748 -0.3907
  288TMC3    C5 4344   0.277   1.720  14.361  0.3148 -0.4685  0.7281
  288TMC3    C6 4345   0.162   1.736  14.438 -0.5409 -0.5524 -0.8571
  288TMC3     C 4346   0.419   1.425  14.517  0.2754 -0.4944 -0.2195
  288TMC3     O 4347   0.396   1.348  14.605 -0.0426  0.0686  0.1596
  288TMC3     H 4348   0.174   1.440  14.607 -1.2251 -1.3170 -0.7687
  288TMC3    H1 4349   0.432   1.600  14.299  2.6291  0.7450  1.0544
  288TMC3    H2 4350   0.115   1.834  14.426 -0.8002 -0.4655  0.8678
  288TMC3    C7 4351   0.321   1.815  14.262 -0.3335 -0.6466  0.3019
  288TMC3    C8 4352   0.026   1.666  14.629  0.0140 -0.1235 -0.3813
  288TMC3    O1 4353   0.438   1.805  14.230 -0.3971 -0.0215  0.6197
  288TMC3    O2 4354   4.707   1.780  14.644 -0.1037 -0.7373 -0.0854
  289MPD2     C 4355   4.554   0.508  14.690  0.0735 -0.3965  0.2961
  289MPD2    C1 4356   4.601   0.633  14.640  0.0320  0.5412  0.6291
  289MPD2    C2 4357   4.534   0.690  14.536  0.1574  0.7232 -0.1149
  289MPD2    C3 4358   4.423   0.624  14.482  0.1869 -0.2210  0.7193
  289MPD2    C4 4359   4.375   0.503  14.536 -0.0698  1.1106 -0.6616
  289MPD2    C5 4360   4.441   0.449  14.642 -0.9042  0.3451 -0.0353
  289MPD2     H 4361   4.558   0.786  14.493  0.7630  1.4234  1.7824
  289MPD2    H1 4362   4.276   0.470  14.509  0.2805 -0.7569  0.3364
  289MPD2    H2 4363   4.599   0.458  14.775 -2.4091 -3.3692 -0.1115
  289MPD2    H3 4364   4.398   0.360  14.687  1.2292 -0.2993  0.6807
  289MPD2     N 4365   4.349   0.674  14.372 -0.0096 -0.4701 -0.5385
  289MPD2    H5 4366   4.264   0.624  14.348  0.5637 -2.1915  1.0237
  289MPD2    N1 4367   0.003   0.684  14.701  1.5124  0.6113  0.0598
  289MPD2    H7 4368   0.039   0.645  14.787 -0.6731 -0.9366  0.2588
  290TMC3    C1 4369   4.261   0.797  14.195  0.1006  0.0270 -0.1021
  290TMC3    C2 4370   4.223   0.924  14.157 -0.3534 -0.0473 -0.3384
  290TMC3    C3 4371   4.102   0.942  14.097 -0.3050  0.3457 -0.2177
  290TMC3    C4 4372   4.185   0.682  14.169  0.2563 -0.8606 -0.0270
  290TMC3    C5 4373   4.071   0.706  14.108  0.2557 -0.0227 -0.2680
  290TMC3    C6 4374   4.029   0.832  14.069 -0.3247  0.4997  0.6773
  290TMC3     C 4375   4.365   0.789  14.290  0.9161 -0.4026  0.1645
  290TMC3     O 4376   4.441   0.879  14.300  0.7359 -0.5852 -0.1945
  290TMC3     H 4377   4.287   1.011  14.170  0.8475 -1.1561  1.1347
  290TMC3    H1 4378   4.225   0.582  14.177 -0.8054 -1.0929  2.2339
  290TMC3    H2 4379   3.938   0.839  14.010 -0.4666  0.5588  0.9011
  290TMC3    C7 4380   3.960   0.611  14.119 -0.6411 -0.1247  0.2779
  290TMC3    C8 4381   4.054   1.065  14.032  0.0415  0.3019  0.9438
  290TMC3    O1 4382   3.872   0.621  14.036 -0.4857  0.1102 -0.1921
  290TMC3    O2 4383   3.950   1.051  13.971  0.3033  0.5092  0.4411
  291MPD2     C 4384   3.696   0.277   0.765  0.0481  0.2827  0.1042
  291MPD2    C1 4385   3.715   0.213   0.644  0.0891  0.0287 -0.5955
  291MPD2    C2 4386   3.844   0.216   0.586 -0.6833 -0.2242  0.0036
  291MPD2    C3 4387   3.947   0.270   0.658  0.4482 -0.1566  0.3281
  291MPD2    C4 4388   3.934   0.316   0.785  0.2545 -0.3143 -0.5553
  291MPD2    C5 4389   3.810   0.314   0.842  0.4977 -0.7652 -0.6380
  291MPD2     H 4390   3.844   0.183   0.483 -0.5340 -0.9926  0.2461
  291MPD2    H1 4391   4.015   0.346   0.850  1.1502 -1.8931 -0.9412
  291MPD2    H2 4392   3.604   0.285   0.821 -0.2220  0.6592 -0.3934
  291MPD2    H3 4393   3.793   0.354   0.941 -0.1422  2.4023 -2.0317
  291MPD2     N 4394   4.075   0.275   0.599 -0.2917  0.4847  0.0036
  291MPD2    H5 4395   4.149   0.299   0.664  0.9327  0.0690 -1.2215
  291MPD2    N1 4396   3.611   0.158   0.570 -0.6275 -0.0795 -0.0648
  291MPD2    H7 4397   3.629   0.139   0.471 -2.4980  1.2535 -0.6630
  292TMC3    C1 4398   3.399   0.061   0.542 -0.5077  0.0880 -0.3081
  292TMC3    C2 4399   3.271   0.052   0.597 -0.7024 -0.1372  0.4892
  292TMC3    C3 4400   3.183   4.685   0.549  0.1918 -0.6430 -0.0035
  292TMC3    C4 4401   3.445   4.699   0.442 -0.0374 -0.9412  0.0530
  292TMC3    C5 4402   3.354   4.605   0.392 -0.4676  0.4123  0.3493
  292TMC3    C6 4403   3.220   4.604   0.435  0.1441  0.0916 -0.0530
  292TMC3     C 4404   3.488   0.132   0.630 -0.2923 -0.5026  0.1058
  292TMC3     O 4405   3.449   0.143   0.742 -0.1189 -0.3180  0.3502
  292TMC3     H 4406   3.236   0.105   0.685 -1.1729 -1.2228  0.9668
  292TMC3    H1 4407   3.549   4.685   0.413 -0.2501 -0.9967 -0.6762
  292TMC3    H2 4408   3.149   4.527   0.406 -0.3882  0.7933 -0.6179
  292TMC3    C7 4409   3.379   4.527   0.276 -0.0275 -0.1624 -0.3310
  292TMC3    C8 4410   3.083   4.643   0.652  0.0277 -0.4169 -0.4551
  292TMC3    O1 4411   3.493   4.477   0.266  0.0858  0.1070  0.4638
  292TMC3    O2 4412   3.046   0.009   0.733 -0.2186  0.2893 -0.0349
  293MPD2     C 4413   0.983   2.073  12.734  0.3381 -0.1814 -0.9106
  293MPD2    C1 4414   0.898   2.003  12.812  0.1891  0.2638 -0.1034
  293MPD2    C2 4415   0.931   1.967  12.943  0.4102  0.1983  1.0322
  293MPD2    C3 4416   1.060   2.012  12.985  0.2222 -0.1552 -0.6087
  293MPD2    C4 4417   1.141   2.074  12.895 -0.1728 -0.3824 -0.5292
  293MPD2    C5 4418   1.102   2.109  12.769 -0.2305  0.4935 -0.7077
  293MPD2     H 4419   0.861   1.919  13.010 -0.7079 -0.2545 -0.4547
  293MPD2    H1 4420   1.241   2.110  12.913 -0.1319 -1.2549  0.9737
  293MPD2    H2 4421   0.946   2.088  12.633  0.1145 -3.7992 -1.3598
  293MPD2    H3 4422   1.167   2.136  12.688 -0.9386  1.8605 -0.8119
  293MPD2     N 4423   1.100   1.999  13.117 -0.2245  0.0953 -0.7881
  293MPD2    H5 4424   1.040   1.939  13.174  0.0802  1.8521  1.3715
  293MPD2    N1 4425   0.774   1.969  12.750 -0.1647  0.2954  0.2678
  293MPD2    H7 4426   0.761   2.009  12.657 -0.3774  2.1318  1.0769
  294TMC3    C1 4427   0.583   1.847  12.687  0.0743 -0.4186  0.7731
  294TMC3    C2 4428   0.542   1.717  12.672 -0.4548  0.2233  0.0815
  294TMC3    C3 4429   0.524   1.678  12.543 -0.3168 -0.2067  0.6181
  294TMC3    C4 4430   0.586   1.932  12.580  0.2598  0.0909  0.0526
  294TMC3    C5 4431   0.562   1.881  12.456  0.0509  0.1210  0.0727
  294TMC3    C6 4432   0.539   1.749  12.434  0.5082 -0.8711  0.2923
  294TMC3     C 4433   0.671   1.881  12.791  0.6134  0.2272 -0.1976
  294TMC3     O 4434   0.678   1.801  12.883  0.0461  0.6420  0.0469
  294TMC3     H 4435   0.538   1.650  12.757  0.7389 -0.5484 -0.4689
  294TMC3    H1 4436   0.600   2.040  12.583 -3.7720  0.6107  0.0004
  294TMC3    H2 4437   0.522   1.697  12.340  0.9333  0.1329 -0.3487
  294TMC3    C7 4438   0.568   1.973  12.344  0.7070  0.7545  0.1429
  294TMC3    C8 4439   0.468   1.546  12.526  0.0230 -0.7459  0.0536
  294TMC3    O1 4440   0.534   2.085  12.371  0.4473  0.0830  0.5838
  294TMC3    O2 4441   0.501   1.476  12.433  0.0651  0.3494  0.2948
  295MPD2     C 4442   2.629   0.972   0.993 -0.2064  0.2799  0.4960
  295MPD2    C1 4443   2.537   0.878   0.953  0.2419  0.7510  0.3054
  295MPD2    C2 4444   2.462   0.811   1.044 -0.5026 -0.5209 -0.6019
  295MPD2    C3 4445   2.482   0.834   1.178 -0.4909 -1.5045 -0.3279
  295MPD2    C4 4446   2.576   0.928   1.218  0.0485 -0.1758 -0.1150
  295MPD2    C5 4447   2.656   0.993   1.126  0.7016  0.5127 -0.0522
  295MPD2     H 4448   2.393   0.732   1.014  0.6188 -2.5187  2.1227
  295MPD2    H1 4449   2.594   0.955   1.321  1.7184  3.3516 -1.3321
  295MPD2    H2 4450   2.694   1.034   0.932  0.4698  0.8947  1.8333
  295MPD2    H3 4451   2.737   1.056   1.161 -1.9487  3.2321  1.1966
  295MPD2     N 4452   2.415   0.768   1.281 -0.0584  0.0516 -0.0159
  295MPD2    H5 4453   2.452   0.782   1.374  0.8667 -0.1699 -0.3541
  295MPD2    N1 4454   2.540   0.837   0.822  0.1913  0.3146 -0.1020
  295MPD2    H7 4455   2.498   0.749   0.794 -1.1593  1.5520 -1.9114
  296TMC3    C1 4456   2.260   0.623   1.394  0.7586 -0.2901  0.5913
  296TMC3    C2 4457   2.362   0.569   1.474 -0.0463 -0.4954 -0.0097
  296TMC3    C3 4458   2.324   0.489   1.578 -0.9705  0.2343  0.3276
  296TMC3    C4 4459   2.131   0.595   1.424  0.3189 -0.2665  0.4398
  296TMC3    C5 4460   2.100   0.533   1.541  0.9184  0.6720 -0.0073
  296TMC3    C6 4461   2.193   0.471   1.612  0.2251  0.3539  0.6484
  296TMC3     C 4462   2.298   0.695   1.271 -0.1285  0.1708 -0.3557
  296TMC3     O 4463   2.215   0.694   1.178  0.0691  0.2834  0.2186
  296TMC3     H 4464   2.468   0.584   1.457 -0.0936  0.0674  0.2137
  296TMC3    H1 4465   2.058   0.640   1.358  0.6026 -1.8832 -0.9658
  296TMC3    H2 4466   2.168   0.395   1.686  0.8708 -0.7614 -0.2732
  296TMC3    C7 4467   1.964   0.492   1.560  0.4636 -0.0274 -0.5716
  296TMC3    C8 4468   2.421   0.434   1.671  0.0682 -0.1782 -1.4022
  296TMC3    O1 4469   1.942   0.389   1.621 -0.7356  0.6918  0.6285
  296TMC3    O2 4470   2.540   0.425   1.633 -0.3855  0.1775 -0.4959
  297MPD2     C 4471   3.598   2.610  16.832 -0.0272  0.1040  0.1637
  297MPD2    C1 4472   3.541   2.728  16.790 -0.6966  0.0484  0.0185
  297MPD2    C2 4473   3.622   2.836  16.772 -0.1887 -0.5167 -0.3789
  297MPD2    C3 4474   3.762   2.831  16.788 -0.1871 -0.4301 -0.0738
  297MPD2    C4 4475   3.813   2.707  16.832  0.4209  0.2029 -0.0533
  297MPD2    C5 4476   3.732   2.603  16.857 -0.2492  0.0914 -0.2131
  297MPD2     H 4477   3.585   2.937  16.755  2.7105  0.4046 -1.2115
  297MPD2    H1 4478   3.919   2.686  16.841  0.5832 -0.2301 -3.0534
  297MPD2    H2 4479   3.531   2.528  16.855  0.7082 -0.2634  1.0068
  297MPD2    H3 4480   3.777   2.509  16.886  0.7265 -0.0017 -1.9950
  297MPD2     N 4481   3.852   2.924  16.756  0.0286  0.4899  0.0881
  297MPD2    H5 4482   3.812   3.015  16.733  1.0991  0.7187 -0.8353
  297MPD2    N1 4483   3.407   2.734  16.749 -0.1354  0.4645  0.5973
  297MPD2    H7 4484   3.379   2.829  16.727  1.1145  0.2877 -1.7164
  298TMC3    C1 4485   3.183   2.675  16.708 -0.3393  0.0418  0.0527
  298TMC3    C2 4486   3.102   2.570  16.678  0.3318  0.1333 -0.0210
  298TMC3    C3 4487   2.972   2.588  16.667 -0.5057 -0.1507 -0.3729
  298TMC3    C4 4488   3.138   2.798  16.728 -0.0481  0.3415  0.1901
  298TMC3    C5 4489   2.999   2.812  16.722 -0.3761  0.7338 -0.3508
  298TMC3    C6 4490   2.917   2.710  16.695  0.2430  0.2817 -0.1132
  298TMC3     C 4491   3.314   2.630  16.750  0.2088  0.1895  0.0484
  298TMC3     O 4492   3.324   2.510  16.773 -0.0278  0.5949 -0.3825
  298TMC3     H 4493   3.134   2.467  16.664  0.3119  0.0541  0.5004
  298TMC3    H1 4494   3.203   2.884  16.731  0.3702 -0.0398  1.8472
  298TMC3    H2 4495   2.813   2.734  16.715 -0.0069 -2.1243  1.5026
  298TMC3    C7 4496   2.942   2.951  16.722 -0.8288  0.7468  0.5322
  298TMC3    C8 4497   2.881   2.482  16.616  0.5094 -0.6928  0.3508
  298TMC3    O1 4498   2.999   3.041  16.785 -0.5811  0.1022  0.0540
  298TMC3    O2 4499   2.768   2.498  16.656 -0.5982 -0.2799 -0.2100
  299MPD2     C 4500   4.702   2.032  10.822  0.5910  0.1373  0.3289
  299MPD2    C1 4501   4.700   2.156  10.769  0.4919  1.0582  0.1888
  299MPD2    C2 4502   4.637   2.187  10.650  0.0618 -0.2412  0.5285
  299MPD2    C3 4503   4.586   2.075  10.581 -0.0883  0.3675  0.2115
  299MPD2    C4 4504   4.578   1.953  10.638 -0.3428  0.1328 -0.1467
  299MPD2    C5 4505   4.634   1.935  10.756 -0.8284  0.7637 -0.0330
  299MPD2     H 4506   4.628   2.291  10.621  0.1666 -0.6779 -1.0733
  299MPD2    H1 4507   4.538   1.869  10.583  0.4336  0.7119 -1.5926
  299MPD2    H2 4508   0.043   2.006  10.907  0.9979  0.3774  0.1081
  299MPD2    H3 4509   4.626   1.833  10.792  0.5238  0.6811  0.0129
  299MPD2     N 4510   4.529   2.091  10.446  0.7910 -0.2822  0.3077
  299MPD2    H5 4511   4.483   2.006  10.415  1.9208 -1.2668  1.3391
  299MPD2    N1 4512   0.034   2.255  10.855  0.5367 -0.9035  0.3055
  299MPD2    H7 4513   0.065   2.219  10.945  0.5633 -0.9704  0.2705
  300TMC3    C1 4514   4.421   2.198  10.271 -0.1332 -0.2584 -0.5428
  300TMC3    C2 4515   4.435   2.290  10.172 -0.5073 -0.1374 -0.0114
  300TMC3    C3 4516   4.333   2.295  10.076 -0.1508 -0.2487  0.5854
  300TMC3    C4 4517   4.333   2.100  10.269  0.2711  0.7455 -0.1778
  300TMC3    C5 4518   4.232   2.107  10.175 -0.2234  0.9309 -0.3423
  300TMC3    C6 4519   4.240   2.195  10.074  0.4803  0.2079 -0.4586
  300TMC3     C 4520   4.502   2.213  10.386 -0.5107 -0.0576  0.0313
  300TMC3     O 4521   4.533   2.327  10.417 -0.7644 -0.2195  0.2340
  300TMC3     H 4522   4.518   2.359  10.178 -1.6383  1.2197 -0.0155
  300TMC3    H1 4523   4.307   2.042  10.356 -1.0673  1.3421 -0.1892
  300TMC3    H2 4524   4.171   2.185   9.991 -0.8478  1.3950  0.4951
  300TMC3    C7 4525   4.114   2.036  10.195  0.6626 -0.3771 -0.5168
  300TMC3    C8 4526   4.305   2.428  10.037 -0.6961 -0.5164 -0.2858
  300TMC3    O1 4527   4.121   1.915  10.196  0.1404 -0.3310  0.4424
  300TMC3    O2 4528   4.386   2.515  10.071  0.0583 -0.2114 -0.4926
  301MPD2     C 4529   1.365   3.946   1.869  0.7536 -0.1209  0.0581
  301MPD2    C1 4530   1.224   3.941   1.873  0.1434  0.3172 -0.3227
  301MPD2    C2 4531   1.149   3.824   1.882 -0.3127 -0.2148 -0.5310
  301MPD2    C3 4532   1.220   3.700   1.871  0.8520  0.9495  0.4336
  301MPD2    C4 4533   1.356   3.708   1.873 -1.1782 -0.1173 -0.0387
  301MPD2    C5 4534   1.427   3.825   1.877 -0.9540 -0.0895 -0.1138
  301MPD2     H 4535   1.041   3.819   1.876 -0.4697  2.2823  0.0659
  301MPD2    H1 4536   1.409   3.613   1.875 -1.2425 -0.1254  1.0483
  301MPD2    H2 4537   1.422   4.035   1.842  1.2677 -0.3321  0.4453
  301MPD2    H3 4538   1.534   3.815   1.862 -0.3643  3.6692  1.5720
  301MPD2     N 4539   1.168   3.570   1.848  0.5936  0.1635 -0.1569
  301MPD2    H5 4540   1.234   3.493   1.847  0.3794 -0.0235  0.0680
  301MPD2    N1 4541   1.146   4.060   1.888  0.7862 -0.5231  0.3461
  301MPD2    H7 4542   1.048   4.044   1.907 -0.1047  0.9449 -3.0455
  302TMC3    C1 4543   1.011   3.397   1.815 -0.1807 -0.2611  0.0194
  302TMC3    C2 4544   1.097   3.340   1.727 -0.1125  0.0090 -0.7406
  302TMC3    C3 4545   1.060   3.216   1.676 -0.1851  0.3602  0.0147
  302TMC3    C4 4546   0.883   3.348   1.835 -0.3090  0.8785  0.3326
  302TMC3    C5 4547   0.859   3.226   1.782 -0.5598  0.2120  0.3248
  302TMC3    C6 4548   0.943   3.160   1.705  0.3751 -0.5630  1.5596
  302TMC3     C 4549   1.027   3.537   1.857 -0.0450  0.9185  0.8296
  302TMC3     O 4550   0.927   3.605   1.881 -0.0120 -0.4715  0.0919
  302TMC3     H 4551   1.186   3.390   1.693  1.4815 -1.4677  1.2783
  302TMC3    H1 4552   0.807   3.401   1.891 -2.4656  0.0266 -1.7786
  302TMC3    H2 4553   0.913   3.063   1.667 -0.8336  0.3171  0.2793
  302TMC3    C7 4554   0.723   3.174   1.785  0.3641  0.5620  0.2720
  302TMC3    C8 4555   1.127   3.179   1.552 -0.0671  0.5342 -0.4869
  302TMC3    O1 4556   0.712   3.053   1.779 -0.5018  0.3440  0.0505
  302TMC3    O2 4557   1.239   3.223   1.540 -0.1249 -0.0578 -0.1929
  303MPD2     C 4558   1.631   1.138  10.128 -0.0734 -0.8082  0.3145
  303MPD2    C1 4559   1.499   1.102  10.128  0.2465 -0.0329 -0.4687
  303MPD2    C2 4560   1.408   1.164  10.044  0.0426 -0.7541 -0.1395
  303MPD2    C3 4561   1.449   1.276   9.966 -0.0616 -0.3671  0.6027
  303MPD2    C4 4562   1.585   1.320   9.983 -0.3524  0.7612  0.0530
  303MPD2    C5 4563   1.675   1.246  10.056  0.5308 -0.3371  0.5081
  303MPD2     H 4564   1.306   1.128  10.045 -0.0237 -0.5595  0.1063
  303MPD2    H1 4565   1.624   1.408   9.934  1.4628 -0.7466 -1.2147
  303MPD2    H2 4566   1.702   1.082  10.188  0.3262 -1.5806 -0.8832
  303MPD2    H3 4567   1.777   1.278  10.073  0.1765  1.6417 -1.1274
  303MPD2     N 4568   1.357   1.356   9.895  0.6298  0.5739 -0.2174
  303MPD2    H5 4569   1.384   1.450   9.867  1.7595  0.6329  1.0753
  303MPD2    N1 4570   1.470   0.990  10.210  0.3292  0.7369  0.5030
  303MPD2    H7 4571   1.531   0.948  10.280  2.5217  1.2186 -1.1057
  304TMC3    C1 4572   1.326   0.844  10.319  0.0944  0.3988 -0.1402
  304TMC3    C2 4573   1.312   0.902  10.446  0.3778 -0.1584 -0.1885
  304TMC3    C3 4574   1.213   0.847  10.529 -0.0138  0.2913  0.1899
  304TMC3    C4 4575   1.242   0.743  10.280 -0.5696 -0.2187 -0.1936
  304TMC3    C5 4576   1.159   0.680  10.369  0.6713  0.0108 -0.3944
  304TMC3    C6 4577   1.141   0.731  10.492 -0.2562  0.4546  0.6216
  304TMC3     C 4578   1.348   0.926  10.214 -0.8257 -0.5480  0.3440
  304TMC3     O 4579   1.260   0.933  10.133  0.5282  0.2659 -0.3739
  304TMC3     H 4580   1.363   0.992  10.477  0.2664 -0.0249 -0.3956
  304TMC3    H1 4581   1.240   0.714  10.175  1.2688 -0.1901 -0.2276
  304TMC3    H2 4582   1.076   0.682  10.564 -1.3223  2.6405  1.1517
  304TMC3    C7 4583   1.034   0.642  10.315 -0.2806  0.2687 -0.1918
  304TMC3    C8 4584   1.126   0.946  10.583 -0.3830  0.0819  0.1352
  304TMC3    O1 4585   0.940   0.697  10.374  0.3321  0.2469 -0.0015
  304TMC3    O2 4586   1.175   1.050  10.619  0.3514 -0.4336 -0.0682
  305MPD2     C 4587   4.324   3.509  14.552 -0.1025  1.0990 -0.1697
  305MPD2    C1 4588   4.398   3.627  14.545 -0.3840  0.1868  0.1746
  305MPD2    C2 4589   4.448   3.670  14.423 -0.2397 -0.6786 -0.6036
  305MPD2    C3 4590   4.424   3.603  14.300  0.3076  0.2858 -0.2133
  305MPD2    C4 4591   4.355   3.485  14.311  1.0872  0.6877  0.4827
  305MPD2    C5 4592   4.298   3.436  14.433 -0.4810 -0.4223  0.7193
  305MPD2     H 4593   4.515   3.755  14.418 -1.0183 -0.0788 -0.8146
  305MPD2    H1 4594   4.325   3.433  14.221  0.1163  1.2056  0.5042
  305MPD2    H2 4595   4.273   3.478  14.643 -0.6922  1.2959 -0.4329
  305MPD2    H3 4596   4.238   3.346  14.422 -1.3258  0.2740 -0.4521
  305MPD2     N 4597   4.484   3.630  14.173  0.9473 -0.0333  0.4052
  305MPD2    H5 4598   4.475   3.558  14.103  0.8973 -1.5129  1.9560
  305MPD2    N1 4599   4.437   3.690  14.671  0.4527  0.1507  0.0710
  305MPD2    H7 4600   4.399   3.640  14.751 -1.8090  0.0983 -1.0173
  306TMC3    C1 4601   4.562   3.815  14.820 -0.3718  0.1270  0.4246
  306TMC3    C2 4602   4.570   3.710  14.906 -0.5371 -0.0039  0.1633
  306TMC3    C3 4603   4.612   3.739  15.030 -0.9089  0.8779 -0.8324
  306TMC3    C4 4604   4.596   3.946  14.856 -0.5306  0.2105  0.5701
  306TMC3    C5 4605   4.633   3.968  14.987 -0.1387  0.1360  0.2690
  306TMC3    C6 4606   4.651   3.862  15.072 -0.1235 -0.3954 -0.5028
  306TMC3     C 4607   4.513   3.803  14.684 -0.3560  1.0485 -0.1537
  306TMC3     O 4608   4.544   3.887  14.608  0.5850  0.6457  0.0309
  306TMC3     H 4609   4.542   3.609  14.875  1.9170 -1.3888  2.4202
  306TMC3    H1 4610   4.597   4.027  14.785 -0.5596  1.1745  1.6714
  306TMC3    H2 4611   4.677   3.870  15.178 -0.3997  1.8021 -0.5887
  306TMC3    C7 4612   4.683   4.107  15.023  0.5246 -0.0663 -0.0235
  306TMC3    C8 4613   4.670   3.624  15.103  0.3118 -0.4840 -0.4023
  306TMC3    O1 4614   4.664   4.191  14.933  0.0982 -0.0735 -0.5592
  306TMC3    O2 4615   0.004   3.538  15.035  0.1095  0.3821  0.3886
  307MPD2     C 4616   2.575   2.257   0.342  0.6759 -0.4775 -0.1937
  307MPD2    C1 4617   2.501   2.376   0.359  0.6719  0.5198  0.9569
  307MPD2    C2 4618   2.404   2.379   0.453  0.0655 -0.0153 -0.7748
  307MPD2    C3 4619   2.369   2.269   0.531  0.6649  0.0547  0.1104
  307MPD2    C4 4620   2.448   2.157   0.516 -1.1059  0.2954 -0.2524
  307MPD2    C5 4621   2.547   2.151   0.423  0.1279  0.4373 -0.0946
  307MPD2     H 4622   2.356   2.474   0.473 -2.2784 -0.8517 -2.3885
  307MPD2    H1 4623   2.433   2.078   0.589  0.6414  2.1326  2.0942
  307MPD2    H2 4624   2.634   2.242   0.252 -1.4282 -1.6173 -1.3720
  307MPD2    H3 4625   2.615   2.066   0.422  1.7747  1.7321  2.2497
  307MPD2     N 4626   2.257   2.277   0.614  0.5891 -0.7446 -0.2866
  307MPD2    H5 4627   2.201   2.361   0.604 -0.0050 -1.0235  0.7523
  307MPD2    N1 4628   2.500   2.491   0.273  0.3847  0.1130  0.2326
  307MPD2    H7 4629   2.432   2.564   0.293 -2.1601 -1.8471 -1.1491
  308TMC3    C1 4630   1.886   2.191   0.886  0.0664 -0.1168  0.7505
  308TMC3    C2 4631   1.880   2.323   0.935  0.3362 -0.2573  0.4661
  308TMC3    C3 4632   1.995   2.401   0.902 -0.6180 -0.0755  1.1559
  308TMC3    C4 4633   1.989   2.151   0.816 -1.7197 -0.0376  0.9113
  308TMC3    C5 4634   2.096   2.228   0.781 -0.1730  0.0879  0.0949
  308TMC3    C6 4635   2.109   2.353   0.834  0.3810  0.1945 -0.7264
  308TMC3     C 4636   1.773   2.099   0.901 -0.1186  0.2476 -0.1939
  308TMC3     O 4637   1.792   1.983   0.879 -0.2935 -0.0147 -0.1173
  308TMC3     H 4638   1.796   2.364   0.990  1.0416  0.6401  0.8625
  308TMC3    H1 4639   1.991   2.053   0.769  0.2585 -0.2245  1.3472
  308TMC3    H2 4640   2.197   2.414   0.818 -0.0432  1.3177  1.2803
  308TMC3    C7 4641   2.200   2.177   0.696 -0.4901 -0.2915  0.2315
  308TMC3    C8 4642   1.987   2.545   0.930  0.7269 -0.1371  0.4860
  308TMC3    O1 4643   2.211   2.055   0.689  0.2584  0.6918  0.2346
  308TMC3    O2 4644   1.880   2.587   0.973 -0.2288 -0.3535 -0.2159
  309MPD2     C 4645   1.129   2.269   0.170  0.5270  0.5031 -0.2291
  309MPD2    C1 4646   1.199   2.367   0.100 -0.1504  0.4606 -0.1535
  309MPD2    C2 4647   1.174   2.501   0.122  0.4648  0.8589 -0.2596
  309MPD2    C3 4648   1.075   2.544   0.218  0.3669 -0.3671 -0.2686
  309MPD2    C4 4649   1.005   2.440   0.277  0.4353  0.0477 -0.1153
  309MPD2    C5 4650   1.026   2.309   0.255 -0.3523 -0.1078  0.4342
  309MPD2     H 4651   1.235   2.566   0.061  1.8963  2.1790  2.5564
  309MPD2    H1 4652   0.938   2.463   0.359  1.5321 -0.7917  1.0047
  309MPD2    H2 4653   1.134   2.166   0.139 -3.3816 -0.0125  0.8621
  309MPD2    H3 4654   0.968   2.228   0.298  0.8324 -0.2791  1.6850
  309MPD2     N 4655   1.045   2.679   0.247  0.2363 -0.7675  0.1898
  309MPD2    H5 4656   0.968   2.697   0.310  0.3608 -3.2408  1.0357
  309MPD2    N1 4657   1.286   2.339  17.682  0.0285 -0.6754  0.1067
  309MPD2    H7 4658   1.316   2.420  17.628 -2.2224  0.3011  0.3057
  310TMC3    C1 4659   1.435   2.224  17.537 -0.4944 -0.3762 -0.1915
  310TMC3    C2 4660   1.388   2.299  17.426 -0.2378 -0.2555 -0.6571
  310TMC3    C3 4661   1.452   2.270  17.307  0.0968  0.2877 -0.5935
  310TMC3    C4 4662   1.543   2.139  17.534 -0.0576  0.1119  0.2850
  310TMC3    C5 4663   1.598   2.113  17.415 -0.2063 -0.0769 -0.4897
  310TMC3    C6 4664   1.555   2.176  17.299  0.7584  0.8045 -0.8662
  310TMC3     C 4665   1.358   2.228  17.655  0.1309 -0.5907 -0.1410
  310TMC3     O 4666   1.362   2.131   0.041 -0.3307  0.0171  0.2533
  310TMC3     H 4667   1.297   2.356  17.439 -0.9836 -2.3339  3.3327
  310TMC3    H1 4668   1.571   2.101  17.632 -1.6268  2.1229  1.5294
  310TMC3    H2 4669   1.604   2.147  17.207 -0.3292 -2.8971 -0.2971
  310TMC3    C7 4670   1.729   2.043  17.408  0.1178  1.0892 -0.2322
  310TMC3    C8 4671   1.413   2.344  17.189 -0.8922 -0.2407 -0.5229
  310TMC3    O1 4672   1.793   2.044  17.303 -0.2829  0.3029  0.0787
  310TMC3    O2 4673   1.445   2.299  17.082  0.2498 -0.1210 -0.3810
  311MPD2     C 4674   3.963   3.338  13.029 -0.2435 -0.6391  0.4532
  311MPD2    C1 4675   3.928   3.473  13.014 -0.5653 -0.2241  0.0684
  311MPD2    C2 4676   3.792   3.516  13.020 -0.2206  0.4865  0.5321
  311MPD2    C3 4677   3.699   3.419  13.041  0.2682  0.0734  0.0930
  311MPD2    C4 4678   3.738   3.288  13.068 -0.7407  0.1751  0.2766
  311MPD2    C5 4679   3.867   3.253  13.068 -0.2623 -0.8214 -0.2626
  311MPD2     H 4680   3.767   3.620  13.002 -1.6446  0.1873  0.8173
  311MPD2    H1 4681   3.671   3.205  13.087  0.6755 -1.1208 -0.4048
  311MPD2    H2 4682   4.068   3.312  13.016  0.5348  1.8115  1.7926
  311MPD2    H3 4683   3.888   3.148  13.084 -1.8245 -1.3934 -1.9744
  311MPD2     N 4684   3.567   3.457  13.051 -0.3030 -0.4470  0.6906
  311MPD2    H5 4685   3.553   3.554  13.075  0.1280 -0.0142 -0.7861
  311MPD2    N1 4686   4.027   3.574  12.980 -0.4327 -1.1773  0.2668
  311MPD2    H7 4687   3.996   3.663  12.940 -1.4083 -1.4960  0.3252
  312TMC3    C1 4688   3.339   3.445  13.124  0.6285 -0.5234 -0.3838
  312TMC3    C2 4689   3.220   3.368  13.108 -0.3552  0.2411  0.3506
  312TMC3    C3 4690   3.107   3.422  13.162 -0.3622  0.3260 -0.2539
  312TMC3    C4 4691   3.345   3.564  13.201 -0.2238  0.8648 -0.2173
  312TMC3    C5 4692   3.229   3.613  13.254  0.4058  0.7222  0.2839
  312TMC3    C6 4693   3.108   3.540  13.239  0.4659  0.0152  0.3683
  312TMC3     C 4694   3.454   3.378  13.060  0.5409  0.7284 -0.7585
  312TMC3     O 4695   3.446   3.263  13.024  0.1041 -0.5833  0.2064
  312TMC3     H 4696   3.212   3.278  13.049  0.7177 -1.0699  2.1937
  312TMC3    H1 4697   3.438   3.617  13.221  0.6826 -0.4320 -0.9868
  312TMC3    H2 4698   3.018   3.572  13.292 -0.2251 -0.4769 -0.5131
  312TMC3    C7 4699   3.246   3.741  13.313 -0.4246  0.7737  0.0769
  312TMC3    C8 4700   2.973   3.386  13.105  0.7780 -0.1179 -0.1394
  312TMC3    O1 4701   3.332   3.821  13.269  0.0445  0.1017  0.6111
  312TMC3    O2 4702   2.961   3.274  13.058 -0.1471  0.5584 -1.0266
  313MPD2     C 4703   3.600   2.821  10.295  0.2216  0.9930 -0.1168
  313MPD2    C1 4704   3.464   2.806  10.309  0.3116  0.5551  0.0184
  313MPD2    C2 4705   3.405   2.707  10.236 -0.7023  0.2403 -0.5261
  313MPD2    C3 4706   3.469   2.626  10.141 -0.1575  0.0267 -0.7308
  313MPD2    C4 4707   3.604   2.655  10.124 -0.2073 -0.2039 -0.3777
  313MPD2    C5 4708   3.666   2.749  10.205 -0.2879 -0.5316  0.4242
  313MPD2     H 4709   3.299   2.692  10.251 -1.0102  1.8992 -1.0938
  313MPD2    H1 4710   3.664   2.606  10.048 -0.2378  0.7462 -1.0165
  313MPD2    H2 4711   3.657   2.885  10.361  0.5579  1.0040 -0.4127
  313MPD2    H3 4712   3.774   2.757  10.194 -0.4919 -0.5660 -1.5799
  313MPD2     N 4713   3.400   2.516  10.076 -0.2092  0.1499  0.2056
  313MPD2    H5 4714   3.300   2.507  10.092 -0.4719  1.9036 -0.3848
  313MPD2    N1 4715   3.389   2.878  10.398  0.4521  0.0620 -0.1989
  313MPD2    H7 4716   3.288   2.865  10.398  0.5894 -0.9717  2.3351
  314TMC3    C1 4717   3.324   3.029  10.557  0.4043  0.1410 -0.2125
  314TMC3    C2 4718   3.352   3.062  10.691 -0.2265 -0.5876  0.1573
  314TMC3    C3 4719   3.294   3.175  10.740 -0.0239  0.5772 -0.1337
  314TMC3    C4 4720   3.248   3.107  10.475  0.4061  0.0439  0.2484
  314TMC3    C5 4721   3.194   3.224  10.525 -0.0421  0.0396 -0.6030
  314TMC3    C6 4722   3.208   3.257  10.658  0.2677  0.3119 -0.6510
  314TMC3     C 4723   3.436   2.959  10.494  0.1816 -0.4423 -0.0047
  314TMC3     O 4724   3.544   2.991  10.537 -0.1160 -0.2468 -0.0974
  314TMC3     H 4725   3.422   3.000  10.745 -0.8285 -0.1425  1.4356
  314TMC3    H1 4726   3.256   3.086  10.369 -2.3499  1.4572 -0.2301
  314TMC3    H2 4727   3.162   3.345  10.702 -2.1315 -0.4490 -1.6712
  314TMC3    C7 4728   3.176   3.344  10.444 -0.4342  0.2179 -0.0317
  314TMC3    C8 4729   3.337   3.234  10.867  0.0405  0.1904  0.3470
  314TMC3    O1 4730   3.127   3.444  10.495 -0.0348  0.2706 -0.0627
  314TMC3    O2 4731   3.286   3.340  10.896 -0.1897  0.1767  0.0596
  315MPD2     C 4732   2.407   2.719   0.668 -0.1601  0.2131 -0.0089
  315MPD2    C1 4733   2.515   2.631   0.653  0.1441  0.0720  0.1774
  315MPD2    C2 4734   2.605   2.656   0.556  0.4515 -0.0624  0.1892
  315MPD2    C3 4735   2.581   2.754   0.462 -0.4703 -0.0754  0.1704
  315MPD2    C4 4736   2.461   2.833   0.465  0.1224  0.0911  1.1228
  315MPD2    C5 4737   2.376   2.818   0.574  0.3190  0.4270  0.6624
  315MPD2     H 4738   2.698   2.601   0.556  0.2588 -0.3938 -1.1211
  315MPD2    H1 4739   2.435   2.911   0.394 -0.4577  0.3763  1.6486
  315MPD2    H2 4740   2.341   2.720   0.754  0.3295  0.1210  0.3610
  315MPD2    H3 4741   2.296   2.887   0.595 -0.7826 -1.4316  2.5550
  315MPD2     N 4742   2.685   2.769   0.374  0.1890 -0.2319  0.7818
  315MPD2    H5 4743   2.764   2.707   0.384  0.4893  0.1831  0.9717
  315MPD2    N1 4744   2.549   2.532   0.751 -0.3562  0.3870  0.3052
  315MPD2    H7 4745   2.640   2.488   0.746 -0.3779  0.1738  1.8696
  316TMC3    C1 4746   2.842   2.886   0.259 -0.0514 -0.0444 -0.2377
  316TMC3    C2 4747   2.936   2.844   0.351  0.3262 -0.2569  0.5230
  316TMC3    C3 4748   3.055   2.912   0.343 -0.3664 -0.0947 -0.1782
  316TMC3    C4 4749   2.861   2.974   0.152  0.0332  1.1434  0.2709
  316TMC3    C5 4750   2.980   3.038   0.151 -0.6885  0.0005 -0.0199
  316TMC3    C6 4751   3.074   3.000   0.237  0.4637  0.6994  0.8420
  316TMC3     C 4752   2.703   2.873   0.289  0.2875  0.1044  0.2663
  316TMC3     O 4753   2.620   2.940   0.237  0.3796 -0.7534  0.6017
  316TMC3     H 4754   2.909   2.786   0.438 -1.6614  1.4713  1.0511
  316TMC3    H1 4755   2.785   2.981   0.075 -0.2103 -1.6488  0.2385
  316TMC3    H2 4756   3.168   3.054   0.247  1.1713 -0.4996  0.7536
  316TMC3    C7 4757   2.982   3.177   0.116  0.4117 -0.0548 -0.0758
  316TMC3    C8 4758   3.115   2.940   0.467 -0.2496  0.9163  0.4961
  316TMC3    O1 4759   3.076   3.240   0.158  0.0865  0.1325 -0.5435
  316TMC3    O2 4760   3.152   3.055   0.487  0.6351 -0.0815 -0.3015
  317MPD2     C 4761   4.578   0.807  13.548  0.4859  0.2828  1.1639
  317MPD2    C1 4762   4.623   0.698  13.463 -0.1745  0.2840  0.1710
  317MPD2    C2 4763   4.687   0.591  13.521  0.1318  0.2720 -0.5918
  317MPD2    C3 4764   4.706   0.575  13.657  0.4702  1.0293  0.8128
  317MPD2    C4 4765   4.674   0.687  13.735  0.2053 -0.4532 -0.0912
  317MPD2    C5 4766   4.623   0.794  13.678 -0.3608  0.0727  0.3152
  317MPD2     H 4767   0.000   0.511  13.457 -0.2106  0.8581 -1.4982
  317MPD2    H1 4768   4.696   0.689  13.841 -0.7792  0.3382  0.0982
  317MPD2    H2 4769   4.534   0.903  13.524 -3.5356 -1.9620 -0.4921
  317MPD2    H3 4770   4.606   0.882  13.738 -1.3354  0.5163 -0.6115
  317MPD2     N 4771   0.036   0.456  13.712  0.1689 -0.0343 -0.3334
  317MPD2    H5 4772   0.071   0.390  13.643  0.8805 -1.9852  1.8809
  317MPD2    N1 4773   4.606   0.699  13.327  0.4926 -0.3241 -0.1295
  317MPD2    H7 4774   4.642   0.632  13.260  0.6060 -2.1336  1.7474
  318TMC3    C1 4775   0.103   0.288  13.858 -0.3510  0.4040 -0.3960
  318TMC3    C2 4776   0.110   0.201  13.747  0.0813  0.1200  1.2907
  318TMC3    C3 4777   0.172   0.082  13.762  0.3077 -0.2299  0.2051
  318TMC3    C4 4778   0.156   0.255  13.979  0.7766 -1.2137  0.3373
  318TMC3    C5 4779   0.215   0.128  13.988  0.5965  0.5840 -0.1005
  318TMC3    C6 4780   0.228   0.039  13.882 -0.0667  0.0685  0.1867
  318TMC3     C 4781   0.038   0.413  13.842  0.1715  0.4990  0.2856
  318TMC3     O 4782   0.004   0.472  13.944 -0.4095  0.2243 -0.0237
  318TMC3     H 4783   0.055   0.237  13.660  0.4074 -1.3006  0.4949
  318TMC3    H1 4784   0.159   0.318  14.066 -2.3753  0.5738 -0.8512
  318TMC3    H2 4785   0.259   4.657  13.890  1.7858  0.6702  0.9334
  318TMC3    C7 4786   0.283   0.104  14.117  0.3814  0.4606  0.0934
  318TMC3    C8 4787   0.198   4.714  13.651 -0.2259  0.2811 -0.4312
  318TMC3    O1 4788   0.229   0.144  14.219  0.3404  0.1993 -0.6384
  318TMC3    O2 4789   0.242   4.598  13.668  0.8958  0.3160 -0.0622
  319MPD2     C 4790   1.105   1.881  17.081 -0.1276 -0.2343  0.6252
  319MPD2    C1 4791   1.001   1.876  17.175 -1.4952  0.6932 -0.1073
  319MPD2    C2 4792   0.873   1.916  17.135 -0.1423  0.2170  0.0948
  319MPD2    C3 4793   0.842   1.957  17.009 -0.1731 -0.2933 -0.3652
  319MPD2    C4 4794   0.944   1.960  16.919  0.3559  0.9036 -0.6031
  319MPD2    C5 4795   1.074   1.920  16.958 -0.0110  0.5304  0.1591
  319MPD2     H 4796   0.800   1.913  17.216 -0.2270 -2.0423 -0.0816
  319MPD2    H1 4797   0.924   2.001  16.820 -0.6633  0.6527 -0.4959
  319MPD2    H2 4798   1.204   1.842  17.101 -0.3652 -1.2808 -0.2907
  319MPD2    H3 4799   1.148   1.924  16.879  0.2451  2.7751  0.5077
  319MPD2     N 4800   0.714   1.979  16.959 -0.2515 -0.4503  0.2004
  319MPD2    H5 4801   0.709   1.984  16.858 -3.6832 -1.6585  0.2877
  319MPD2    N1 4802   1.026   1.834  17.308  0.2616  0.4173 -0.5544
  319MPD2    H7 4803   0.945   1.818  17.367 -0.9966  0.5706 -2.2337
  320TMC3    C1 4804   0.484   1.943  16.947  0.8724  0.2746  0.0887
  320TMC3    C2 4805   0.472   2.028  16.836  0.4894  0.4062  0.3515
  320TMC3    C3 4806   0.380   2.005  16.734  0.3636 -0.7417 -0.2465
  320TMC3    C4 4807   0.415   1.823  16.953  0.2651  0.3374  0.0078
  320TMC3    C5 4808   0.327   1.803  16.848 -0.4797  0.9996 -0.4286
  320TMC3    C6 4809   0.310   1.890  16.743  0.1227  0.3651 -0.4728
  320TMC3     C 4810   0.599   1.953  17.027  0.3779  0.2168  0.3189
  320TMC3     O 4811   0.585   1.920  17.143  0.1320  0.0475  0.2375
  320TMC3     H 4812   0.528   2.120  16.835 -0.9483  1.2568 -1.2984
  320TMC3    H1 4813   0.437   1.755  17.035 -0.5557  1.5647  1.2502
  320TMC3    H2 4814   0.246   1.866  16.658 -0.0039  0.7898 -0.4947
  320TMC3    C7 4815   0.265   1.677  16.832 -0.0365 -0.3202  0.2090
  320TMC3    C8 4816   0.384   2.089  16.617 -0.5280  0.0184 -0.3291
  320TMC3    O1 4817   0.226   1.622  16.933  0.0083  0.6597 -0.3264
  320TMC3    O2 4818   0.463   2.185  16.616 -0.3342 -0.0565  0.1261
  321TMC3    C1 4819   1.130   1.786  17.515 -0.0042  0.3038 -0.2105
  321TMC3    C2 4820   1.063   1.670  17.526  0.0631  0.3675 -0.6148
  321TMC3    C3 4821   1.055   1.595  17.641  0.1460 -0.1158 -0.7197
  321TMC3    C4 4822   1.207   1.831  17.614  0.0626 -0.2152  0.6109
  321TMC3    C5 4823   1.187   1.773   0.051  0.5330 -0.1002 -0.4647
  321TMC3    C6 4824   1.105   1.658   0.062  0.1890 -0.3250 -0.6557
  321TMC3     C 4825   1.147   1.833  17.371  0.1875  0.0528  0.5112
  321TMC3     O 4826   1.255   1.890  17.336  0.1539 -0.3843  0.0517
  321TMC3     H 4827   1.019   1.627  17.437 -1.2137  0.1139  0.1441
  321TMC3    H1 4828   1.274   1.916  17.601 -0.6737  0.6654  2.5137
  321TMC3    H2 4829   1.112   1.608   0.158  0.1625 -0.3844 -0.6853
  321TMC3    C7 4830   1.304   1.758   0.132  0.3103  0.2336  0.3271
  321TMC3    C8 4831   1.122   1.468  17.629 -0.4692 -0.2832 -1.1383
  321TMC3    O1 4832   1.293   1.759   0.256 -0.0039  0.1854 -0.3283
  321TMC3    O2 4833   1.197   1.436   0.036 -0.6030 -0.0864  0.3907
  322MPD2     C 4834   4.697   3.358  14.194 -0.0139  0.7954  0.8399
  322MPD2    C1 4835   4.624   3.264  14.253  0.3522  0.7964 -0.4628
  322MPD2    C2 4836   4.578   3.153  14.178 -0.3554 -0.6040  1.0933
  322MPD2    C3 4837   4.618   3.144  14.049  0.1617 -0.2051  0.1450
  322MPD2    C4 4838   4.686   3.249  13.986  0.5048 -0.2928  0.0211
  322MPD2    C5 4839   0.010   3.352  14.064 -0.5270  0.7824 -0.3077
  322MPD2     H 4840   4.525   3.073  14.228 -1.0597 -1.2711 -0.7033
  322MPD2    H1 4841   4.704   3.250  13.879 -1.1631  0.2783 -0.2571
  322MPD2    H2 4842   0.005   3.448  14.247  1.6328 -1.0804  3.1937
  322MPD2    H3 4843   0.064   3.431  14.012  0.9249  1.1689  1.7717
  322MPD2     N 4844   4.582   3.026  13.981 -0.5020 -0.2676  0.1011
  322MPD2    H5 4845   4.523   2.961  14.032  0.6162 -0.5482  1.0309
  322MPD2    N1 4846   4.598   3.280  14.385 -0.8620  0.0655  0.0133
  322MPD2    H7 4847   4.655   3.354  14.423 -0.1335  0.0763 -1.1146
  323TMC3    C1 4848   4.555   3.243  14.610 -0.4663  0.9047 -0.4270
  323TMC3    C2 4849   4.608   3.364  14.633 -0.0338 -0.0167 -0.1510
  323TMC3    C3 4850   4.707   3.370  14.722 -0.0486 -0.6114  0.7510
  323TMC3    C4 4851   4.599   3.134  14.685  0.1668  0.2244  0.5831
  323TMC3    C5 4852   4.684   3.151  14.794 -0.1099 -0.1981  0.0423
  323TMC3    C6 4853   0.029   3.275  14.808 -0.7385 -0.3979 -0.1826
  323TMC3     C 4854   4.527   3.202  14.476  0.1760 -0.1941 -0.1025
  323TMC3     O 4855   4.465   3.098  14.458 -0.9318  0.2506 -0.6163
  323TMC3     H 4856   4.580   3.453  14.577  0.1726 -1.4021 -2.4756
  323TMC3    H1 4857   4.563   3.034  14.666  2.1470 -0.3465 -0.2096
  323TMC3    H2 4858   0.104   3.280  14.885 -1.0857  2.5906 -0.0437
  323TMC3    C7 4859   0.016   3.027  14.850 -0.9721  0.1408 -0.0906
  323TMC3    C8 4860   0.093   3.459  14.687  0.6409  0.3745 -0.1684
  323TMC3    O1 4861   0.039   2.936  14.776 -0.3438 -0.2552  0.0805
  323TMC3    O2 4862   0.122   3.466  14.568  0.3777  0.0440  0.3162
  324MPD2     C 4863   1.526   4.041  14.409 -0.1013  0.2300 -0.2783
  324MPD2    C1 4864   1.478   4.132  14.503  0.4062  0.8064  0.8140
  324MPD2    C2 4865   1.339   4.142  14.516  0.6601 -0.8979 -0.5332
  324MPD2    C3 4866   1.260   4.056  14.436 -0.3945  0.2456  0.4661
  324MPD2    C4 4867   1.302   3.978  14.328  0.2116 -0.3058 -0.1899
  324MPD2    C5 4868   1.441   3.972  14.324  0.7443 -0.0089  0.2382
  324MPD2     H 4869   1.289   4.206  14.588  0.2538 -2.8037  0.8683
  324MPD2    H1 4870   1.241   3.923  14.258  1.3529 -0.7932 -0.8029
  324MPD2    H2 4871   1.630   4.020  14.390 -0.4800 -0.9620 -1.0385
  324MPD2    H3 4872   1.477   3.905  14.246  1.4052  0.2413  0.3266
  324MPD2     N 4873   1.119   4.058  14.448  0.2774 -0.6270 -0.0274
  324MPD2    H5 4874   1.074   4.010  14.371 -1.0131  1.3161 -0.4674
  324MPD2    N1 4875   1.564   4.208  14.585  0.1402  0.6024 -0.3936
  324MPD2    H7 4876   1.526   4.298  14.612 -0.4298 -0.5629  2.7015
  325TMC3    C1 4877   0.896   4.099  14.512 -0.0165 -0.0643  0.3305
  325TMC3    C2 4878   0.855   4.021  14.410 -0.4322  0.3772  0.2302
  325TMC3    C3 4879   0.724   4.037  14.373  0.4757 -0.2534 -0.5120
  325TMC3    C4 4880   0.810   4.179  14.578  0.8065 -0.6125 -0.0765
  325TMC3    C5 4881   0.680   4.197  14.536  0.5562  0.8221 -0.0347
  325TMC3    C6 4882   0.634   4.127  14.433 -0.6891  0.0158  0.0446
  325TMC3     C 4883   1.037   4.117  14.542 -0.3990  0.0118 -0.0311
  325TMC3     O 4884   1.078   4.185  14.633 -0.1665  0.4437  0.3384
  325TMC3     H 4885   0.913   3.938  14.372 -1.2919 -0.0989 -0.0487
  325TMC3    H1 4886   0.851   4.239  14.659  0.1244  0.0855 -0.2550
  325TMC3    H2 4887   0.532   4.144  14.401 -1.2736 -0.0627  1.8157
  325TMC3    C7 4888   0.594   4.285  14.599  0.4056  0.8072 -0.7095
  325TMC3    C8 4889   0.659   3.954  14.263  0.4301 -0.4920 -0.2260
  325TMC3    O1 4890   0.484   4.312  14.549 -0.4309 -0.1369 -0.4636
  325TMC3    O2 4891   0.729   3.917  14.172  0.4177  0.0455 -0.6933
  326MPD2     C 4892   2.994   0.459  11.413 -0.5849 -0.2786  0.1047
  326MPD2    C1 4893   3.035   0.446  11.280 -0.5467 -0.2101  0.1594
  326MPD2    C2 4894   3.168   0.466  11.245 -0.1711  0.3956 -0.5548
  326MPD2    C3 4895   3.259   0.499  11.350 -0.1055  0.2166  0.1951
  326MPD2    C4 4896   3.216   0.516  11.480 -0.6052  0.2338 -0.1930
  326MPD2    C5 4897   3.086   0.500  11.507 -0.1917  0.0600 -0.4383
  326MPD2     H 4898   3.195   0.443  11.143  2.7137  2.4055 -0.2413
  326MPD2    H1 4899   3.278   0.552  11.561  1.2061  0.6939 -1.7759
  326MPD2    H2 4900   2.891   0.438  11.435 -0.5801  0.2839  0.6644
  326MPD2    H3 4901   3.054   0.518  11.609 -2.1854 -0.9815 -0.8850
  326MPD2     N 4902   3.387   0.530  11.324  0.4101 -0.1257 -0.6772
  326MPD2    H5 4903   3.438   0.577  11.398 -0.0052 -1.0678  0.1974
  326MPD2    N1 4904   2.940   0.412  11.178  0.0526  0.1054 -0.0854
  326MPD2    H7 4905   2.975   0.401  11.083 -1.0177 -0.2394 -0.4428
  327TMC3    C1 4906   2.751   0.337  11.073 -0.1502  0.4615 -0.4313
  327TMC3    C2 4907   2.659   0.420  11.012  0.1362 -0.6144 -0.1798
  327TMC3    C3 4908   2.651   0.426  10.877  1.1840  0.0414  0.0331
  327TMC3    C4 4909   2.825   0.250  11.000  0.3214 -0.0006  0.3878
  327TMC3    C5 4910   2.808   0.248  10.867  0.4831 -0.3746  0.4852
  327TMC3    C6 4911   2.722   0.336  10.804  0.0259 -0.0403  0.4377
  327TMC3     C 4912   2.804   0.392  11.194 -0.4594  0.3571  1.3049
  327TMC3     O 4913   2.725   0.430  11.279 -0.5024  0.0375  0.5087
  327TMC3     H 4914   2.627   0.500  11.079 -0.0248 -0.0798 -0.8926
  327TMC3    H1 4915   2.893   0.186  11.057 -0.8977  0.1015  1.9609
  327TMC3    H2 4916   2.705   0.328  10.697  0.7196  0.6176  0.2780
  327TMC3    C7 4917   2.940   0.240  10.794  0.0298  0.3276  0.7328
  327TMC3    C8 4918   2.583   0.540  10.814 -0.3961 -0.8278  0.1827
  327TMC3    O1 4919   2.932   0.259  10.675 -1.3302 -0.2088  0.3008
  327TMC3    O2 4920   2.601   0.571  10.696  0.0296 -0.3826  1.0433
  328MPD2     C 4921   0.653   0.562  17.652 -0.7923 -0.9834 -0.0225
  328MPD2    C1 4922   0.558   0.544  17.552  0.1526  0.7210  0.1700
  328MPD2    C2 4923   0.484   0.647  17.501  0.2252 -0.1547 -0.0510
  328MPD2    C3 4924   0.492   0.772  17.555 -0.1522  0.1057 -0.6241
  328MPD2    C4 4925   0.606   0.797  17.638 -0.3238 -0.0658  0.1331
  328MPD2    C5 4926   0.686   0.695   0.003 -0.9812  0.4212  0.0597
  328MPD2     H 4927   0.414   0.627  17.420 -1.4109  0.4899  1.1905
  328MPD2    H1 4928   0.617   0.894  17.686  0.2108 -0.5871  1.0687
  328MPD2    H2 4929   0.720   0.489   0.011  1.6847  1.6430  0.5717
  328MPD2    H3 4930   0.756   0.714   0.085  1.6694 -1.4162 -1.7833
  328MPD2     N 4931   0.406   0.883  17.516  0.3290  0.1587  0.1006
  328MPD2    H5 4932   0.427   0.977  17.547 -0.0469 -1.2320  4.5320
  328MPD2    N1 4933   0.557   0.415  17.499  0.0182 -0.6198 -0.3501
  328MPD2    H7 4934   0.609   0.347  17.554 -0.9505  0.6328  2.1037
  329TMC3    C1 4935   0.479   0.242  17.352 -0.2454  0.2403 -0.3620
  329TMC3    C2 4936   0.430   0.162  17.453  0.1800  0.5611  1.3800
  329TMC3    C3 4937   0.410   0.033  17.424  0.8430 -0.5617  0.0637
  329TMC3    C4 4938   0.497   0.201  17.221 -0.2027  0.0919 -0.1050
  329TMC3    C5 4939   0.480   0.068  17.200  0.0805 -0.1923 -0.4141
  329TMC3    C6 4940   0.436   4.701  17.295  0.1467  0.1998  0.2459
  329TMC3     C 4941   0.507   0.388  17.374  0.0712  0.5475  0.2102
  329TMC3     O 4942   0.513   0.461  17.276  0.2750 -0.2038  0.3607
  329TMC3     H 4943   0.414   0.203  17.552 -0.8028  1.4756  0.8346
  329TMC3    H1 4944   0.537   0.262  17.140 -2.2839  0.5053 -0.8210
  329TMC3    H2 4945   0.406   4.600  17.270 -0.0640 -0.2134  2.1773
  329TMC3    C7 4946   0.511   4.717  17.071  0.8828  0.5344 -0.0768
  329TMC3    C8 4947   0.334   4.667  17.512  0.6244 -0.1834  0.4240
  329TMC3    O1 4948   0.481   4.599  17.054 -0.3507  0.4365 -0.3239
  329TMC3    O2 4949   0.379   4.553  17.518  0.1559 -0.2269 -0.0559
  330TMC3    C1 4950   2.466   0.016   9.369 -0.0719 -0.6931  0.0726
  330TMC3    C2 4951   2.574   4.687   9.294  0.2208  0.5617  0.0243
  330TMC3    C3 4952   2.702   0.003   9.336 -0.5603 -0.0224  0.7808
  330TMC3    C4 4953   2.481   0.087   9.487  0.3977  0.1187 -0.2469
  330TMC3    C5 4954   2.614   0.095   9.533  0.1840  0.3368  0.3936
  330TMC3    C6 4955   2.723   0.067   9.455  0.3079 -0.4286 -0.0174
  330TMC3     C 4956   2.355   0.051   9.278  0.8499  0.0382  0.3841
  330TMC3     O 4957   2.371   0.061   9.156  0.4208 -0.2973 -0.4211
  330TMC3     H 4958   2.558   4.617   9.213 -2.7080 -0.8825  1.8646
  330TMC3    H1 4959   2.387   0.101   9.540  0.3673 -0.4454 -0.1497
  330TMC3    H2 4960   2.822   0.098   9.487 -0.8184  1.8315  1.2538
  330TMC3    C7 4961   2.625   0.102   9.680  0.4280  0.4255  0.2557
  330TMC3    C8 4962   2.814   4.680   9.251  0.1326 -0.0897 -0.3458
  330TMC3    O1 4963   2.519   0.113   9.736 -0.2745 -0.3338  0.1718
  330TMC3    O2 4964   2.796   4.650   9.136  0.6206  0.1700 -0.1282
  331MPD2     C 4965   0.675   3.304  13.066  0.8667 -0.3404 -0.2476
  331MPD2    C1 4966   0.765   3.347  12.975  0.3719  0.2885  0.0679
  331MPD2    C2 4967   0.857   3.261  12.923  0.1972  0.4384  0.4511
  331MPD2    C3 4968   0.861   3.124  12.954  0.6179 -0.1025  0.8401
  331MPD2    C4 4969   0.755   3.076  13.034 -0.1884 -0.4974  1.1302
  331MPD2    C5 4970   0.668   3.167  13.091  0.6251  0.2257  0.2486
  331MPD2     H 4971   0.919   3.304  12.846  0.8696  1.3293  1.4914
  331MPD2    H1 4972   0.740   2.971  13.051 -0.0184 -0.6423  0.4043
  331MPD2    H2 4973   0.608   3.373  13.115  0.8175 -0.6101  0.0707
  331MPD2    H3 4974   0.590   3.137  13.160  0.0424 -0.9903 -0.9509
  331MPD2     N 4975   0.946   3.040  12.877 -0.3509 -0.6205 -0.2841
  331MPD2    H5 4976   1.000   3.086  12.806  0.5633 -1.0862  0.1107
  331MPD2    N1 4977   0.770   3.491  12.949  0.0749  0.0371 -0.0075
  331MPD2    H7 4978   0.703   3.543  13.004  1.5425 -0.6607  2.4353
  332TMC3    C1 4979   1.076   2.869  12.838  0.2436 -0.1818 -0.5137
  332TMC3    C2 4980   1.108   2.917  12.712 -0.5589  0.6774 -0.0616
  332TMC3    C3 4981   1.227   2.871  12.663 -0.4629  0.0208  0.7217
  332TMC3    C4 4982   1.161   2.790  12.916  0.3094 -0.2671  0.5760
  332TMC3    C5 4983   1.276   2.754  12.856 -0.9824  0.2366  0.2684
  332TMC3    C6 4984   1.310   2.783  12.728  0.2219 -0.3016  0.2888
  332TMC3     C 4985   0.962   2.908  12.909 -0.9512 -0.5886 -0.0330
  332TMC3     O 4986   0.927   2.842  13.008 -0.3439 -1.1579  0.3644
  332TMC3     H 4987   1.031   2.960  12.649 -0.8739 -1.1274 -0.9278
  332TMC3    H1 4988   1.133   2.762  13.017 -2.4737 -0.3959 -0.2256
  332TMC3    H2 4989   1.401   2.754  12.677 -1.3573  1.3625 -3.4690
  332TMC3    C7 4990   1.382   2.721  12.951  0.7222  0.2558  0.3414
  332TMC3    C8 4991   1.247   2.881  12.526 -0.5925  0.6249 -0.5729
  332TMC3    O1 4992   1.351   2.700  13.067  0.4850 -0.1042 -0.3944
  332TMC3    O2 4993   1.308   2.787  12.472  0.2646 -0.0525 -0.0050
  333MPD2     C 4994   1.064   3.731  11.126  0.2911 -0.1562  0.2918
  333MPD2    C1 4995   1.171   3.677  11.057  0.2962 -0.3832 -0.2580
  333MPD2    C2 4996   1.192   3.539  11.071 -0.5016 -0.2482  0.3934
  333MPD2    C3 4997   1.108   3.461  11.139  0.2534  0.0133 -0.2803
  333MPD2    C4 4998   0.990   3.518  11.189 -0.1812  0.4322  0.5284
  333MPD2    C5 4999   0.970   3.653  11.180 -0.1441  0.2537 -0.3164
  333MPD2     H 5000   1.281   3.487  11.039 -1.0315 -1.7171  1.2944
  333MPD2    H1 5001   0.910   3.458  11.232  1.8453 -1.0642  2.2092
  333MPD2    H2 5002   1.056   3.839  11.126  1.5838 -0.0560  2.6764
  333MPD2    H3 5003   0.879   3.702  11.213 -0.1028  0.7174 -0.8875
  333MPD2     N 5004   1.147   3.321  11.147  0.4030 -0.0620 -0.4877
  333MPD2    H5 5005   1.233   3.293  11.100  2.0881  0.8544  2.0599
  333MPD2    N1 5006   1.262   3.766  10.990  0.8291 -0.2166  1.1285
  333MPD2    H7 5007   1.227   3.860  10.978 -0.8246 -1.1036 -1.0078
  334TMC3    C1 5008   1.467   3.842  10.917  0.1380  0.5908 -0.3688
  334TMC3    C2 5009   1.610   3.830  10.932  0.0854  0.9520  0.1574
  334TMC3    C3 5010   1.694   3.933  10.902 -0.0138 -0.0980 -0.6865
  334TMC3    C4 5011   1.417   3.966  10.879 -0.2166 -0.3733  0.0042
  334TMC3    C5 5012   1.501   4.072  10.851  0.2793  0.2103  0.4794
  334TMC3    C6 5013   1.641   4.057  10.860 -0.1662 -0.1576  0.2961
  334TMC3     C 5014   1.386   3.727  10.942  0.0113 -0.5206 -0.1912
  334TMC3     O 5015   1.442   3.619  10.957 -0.0149  0.0416  0.4872
  334TMC3     H 5016   1.659   3.738  10.963  2.5981  1.5799 -2.0035
  334TMC3    H1 5017   1.316   3.963  10.840  0.6349  0.2201 -2.2163
  334TMC3    H2 5018   1.706   4.130  10.813 -1.9906  1.7780  0.7864
  334TMC3    C7 5019   1.445   4.192  10.785  0.1095 -0.8753 -0.0189
  334TMC3    C8 5020   1.823   3.890  10.841  0.3561 -0.6491  0.8777
  334TMC3    O1 5021   1.532   4.272  10.742  0.0865 -0.2946 -0.5141
  334TMC3    O2 5022   1.836   3.771  10.816 -0.0947 -0.4367  0.3843
  335TMC3    C1 5023   1.030   0.957  17.547 -0.5498  0.5798  1.1119
  335TMC3    C2 5024   0.962   0.840  17.521  0.9125 -0.5828 -0.3464
  335TMC3    C3 5025   1.015   0.721  17.571 -0.2963 -0.0928  0.5051
  335TMC3    C4 5026   1.143   0.962  17.630  0.2667 -0.0213  0.7578
  335TMC3    C5 5027   1.197   0.835  17.667  0.5511  0.0544 -0.2259
  335TMC3    C6 5028   1.131   0.721  17.646  0.0637  0.5243 -0.0782
  335TMC3     C 5029   0.940   1.074  17.554  0.8646  0.2434 -0.1970
  335TMC3     O 5030   0.860   1.093  17.465 -0.1412  0.4577 -0.1072
  335TMC3     H 5031   0.862   0.836  17.480  1.4357  0.7304 -1.7700
  335TMC3    H1 5032   1.192   1.059  17.626  0.2394 -0.0123  0.6148
  335TMC3    H2 5033   1.190   0.631  17.651  0.7238  0.8567 -1.7827
  335TMC3    C7 5034   1.337   0.825   0.017  0.4891 -0.2501  0.2343
  335TMC3    C8 5035   0.973   0.589  17.533  0.0535  0.1325 -0.1315
  335TMC3    O1 5036   1.387   0.716   0.005 -0.8243 -0.4310 -0.0308
  335TMC3    O2 5037   1.006   0.498  17.608 -0.9190  0.0581  0.4241
  336MPD2     C 5038   0.785   3.034  16.606 -0.2186  0.2563  0.6581
  336MPD2    C1 5039   0.764   2.924  16.517  0.5192 -0.6219  0.5380
  336MPD2    C2 5040   0.756   2.795  16.565 -0.4501 -0.4178  0.1512
  336MPD2    C3 5041   0.763   2.775  16.702 -0.3679  0.4378 -0.0778
  336MPD2    C4 5042   0.766   2.887  16.788 -0.3193  0.2789 -0.4966
  336MPD2    C5 5043   0.787   3.013  16.738  0.7526 -0.2286 -0.3977
  336MPD2     H 5044   0.746   2.711  16.498  1.9272 -0.4360 -0.1905
  336MPD2    H1 5045   0.762   2.874  16.896 -2.2396  0.7458 -0.5137
  336MPD2    H2 5046   0.782   3.131  16.559 -2.6333  1.1699  2.7245
  336MPD2    H3 5047   0.797   3.099  16.804  0.3936 -0.3916 -0.1264
  336MPD2     N 5048   0.776   2.648  16.758  0.4691  0.3318 -0.0276
  336MPD2    H5 5049   0.765   2.635  16.858  1.4375  1.7630  0.2634
  336MPD2    N1 5050   0.747   2.941  16.379  0.3671  0.7495 -0.1443
  336MPD2    H7 5051   0.748   2.857  16.322  1.0369 -0.1078  1.1344
  337TMC3    C1 5052   0.691   3.038  16.180  0.4133  0.0150 -0.5066
  337TMC3    C2 5053   0.591   3.119  16.128 -0.6283  0.0607 -0.1613
  337TMC3    C3 5054   0.538   3.087  16.007  0.2001 -0.6092  0.0032
  337TMC3    C4 5055   0.744   2.939  16.108 -1.1562  0.8778  0.4023
  337TMC3    C5 5056   0.701   2.923  15.980  0.0380 -0.0135  0.8580
  337TMC3    C6 5057   0.592   2.991  15.930 -0.3189  0.8654  0.1071
  337TMC3     C 5058   0.725   3.061  16.314  0.2006 -0.7002 -0.6099
  337TMC3     O 5059   0.739   3.174  16.357  0.0734 -0.1262  0.1338
  337TMC3     H 5060   0.552   3.192  16.197 -0.0413 -0.1775  0.4274
  337TMC3    H1 5061   0.838   2.909  16.153 -1.5026 -0.2965  0.3266
  337TMC3    H2 5062   0.576   2.981  15.823  1.2781  0.9461 -0.1432
  337TMC3    C7 5063   0.773   2.836  15.888  0.8479  0.1856  0.2802
  337TMC3    C8 5064   0.405   3.137  15.989  0.1313 -0.0591 -0.1919
  337TMC3    O1 5065   0.750   2.832  15.769 -0.2207 -0.0450 -0.0172
  337TMC3    O2 5066   0.357   3.219  16.063  0.0984 -0.4330  0.1941
  338MPD2     C 5067   1.187   2.822   1.480  0.0498  0.6133 -0.0905
  338MPD2    C1 5068   1.068   2.758   1.462  0.1267  0.2856 -0.5534
  338MPD2    C2 5069   0.979   2.748   1.566  0.4264 -0.4154  0.3437
  338MPD2    C3 5070   1.014   2.805   1.688 -0.0095 -0.2366  0.2705
  338MPD2    C4 5071   1.134   2.864   1.711 -0.0054  0.5512  0.8497
  338MPD2    C5 5072   1.219   2.879   1.600  0.0803  0.7956 -0.4334
  338MPD2     H 5073   0.884   2.697   1.560 -0.0062  0.2725  1.3436
  338MPD2    H1 5074   1.164   2.892   1.812  1.0251 -1.0193  0.9804
  338MPD2    H2 5075   1.257   2.822   1.397 -2.9545  0.6400 -2.6377
  338MPD2    H3 5076   1.320   2.911   1.627 -0.2134 -0.5609  2.2243
  338MPD2     N 5077   0.916   2.792   1.787 -0.3559  0.3923 -0.0343
  338MPD2    H5 5078   0.841   2.727   1.766  0.5504 -0.8868  0.6577
  338MPD2    N1 5079   1.026   2.696   1.342  0.1147  0.3773  0.3200
  338MPD2    H7 5080   0.926   2.676   1.336  0.4509 -0.5418 -2.1190
  339TMC3    C1 5081   0.810   2.812   1.997  0.3371 -0.4258 -0.3195
  339TMC3    C2 5082   0.773   2.681   1.983  0.6434 -0.4504  0.6230
  339TMC3    C3 5083   0.647   2.646   2.033  0.0715 -0.1031  0.4570
  339TMC3    C4 5084   0.725   2.909   2.049  0.3504  0.1041 -0.1511
  339TMC3    C5 5085   0.598   2.870   2.091 -0.3176 -0.4464 -0.4901
  339TMC3    C6 5086   0.560   2.739   2.098 -0.1688 -0.0531  1.0492
  339TMC3     C 5087   0.912   2.860   1.904 -0.3259 -0.5164 -0.1827
  339TMC3     O 5088   1.004   2.925   1.952 -0.0458  0.2744  0.0578
  339TMC3     H 5089   0.836   2.610   1.930 -0.1168 -1.1077  0.6065
  339TMC3    H1 5090   0.758   3.011   2.035 -3.2184  0.8686 -2.8125
  339TMC3    H2 5091   0.462   2.705   2.128  0.2741 -0.3935  2.1212
  339TMC3    C7 5092   0.505   2.973   2.117  0.5743  0.5821 -0.0360
  339TMC3    C8 5093   0.585   2.526   1.983  1.3085  0.5586  0.7257
  339TMC3    O1 5094   0.390   2.934   2.107  0.0472 -0.0257 -0.2082
  339TMC3    O2 5095   0.634   2.512   1.870  0.2521 -0.7353 -0.0673
  340MPD2     C 5096   1.023   3.547  10.069  0.1132  0.2503 -0.2655
  340MPD2    C1 5097   1.145   3.598  10.043 -0.0165 -0.2201  0.4693
  340MPD2    C2 5098   1.171   3.726  10.098  0.3676 -0.0068  0.1774
  340MPD2    C3 5099   1.074   3.795  10.169 -0.4819  0.3767  0.8099
  340MPD2    C4 5100   0.953   3.734  10.196 -0.8731 -0.6785 -0.0519
  340MPD2    C5 5101   0.924   3.610  10.144 -0.3985  0.1975  0.1780
  340MPD2     H 5102   1.274   3.760  10.086  0.3362 -0.7369 -2.1257
  340MPD2    H1 5103   0.872   3.780  10.251 -1.3344 -0.4089 -0.9449
  340MPD2    H2 5104   1.005   3.446  10.034 -0.3213 -0.0464  0.8204
  340MPD2    H3 5105   0.831   3.557  10.162 -0.1399 -1.0343 -2.0632
  340MPD2     N 5106   1.110   3.922  10.208  0.0789  0.4081 -0.0040
  340MPD2    H5 5107   1.206   3.950  10.188  0.2911 -0.7968 -0.6503
  340MPD2    N1 5108   1.239   3.517   9.982 -0.3671  0.4791 -0.3035
  340MPD2    H7 5109   1.190   3.437   9.943  0.1609  1.1982 -2.4401
  341TMC3    C1 5110   1.433   3.461   9.852 -0.8404 -0.0377 -0.5121
  341TMC3    C2 5111   1.360   3.365   9.790 -0.3526  0.6130  0.3945
  341TMC3    C3 5112   1.405   3.304   9.676  0.1081  0.4330  0.3954
  341TMC3    C4 5113   1.551   3.505   9.795  0.3485 -0.2808  0.3275
  341TMC3    C5 5114   1.595   3.438   9.684  0.2898  0.2145  0.1211
  341TMC3    C6 5115   1.532   3.331   9.629 -0.3773  0.5079 -0.0942
  341TMC3     C 5116   1.373   3.543   9.957 -0.4651 -0.1869 -0.6112
  341TMC3     O 5117   1.447   3.625  10.009 -0.0040 -0.4200  0.2360
  341TMC3     H 5118   1.273   3.321   9.838  1.5674 -1.3928  1.9846
  341TMC3    H1 5119   1.589   3.603   9.821  1.5363 -0.6242 -0.1116
  341TMC3    H2 5120   1.568   3.274   9.544 -0.8325  0.9944 -0.6216
  341TMC3    C7 5121   1.705   3.486   9.608 -0.3637 -0.0423 -0.0476
  341TMC3    C8 5122   1.323   3.204   9.616  0.5813 -0.9727 -0.2221
  341TMC3    O1 5123   1.790   3.548   9.671  0.6809  0.2209 -0.2810
  341TMC3    O2 5124   1.208   3.205   9.657  0.5077 -0.1715 -0.4923
  342MPD2     C 5125   3.789   3.179  17.286 -0.2076  0.3334 -0.5624
  342MPD2    C1 5126   3.725   3.220  17.401  0.5627  0.3377 -0.5169
  342MPD2    C2 5127   3.673   3.349  17.395 -0.1019 -0.4725 -0.1653
  342MPD2    C3 5128   3.689   3.440  17.281 -0.6588  0.0819 -0.2176
  342MPD2    C4 5129   3.761   3.391  17.177 -0.1294 -0.1023 -0.6680
  342MPD2    C5 5130   3.806   3.258  17.176  0.1611  0.1496  0.2179
  342MPD2     H 5131   3.619   3.383  17.482  2.9973 -0.5601  1.7776
  342MPD2    H1 5132   3.775   3.458  17.093  0.2237  0.8346  0.1435
  342MPD2    H2 5133   3.823   3.077  17.273 -0.4599  0.3828 -1.5947
  342MPD2    H3 5134   3.864   3.215  17.095  3.2275  0.9304  1.9884
  342MPD2     N 5135   3.636   3.569  17.277 -0.2778  0.5939 -0.2642
  342MPD2    H5 5136   3.681   3.626  17.207 -1.3588  0.6475 -0.9118
  342MPD2    N1 5137   3.706   3.147  17.517 -0.3637  0.0636 -0.4075
  342MPD2    H7 5138   3.668   3.194  17.599 -1.2426 -0.0556 -0.7526
  343TMC3    C1 5139   3.791   3.022  17.683 -0.3418 -0.2631 -0.6949
  343TMC3    C2 5140   3.908   3.094   0.021 -0.2098 -0.6865 -0.0179
  343TMC3    C3 5141   3.964   3.082   0.142  0.3390 -0.0368  0.2072
  343TMC3    C4 5142   3.744   2.939   0.090 -0.2066  0.0528 -0.5991
  343TMC3    C5 5143   3.807   2.918   0.205  0.3742  0.2422 -0.3771
  343TMC3    C6 5144   3.920   2.988   0.236  0.4718 -0.3407  0.4682
  343TMC3     C 5145   3.749   3.016  17.542 -0.1828 -0.2303  0.1944
  343TMC3     O 5146   3.803   2.932  17.470 -0.2185  0.0543  0.0691
  343TMC3     H 5147   3.942   3.172  17.639 -0.5432  0.7698  1.4694
  343TMC3    H1 5148   3.671   2.866   0.057 -1.7605  1.5774 -0.5453
  343TMC3    H2 5149   3.972   2.969   0.329  2.3916  3.3606  0.1597
  343TMC3    C7 5150   3.749   2.821   0.294  0.0938 -1.0332  0.2000
  343TMC3    C8 5151   4.103   3.111   0.142 -0.7451 -0.0032  0.3193
  343TMC3    O1 5152   3.660   2.749   0.245 -0.5361  0.2378 -0.5405
  343TMC3    O2 5153   4.155   3.143   0.250 -0.2433 -0.0448 -0.5868
  344MPD2     C 5154   0.602   2.881  10.895 -0.1630  0.4261  0.0591
  344MPD2    C1 5155   0.522   2.796  10.825  0.2559 -0.1022 -0.5499
  344MPD2    C2 5156   0.506   2.825  10.691  0.4458  0.6025 -0.2366
  344MPD2    C3 5157   0.590   2.920  10.630 -0.0361  0.1829  0.1891
  344MPD2    C4 5158   0.674   2.997  10.707 -0.0118 -0.7810 -0.8819
  344MPD2    C5 5159   0.676   2.978  10.844  0.9651 -0.1776 -0.1323
  344MPD2     H 5160   0.442   2.761  10.630  0.4160  2.2264 -1.8961
  344MPD2    H1 5161   0.736   3.070  10.655  0.2958  0.0668  0.6880
  344MPD2    H2 5162   0.606   2.870  11.003 -0.8313  0.2457  0.0593
  344MPD2    H3 5163   0.749   3.035  10.899  0.5442  0.2200  0.0153
  344MPD2     N 5164   0.602   2.932  10.493  0.4246 -0.7855  0.2797
  344MPD2    H5 5165   0.678   2.991  10.461  0.2660 -0.9378 -0.3782
  344MPD2    N1 5166   0.431   2.701  10.885  0.3010 -0.3426  0.0710
  344MPD2    H7 5167   0.365   2.651  10.827 -0.3942  2.0024 -1.1580
  345TMC3    C1 5168   0.538   2.944  10.266  0.2247  0.1638  0.2747
  345TMC3    C2 5169   0.661   2.912  10.223  0.7016  0.5513  0.1453
  345TMC3    C3 5170   0.694   2.969  10.101  0.0460 -0.5171  0.7870
  345TMC3    C4 5171   0.443   2.998  10.185 -0.1215 -0.3108  0.0186
  345TMC3    C5 5172   0.472   3.042  10.056 -0.5651 -0.4059  0.3984
  345TMC3    C6 5173   0.604   3.035  10.021  0.6884 -0.3890  0.3491
  345TMC3     C 5174   0.502   2.904  10.399 -0.3931 -0.2709  0.3170
  345TMC3     O 5175   0.392   2.866  10.425  0.0358 -0.4491  0.2497
  345TMC3     H 5176   0.728   2.851  10.282 -2.8998 -3.3481  0.2080
  345TMC3    H1 5177   0.345   3.003  10.230 -0.1173 -2.4403  0.2245
  345TMC3    H2 5178   0.627   3.089   9.930  1.3451 -0.0970  0.6858
  345TMC3    C7 5179   0.400   3.158  10.003  0.2806 -0.2825  0.2837
  345TMC3    C8 5180   0.832   2.948  10.059  0.7311  0.3854  0.3982
  345TMC3    O1 5181   0.467   3.254   9.980 -0.0245  0.2341  0.0884
  345TMC3    O2 5182   0.856   2.904   9.945  0.4174  0.3076  0.1741
  346MPD2     C 5183   0.141   3.952  14.544 -0.0486 -0.0774 -0.6091
  346MPD2    C1 5184   0.202   4.082  14.561 -0.3022 -0.0057  0.0684
  346MPD2    C2 5185   0.257   4.116  14.683  0.0935 -0.5064 -0.0938
  346MPD2    C3 5186   0.251   4.037  14.793  0.3831 -0.1357  0.3305
  346MPD2    C4 5187   0.195   3.911  14.768 -0.2725  0.4897 -0.8356
  346MPD2    C5 5188   0.132   3.874  14.654 -0.2925  0.9352  0.2081
  346MPD2     H 5189   0.303   4.214  14.685 -1.8690  0.4689 -2.6575
  346MPD2    H1 5190   0.176   3.836  14.844  0.3081 -0.8951 -2.0594
  346MPD2    H2 5191   0.099   3.910  14.453  2.3954 -4.3036  0.2452
  346MPD2    H3 5192   0.078   3.781  14.651  0.2198  0.6939 -1.5359
  346MPD2     N 5193   0.316   4.075  14.912  0.1141  0.3663 -0.2565
  346MPD2    H5 5194   0.360   4.167  14.917  0.1542  0.3087  0.5449
  346MPD2    N1 5195   0.214   4.171  14.451  0.2616  0.3378  0.3537
  346MPD2    H7 5196   0.271   4.253  14.471  0.5099  0.0879  0.6795
  347TMC3    C1 5197   0.403   4.053  15.131 -0.3349 -0.0639  0.1240
  347TMC3    C2 5198   0.453   4.181  15.133  0.2380 -0.2549 -0.1409
  347TMC3    C3 5199   0.562   4.212  15.214  0.1770 -0.2070 -0.6335
  347TMC3    C4 5200   0.469   3.963  15.209 -0.1871  0.0492  0.5883
  347TMC3    C5 5201   0.586   3.994  15.276  0.1184  0.0273 -0.1044
  347TMC3    C6 5202   0.630   4.117  15.292 -0.2817  0.0961  0.3174
  347TMC3     C 5203   0.318   3.999  15.027  0.0208  0.0717 -1.0780
  347TMC3     O 5204   0.265   3.889  15.054  0.4007 -0.1987  0.1202
  347TMC3     H 5205   0.389   4.247  15.076  2.4469  1.9927 -0.0198
  347TMC3    H1 5206   0.448   3.857  15.202  0.6715 -0.1359  0.7424
  347TMC3    H2 5207   0.724   4.142  15.340 -1.4168  2.8093  1.1236
  347TMC3    C7 5208   0.691   3.899  15.247 -0.3939 -0.3949  0.1668
  347TMC3    C8 5209   0.599   4.351  15.258  0.1580  0.3171  0.3120
  347TMC3    O1 5210   0.677   3.849  15.138 -0.3885 -0.5277  0.0761
  347TMC3    O2 5211   0.631   4.355  15.375  0.0838 -0.5084 -0.4729
  348MPD2     C 5212   3.612   4.031  12.360  0.2137 -0.1887  0.9708
  348MPD2    C1 5213   3.731   4.055  12.296  0.4154  0.0112 -1.0881
  348MPD2    C2 5214   3.723   4.119  12.175 -0.2494  0.4799 -0.0018
  348MPD2    C3 5215   3.606   4.152  12.112  0.2228 -0.4546 -0.2471
  348MPD2    C4 5216   3.491   4.114  12.175 -0.2413 -0.6827 -0.0279
  348MPD2    C5 5217   3.491   4.059  12.299  0.2489  0.3497  0.3423
  348MPD2     H 5218   3.815   4.147  12.125 -1.0298  0.9955 -1.1616
  348MPD2    H1 5219   3.396   4.144  12.132 -1.3452 -0.9295  2.1977
  348MPD2    H2 5220   3.610   3.988  12.460  0.5835 -0.3644  0.8997
  348MPD2    H3 5221   3.395   4.050  12.348  0.6068 -2.2442  0.5993
  348MPD2     N 5222   3.613   4.228  11.992 -0.3582 -0.0901  0.3758
  348MPD2    H5 5223   3.704   4.266  11.968  0.3877 -1.8513  0.4240
  348MPD2    N1 5224   3.853   4.007  12.350  0.1768 -0.0293 -0.3956
  348MPD2    H7 5225   3.935   4.007  12.291 -0.0988  1.6542 -0.7683
  349TMC3    C1 5226   4.005   3.870  12.462 -0.2539 -0.3488  0.3731
  349TMC3    C2 5227   3.993   3.738  12.492  0.3669 -0.0313  0.3809
  349TMC3    C3 5228   4.063   3.647  12.429  0.2054  0.4010  0.4049
  349TMC3    C4 5229   4.096   3.912  12.366 -0.2055  0.1653  0.0213
  349TMC3    C5 5230   4.166   3.813  12.296 -0.0956  0.0868  0.3301
  349TMC3    C6 5231   4.151   3.679  12.326 -0.3002  0.2912 -0.1900
  349TMC3     C 5232   3.877   3.941  12.468  0.0812 -0.2836 -0.1901
  349TMC3     O 5233   3.800   3.917  12.558  0.2310 -0.0548  0.3601
  349TMC3     H 5234   3.921   3.731  12.572 -0.6807  0.3317 -0.5308
  349TMC3    H1 5235   4.098   4.018  12.345 -0.1220 -0.3831 -2.6362
  349TMC3    H2 5236   4.211   3.609  12.269  0.7995  1.4917 -0.5038
  349TMC3    C7 5237   4.145   3.832  12.161  0.2474 -0.0652  0.1329
  349TMC3    C8 5238   4.109   3.543  12.518 -0.5686  0.1951  0.6000
  349TMC3    O1 5239   4.111   3.739  12.093 -0.1875 -0.3418  0.2857
  349TMC3    O2 5240   4.065   3.547  12.635  0.7641 -0.1730  0.2562
  350MPD2     C 5241   2.509   2.269  10.079  0.8216 -0.1520 -0.3399
  350MPD2    C1 5242   2.587   2.165  10.125 -0.2694 -0.5906 -0.1759
  350MPD2    C2 5243   2.721   2.158  10.080  0.2369 -0.3253  0.4498
  350MPD2    C3 5244   2.782   2.258  10.009 -0.1307 -0.3082 -0.0379
  350MPD2    C4 5245   2.711   2.365   9.978 -0.4745  0.8042  0.4887
  350MPD2    C5 5246   2.575   2.369  10.008 -0.3975 -0.1017 -0.4346
  350MPD2     H 5247   2.792   2.081  10.108 -0.0646 -0.0936  1.8219
  350MPD2    H1 5248   2.751   2.446   9.918 -0.5362  1.4841  1.3639
  350MPD2    H2 5249   2.405   2.287  10.104  1.2849 -0.1513  1.6056
  350MPD2    H3 5250   2.519   2.447   9.958  0.1040 -0.0783 -0.9583
  350MPD2     N 5251   2.925   2.245   9.983 -0.4104  0.3947 -0.4212
  350MPD2    H5 5252   2.972   2.164  10.020 -1.1601  1.2784  2.4975
  350MPD2    N1 5253   2.539   2.065  10.209  0.5418 -0.2542  0.5799
  350MPD2    H7 5254   2.607   1.999  10.245  0.4447  0.0676  1.3427
  351TMC3    C1 5255   2.415   1.970  10.367  0.5501  0.0790  0.6700
  351TMC3    C2 5256   2.493   1.864  10.348  0.3619 -0.3047 -0.5107
  351TMC3    C3 5257   2.544   1.803  10.463  0.2876 -0.2706 -0.2081
  351TMC3    C4 5258   2.408   2.035  10.485  0.2725  0.1693 -0.5046
  351TMC3    C5 5259   2.466   1.976  10.594 -0.3435  0.5032  0.2902
  351TMC3    C6 5260   2.517   1.851  10.590  0.4802 -0.0340 -0.4585
  351TMC3     C 5261   2.408   2.060  10.251  0.2764  0.5686 -0.0102
  351TMC3     O 5262   2.317   2.138  10.236 -0.3215 -0.0163 -0.0551
  351TMC3     H 5263   2.501   1.816  10.251 -0.3837  0.3871 -0.9171
  351TMC3    H1 5264   2.366   2.135  10.488  1.0034  0.5326 -2.4203
  351TMC3    H2 5265   2.569   1.819  10.680 -1.2612  1.3623  1.0673
  351TMC3    C7 5266   2.503   2.067  10.701 -0.3024  0.1996  1.1596
  351TMC3    C8 5267   2.614   1.681  10.440  0.0335 -0.2603 -1.0064
  351TMC3    O1 5268   2.494   2.189  10.679  0.2825  0.1399  0.2223
  351TMC3    O2 5269   2.632   1.650  10.321 -0.2457  0.2414  0.3635
  352MPD2     C 5270   1.287   0.171   1.350 -0.3639 -0.2713  0.4034
  352MPD2    C1 5271   1.174   0.195   1.422 -0.5154 -0.3339 -0.1847
  352MPD2    C2 5272   1.130   0.098   1.512  0.0858  0.1781 -0.6021
  352MPD2    C3 5273   1.197   4.695   1.524 -0.4696 -0.5063  0.4768
  352MPD2    C4 5274   1.315   4.676   1.453 -0.3967 -0.1044  0.5376
  352MPD2    C5 5275   1.358   0.055   1.370  0.1427 -0.2571 -0.3737
  352MPD2     H 5276   1.032   0.103   1.558  0.9823 -0.6725  1.3957
  352MPD2    H1 5277   1.370   4.582   1.453  0.5642  0.4586  0.7212
  352MPD2    H2 5278   1.319   0.250   1.283 -0.4990 -1.0883 -0.6233
  352MPD2    H3 5279   1.445   0.034   1.309  0.3271  1.0145 -0.5475
  352MPD2     N 5280   1.137   4.588   1.595  0.5265  0.0930  0.0512
  352MPD2    H5 5281   1.171   4.493   1.585  1.7420  0.6924 -1.4592
  352MPD2    N1 5282   1.101   0.308   1.389 -0.0103 -0.5203 -0.2543
  352MPD2    H7 5283   1.144   0.366   1.317 -1.3207  1.2317  0.3756
  353TMC3    C1 5284   1.008   4.482   1.776  0.2609  0.4598  0.5717
  353TMC3    C2 5285   1.113   4.394   1.798 -0.3828 -0.0654  0.7671
  353TMC3    C3 5286   1.097   4.285   1.876  0.6530  0.5837 -1.0168
  353TMC3    C4 5287   0.892   4.473   1.846 -0.2438  0.0823 -0.0317
  353TMC3    C5 5288   0.879   4.365   1.922  0.5257 -0.3424  0.2153
  353TMC3    C6 5289   0.976   4.266   1.939  0.3834  1.2087  0.1797
  353TMC3     C 5290   1.016   4.584   1.668 -0.5618  0.9097 -0.8745
  353TMC3     O 5291   0.921   4.661   1.660 -0.3539  0.1252 -0.1844
  353TMC3     H 5292   1.206   4.420   1.748 -0.8641 -1.0654 -0.6688
  353TMC3    H1 5293   0.808   4.540   1.831 -0.2771 -0.2593 -1.4034
  353TMC3    H2 5294   0.950   4.172   1.987 -2.4972  0.1011 -3.5318
  353TMC3    C7 5295   0.747   4.324   1.936  0.5671 -0.0024 -0.2736
  353TMC3    C8 5296   1.200   4.185   1.874 -0.6595  0.4177  0.2587
  353TMC3    O1 5297   0.666   4.357   1.851  0.4991  0.3677  0.0824
  353TMC3    O2 5298   1.308   4.223   1.817 -0.1368  0.6517 -0.0085
  354TMC3    C1 5299   2.645   0.570  13.533  0.6700 -0.0025 -0.4367
  354TMC3    C2 5300   2.606   0.696  13.488  0.2713 -0.2238  0.5467
  354TMC3    C3 5301   2.603   0.709  13.353  0.0250  0.2341 -0.0007
  354TMC3    C4 5302   2.697   0.477  13.450 -0.4395 -0.2446 -0.9050
  354TMC3    C5 5303   2.717   0.510  13.320 -0.3051 -0.1079 -0.4389
  354TMC3    C6 5304   2.665   0.624  13.264  0.1968 -0.8993 -0.4333
  354TMC3     C 5305   2.685   0.563  13.674 -1.2275 -0.6033 -0.1371
  354TMC3     O 5306   2.689   0.452  13.728 -0.5859  0.0787 -0.2934
  354TMC3     H 5307   2.565   0.775  13.550 -0.5625 -0.2511  0.0273
  354TMC3    H1 5308   2.747   0.394  13.497  3.3266  1.5142 -1.7761
  354TMC3    H2 5309   2.653   0.635  13.157  0.1529 -4.0203 -0.7386
  354TMC3    C7 5310   2.801   0.416  13.246  0.2793 -0.6551  0.5257
  354TMC3    C8 5311   2.549   0.836  13.304  0.0619 -0.1845  0.0139
  354TMC3    O1 5312   2.823   0.300  13.278 -0.4767 -0.2130  0.0885
  354TMC3    O2 5313   2.451   0.882  13.359 -0.0255  0.2754  0.2950
  355MPD2     C 5314   3.305   1.558  11.988 -0.2117 -0.0252  0.0410
  355MPD2    C1 5315   3.297   1.538  11.848 -0.0746  0.4422 -0.1208
  355MPD2    C2 5316   3.377   1.607  11.770  0.7751  0.1865 -0.2618
  355MPD2    C3 5317   3.460   1.712  11.815  0.9213 -0.1736  0.4595
  355MPD2    C4 5318   3.449   1.733  11.949 -0.2304 -0.2790  0.2483
  355MPD2    C5 5319   3.372   1.663  12.036  0.0650  0.1267 -0.2112
  355MPD2     H 5320   3.382   1.592  11.663  0.8183 -0.0465 -0.2258
  355MPD2    H1 5321   3.487   1.826  11.990 -0.8659 -0.2040  0.6665
  355MPD2    H2 5322   3.225   1.513  12.046  1.0304  0.0365  1.7990
  355MPD2    H3 5323   3.359   1.695  12.138  1.0955  1.8769 -0.6321
  355MPD2     N 5324   3.518   1.816  11.734 -0.9423  1.0120  0.2508
  355MPD2    H5 5325   3.551   1.894  11.790 -0.5686 -0.0676  1.5162
  355MPD2    N1 5326   3.201   1.441  11.812  0.1466 -0.7105  0.1153
  355MPD2    H7 5327   3.155   1.391  11.888 -1.0178 -1.2117 -0.9149
  356TMC3    C1 5328   3.578   1.944  11.552  0.3813  0.0780 -0.4606
  356TMC3    C2 5329   3.681   1.951  11.473 -0.1132 -0.3573 -0.2635
  356TMC3    C3 5330   3.757   2.062  11.457  0.5744  0.0068  0.3446
  356TMC3    C4 5331   3.538   2.060  11.609  0.0968 -0.6309  0.6315
  356TMC3    C5 5332   3.615   2.173  11.599 -0.2314  0.0414 -0.5565
  356TMC3    C6 5333   3.723   2.182  11.515 -0.3546 -0.0847 -0.3983
  356TMC3     C 5334   3.532   1.816  11.598 -0.3353 -0.0074 -0.5150
  356TMC3     O 5335   3.528   1.721  11.524  0.0687 -0.3515 -0.1343
  356TMC3     H 5336   3.715   1.860  11.426 -0.0108  0.7706 -2.3931
  356TMC3    H1 5337   3.455   2.056  11.678 -0.0383  1.2094  0.5785
  356TMC3    H2 5338   3.785   2.271  11.505 -0.5548  0.2648  1.3563
  356TMC3    C7 5339   3.582   2.279  11.698 -0.4961 -0.5333 -0.0211
  356TMC3    C8 5340   3.856   2.054  11.354 -0.4807 -0.4126  0.0468
  356TMC3    O1 5341   3.469   2.273  11.745 -0.2489  0.6825 -0.2157
  356TMC3    O2 5342   3.845   1.971  11.265 -0.2212 -0.5991 -0.0794
  357MPD2     C 5343   2.622   1.077   1.896 -0.8642 -0.0399  0.1655
  357MPD2    C1 5344   2.673   0.978   1.973 -0.0890  0.5713 -0.9128
  357MPD2    C2 5345   2.594   0.913   2.075  0.3959 -0.2452  0.0979
  357MPD2    C3 5346   2.459   0.943   2.080 -0.3645  0.2724  0.0497
  357MPD2    C4 5347   2.412   1.042   2.003 -0.4453  0.3904 -0.2350
  357MPD2    C5 5348   2.490   1.108   1.907 -0.0913  0.4204  0.8746
  357MPD2     H 5349   2.631   0.833   2.138 -0.6702  0.0235  1.0679
  357MPD2    H1 5350   2.310   1.079   1.996  0.2732  2.8171  2.0712
  357MPD2    H2 5351   2.679   1.125   1.817  0.6792 -0.5296  0.9875
  357MPD2    H3 5352   2.442   1.184   1.846 -0.3586  0.8834  1.6486
  357MPD2     N 5353   2.366   0.879   2.164 -0.6219  0.0415 -0.3806
  357MPD2    H5 5354   2.277   0.925   2.180 -0.3228 -0.1265  1.8211
  357MPD2    N1 5355   2.800   0.932   1.942 -0.1515 -0.2193 -0.2045
  357MPD2    H7 5356   2.832   0.959   1.849 -0.6424  0.5256 -0.1567
  358TMC3    C1 5357   2.994   0.793   1.961 -0.3482  0.5555 -0.2827
  358TMC3    C2 5358   2.983   0.766   1.832 -0.2614  0.1919  0.0716
  358TMC3    C3 5359   3.105   0.734   1.767  0.4494 -0.7807 -0.8203
  358TMC3    C4 5360   3.107   0.785   2.039  0.3346 -0.1471  0.2863
  358TMC3    C5 5361   3.226   0.755   1.973 -0.2118 -0.0575 -0.0722
  358TMC3    C6 5362   3.223   0.714   1.840  0.1193 -0.2433 -0.1261
  358TMC3     C 5363   2.880   0.854   2.029 -0.0650  0.0893 -0.2100
  358TMC3     O 5364   2.854   0.822   2.142  0.6456 -0.2912  0.5258
  358TMC3     H 5365   2.891   0.779   1.776 -0.4664 -0.6981  0.2101
  358TMC3    H1 5366   3.099   0.819   2.142  0.3603 -2.2210  0.9708
  358TMC3    H2 5367   3.323   0.711   1.798  0.2128  0.4105  0.0514
  358TMC3    C7 5368   3.347   0.730   2.046 -0.6995  0.8028 -0.8409
  358TMC3    C8 5369   3.098   0.701   1.622 -0.3753 -0.1850  0.0994
  358TMC3    O1 5370   3.453   0.746   1.983 -0.3175 -0.1817  0.4774
  358TMC3    O2 5371   3.178   0.746   1.546  0.6119  0.4035 -0.0368
  359MPD2     C 5372   2.977   4.384  12.669 -0.1485  0.6602  0.0277
  359MPD2    C1 5373   2.973   4.382  12.531  0.4184  0.3991  0.8470
  359MPD2    C2 5374   2.855   4.407  12.464 -0.3160  0.2657  0.8370
  359MPD2    C3 5375   2.745   4.451  12.525  0.0957 -0.1055  0.6330
  359MPD2    C4 5376   2.742   4.433  12.663  0.2509 -0.1589  0.0716
  359MPD2    C5 5377   2.856   4.404  12.729  0.5093  0.0405  0.0940
  359MPD2     H 5378   2.853   4.410  12.355 -3.5924 -0.0124  0.8999
  359MPD2    H1 5379   2.646   4.447  12.712  1.1742 -1.3132  2.2294
  359MPD2    H2 5380   3.056   4.361  12.739  1.7070  3.1626 -1.2525
  359MPD2    H3 5381   2.850   4.398  12.837 -1.6669 -0.7297 -0.0680
  359MPD2     N 5382   2.634   4.508  12.462 -0.2701 -0.3868  0.0326
  359MPD2    H5 5383   2.569   4.551  12.527 -1.4171 -2.6812  0.4039
  359MPD2    N1 5384   3.084   4.350  12.453  0.5079  0.4030  0.7860
  359MPD2    H7 5385   3.072   4.343  12.352  1.1985  0.6685  0.6823
  360TMC3    C1 5386   3.321   4.333  12.401  0.4472  0.0996 -0.8729
  360TMC3    C2 5387   3.439   4.356  12.468  0.6249  0.0840 -0.0640
  360TMC3    C3 5388   3.543   4.419  12.408 -0.4569 -0.2900  0.2992
  360TMC3    C4 5389   3.306   4.397  12.276  0.7280  0.2948  1.2861
  360TMC3    C5 5390   3.416   4.464  12.222 -0.0579 -0.2566 -0.2778
  360TMC3    C6 5391   3.535   4.476  12.288 -0.5939  0.2365 -0.1398
  360TMC3     C 5392   3.213   4.339  12.501  0.6251  0.3573 -0.6274
  360TMC3     O 5393   3.246   4.336  12.622  0.5446 -0.2051 -0.6600
  360TMC3     H 5394   3.456   4.298  12.558 -1.5013  0.2614  0.4672
  360TMC3    H1 5395   3.219   4.369  12.218  1.2852  1.0420  0.0857
  360TMC3    H2 5396   3.616   4.530  12.240  2.4786 -3.3648  0.9620
  360TMC3    C7 5397   3.404   4.511  12.083 -0.5935 -0.1663  0.0491
  360TMC3    C8 5398   3.679   4.407  12.475 -0.1998  0.1269 -0.8533
  360TMC3    O1 5399   3.508   4.546  12.027 -0.0117  0.1842  0.0859
  360TMC3    O2 5400   3.679   4.358  12.586  0.0346 -0.3311 -0.5637
  361MPD2     C 5401   4.517   3.704  17.138 -0.0744 -0.8417  0.3595
  361MPD2    C1 5402   4.518   3.798  17.243  0.0704 -0.2206  0.2998
  361MPD2    C2 5403   4.630   3.802  17.326 -0.4755 -0.0001 -0.6110
  361MPD2    C3 5404   0.021   3.726  17.304 -0.2982 -0.0604  0.0246
  361MPD2    C4 5405   0.022   3.628  17.204  0.1038  0.0226 -0.2624
  361MPD2    C5 5406   4.627   3.616  17.126  0.2755 -0.1794  0.4255
  361MPD2     H 5407   4.627   3.874  17.407 -1.5475 -2.8523  1.8975
  361MPD2    H1 5408   0.120   3.584  17.188 -0.5543 -1.3533 -0.4265
  361MPD2    H2 5409   4.438   3.697  17.065  0.0292 -1.5369  0.3160
  361MPD2    H3 5410   4.630   3.545  17.044 -0.9047  0.7359 -0.4139
  361MPD2     N 5411   0.134   3.726  17.389 -0.4548 -0.1417  0.2757
  361MPD2    H5 5412   0.215   3.670  17.364 -0.3887  1.2718 -2.7270
  361MPD2    N1 5413   4.412   3.889  17.268 -0.0929 -0.0497  0.0580
  361MPD2    H7 5414   4.419   3.969  17.329  0.3386 -0.0559  0.0207
  362TMC3    C1 5415   4.209   4.005  17.208 -1.0581 -0.0139 -0.1254
  362TMC3    C2 5416   4.074   3.992  17.194 -0.0132  0.5252  0.0952
  362TMC3    C3 5417   4.005   4.115  17.194  0.0190 -0.4588  0.2968
  362TMC3    C4 5418   4.277   4.124  17.203  0.0807  0.9031  0.5259
  362TMC3    C5 5419   4.203   4.243  17.202  0.7201 -0.8486  0.1453
  362TMC3    C6 5420   4.068   4.238  17.192  0.7362 -0.0331 -0.0585
  362TMC3     C 5421   4.292   3.888  17.199  0.3992 -0.6145  0.5194
  362TMC3     O 5422   4.230   3.802  17.140  0.3942  0.1333  0.2316
  362TMC3     H 5423   4.024   3.897  17.208  0.3135  0.1019 -1.5563
  362TMC3    H1 5424   4.385   4.128  17.194  0.0162 -0.2996 -0.7451
  362TMC3    H2 5425   4.017   4.332  17.173 -0.7113 -0.7863  0.0897
  362TMC3    C7 5426   4.275   4.371  17.178 -0.0406  0.1424  0.1079
  362TMC3    C8 5427   3.862   4.108  17.198 -0.1016  0.5424 -0.0803
  362TMC3    O1 5428   4.220   4.450  17.104  0.0410 -0.8592  0.0937
  362TMC3    O2 5429   3.800   4.009  17.159 -0.1396 -0.5036 -0.0514
  363TMC3    C1 5430   3.082   1.105   9.461  0.1667 -0.3607  0.4704
  363TMC3    C2 5431   3.146   1.097   9.584 -0.3234  0.3602  0.3714
  363TMC3    C3 5432   3.093   1.170   9.684  0.3759  0.8061 -0.2140
  363TMC3    C4 5433   2.973   1.184   9.432 -0.4752 -0.2211  0.0317
  363TMC3    C5 5434   2.933   1.268   9.533  0.3477 -0.3560 -0.8490
  363TMC3    C6 5435   2.985   1.260   9.661  0.8109  0.2557 -0.6491
  363TMC3     C 5436   3.100   0.995   9.364 -0.1255 -0.2409 -0.3115
  363TMC3     O 5437   3.205   0.937   9.386 -0.0373  0.2279 -0.7254
  363TMC3     H 5438   3.234   1.034   9.586 -0.1629  0.5813  0.2565
  363TMC3    H1 5439   2.933   1.188   9.331 -1.0120  1.5219  0.3150
  363TMC3    H2 5440   2.954   1.320   9.747 -0.6647  0.3408 -1.2311
  363TMC3    C7 5441   2.852   1.382   9.505  0.4270 -0.4804  0.2174
  363TMC3    C8 5442   3.160   1.172   9.810  0.4595 -0.0502 -0.4455
  363TMC3    O1 5443   2.850   1.424   9.390 -0.1514 -0.5074 -0.3619
  363TMC3    O2 5444   3.168   1.280   9.872 -0.3131 -0.3839 -0.1522
  364MPD2     C 5445   2.233   0.922  10.855  0.2143 -0.2626  0.7383
  364MPD2    C1 5446   2.334   0.906  10.762 -0.1609  0.6722  0.5252
  364MPD2    C2 5447   2.414   0.793  10.770  0.3913  0.1724  0.4140
  364MPD2    C3 5448   2.406   0.706  10.878  0.1990 -0.6578  0.6307
  364MPD2    C4 5449   2.311   0.730  10.972 -0.0060 -0.2914 -0.5715
  364MPD2    C5 5450   2.225   0.834  10.959  0.1914  0.2078 -0.4533
  364MPD2     H 5451   2.493   0.782  10.697  0.5593  0.1832  0.5937
  364MPD2    H1 5452   2.288   0.658  11.049 -0.1946 -0.1183 -0.4643
  364MPD2    H2 5453   2.161   1.003  10.852 -1.2514 -1.5534  1.1706
  364MPD2    H3 5454   2.140   0.841  11.026  1.8957  2.8633  1.4566
  364MPD2     N 5455   2.489   0.593  10.899  0.2728 -0.7471  0.7627
  364MPD2    H5 5456   2.467   0.531  10.976 -2.3759 -2.7434 -1.6091
  364MPD2    N1 5457   2.353   1.012  10.678  0.4082 -0.8101  0.5465
  364MPD2    H7 5458   2.281   1.083  10.681  1.8933  0.6736  1.0131
  365TMC3    C1 5459   2.441   1.168  10.526 -0.3663 -0.7677 -0.2453
  365TMC3    C2 5460   2.473   1.169  10.394 -0.2592  0.6167 -0.1902
  365TMC3    C3 5461   2.440   1.279  10.329 -0.0919  0.0292  0.3194
  365TMC3    C4 5462   2.362   1.268  10.589 -0.0363 -0.6618  0.2159
  365TMC3    C5 5463   2.327   1.371  10.514 -0.3918 -0.6210 -0.1292
  365TMC3    C6 5464   2.366   1.379  10.383  0.4192 -0.6323 -1.3117
  365TMC3     C 5465   2.458   1.035  10.594  1.5078  0.2073 -0.6525
  365TMC3     O 5466   2.561   0.973  10.571 -0.5847  0.1592 -0.4936
  365TMC3     H 5467   2.542   1.093  10.360  0.0008 -0.8190  3.4537
  365TMC3    H1 5468   2.344   1.249  10.694  1.6931 -0.2591  0.5799
  365TMC3    H2 5469   2.348   1.473  10.332 -0.5005 -0.1590 -0.1355
  365TMC3    C7 5470   2.290   1.490  10.586 -0.3741 -0.3597  0.0697
  365TMC3    C8 5471   2.425   1.265  10.186 -0.3200 -0.4325  0.2363
  365TMC3    O1 5472   2.226   1.581  10.531  0.1971 -0.9931 -0.0202
  365TMC3    O2 5473   2.433   1.366  10.118  0.4863 -0.6852 -0.3631
  366MPD2     C 5474   0.890   1.569  15.633  0.4113  0.0314  0.0776
  366MPD2    C1 5475   0.891   1.667  15.725  0.0653 -0.0552  0.7380
  366MPD2    C2 5476   1.016   1.690  15.784  0.0178 -0.2826  0.6758
  366MPD2    C3 5477   1.129   1.622  15.746  0.7962 -0.2201  0.2092
  366MPD2    C4 5478   1.118   1.524  15.655 -0.0873  0.4382 -0.6427
  366MPD2    C5 5479   0.997   1.503  15.594  0.1112  0.1956  0.3934
  366MPD2     H 5480   1.023   1.763  15.863 -1.2474  0.4050  0.1531
  366MPD2    H1 5481   1.209   1.473  15.628 -1.5492 -2.7769  0.4352
  366MPD2    H2 5482   0.796   1.549  15.583  0.2838  1.4205 -0.2304
  366MPD2    H3 5483   0.979   1.445  15.504  0.7697  1.4257 -0.5273
  366MPD2     N 5484   1.260   1.647  15.800  0.5140 -0.6290  0.2669
  366MPD2    H5 5485   1.331   1.577  15.787  0.1976 -0.5072 -2.0232
  366MPD2    N1 5486   0.787   1.759  15.753 -0.2333  0.3639  0.0362
  366MPD2    H7 5487   0.809   1.837  15.814 -2.7083  0.7719  0.4019
  367TMC3    C1 5488   0.596   1.878  15.723  0.1031 -0.7853  0.0621
  367TMC3    C2 5489   0.630   1.949  15.838  0.5444 -0.0426 -1.0622
  367TMC3    C3 5490   0.606   2.086  15.833  0.1437  0.0979 -0.0491
  367TMC3    C4 5491   0.516   1.932  15.623  0.3733  0.5741 -0.0702
  367TMC3    C5 5492   0.485   2.065  15.631 -0.7643  0.1914  0.6557
  367TMC3    C6 5493   0.540   2.145  15.730  0.6053 -0.2478  0.7213
  367TMC3     C 5494   0.673   1.763  15.685  0.4026 -0.7778  0.0862
  367TMC3     O 5495   0.623   1.673  15.616  0.1948  0.0049 -0.8926
  367TMC3     H 5496   0.659   1.889  15.923 -1.6271  0.8658  0.3063
  367TMC3    H1 5497   0.477   1.879  15.536 -0.0394 -0.6983  0.8893
  367TMC3    H2 5498   0.511   2.250  15.734  2.0893  0.2839 -2.4005
  367TMC3    C7 5499   0.375   2.128  15.554  0.0919  0.1472 -0.0022
  367TMC3    C8 5500   0.642   2.158  15.952 -0.3498 -0.0779 -0.5263
  367TMC3    O1 5501   0.398   2.248  15.529 -0.1486  0.6500 -0.6910
  367TMC3    O2 5502   0.739   2.114  16.017  1.0652  0.6271  0.2625
  368MPD2     C 5503   1.327   4.190  13.438  0.3303  0.5330 -0.8345
  368MPD2    C1 5504   1.321   4.289  13.343 -0.0152 -0.9508  0.2789
  368MPD2    C2 5505   1.441   4.339  13.282 -0.1459 -0.9169 -0.7266
  368MPD2    C3 5506   1.570   4.295  13.319 -0.1727 -0.6062  0.8083
  368MPD2    C4 5507   1.572   4.183  13.401  0.2084  0.3612  0.2029
  368MPD2    C5 5508   1.452   4.140  13.463  0.4290  0.0195 -0.6286
  368MPD2     H 5509   1.431   4.415  13.205 -1.4470 -1.2151 -0.8559
  368MPD2    H1 5510   1.660   4.125  13.428  2.1934  1.1174 -4.7134
  368MPD2    H2 5511   1.239   4.166  13.497  1.1805  0.2912  0.3349
  368MPD2    H3 5512   1.453   4.048  13.521 -0.0416 -0.6456 -1.6882
  368MPD2     N 5513   1.685   4.319  13.248  0.1517  0.1268 -0.4714
  368MPD2    H5 5514   1.758   4.250  13.237 -0.1378  0.0400 -1.8475
  368MPD2    N1 5515   1.196   4.336  13.313 -0.1557  0.1947  0.3852
  368MPD2    H7 5516   1.120   4.280  13.350 -0.9033  1.3636  0.6161
  369TMC3    C1 5517   1.027   4.454  13.178  0.5003  1.0752  0.1916
  369TMC3    C2 5518   1.021   4.538  13.070 -0.2314 -0.3564 -0.7907
  369TMC3    C3 5519   0.910   4.533  12.990  0.1583  0.0497 -0.1035
  369TMC3    C4 5520   0.930   4.360  13.190 -0.1277  0.5440  0.0258
  369TMC3    C5 5521   0.822   4.362  13.110 -0.4935  0.3669  0.4026
  369TMC3    C6 5522   0.810   4.449  13.008 -0.1593  0.7368 -0.3913
  369TMC3     C 5523   1.160   4.444  13.229  0.0788 -0.0572  0.1381
  369TMC3     O 5524   1.236   4.526  13.180  0.1144  0.8027  0.4856
  369TMC3     H 5525   1.081   4.628  13.060 -0.2798 -0.1086  1.1482
  369TMC3    H1 5526   0.930   4.292  13.274 -0.3684  1.1285  0.4962
  369TMC3    H2 5527   0.724   4.443  12.942  0.4818 -2.9043 -0.9016
  369TMC3    C7 5528   0.731   4.259  13.133 -0.1850  0.5772  0.2787
  369TMC3    C8 5529   0.914   4.606  12.862 -0.1390  0.2045 -0.5406
  369TMC3    O1 5530   0.731   4.210  13.248 -0.0965 -0.7102 -1.0941
  369TMC3    O2 5531   0.809   4.628  12.803 -0.0768  0.1401 -0.1257
  370TMC3    C1 5532   1.201   0.010  16.386  0.1213  0.3549  0.4767
  370TMC3    C2 5533   1.140   4.693  16.501  0.6482  0.3927 -1.2435
  370TMC3    C3 5534   1.103   4.562  16.501  0.0731  0.5322 -0.0556
  370TMC3    C4 5535   1.220   4.651  16.275 -0.5636  0.0015 -0.0798
  370TMC3    C5 5536   1.187   4.521  16.289  0.4874  0.8862  0.9062
  370TMC3    C6 5537   1.123   4.477  16.401  0.2151  0.9851 -0.1277
  370TMC3     C 5538   1.282   0.139  16.404 -0.0376 -0.3644 -0.0662
  370TMC3     O 5539   1.283   0.183  16.517 -0.1094 -0.3381 -0.3767
  370TMC3     H 5540   1.115   0.036  16.585 -0.0761  1.0204 -1.9450
  370TMC3    H1 5541   1.289   4.675  16.195  0.0901  0.1281  0.5250
  370TMC3    H2 5542   1.101   4.371  16.407 -0.7488  1.1836 -0.2092
  370TMC3    C7 5543   1.230   4.425  16.195  0.5796 -0.5823  0.3026
  370TMC3    C8 5544   1.063   4.505  16.630 -0.3119  0.1434  0.1047
  370TMC3    O1 5545   1.225   4.466  16.078  1.0347  0.2238  0.0166
  370TMC3    O2 5546   1.057   4.381  16.640  0.0995  0.2769  0.0002
  371TMC3    C1 5547   2.590   2.894  15.781  0.3986 -0.7856  0.6063
  371TMC3    C2 5548   2.479   2.881  15.866 -0.5023  0.3950 -0.1313
  371TMC3    C3 5549   2.385   2.978  15.863 -0.5715  0.7070  0.6292
  371TMC3    C4 5550   2.611   2.996  15.696  0.4853 -0.6217  0.3427
  371TMC3    C5 5551   2.511   3.089  15.698  0.1720  0.0977  0.1361
  371TMC3    C6 5552   2.398   3.090  15.784  0.9194  0.2043 -0.6987
  371TMC3     C 5553   2.686   2.788  15.791 -0.3928 -0.1150 -0.0129
  371TMC3     O 5554   2.803   2.819  15.808  0.0327  0.5794  0.0996
  371TMC3     H 5555   2.467   2.796  15.931  0.1228  0.7714  0.4672
  371TMC3    H1 5556   2.699   2.995  15.632 -0.4812  2.0608 -1.0352
  371TMC3    H2 5557   2.329   3.172  15.766  0.3630 -0.3464 -1.0611
  371TMC3    C7 5558   2.531   3.202  15.613  0.3040  0.1233 -0.7221
  371TMC3    C8 5559   2.289   2.986  15.969  0.6879 -0.2409  1.0385
  371TMC3    O1 5560   2.467   3.300  15.648 -0.5479 -0.0506  0.5489
  371TMC3    O2 5561   2.269   2.881  16.032  0.0438 -0.9188 -0.3686
  372MPD2     C 5562   1.803   3.795  13.343 -0.0630 -0.6513 -0.3307
  372MPD2    C1 5563   1.899   3.844  13.435 -0.6133  0.3060 -0.3140
  372MPD2    C2 5564   1.966   3.741  13.512  0.0866  0.5088 -0.1687
  372MPD2    C3 5565   1.952   3.608  13.489  0.6666  0.4791 -0.1393
  372MPD2    C4 5566   1.869   3.569  13.387  1.1299 -0.2937 -0.5031
  372MPD2    C5 5567   1.795   3.662  13.330  0.1862  0.0073  0.0419
  372MPD2     H 5568   2.032   3.777  13.590  0.5860  1.9655 -1.2767
  372MPD2    H1 5569   1.847   3.474  13.340 -2.3319  0.6187 -0.7549
  372MPD2    H2 5570   1.741   3.849  13.272 -0.2431  0.9617  1.0275
  372MPD2    H3 5571   1.719   3.635  13.257  0.2689 -1.3893  0.4633
  372MPD2     N 5572   2.028   3.513  13.564  0.7072 -0.1126 -0.5594
  372MPD2    H5 5573   2.088   3.542  13.640 -1.3055  1.0005  0.5997
  372MPD2    N1 5574   1.947   3.975  13.447 -0.0462  0.3506 -0.4812
  372MPD2    H7 5575   2.024   3.987  13.512 -1.4714  1.5142  1.0001
  373TMC3    C1 5576   2.129   3.304  13.631  0.1593 -0.0687  0.4626
  373TMC3    C2 5577   2.112   3.329  13.768  1.0180  0.3290  0.3175
  373TMC3    C3 5578   2.169   3.243  13.854 -0.5768  0.1285 -0.1774
  373TMC3    C4 5579   2.202   3.195  13.586 -0.6670  1.3167  0.0934
  373TMC3    C5 5580   2.272   3.124  13.675 -0.1575 -0.3156 -0.4786
  373TMC3    C6 5581   2.255   3.144  13.811  1.1177 -0.8959  0.2775
  373TMC3     C 5582   2.043   3.381  13.536  0.2274  0.6445 -0.7597
  373TMC3     O 5583   1.995   3.316  13.447  0.2999  0.4273  0.1322
  373TMC3     H 5584   2.040   3.405  13.791  1.6931  0.8754  0.6276
  373TMC3    H1 5585   2.203   3.180  13.479 -0.3785  0.8141  0.1673
  373TMC3    H2 5586   2.301   3.071  13.878  3.8556 -0.9728 -1.6823
  373TMC3    C7 5587   2.351   3.009  13.630  0.6442 -0.3843 -0.3197
  373TMC3    C8 5588   2.105   3.218  13.988 -0.7365 -0.1369  0.3211
  373TMC3    O1 5589   2.395   3.014  13.515  0.3335  0.2437  0.5046
  373TMC3    O2 5590   2.156   3.134  14.065 -0.1595  0.4036 -0.4470
  374TMC3    C1 5591   2.611   4.485   9.745  0.4497  0.4572  0.3806
  374TMC3    C2 5592   2.626   4.490   9.879  0.3332 -0.2294 -0.1682
  374TMC3    C3 5593   2.516   4.472   9.957  0.1338  0.0047 -0.3074
  374TMC3    C4 5594   2.489   4.436   9.686 -0.6264 -0.2132 -0.1143
  374TMC3    C5 5595   2.387   4.417   9.767 -0.2860  0.1367  0.2535
  374TMC3    C6 5596   2.395   4.432   9.905 -0.5040 -0.0080 -0.4011
  374TMC3     C 5597   2.726   4.463   9.654  0.6977 -0.4170  0.2783
  374TMC3     O 5598   2.701   4.457   9.535 -0.0847  0.6012 -0.2002
  374TMC3     H 5599   2.718   4.528   9.921  1.6743 -3.3672 -0.2735
  374TMC3    H1 5600   2.469   4.429   9.580  1.3031 -0.6758 -0.4541
  374TMC3    H2 5601   2.311   4.432   9.974  0.6362  0.4315  0.9686
  374TMC3    C7 5602   2.267   4.357   9.708 -0.7113  0.4709 -0.6103
  374TMC3    C8 5603   2.521   4.505  10.105 -0.3008  0.0085  0.3951
  374TMC3    O1 5604   2.269   4.351   9.586  0.0155 -0.7128 -0.3013
  374TMC3    O2 5605   2.418   4.512  10.169  0.4240  0.1093 -0.6410
  375MPD2     C 5606   2.676   0.457  17.607  0.1601  0.4327 -0.4470
  375MPD2    C1 5607   2.576   0.461  17.511  0.6330 -0.1881 -0.2376
  375MPD2    C2 5608   2.611   0.433  17.382 -0.3408 -0.0017  0.7113
  375MPD2    C3 5609   2.744   0.401  17.346 -0.1646 -0.4155  0.1082
  375MPD2    C4 5610   2.836   0.394  17.448 -0.0411 -0.2654  0.4439
  375MPD2    C5 5611   2.800   0.406  17.579 -0.6656 -0.5468  0.3583
  375MPD2     H 5612   2.537   0.449  17.304  0.0278  1.2182  0.6168
  375MPD2    H1 5613   2.941   0.381  17.424 -0.6507 -2.9638 -0.7010
  375MPD2    H2 5614   2.653   0.477   0.026  1.7685 -1.3454  0.2536
  375MPD2    H3 5615   2.871   0.414  17.661  0.7849 -3.1803 -0.6199
  375MPD2     N 5616   2.797   0.374  17.214  0.4700  0.2969 -0.2426
  375MPD2    H5 5617   2.887   0.328  17.204  2.2818  3.8649 -0.4792
  375MPD2    N1 5618   2.443   0.505  17.531 -0.4895 -0.7690 -0.0754
  375MPD2    H7 5619   2.388   0.527  17.449 -0.1818  0.1334 -0.0450
  376TMC3    C1 5620   2.787   0.371  16.978 -0.0334  0.1263  0.4607
  376TMC3    C2 5621   2.921   0.377  16.970 -0.1662  0.7066  0.3964
  376TMC3    C3 5622   2.973   0.365  16.848  0.6649  0.7838  0.3387
  376TMC3    C4 5623   2.710   0.355  16.868  0.9834 -0.0296  0.4129
  376TMC3    C5 5624   2.771   0.349  16.744 -1.1038  0.3730 -0.4923
  376TMC3    C6 5625   2.905   0.359  16.734 -0.3290 -0.2505  0.1442
  376TMC3     C 5626   2.706   0.377  17.104 -0.0902  0.0513 -0.6590
  376TMC3     O 5627   2.585   0.400  17.098  0.3174 -0.3358  0.0654
  376TMC3     H 5628   2.986   0.386  17.056  1.0044  1.5695 -0.5863
  376TMC3    H1 5629   2.603   0.352  16.879  0.7008  2.9158 -1.2344
  376TMC3    H2 5630   2.963   0.348  16.643  1.9854 -1.4192  1.7709
  376TMC3    C7 5631   2.695   0.330  16.622  0.8293 -0.2439  0.5382
  376TMC3    C8 5632   3.114   0.348  16.832  0.5517 -0.1073  0.3196
  376TMC3    O1 5633   2.763   0.302  16.521  0.0906 -0.0210 -0.1975
  376TMC3    O2 5634   3.160   0.394  16.734  0.1521  0.0041 -0.1422
  377MPD2     C 5635   0.561   4.306  12.345  0.0292  0.4032 -0.0058
  377MPD2    C1 5636   0.604   4.288  12.469  0.0710  0.1267  0.0416
  377MPD2    C2 5637   0.514   4.289  12.573 -0.7410  0.1222  0.4268
  377MPD2    C3 5638   0.376   4.273  12.552  1.0184  0.5361 -0.0362
  377MPD2    C4 5639   0.334   4.276  12.424 -0.2663 -0.2292 -0.0557
  377MPD2    C5 5640   0.427   4.283  12.324 -0.1495 -0.1330 -0.1997
  377MPD2     H 5641   0.540   4.281  12.678  0.0465 -0.2660  0.1989
  377MPD2    H1 5642   0.234   4.256  12.388  0.3572 -0.8431 -1.4437
  377MPD2    H2 5643   0.626   4.318  12.259 -0.6628  0.3590 -0.5340
  377MPD2    H3 5644   0.391   4.279  12.221 -1.3782  1.3582  0.1771
  377MPD2     N 5645   0.280   4.272  12.653  0.1285  0.4782  0.2343
  377MPD2    H5 5646   0.190   4.240  12.619 -1.0394  1.5371  2.2867
  377MPD2    N1 5647   0.747   4.307  12.491  0.2693  0.4547  0.2544
  377MPD2    H7 5648   0.804   4.321  12.407 -1.2852 -2.5984 -1.2894
  378TMC3    C1 5649   1.146   4.402  12.500  0.4595  0.2056 -0.0741
  378TMC3    C2 5650   1.006   4.392  12.497 -0.4840 -0.2412  0.0443
  378TMC3    C3 5651   0.946   4.352  12.612 -0.3561  0.6020  0.1173
  378TMC3    C4 5652   1.215   4.342  12.606  1.1300  0.3130  0.3300
  378TMC3    C5 5653   1.146   4.295  12.709 -0.5387  0.2567  0.0996
  378TMC3    C6 5654   1.013   4.313  12.723  0.0047 -0.0180 -0.6054
  378TMC3     C 5655   1.227   4.467  12.390  0.4155 -0.5521 -0.4484
  378TMC3     O 5656   1.162   4.486  12.288  0.5558 -0.2481 -0.3378
  378TMC3     H 5657   0.963   4.448  12.414 -0.7447 -0.3289  0.1219
  378TMC3    H1 5658   1.322   4.326  12.593  0.7109 -1.4198 -0.9699
  378TMC3    H2 5659   0.967   4.272  12.812  0.8844 -0.0775 -0.1870
  378TMC3    C7 5660   1.215   4.253  12.836  0.8303  0.2234 -0.4157
  378TMC3    C8 5661   0.803   4.318  12.617  0.0382 -0.4901 -0.3849
  378TMC3    O1 5662   1.150   4.218  12.932  0.1559 -0.0898 -0.4124
  378TMC3    O2 5663   0.763   4.286  12.729 -0.0963  0.0710  0.3073
  379MPD2     C 5664   1.101   2.676  16.960  0.2645  0.3451 -0.2262
  379MPD2    C1 5665   1.197   2.598  16.900 -0.3708  0.5271 -1.3858
  379MPD2    C2 5666   1.278   2.521  16.985  0.2623  0.6801  0.1594
  379MPD2    C3 5667   1.263   2.526  17.124  0.8115  0.2610  0.1856
  379MPD2    C4 5668   1.158   2.603  17.175 -0.3500 -0.4663  0.2703
  379MPD2    C5 5669   1.077   2.676  17.094 -0.0639 -0.1771  0.7998
  379MPD2     H 5670   1.339   2.446  16.935 -2.1156 -1.3434  0.2681
  379MPD2    H1 5671   1.143   2.616  17.281 -1.2499 -0.3988  0.1326
  379MPD2    H2 5672   1.044   2.750  16.905  1.4454  1.2373 -0.2741
  379MPD2    H3 5673   0.998   2.738  17.135 -0.5359 -1.3430  1.6410
  379MPD2     N 5674   1.328   2.447  17.218  0.2020 -1.0124  0.5673
  379MPD2    H5 5675   1.302   2.477  17.311 -0.5997 -3.7338  1.1881
  379MPD2    N1 5676   1.196   2.609  16.760 -0.3863 -0.1969  0.3084
  379MPD2    H7 5677   1.146   2.677  16.704  0.2640 -0.1046 -0.1441
  380TMC3    C1 5678   1.262   2.561  16.538  0.2399  0.1925 -0.2701
  380TMC3    C2 5679   1.361   2.512  16.456 -0.6248  0.4641  0.5865
  380TMC3    C3 5680   1.333   2.462  16.333 -0.1361  0.1124 -0.1982
  380TMC3    C4 5681   1.137   2.582  16.487  0.0478  0.0228 -0.2083
  380TMC3    C5 5682   1.115   2.542  16.361 -0.1640 -0.5676 -0.2312
  380TMC3    C6 5683   1.211   2.494  16.285 -0.8318  0.5566  0.6093
  380TMC3     C 5684   1.290   2.548  16.683  0.3258  0.2271  0.1431
  380TMC3     O 5685   1.385   2.484  16.712 -0.6853 -0.3116 -0.1207
  380TMC3     H 5686   1.455   2.490  16.504 -0.0042 -0.5921 -1.1053
  380TMC3    H1 5687   1.056   2.634  16.537 -0.3979 -2.0731  1.2724
  380TMC3    H2 5688   1.190   2.467  16.182  0.2337  0.3158  0.4442
  380TMC3    C7 5689   0.991   2.578  16.304  0.1160  0.3847 -1.5779
  380TMC3    C8 5690   1.434   2.419  16.237 -0.3779  0.0557 -0.2448
  380TMC3    O1 5691   0.943   2.685  16.340 -0.2789 -0.1486 -0.0145
  380TMC3    O2 5692   1.407   2.436  16.117 -0.2714 -0.1988 -0.5797
  381TMC3    C1 5693   1.157   3.843  16.547 -0.7065 -0.8820  0.2223
  381TMC3    C2 5694   1.228   3.955  16.504  0.3344 -0.2019 -0.1973
  381TMC3    C3 5695   1.243   4.052  16.600  0.3647  0.0448 -0.0076
  381TMC3    C4 5696   1.082   3.835  16.662  0.0526 -0.0973 -0.3020
  381TMC3    C5 5697   1.085   3.944  16.742 -0.3959 -0.3408 -0.1722
  381TMC3    C6 5698   1.162   4.056  16.709 -0.1851  0.3955  0.3449
  381TMC3     C 5699   1.184   3.715  16.483  0.7579 -0.4160 -0.2843
  381TMC3     O 5700   1.135   3.611  16.527  0.0255 -0.2040  0.7150
  381TMC3     H 5701   1.291   3.953  16.416 -0.3122 -0.0504 -0.6623
  381TMC3    H1 5702   1.023   3.748  16.688 -0.6764 -0.1665 -2.2426
  381TMC3    H2 5703   1.174   4.129  16.789 -1.4745 -0.0376  0.9360
  381TMC3    C7 5704   1.058   3.914  16.876  0.0681 -0.9219  1.3321
  381TMC3    C8 5705   1.370   4.125  16.604 -0.4690  0.1705  0.0130
  381TMC3    O1 5706   1.071   3.797  16.905 -0.2291  0.1347 -0.0845
  381TMC3    O2 5707   1.458   4.059  16.554 -0.2757  0.2350 -0.6989
  382MPD2     C 5708   0.567   1.191   0.668 -0.1146 -0.6825 -0.7016
  382MPD2    C1 5709   0.513   1.258   0.557  0.2353 -0.3191 -1.0812
  382MPD2    C2 5710   0.449   1.186   0.456 -0.1585 -0.0261 -0.0976
  382MPD2    C3 5711   0.439   1.052   0.471  0.3458  0.1757 -0.0628
  382MPD2    C4 5712   0.496   0.988   0.575 -0.6970  0.1371  0.1790
  382MPD2    C5 5713   0.551   1.058   0.679 -0.2125 -0.4043  0.3718
  382MPD2     H 5714   0.424   1.245   0.369 -0.3746 -2.1138 -1.4427
  382MPD2    H1 5715   0.473   0.884   0.596 -3.3407  0.6975  0.1235
  382MPD2    H2 5716   0.627   1.244   0.741 -0.2800 -1.1155 -0.2524
  382MPD2    H3 5717   0.582   0.999   0.765 -1.5340  0.7828  1.6587
  382MPD2     N 5718   0.379   0.978   0.373 -0.1667  0.2908  0.1185
  382MPD2    H5 5719   0.395   0.878   0.374 -0.3600  0.2464 -0.5114
  382MPD2    N1 5720   0.534   1.396   0.538 -0.5388 -0.3072  0.1645
  382MPD2    H7 5721   0.501   1.446   0.456  2.7570  1.6129  0.0231
  383TMC3    C1 5722   0.238   0.925   0.199  0.0012  0.0265 -0.5054
  383TMC3    C2 5723   0.126   0.965   0.132 -0.5081  0.3184  0.1605
  383TMC3    C3 5724   0.056   0.875   0.060  0.3828 -0.6857  0.5538
  383TMC3    C4 5725   0.284   0.797   0.191 -0.8164  0.0880  0.3479
  383TMC3    C5 5726   0.211   0.705   0.120  0.4859  0.3755 -0.3029
  383TMC3    C6 5727   0.097   0.739   0.055 -0.0979 -0.4347  0.3400
  383TMC3     C 5728   0.301   1.030   0.274  0.3555  0.2587 -0.2100
  383TMC3     O 5729   0.249   1.142   0.259  0.0146 -0.4153  0.0854
  383TMC3     H 5730   0.087   1.065   0.145 -0.0779  0.3118  1.4875
  383TMC3    H1 5731   0.365   0.763   0.255 -1.2640  0.9957  1.3927
  383TMC3    H2 5732   0.058   0.662  17.676  0.1673 -0.1787 -0.1191
  383TMC3    C7 5733   0.251   0.561   0.124 -0.2742 -0.0118  0.8910
  383TMC3    C8 5734   4.663   0.907  17.664 -0.6557 -0.2132  0.0322
  383TMC3    O1 5735   0.167   0.481   0.092  0.1548  0.3777  0.7356
  383TMC3    O2 5736   4.600   0.821  17.612  0.3580 -0.7300  0.0893
  384MPD2     C 5737   1.818   2.465  12.022  0.2854 -0.1227  0.0328
  384MPD2    C1 5738   1.814   2.430  12.153 -0.7133  0.5177  0.2598
  384MPD2    C2 5739   1.908   2.352  12.214 -0.5825 -0.0272 -0.5590
  384MPD2    C3 5740   2.014   2.305  12.127  0.9011 -0.6120 -0.3289
  384MPD2    C4 5741   2.020   2.337  11.992 -0.3662  0.1109 -0.0819
  384MPD2    C5 5742   1.918   2.416  11.945  0.1598 -0.5863  0.0463
  384MPD2     H 5743   1.912   2.339  12.322 -1.1053  1.9168 -0.3180
  384MPD2    H1 5744   2.097   2.301  11.925 -1.0096 -1.5238  0.0631
  384MPD2    H2 5745   1.735   2.523  11.982  0.7045 -0.2671 -1.0427
  384MPD2    H3 5746   1.900   2.432  11.839  0.0968 -1.7358 -0.1152
  384MPD2     N 5747   2.112   2.229  12.192 -0.5061 -0.4385  0.0497
  384MPD2    H5 5748   2.097   2.224  12.292  0.9401 -0.2849  0.2754
  384MPD2    N1 5749   1.711   2.490  12.236  0.3926  0.2743 -0.5129
  384MPD2    H7 5750   1.673   2.578  12.202 -1.5862  0.0908  1.3303
  385TMC3    C1 5751   2.318   2.145  12.238  0.0371 -0.4363 -0.4816
  385TMC3    C2 5752   2.325   2.011  12.221  0.3779 -0.2044  0.2191
  385TMC3    C3 5753   2.319   1.930  12.324  0.0193  0.5888 -0.6139
  385TMC3    C4 5754   2.296   2.194  12.364  1.0277  0.3315 -0.5649
  385TMC3    C5 5755   2.282   2.105  12.473 -0.2860  0.0956  0.0372
  385TMC3    C6 5756   2.297   1.967  12.449 -0.5755 -0.2406  0.2734
  385TMC3     C 5757   2.236   2.211  12.143 -0.1297 -0.0041  0.0631
  385TMC3     O 5758   2.279   2.242  12.033  0.5951  0.6371  0.0287
  385TMC3     H 5759   2.325   1.973  12.119  1.2438  1.6719 -0.4719
  385TMC3    H1 5760   2.265   2.298  12.372 -1.9866 -0.5470 -0.9275
  385TMC3    H2 5761   2.297   1.893  12.529 -1.8206 -0.6085 -0.0649
  385TMC3    C7 5762   2.194   2.155  12.576  0.5599  0.4358 -0.8510
  385TMC3    C8 5763   2.302   1.786  12.300 -0.3576  0.2676 -0.8691
  385TMC3    O1 5764   2.171   2.272  12.573  0.4010 -0.8882 -0.8904
  385TMC3    O2 5765   2.256   1.721  12.394  0.1267 -0.3141  0.3518
  386TMC3    C1 5766   1.679   0.367  11.603  0.6808 -0.7797 -0.2220
  386TMC3    C2 5767   1.702   0.323  11.474  0.8448 -0.5186 -0.2911
  386TMC3    C3 5768   1.589   0.289  11.397  0.5126 -0.0509 -0.3202
  386TMC3    C4 5769   1.557   0.385  11.657 -0.1818  0.0978 -0.2379
  386TMC3    C5 5770   1.454   0.347  11.581  0.4445  0.0421 -0.0476
  386TMC3    C6 5771   1.467   0.297  11.453  0.0512  0.1359  0.6226
  386TMC3     C 5772   1.791   0.426  11.668  0.7383 -0.2001  0.1979
  386TMC3     O 5773   1.770   0.539  11.718  0.1046 -0.0780 -0.0497
  386TMC3     H 5774   1.801   0.300  11.437  0.8318 -0.8663 -0.1072
  386TMC3    H1 5775   1.549   0.427  11.757 -1.4743  0.0172 -0.3046
  386TMC3    H2 5776   1.380   0.257  11.402  0.0308 -1.7829  2.1253
  386TMC3    C7 5777   1.321   0.373  11.640  0.6071 -0.0075 -0.1250
  386TMC3    C8 5778   1.593   0.246  11.262  0.9618 -0.6485 -0.2780
  386TMC3    O1 5779   1.312   0.389  11.764  0.2036  0.1336  0.0180
  386TMC3    O2 5780   1.494   0.196  11.230  0.5380  0.1092 -0.0341
  387MPD2     C 5781   4.659   4.663  10.002 -0.5224 -0.8919  0.6077
  387MPD2    C1 5782   0.061   4.630  10.050 -0.0158 -0.2726 -0.0954
  387MPD2    C2 5783   0.124   4.515  10.013 -0.2181 -0.6486 -0.2481
  387MPD2    C3 5784   0.056   4.422   9.939 -0.1115 -0.6730  0.6044
  387MPD2    C4 5785   4.654   4.450   9.889  0.1374 -0.2015 -0.2666
  387MPD2    C5 5786   4.599   4.572   9.914  0.0789  0.3782 -0.1697
  387MPD2     H 5787   0.220   4.487  10.053  0.5081  0.0420 -1.5191
  387MPD2    H1 5788   4.605   4.379   9.823  1.2027 -0.1104 -1.1545
  387MPD2    H2 5789   4.609   0.034  10.031  0.0707 -0.5352  0.5199
  387MPD2    H3 5790   4.504   4.599   9.870 -0.4557 -0.2347  0.6176
  387MPD2     N 5791   0.117   4.293   9.913 -0.6562 -0.3261 -0.0261
  387MPD2    H5 5792   0.210   4.286   9.954 -1.2968  0.4165  1.5502
  387MPD2    N1 5793   0.128   4.698  10.158  0.1425  1.3367 -0.0628
  387MPD2    H7 5794   0.203   4.645  10.203  1.9273  2.2417 -1.9842
  388TMC3    C1 5795   0.175   0.102  10.336  0.0604  0.5482 -0.3501
  388TMC3    C2 5796   0.130   0.170  10.448  0.1803 -0.0661 -0.9145
  388TMC3    C3 5797   0.203   0.173  10.565 -0.3541 -0.3121 -0.2425
  388TMC3    C4 5798   0.283   0.015  10.342 -0.4117  0.1796  0.1255
  388TMC3    C5 5799   0.354   0.017  10.458 -0.0006  0.4145  0.3882
  388TMC3    C6 5800   0.328   0.103  10.564  0.4858 -0.5241  0.1392
  388TMC3     C 5801   0.083   0.085  10.227 -0.1426  0.1516  0.7673
  388TMC3     O 5802   4.695   0.142  10.228  0.7458 -0.6381 -0.1767
  388TMC3     H 5803   0.048   0.241  10.443  1.3333  1.3883  0.4456
  388TMC3    H1 5804   0.333   4.694  10.256 -2.6697  2.8890 -2.5065
  388TMC3    H2 5805   0.409   0.104  10.636  0.4347 -1.0060  0.2024
  388TMC3    C7 5806   0.463   4.639  10.461 -0.2149 -0.5924 -0.1203
  388TMC3    C8 5807   0.208   0.297  10.636 -0.2213  0.0174 -0.1079
  388TMC3    O1 5808   0.572   4.664  10.507  0.4886 -0.2573  0.2361
  388TMC3    O2 5809   0.120   0.382  10.614  0.3721 -0.0116 -0.1619
  389MPD2     C 5810   4.145   2.832  10.923 -0.0027  0.3084  0.1230
  389MPD2    C1 5811   4.063   2.814  10.813  0.8487  0.5122  0.8444
  389MPD2    C2 5812   3.974   2.708  10.815  0.0037  0.1330 -0.1098
  389MPD2    C3 5813   3.964   2.625  10.928  0.3077 -0.2560  0.1695
  389MPD2    C4 5814   4.045   2.655  11.040 -0.1440 -0.2061  0.0354
  389MPD2    C5 5815   4.147   2.756  11.032  0.4124 -0.1764 -0.4318
  389MPD2     H 5816   3.919   2.685  10.724 -0.0445 -0.5506  0.0915
  389MPD2    H1 5817   4.043   2.595  11.131  2.3281  0.9236  0.8412
  389MPD2    H2 5818   4.233   2.895  10.919 -0.1990  0.5629 -0.2386
  389MPD2    H3 5819   4.202   2.783  11.121  2.4372 -0.9192 -1.4366
  389MPD2     N 5820   3.871   2.524  10.944  0.5575 -0.4842  0.0913
  389MPD2    H5 5821   3.873   2.473  11.032 -1.0861  1.3634  1.2202
  389MPD2    N1 5822   4.078   2.902  10.708  0.0554  0.0043  0.2459
  389MPD2    H7 5823   4.154   2.970  10.710 -0.0748  0.1851 -0.9715
  390TMC3    C1 5824   3.718   2.349  10.879  0.1334 -0.3651  0.0218
  390TMC3    C2 5825   3.735   2.278  10.992 -0.4173 -0.0695 -0.1010
  390TMC3    C3 5826   3.704   2.144  10.989 -0.1601  0.1934 -0.1805
  390TMC3    C4 5827   3.672   2.288  10.765 -0.1827 -0.3901  0.8962
  390TMC3    C5 5828   3.666   2.153  10.762 -0.0113 -0.3783 -0.4939
  390TMC3    C6 5829   3.690   2.079  10.871  0.0255 -0.7943  0.7981
  390TMC3     C 5830   3.787   2.475  10.843  0.4378 -0.3881 -0.2963
  390TMC3     O 5831   3.768   2.518  10.733 -0.2747 -0.0409 -0.5162
  390TMC3     H 5832   3.757   2.316  11.091 -0.6366  2.6853 -1.1277
  390TMC3    H1 5833   3.643   2.350  10.681  0.2936  1.2968  1.9917
  390TMC3    H2 5834   3.642   1.983  10.864 -1.9165  0.2724 -0.5374
  390TMC3    C7 5835   3.552   2.087  10.702  0.1020  0.0487  0.1351
  390TMC3    C8 5836   3.611   2.081  11.093  0.3178  0.3530 -0.2164
  390TMC3    O1 5837   3.572   1.989  10.636 -0.3347  0.2107 -0.6826
  390TMC3    O2 5838   3.591   1.959  11.089  0.1028 -0.4691  0.3510
  391MPD2     C 5839   3.053   4.334  11.421 -0.2736  0.5363 -0.3948
  391MPD2    C1 5840   3.186   4.348  11.382  0.0919  0.2992 -0.4664
  391MPD2    C2 5841   3.215   4.418  11.264 -0.4380 -0.3955  0.1771
  391MPD2    C3 5842   3.105   4.459  11.181 -0.5571  1.2609 -0.7083
  391MPD2    C4 5843   2.975   4.448  11.227  0.2530 -0.4544  0.5280
  391MPD2    C5 5844   2.949   4.384  11.341 -0.0458 -0.2568 -0.0111
  391MPD2     H 5845   3.314   4.435  11.226 -1.7994 -1.9115 -3.9691
  391MPD2    H1 5846   2.890   4.492  11.176  0.2949  1.0619  1.7582
  391MPD2    H2 5847   3.030   4.283  11.513  1.6042  0.7860  0.2148
  391MPD2    H3 5848   2.845   4.382  11.372  0.0621  2.0508  0.4265
  391MPD2     N 5849   3.146   4.507  11.060  0.3434  0.0257  0.2922
  391MPD2    H5 5850   3.241   4.489  11.030 -0.3493 -1.2416 -1.1278
  391MPD2    N1 5851   3.287   4.291  11.461 -0.1172 -0.3977 -0.5690
  391MPD2    H7 5852   3.258   4.246  11.548 -0.3549 -1.9785 -1.4603
  392TMC3    C1 5853   3.126   4.602  10.850 -1.0354  0.6644 -0.6897
  392TMC3    C2 5854   3.049   4.639  10.745 -0.3553 -0.1259  0.1387
  392TMC3    C3 5855   3.101   4.664  10.623  0.7779 -0.5634 -0.0402
  392TMC3    C4 5856   3.259   4.594  10.836 -0.4440  0.9436 -0.1578
  392TMC3    C5 5857   3.310   4.621  10.712 -0.4439  0.2662 -0.4642
  392TMC3    C6 5858   3.236   4.651  10.604 -0.1841 -0.0599  0.9765
  392TMC3     C 5859   3.063   4.578  10.974  0.1213 -0.1527 -0.0176
  392TMC3     O 5860   2.953   4.633  10.995  0.1131  0.0145 -0.2048
  392TMC3     H 5861   2.943   4.624  10.761 -0.5390 -0.0112 -0.9784
  392TMC3    H1 5862   3.324   4.571  10.920 -1.6780 -2.4890 -0.1427
  392TMC3    H2 5863   3.269   4.668  10.502  1.9331 -3.3199  1.1048
  392TMC3    C7 5864   3.458   4.623  10.706  0.1101 -0.4576 -0.4345
  392TMC3    C8 5865   3.018   4.651  10.512  0.0517 -0.2580  0.0084
  392TMC3    O1 5866   3.520   4.559  10.790 -0.1749 -0.1300 -0.5998
  392TMC3    O2 5867   3.062   4.593  10.419 -0.7291  1.2173 -0.6248
  393TMC3    C1 5868   2.891   2.469  10.310  0.2452  0.5723 -0.4828
  393TMC3    C2 5869   2.760   2.514  10.304  0.1280 -0.1073  0.3191
  393TMC3    C3 5870   2.670   2.436  10.369 -0.0323  0.3806  0.5794
  393TMC3    C4 5871   2.933   2.351  10.369  0.4816  0.0242 -0.2850
  393TMC3    C5 5872   2.833   2.275  10.423  0.0776 -0.0240  1.0595
  393TMC3    C6 5873   2.704   2.316  10.422  0.1140  0.0723 -0.4905
  393TMC3     C 5874   2.992   2.529  10.232  0.5367  0.4025 -0.4438
  393TMC3     O 5875   3.086   2.464  10.191  0.6257 -0.0844  0.4576
  393TMC3     H 5876   2.736   2.596  10.237 -0.3769  0.7540  1.5489
  393TMC3    H1 5877   3.039   2.330  10.371 -0.0370 -2.0348  4.9090
  393TMC3    H2 5878   2.623   2.262  10.470  1.3741  0.0948  1.6674
  393TMC3    C7 5879   2.858   2.128  10.440  0.3463 -0.0771  0.1707
  393TMC3    C8 5880   2.534   2.485  10.347 -0.0743 -0.1058  0.2980
  393TMC3    O1 5881   2.763   2.052  10.460  0.1215  0.1360 -0.3921
  393TMC3    O2 5882   2.521   2.579  10.269  0.0268 -0.2654 -0.0419
  394TMC3    C1 5883   4.042   3.004  10.501 -0.2480 -0.3268 -0.3932
  394TMC3    C2 5884   3.983   2.992  10.378  0.4230 -0.7804  0.6833
  394TMC3    C3 5885   4.036   3.057  10.271 -0.0296 -0.0679  0.1900
  394TMC3    C4 5886   4.147   3.096  10.516  0.1721  0.5822  0.6066
  394TMC3    C5 5887   4.196   3.154  10.399 -0.7647  0.3952  0.1493
  394TMC3    C6 5888   4.151   3.125  10.275  0.3858  0.0565 -0.1413
  394TMC3     C 5889   3.998   2.903  10.598  0.3599  0.2600 -0.3955
  394TMC3     O 5890   3.897   2.839  10.563 -0.2847  0.0527  0.7720
  394TMC3     H 5891   3.898   2.928  10.357  1.0786 -0.9889 -1.3196
  394TMC3    H1 5892   4.196   3.120  10.610  1.2270 -0.3601  0.3046
  394TMC3    H2 5893   4.203   3.162  10.187 -1.7653 -0.3744 -1.5786
  394TMC3    C7 5894   4.341   3.186  10.412  0.1217 -0.5965 -0.0648
  394TMC3    C8 5895   4.000   2.993  10.146  0.1405  1.1700 -0.2836
  394TMC3    O1 5896   4.370   3.292  10.466  0.1370  0.2591 -0.1138
  394TMC3    O2 5897   3.879   2.985  10.122  0.6510  0.1219 -0.9257
  395TMC3    C1 5898   3.378   0.258  14.682  0.4717 -0.6884 -0.8145
  395TMC3    C2 5899   3.297   0.267  14.568 -0.2610  0.0855  0.2475
  395TMC3    C3 5900   3.319   0.377  14.483 -0.1059  0.0483  0.1640
  395TMC3    C4 5901   3.458   0.358  14.714 -0.3535 -0.4056  0.0805
  395TMC3    C5 5902   3.484   0.459  14.624  0.9117  0.2382 -0.1077
  395TMC3    C6 5903   3.411   0.480  14.509  0.1083 -0.7191  0.5346
  395TMC3     C 5904   3.358   0.153  14.779  0.1974  0.3180 -0.0103
  395TMC3     O 5905   3.433   0.167  14.876 -0.1187  0.9375 -0.1673
  395TMC3     H 5906   3.235   0.186  14.530 -0.9321  1.3008 -1.2275
  395TMC3    H1 5907   3.527   0.356  14.797 -0.8976  0.1246  0.5509
  395TMC3    H2 5908   3.411   0.571  14.450  2.0828 -0.1084  1.4604
  395TMC3    C7 5909   3.585   0.561  14.656  0.6124  0.3179  0.1388
  395TMC3    C8 5910   3.243   0.389  14.362 -0.5092  0.6247 -0.2323
  395TMC3    O1 5911   3.626   0.555  14.773 -0.1004  0.1634  0.4314
  395TMC3    O2 5912   3.285   0.466  14.280 -0.3080 -0.1672  0.7459
  396MPD2     C 5913   3.394   1.297   0.287  0.2307 -0.0149 -0.1700
  396MPD2    C1 5914   3.420   1.274   0.153 -0.3624 -0.3820  0.0153
  396MPD2    C2 5915   3.488   1.374   0.077 -0.3141 -0.5656  0.0923
  396MPD2    C3 5916   3.526   1.497   0.128 -0.4654 -0.3658  0.8190
  396MPD2    C4 5917   3.492   1.515   0.264  0.0677 -0.2063 -0.0039
  396MPD2    C5 5918   3.427   1.422   0.340 -0.4865 -0.5338 -0.1074
  396MPD2     H 5919   3.490   1.360  17.655  1.2774 -1.8785  0.2977
  396MPD2    H1 5920   3.512   1.611   0.311  0.5211 -0.0561 -0.4987
  396MPD2    H2 5921   3.328   1.237   0.348 -1.3907 -0.3329 -2.2426
  396MPD2    H3 5922   3.404   1.432   0.446  1.5439  1.0186  0.1919
  396MPD2     N 5923   3.594   1.593   0.048 -0.6886  0.0069  0.1139
  396MPD2    H5 5924   3.636   1.570  17.644 -0.5162  0.7270  0.0147
  396MPD2    N1 5925   3.375   1.147   0.103 -0.2708  0.1654 -0.1487
  396MPD2    H7 5926   3.339   1.080   0.171 -0.5542  1.4465  0.9611
  397TMC3    C1 5927   3.344   0.973  17.622  0.4027  0.1553 -0.4741
  397TMC3    C2 5928   3.266   0.963  17.503 -0.1743  0.3797  1.1340
  397TMC3    C3 5929   3.189   0.857  17.481  0.0606 -0.1307  0.2547
  397TMC3    C4 5930   3.320   0.882   0.041 -0.0374  0.4785  0.2369
  397TMC3    C5 5931   3.252   0.764   0.002 -0.3613  0.4364 -0.1192
  397TMC3    C6 5932   3.189   0.746  17.567  0.3054  0.2674  0.9225
  397TMC3     C 5933   3.384   1.110  17.653  0.2654  1.0423  0.4297
  397TMC3     O 5934   3.387   1.181  17.556  0.0064 -0.5760 -0.0155
  397TMC3     H 5935   3.281   1.036  17.424 -3.6876 -0.7610 -0.5846
  397TMC3    H1 5936   3.358   0.894   0.142  1.4138  0.9510 -0.3685
  397TMC3    H2 5937   3.137   0.655  17.538 -1.4059  0.5830  3.0085
  397TMC3    C7 5938   3.260   0.646   0.090  0.1074  0.1490  0.1829
  397TMC3    C8 5939   3.133   0.844  17.347 -0.0175 -0.1788 -0.3323
  397TMC3    O1 5940   3.246   0.532   0.043  0.3382  0.3602  0.1101
  397TMC3    O2 5941   3.179   0.913  17.254 -0.0488 -0.6332  0.0021
  398MPD2     C 5942   1.100   2.654   0.632 -0.1136  0.3267 -0.6497
  398MPD2    C1 5943   1.211   2.611   0.564  0.0442 -0.1556  0.1394
  398MPD2    C2 5944   1.293   2.703   0.510 -0.3862 -0.3735  0.0135
  398MPD2    C3 5945   1.283   2.838   0.529 -0.1469 -0.3132 -0.1112
  398MPD2    C4 5946   1.171   2.885   0.592 -0.4360 -0.4337  0.5739
  398MPD2    C5 5947   1.087   2.787   0.644  0.5638  0.5301  0.1866
  398MPD2     H 5948   1.373   2.658   0.454  0.9931  1.8840  0.1825
  398MPD2    H1 5949   1.150   2.990   0.605 -2.4988 -0.7984  0.2355
  398MPD2    H2 5950   1.026   2.593   0.682  0.1106  0.6583  0.0831
  398MPD2    H3 5951   1.007   2.825   0.707 -0.0658 -1.5260  0.6232
  398MPD2     N 5952   1.382   2.921   0.476 -0.9821  0.6782 -0.2020
  398MPD2    H5 5953   1.468   2.872   0.453 -2.5891 -2.1935 -0.1820
  398MPD2    N1 5954   1.234   2.475   0.542 -0.1820 -0.2041  0.3350
  398MPD2    H7 5955   1.316   2.449   0.487 -0.4911 -1.3288  0.3988
  399TMC3    C1 5956   1.199   2.243   0.544  0.0568  0.5771  0.2821
  399TMC3    C2 5957   1.332   2.212   0.526 -0.1627 -0.2065  0.5263
  399TMC3    C3 5958   1.372   2.087   0.514 -0.6653 -0.2179 -0.0037
  399TMC3    C4 5959   1.104   2.142   0.544 -0.1993  0.3869  0.3030
  399TMC3    C5 5960   1.152   2.018   0.520 -0.0392 -0.2631 -1.3045
  399TMC3    C6 5961   1.287   1.982   0.498  0.4346 -0.3307  0.1830
  399TMC3     C 5962   1.151   2.371   0.588  0.0751  0.3851 -0.2229
  399TMC3     O 5963   1.033   2.369   0.616 -0.1701 -0.0195  0.1173
  399TMC3     H 5964   1.412   2.284   0.537  0.1943 -0.6707  0.9185
  399TMC3    H1 5965   0.997   2.154   0.553 -0.4916 -1.0619 -1.2642
  399TMC3    H2 5966   1.316   1.879   0.482  0.5506 -0.3400  0.4504
  399TMC3    C7 5967   1.051   1.914   0.531  0.0774 -0.1801  0.3527
  399TMC3    C8 5968   1.518   2.074   0.527  0.2752  0.0299  0.3125
  399TMC3    O1 5969   0.959   1.940   0.607  0.0917 -0.3732 -0.0555
  399TMC3    O2 5970   1.588   2.163   0.483  0.0145 -0.1807  0.3916
  400TMC3    C1 5971   0.209   0.976  17.422 -0.6899 -0.2458  0.1681
  400TMC3    C2 5972   0.099   0.950  17.344  0.1185  0.1715  0.1844
  400TMC3    C3 5973   0.043   1.059  17.288 -0.8252 -0.3055 -0.0737
  400TMC3    C4 5974   0.246   1.106  17.449  0.6682  0.4128 -0.8985
  400TMC3    C5 5975   0.188   1.215  17.392  0.1062  0.2083 -0.0702
  400TMC3    C6 5976   0.081   1.189  17.302 -0.4835  0.6709  0.5315
  400TMC3     C 5977   0.277   0.860  17.469 -0.2648 -0.1233  0.0405
  400TMC3     O 5978   0.218   0.756  17.452  0.0305 -0.8763  0.2949
  400TMC3     H 5979   0.055   0.851  17.335  1.8254 -0.5067 -0.6992
  400TMC3    H1 5980   0.326   1.122  17.521 -0.2420  0.0461  0.2073
  400TMC3    H2 5981   0.017   1.264  17.257 -0.8981 -0.2594 -0.4427
  400TMC3    C7 5982   0.212   1.341  17.464 -0.2886 -0.6954  1.0352
  400TMC3    C8 5983   4.670   1.044  17.178 -0.0070 -0.0114  0.7690
  400TMC3    O1 5984   0.270   1.329  17.569 -0.3387  0.0730 -0.0146
  400TMC3    O2 5985   4.631   1.149  17.124 -0.2996 -0.2797  0.0285
  401MPD2     C 5986   2.861   3.300   0.509 -0.2250  0.6192 -0.5830
  401MPD2    C1 5987   2.860   3.345   0.638  0.8136 -0.1890  0.0143
  401MPD2    C2 5988   2.814   3.261   0.732  0.2717  0.7221 -0.6801
  401MPD2    C3 5989   2.774   3.134   0.702 -0.4740  0.1229  0.6661
  401MPD2    C4 5990   2.764   3.095   0.574  0.1394 -0.2585 -0.2865
  401MPD2    C5 5991   2.805   3.182   0.480  0.4465  0.5398 -0.9330
  401MPD2     H 5992   2.817   3.294   0.835  0.3479 -2.5946  0.3773
  401MPD2    H1 5993   2.729   2.996   0.549 -0.8248 -0.4407  1.8577
  401MPD2    H2 5994   2.894   3.373   0.436  1.0821  2.3772  1.7540
  401MPD2    H3 5995   2.781   3.158   0.377 -1.1065 -1.3995 -0.1071
  401MPD2     N 5996   2.732   3.047   0.804 -0.3648  0.4457 -0.2886
  401MPD2    H5 5997   2.722   3.089   0.896 -1.3130 -1.8960  0.6870
  401MPD2    N1 5998   2.914   3.466   0.688  0.0369  0.3511 -0.5653
  401MPD2    H7 5999   2.914   3.481   0.789 -0.2229 -1.2852 -0.3270
  402TMC3    C1 6000   2.689   2.868   0.943  0.1411  0.5687  0.3974
  402TMC3    C2 6001   2.588   2.944   0.980  0.1154  0.0686 -0.2133
  402TMC3    C3 6002   2.585   3.006   1.104 -0.7113  0.8146 -0.3360
  402TMC3    C4 6003   2.789   2.846   1.032  1.0500  0.4011  0.5470
  402TMC3    C5 6004   2.784   2.883   1.157 -0.2040 -0.0436 -0.0707
  402TMC3    C6 6005   2.675   2.956   1.197 -0.4660  0.4345 -0.0705
  402TMC3     C 6006   2.737   2.910   0.813 -0.1057 -0.3935  0.2834
  402TMC3     O 6007   2.786   2.827   0.737  0.2507 -0.3713  0.0546
  402TMC3     H 6008   2.510   2.975   0.912  0.4258 -1.7817 -1.4015
  402TMC3    H1 6009   2.885   2.817   0.990  1.0589 -0.5043  1.1954
  402TMC3    H2 6010   2.664   2.985   1.301  2.5330 -1.1667  0.6632
  402TMC3    C7 6011   2.908   2.913   1.227  0.5915 -0.2471  0.9943
  402TMC3    C8 6012   2.595   3.153   1.092  0.3314  0.2467 -0.5418
  402TMC3    O1 6013   2.922   3.033   1.253 -0.2054  0.4768  0.3988
  402TMC3    O2 6014   2.529   3.205   1.002  0.2753  0.3277  0.3719
  403MPD2     C 6015   1.525   2.543  13.482 -0.0704 -0.1286  0.5343
  403MPD2    C1 6016   1.516   2.426  13.546 -0.2307  0.0942  0.2389
  403MPD2    C2 6017   1.626   2.390  13.626 -0.6585  0.0829 -0.3272
  403MPD2    C3 6018   1.729   2.478  13.665 -0.2749 -0.5917  1.0117
  403MPD2    C4 6019   1.727   2.603  13.606  0.0165  0.0468 -0.1431
  403MPD2    C5 6020   1.620   2.637  13.520  0.2937 -0.5253 -0.6808
  403MPD2     H 6021   1.625   2.288  13.661 -0.1004 -0.4424 -1.8715
  403MPD2    H1 6022   1.793   2.687  13.629 -0.1183  0.5322 -1.5153
  403MPD2    H2 6023   1.450   2.576  13.411 -0.8474 -2.5584  0.2405
  403MPD2    H3 6024   1.606   2.736  13.478 -0.0743  0.2177  1.2060
  403MPD2     N 6025   1.830   2.437  13.751 -0.0708  0.5231  0.2075
  403MPD2    H5 6026   1.834   2.345  13.794  0.8608  0.5825  0.2661
  403MPD2    N1 6027   1.412   2.339  13.504 -0.1104  0.1647  0.1157
  403MPD2    H7 6028   1.355   2.377  13.430 -0.5831 -1.0205 -0.1157
  404TMC3    C1 6029   1.263   2.165  13.515 -0.9138  0.0119  0.2135
  404TMC3    C2 6030   1.209   2.066  13.590  0.3373  0.1759 -0.1948
  404TMC3    C3 6031   1.158   1.955  13.521 -0.9409 -0.5718 -0.0332
  404TMC3    C4 6032   1.255   2.167  13.380 -0.9610  0.1184 -0.1513
  404TMC3    C5 6033   1.211   2.051  13.316 -0.1851  0.4785 -0.0448
  404TMC3    C6 6034   1.159   1.944  13.385  0.3763 -0.2017  0.1415
  404TMC3     C 6035   1.381   2.228  13.572  0.4350 -0.0392 -0.2178
  404TMC3     O 6036   1.409   2.189  13.683  0.1648 -0.3599  0.5393
  404TMC3     H 6037   1.206   2.070  13.698 -1.3321 -2.0957 -0.1585
  404TMC3    H1 6038   1.309   2.231  13.311 -0.4825  0.0708  0.1780
  404TMC3    H2 6039   1.140   1.853  13.330 -0.2658 -0.4579  0.8061
  404TMC3    C7 6040   1.211   2.058  13.171  0.1847 -0.1848 -0.0047
  404TMC3    C8 6041   1.195   1.829  13.586 -0.4562  0.8056 -0.3280
  404TMC3    O1 6042   1.306   2.124  13.120  0.3978 -0.0956 -0.0973
  404TMC3    O2 6043   1.243   1.736  13.521  0.0592 -0.5475  0.3399
  405MPD2     C 6044   1.958   2.927  14.897  0.5993 -0.2528 -0.1117
  405MPD2    C1 6045   1.866   2.845  14.826 -0.2630 -0.6205 -0.1126
  405MPD2    C2 6046   1.778   2.904  14.738  0.1099 -0.3270  0.0120
  405MPD2    C3 6047   1.768   3.043  14.739 -0.3048 -1.1212 -0.2683
  405MPD2    C4 6048   1.847   3.123  14.819 -0.0869 -0.0653 -0.2732
  405MPD2    C5 6049   1.946   3.066  14.900  0.3506 -0.4198 -0.4051
  405MPD2     H 6050   1.729   2.847  14.659  0.8007  0.3508 -0.9119
  405MPD2    H1 6051   1.836   3.230  14.801 -1.1511  0.1253  1.5692
  405MPD2    H2 6052   2.034   2.883  14.961  0.1629  0.3131  0.7930
  405MPD2    H3 6053   2.009   3.116  14.972  1.8281 -0.8975 -1.3745
  405MPD2     N 6054   1.653   3.086  14.679  0.0631  0.1391 -0.4757
  405MPD2    H5 6055   1.597   3.010  14.641  0.2226 -0.6799  0.9585
  405MPD2    N1 6056   1.879   2.706  14.845 -0.0462  0.5459  1.0105
  405MPD2    H7 6057   1.961   2.671  14.893  1.0679 -0.4323 -1.6057
  406TMC3    C1 6058   1.234   3.259  14.655 -0.6628 -0.2597  0.6559
  406TMC3    C2 6059   1.192   3.141  14.605 -0.0053 -0.3185 -0.3341
  406TMC3    C3 6060   1.289   3.050  14.569 -0.2588 -0.2476  0.2139
  406TMC3    C4 6061   1.363   3.294  14.666  0.4534 -0.0352 -0.0434
  406TMC3    C5 6062   1.457   3.202  14.633 -0.8298 -0.0733  0.2032
  406TMC3    C6 6063   1.417   3.074  14.590  0.6370  0.0443  0.2627
  406TMC3     C 6064   1.139   3.359  14.688 -0.3290 -0.3195 -0.7065
  406TMC3     O 6065   1.190   3.471  14.684 -0.1215 -0.0746  0.2000
  406TMC3     H 6066   1.086   3.120  14.598 -0.1173 -0.5111  1.9508
  406TMC3    H1 6067   1.391   3.391  14.706  1.4310 -0.0905 -0.5932
  406TMC3    H2 6068   1.487   3.007  14.541  1.0872 -0.9434  2.2636
  406TMC3    C7 6069   1.594   3.211  14.686  0.4456  0.3413 -0.0472
  406TMC3    C8 6070   1.234   2.919  14.542 -0.2634  0.7149 -0.0599
  406TMC3    O1 6071   1.630   3.306  14.751  0.0800  0.3350  0.8135
  406TMC3    O2 6072   1.114   2.908  14.533 -0.1932  0.2073  0.0053
  407MPD2     C 6073   4.252   3.991   9.747 -0.2583  0.4909 -0.2953
  407MPD2    C1 6074   4.354   3.954   9.830 -0.7863 -0.1818  0.0483
  407MPD2    C2 6075   4.410   4.045   9.922 -0.5180 -0.0345  0.0172
  407MPD2    C3 6076   4.348   4.168   9.936  0.2009  0.0390  0.1024
  407MPD2    C4 6077   4.241   4.205   9.855 -0.5234  0.0365  0.1138
  407MPD2    C5 6078   4.202   4.111   9.762  0.1336  0.1018 -0.4257
  407MPD2     H 6079   4.508   4.029   9.965  0.4656 -0.4222 -2.4038
  407MPD2    H1 6080   4.204   4.306   9.839 -2.0537 -0.9115 -2.2420
  407MPD2    H2 6081   4.213   3.924   9.671  0.7328  0.8757 -1.1480
  407MPD2    H3 6082   4.129   4.139   9.687  0.9869  2.4208 -0.3767
  407MPD2     N 6083   4.398   4.270  10.024 -0.0827 -0.1795 -0.0994
  407MPD2    H5 6084   4.349   4.358  10.035  0.3226  0.0434 -0.1032
  407MPD2    N1 6085   4.422   3.827   9.819  0.5573 -0.1520  0.4534
  407MPD2    H7 6086   4.504   3.804   9.875  0.3964 -0.5027  0.5447
  408TMC3    C1 6087   4.441   3.615   9.710 -0.0676 -0.3817 -0.6216
  408TMC3    C2 6088   4.579   3.630   9.701 -0.4023 -1.1323  0.4255
  408TMC3    C3 6089   4.654   3.519   9.663 -0.1841 -0.3978  0.2994
  408TMC3    C4 6090   4.379   3.500   9.672  0.0796 -0.1086  0.0476
  408TMC3    C5 6091   4.453   3.400   9.621 -0.2840 -0.0629  0.5775
  408TMC3    C6 6092   4.587   3.404   9.626  0.3432 -0.2315 -0.1205
  408TMC3     C 6093   4.355   3.721   9.756 -0.4128  0.8097 -0.2769
  408TMC3     O 6094   4.238   3.700   9.734  0.0051  0.3022 -0.0920
  408TMC3     H 6095   4.621   3.725   9.731 -0.0494 -1.1694  0.0346
  408TMC3    H1 6096   4.271   3.503   9.678  0.0598  1.0112 -0.8287
  408TMC3    H2 6097   4.640   3.317   9.589 -0.3139 -1.4669  1.8368
  408TMC3    C7 6098   4.390   3.290   9.551  0.5883 -0.4965  0.1747
  408TMC3    C8 6099   0.078   3.512   9.665 -0.3091  0.5679 -0.4095
  408TMC3    O1 6100   4.451   3.191   9.516  0.4741 -0.0093  0.0763
  408TMC3    O2 6101   0.117   3.394   9.669 -0.5105  0.2151 -0.4955
  409MPD2     C 6102   3.368   0.459  17.236  0.2943  0.4693  0.5099
  409MPD2    C1 6103   3.464   0.440  17.330  0.1830 -0.4593 -0.1286
  409MPD2    C2 6104   3.586   0.499  17.310 -0.0133  0.0679 -0.0489
  409MPD2    C3 6105   3.607   0.590  17.209  0.3498  0.4546 -0.1274
  409MPD2    C4 6106   3.500   0.619  17.126 -0.0828  0.1607  0.0184
  409MPD2    C5 6107   3.386   0.546  17.129  0.4127 -0.5796  0.3823
  409MPD2     H 6108   3.667   0.499  17.382  0.9168  0.0432 -1.0991
  409MPD2    H1 6109   3.512   0.689  17.044  2.6315  1.0258  1.1504
  409MPD2    H2 6110   3.270   0.413  17.240  0.1221  0.7810 -0.1613
  409MPD2    H3 6111   3.310   0.558  17.052 -0.2357  0.4968  1.1972
  409MPD2     N 6112   3.719   0.672  17.192  0.1594  0.2532 -0.3016
  409MPD2    H5 6113   3.720   0.742  17.118  0.7335 -0.3895 -0.9084
  409MPD2    N1 6114   3.463   0.348  17.432 -0.0206  0.8818 -0.1682
  409MPD2    H7 6115   3.548   0.336  17.486  0.7533 -0.0463 -1.5983
  410TMC3    C1 6116   3.945   0.745  17.211  0.2341  0.4186 -0.6945
  410TMC3    C2 6117   4.046   0.784  17.295 -0.0489 -0.5487  0.2466
  410TMC3    C3 6118   4.128   0.884  17.246 -0.5311 -0.7319 -0.4766
  410TMC3    C4 6119   3.942   0.759  17.076 -0.2501 -0.0396  0.3121
  410TMC3    C5 6120   4.031   0.858  17.031 -0.0174 -0.5558  0.0821
  410TMC3    C6 6121   4.124   0.921  17.112 -0.0242 -0.6292 -0.1453
  410TMC3     C 6122   3.840   0.662  17.260 -0.5299  0.7034  0.2170
  410TMC3     O 6123   3.857   0.602  17.367 -0.7124  0.0184  0.6824
  410TMC3     H 6124   4.050   0.757  17.400 -2.8648  2.3083  1.1009
  410TMC3    H1 6125   3.875   0.707  17.010  1.0676 -2.1743  0.6569
  410TMC3    H2 6126   4.184   1.000  17.067 -2.4530  0.4785 -1.4713
  410TMC3    C7 6127   4.048   0.884  16.890 -0.5680 -0.5084  0.2719
  410TMC3    C8 6128   4.233   0.923  17.340  0.2023 -0.3342 -0.4244
  410TMC3    O1 6129   4.031   0.789  16.816  0.0258  0.2997  0.3254
  410TMC3    O2 6130   4.268   0.841  17.423  1.0895  0.4863 -0.1459
  411MPD2     C 6131   4.254   1.502  14.568 -0.3492  0.4043 -0.6798
  411MPD2    C1 6132   4.164   1.527  14.670 -0.2758  0.3495  0.2912
  411MPD2    C2 6133   4.043   1.453  14.678 -0.5700  0.1945 -0.4382
  411MPD2    C3 6134   4.015   1.367  14.573  0.7381  0.4530  0.0072
  411MPD2    C4 6135   4.112   1.344  14.479 -0.4427 -0.3989 -0.6145
  411MPD2    C5 6136   4.228   1.411  14.473 -0.5251 -0.2812  0.3249
  411MPD2     H 6137   3.962   1.478  14.746 -0.0329  2.5371 -0.6849
  411MPD2    H1 6138   4.090   1.301  14.381  1.8801 -1.5429 -0.6284
  411MPD2    H2 6139   4.343   1.563  14.562 -1.2599  1.7436 -0.5885
  411MPD2    H3 6140   4.299   1.389  14.394  1.6957 -0.0423  2.2676
  411MPD2     N 6141   3.887   1.308  14.553  0.8402 -0.1598 -0.1222
  411MPD2    H5 6142   3.873   1.259  14.466 -0.4767 -0.1787  0.1024
  411MPD2    N1 6143   4.188   1.633  14.764 -0.7573  0.9620  0.1683
  411MPD2    H7 6144   4.261   1.701  14.746 -0.6570  1.0730  1.0066
  412TMC3    C1 6145   3.660   1.230  14.583 -0.3585 -0.8164  0.4096
  412TMC3    C2 6146   3.588   1.313  14.499  0.2960  0.4294 -0.1727
  412TMC3    C3 6147   3.450   1.286  14.485  0.8039 -0.0398  0.2789
  412TMC3    C4 6148   3.593   1.130  14.657 -0.1293  0.2188  0.7139
  412TMC3    C5 6149   3.465   1.103  14.631  0.0351 -0.5337 -0.0570
  412TMC3    C6 6150   3.393   1.180  14.545  0.1349  0.0325  0.2144
  412TMC3     C 6151   3.785   1.288  14.641  0.2304 -0.1098  0.3322
  412TMC3     O 6152   3.788   1.312  14.762 -0.2825  0.1544 -0.0635
  412TMC3     H 6153   3.634   1.399  14.453 -0.2819 -0.0855 -1.7243
  412TMC3    H1 6154   3.641   1.066  14.730  1.0717 -1.0220 -1.1654
  412TMC3    H2 6155   3.287   1.157  14.538  0.0460  0.9695 -1.7678
  412TMC3    C7 6156   3.413   0.975  14.691 -0.0910  0.1921 -0.2328
  412TMC3    C8 6157   3.398   1.314  14.355  0.4550 -0.7252  0.4176
  412TMC3    O1 6158   3.442   0.965  14.810  0.1460 -0.2514 -0.6095
  412TMC3    O2 6159   3.458   1.394  14.282  0.0383  0.3958  0.4347
  413MPD2     C 6160   0.817   3.832  15.987  0.2077 -0.5051  0.8623
  413MPD2    C1 6161   0.826   3.878  15.857  0.0247 -0.2963  0.4300
  413MPD2    C2 6162   0.908   3.809  15.767 -0.0055  0.2502 -0.5431
  413MPD2    C3 6163   0.976   3.694  15.802 -0.2172 -0.1710  0.1409
  413MPD2    C4 6164   0.961   3.646  15.932  0.1249 -0.2672  0.2801
  413MPD2    C5 6165   0.880   3.710  16.025 -0.3484 -0.3909 -0.1259
  413MPD2     H 6166   0.902   3.824  15.660  0.9693  0.1995 -0.6053
  413MPD2    H1 6167   1.023   3.568  15.975  0.7897 -0.2086 -0.5604
  413MPD2    H2 6168   0.768   3.887  16.067  0.4870 -1.3932  1.6472
  413MPD2    H3 6169   0.874   3.683  16.130  0.3054  2.1101  0.5565
  413MPD2     N 6170   1.065   3.635  15.710 -0.0503 -0.8692 -0.3465
  413MPD2    H5 6171   1.073   3.657  15.611  0.0314  2.0166  0.2996
  413MPD2    N1 6172   0.756   3.996  15.824 -0.1022 -0.3456 -0.5340
  413MPD2    H7 6173   0.708   4.039  15.902  0.3038 -0.7215 -0.0765
  414TMC3    C1 6174   1.214   3.465  15.644  0.2335 -0.1903  0.1354
  414TMC3    C2 6175   1.315   3.378  15.682  0.0873  0.5809 -0.1817
  414TMC3    C3 6176   1.337   3.265  15.610 -0.5277  1.0395 -0.8833
  414TMC3    C4 6177   1.127   3.432  15.547 -0.2986  0.2472  0.9228
  414TMC3    C5 6178   1.154   3.325  15.467 -0.2239 -0.0904  0.1924
  414TMC3    C6 6179   1.263   3.239  15.494 -0.2735  1.0441  0.1310
  414TMC3     C 6180   1.165   3.553  15.748 -0.8429  0.5336 -0.6984
  414TMC3     O 6181   1.219   3.546  15.856 -0.1345  0.7679 -0.5950
  414TMC3     H 6182   1.367   3.400  15.775  0.6685  0.6380 -0.5167
  414TMC3    H1 6183   1.033   3.486  15.543 -0.0701  0.6881  1.4554
  414TMC3    H2 6184   1.280   3.152  15.433  1.6485  2.0826 -0.7898
  414TMC3    C7 6185   1.056   3.296  15.365 -0.1575  0.2453 -0.2980
  414TMC3    C8 6186   1.460   3.190  15.623  0.7044 -0.1795 -0.7750
  414TMC3    O1 6187   0.941   3.307  15.403  0.3668 -0.8378  0.0531
  414TMC3    O2 6188   1.459   3.084  15.559  0.3485  0.2041  0.2940
  415TMC3    C1 6189   1.155   1.409   9.785  0.5251 -0.1301 -0.5218
  415TMC3    C2 6190   1.222   1.510   9.726  0.4533  0.2992  0.4221
  415TMC3    C3 6191   1.148   1.590   9.650 -0.2411  0.2632  0.1124
  415TMC3    C4 6192   1.023   1.400   9.779 -0.2866 -0.0150 -0.2591
  415TMC3    C5 6193   0.950   1.481   9.701  0.6825  0.9377 -0.2951
  415TMC3    C6 6194   1.015   1.578   9.632  0.2760  0.4699 -0.1685
  415TMC3     C 6195   1.232   1.316   9.861  0.1043 -0.1530  0.1914
  415TMC3     O 6196   1.179   1.209   9.896  0.0121 -0.2945  0.1530
  415TMC3     H 6197   1.329   1.520   9.730  0.5049 -0.3918  0.8590
  415TMC3    H1 6198   0.977   1.317   9.830 -1.1363 -1.0033 -2.6391
  415TMC3    H2 6199   0.963   1.633   9.554  1.2097  0.5324 -0.7536
  415TMC3    C7 6200   0.809   1.439   9.658  0.3459  0.0596 -0.5309
  415TMC3    C8 6201   1.202   1.710   9.581  0.7366  0.5845 -0.4425
  415TMC3    O1 6202   0.748   1.502   9.574 -0.2760  0.1753 -0.0968
  415TMC3    O2 6203   1.135   1.748   9.481 -0.5141  0.1314 -0.7197
  416MPD2     C 6204   3.666   0.587  11.856  0.6623  0.2936 -0.2177
  416MPD2    C1 6205   3.642   0.617  11.729  0.2579 -0.0919 -0.2025
  416MPD2    C2 6206   3.669   0.525  11.628 -0.0187  0.3553 -0.2797
  416MPD2    C3 6207   3.716   0.398  11.669 -0.9618 -0.1045 -0.6947
  416MPD2    C4 6208   3.746   0.366  11.795 -0.3561  0.2270  0.4855
  416MPD2    C5 6209   3.722   0.462  11.893  0.2261  0.5824  0.9035
  416MPD2     H 6210   3.667   0.551  11.523  1.5845  0.3899 -0.3025
  416MPD2    H1 6211   3.763   0.265  11.831 -0.3680 -0.1320 -0.5239
  416MPD2    H2 6212   3.644   0.660  11.933 -1.3054  0.1848 -0.6744
  416MPD2    H3 6213   3.737   0.438  11.998 -0.6996 -1.4794  0.5667
  416MPD2     N 6214   3.719   0.287  11.575  0.1910 -0.3527 -0.4916
  416MPD2    H5 6215   3.738   0.203  11.628  0.5889 -0.8006 -1.3451
  416MPD2    N1 6216   3.568   0.732  11.715 -0.6356  0.8198 -0.4469
  416MPD2    H7 6217   3.563   0.789  11.799  2.2503 -0.4673  0.5824
  417TMC3    C1 6218   3.386   0.866  11.623 -0.0164 -0.1494 -0.2531
  417TMC3    C2 6219   3.339   0.887  11.749 -0.6290 -0.7387 -0.2356
  417TMC3    C3 6220   3.219   0.950  11.758 -0.0874 -0.6343 -0.4538
  417TMC3    C4 6221   3.312   0.896  11.511 -0.4193  0.1617 -0.6667
  417TMC3    C5 6222   3.189   0.951  11.527 -0.9153  0.0852 -0.7150
  417TMC3    C6 6223   3.135   0.979  11.651  0.4947  0.1437 -0.3258
  417TMC3     C 6224   3.488   0.761  11.604 -0.3163 -0.8337  0.2299
  417TMC3     O 6225   3.490   0.714  11.493 -0.1353  0.0737  0.6241
  417TMC3     H 6226   3.395   0.867  11.840  0.1990  0.7890 -0.4026
  417TMC3    H1 6227   3.356   0.903  11.412 -0.8278  0.2166 -0.8440
  417TMC3    H2 6228   3.034   1.015  11.662  0.8326  0.5066  1.5986
  417TMC3    C7 6229   3.142   1.024  11.410 -0.0354  0.3462  0.5548
  417TMC3    C8 6230   3.157   0.953  11.885  0.0791 -0.9993 -0.1398
  417TMC3    O1 6231   3.200   1.010  11.305  0.1379  0.3402  0.6241
  417TMC3    O2 6232   3.097   1.055  11.911 -0.3928 -0.2581  0.1403
  418TMC3    C1 6233   1.708   3.183   0.385 -0.1340 -0.4814 -0.3051
  418TMC3    C2 6234   1.572   3.182   0.389  0.0560 -0.4141  0.4879
  418TMC3    C3 6235   1.512   3.119   0.495  0.2214  0.3562  0.4907
  418TMC3    C4 6236   1.784   3.115   0.478 -0.2383  0.1441 -0.4208
  418TMC3    C5 6237   1.718   3.054   0.581 -0.4203  0.1487 -0.8284
  418TMC3    C6 6238   1.583   3.052   0.590  0.3264 -0.7288 -0.1147
  418TMC3     C 6239   1.770   3.228   0.257  0.4001  0.7424  0.5586
  418TMC3     O 6240   1.711   3.309   0.189  0.0518 -0.3720  0.0178
  418TMC3     H 6241   1.508   3.227   0.314  0.8157  0.1662  0.1915
  418TMC3    H1 6242   1.892   3.105   0.480 -0.4163 -1.7473 -0.2448
  418TMC3    H2 6243   1.532   2.995   0.667 -3.3386  1.5991 -0.8219
  418TMC3    C7 6244   1.786   2.971   0.677 -0.0933  0.0777  0.2509
  418TMC3    C8 6245   1.377   3.063   0.470  0.2736  0.4083 -1.1383
  418TMC3    O1 6246   1.731   2.867   0.710  0.0178 -0.5215  0.6749
  418TMC3    O2 6247   1.279   3.136   0.455 -0.2006 -0.1383  0.2077
  419MPD2     C 6248   0.688   0.558  12.940  0.1452  0.5878 -0.0754
  419MPD2    C1 6249   0.558   0.602  12.906  0.0988 -0.5150 -0.3624
  419MPD2    C2 6250   0.469   0.633  13.002 -0.1023  0.0043  0.4835
  419MPD2    C3 6251   0.504   0.642  13.137 -0.6169 -0.5436  0.8147
  419MPD2    C4 6252   0.623   0.587  13.176 -0.0571  0.0953  0.0540
  419MPD2    C5 6253   0.707   0.540  13.077 -0.6367 -0.0840 -0.7739
  419MPD2     H 6254   0.366   0.657  12.979 -0.1164 -0.9737 -0.4690
  419MPD2    H1 6255   0.658   0.579  13.279  1.9979 -1.2357 -0.7399
  419MPD2    H2 6256   0.763   0.540  12.864 -1.1490  2.4683 -1.8287
  419MPD2    H3 6257   0.802   0.499  13.109 -0.2914  1.2159 -0.1632
  419MPD2     N 6258   0.408   0.689  13.230 -0.0834  0.7860  0.2905
  419MPD2    H5 6259   0.313   0.700  13.193 -0.9563 -2.7845  1.5063
  419MPD2    N1 6260   0.514   0.610  12.769 -0.2046 -0.2233  0.2815
  419MPD2    H7 6261   0.426   0.659  12.753  1.8868  3.2695 -0.6554
  420TMC3    C1 6262   0.325   0.807  13.422  0.2539  0.2865 -0.2328
  420TMC3    C2 6263   0.228   0.880  13.352 -0.0791 -0.3190  0.0595
  420TMC3    C3 6264   0.144   0.967  13.418 -0.3095 -0.0407  0.0283
  420TMC3    C4 6265   0.327   0.819  13.557  0.6487 -0.1923 -0.2446
  420TMC3    C5 6266   0.247   0.911  13.618  0.4865 -0.1688  0.1509
  420TMC3    C6 6267   0.150   0.982  13.553 -0.3195  0.1955 -0.1752
  420TMC3     C 6268   0.436   0.725  13.359  0.4541  0.5169  0.3413
  420TMC3     O 6269   0.545   0.735  13.416 -0.0786  0.1128  0.3795
  420TMC3     H 6270   0.230   0.874  13.244  0.1083 -0.7727  0.0883
  420TMC3    H1 6271   0.402   0.766  13.615  0.0771 -0.7107  0.0251
  420TMC3    H2 6272   0.075   1.042  13.604  0.1068  0.2177  0.4245
  420TMC3    C7 6273   0.214   0.900  13.760  0.5113 -0.3504  0.0789
  420TMC3    C8 6274   0.044   1.028  13.330 -0.2068  0.3296 -0.1265
  420TMC3    O1 6275   0.237   0.790  13.815  0.6178  0.0728 -0.3163
  420TMC3    O2 6276   0.024   0.973  13.222 -0.4447  0.4509  0.0815
  421TMC3    C1 6277   2.040   2.458  13.861  0.7546 -0.1445 -0.6801
  421TMC3    C2 6278   2.107   2.520  13.962  0.8275 -0.0612 -0.5090
  421TMC3    C3 6279   2.222   2.470  14.009  0.0740  0.0601  0.4079
  421TMC3    C4 6280   2.093   2.347  13.800  0.6299 -0.5930 -0.2266
  421TMC3    C5 6281   2.216   2.302  13.842  0.2561 -0.2930 -0.0736
  421TMC3    C6 6282   2.277   2.357  13.949  0.0414  0.0272  1.4013
  421TMC3     C 6283   1.926   2.522  13.800  0.0069 -0.5030 -0.7469
  421TMC3     O 6284   1.932   2.643  13.791  0.1374  0.0558  0.4352
  421TMC3     H 6285   2.083   2.624  13.980 -0.0126 -0.6331  1.6874
  421TMC3    H1 6286   2.040   2.311  13.713 -0.1014  0.9815 -0.4239
  421TMC3    H2 6287   2.374   2.322  13.984  1.0157  0.6067 -0.6768
  421TMC3    C7 6288   2.298   2.227  13.752  0.6977 -0.3359 -0.7998
  421TMC3    C8 6289   2.300   2.551  14.099 -0.8784  0.6963  0.2259
  421TMC3    O1 6290   2.420   2.222  13.772  0.2978  0.2693  0.1224
  421TMC3    O2 6291   2.424   2.543  14.091 -0.6352 -0.6342  0.0727
  422TMC3    C1 6292   4.374   3.708  12.706  0.1389  0.3235  0.4722
  422TMC3    C2 6293   4.301   3.815  12.674 -0.6554 -0.2843 -0.2763
  422TMC3    C3 6294   4.198   3.842  12.762  0.0023  0.0856  0.2156
  422TMC3    C4 6295   4.340   3.616  12.807 -0.6206 -0.1288  0.0058
  422TMC3    C5 6296   4.233   3.650  12.883 -0.3154 -0.0551 -0.4406
  422TMC3    C6 6297   4.167   3.764  12.870  0.0133 -0.1676  0.2648
  422TMC3     C 6298   4.480   3.671  12.615  0.0228 -0.7212 -0.3150
  422TMC3     O 6299   4.504   3.750  12.523 -0.8962 -0.0538  0.1965
  422TMC3     H 6300   4.316   3.885  12.592  0.3406  0.8226  0.8324
  422TMC3    H1 6301   4.414   3.554  12.854 -0.4143 -0.2538 -0.4790
  422TMC3    H2 6302   4.106   3.804  12.950 -2.5288 -1.3957 -1.0527
  422TMC3    C7 6303   4.167   3.545  12.960  0.4472 -0.0802 -0.0965
  422TMC3    C8 6304   4.180   3.984  12.784 -0.8860  0.6794 -0.8521
  422TMC3    O1 6305   4.233   3.441  12.973  0.1565 -0.2752  0.1452
  422TMC3    O2 6306   4.277   4.051  12.753 -0.0426  0.2590 -0.0138
  423MPD2     C 6307   0.929   0.642   0.784 -1.0983 -0.7412  0.2755
  423MPD2    C1 6308   0.906   0.521   0.853 -0.2932 -0.0364 -0.3018
  423MPD2    C2 6309   0.907   0.401   0.786  0.2778 -1.3604 -0.1165
  423MPD2    C3 6310   0.926   0.409   0.650  0.2115  0.1537 -0.3780
  423MPD2    C4 6311   0.942   0.526   0.579  0.1107 -0.3921  0.0865
  423MPD2    C5 6312   0.957   0.642   0.649 -0.2868  0.3399 -0.1985
  423MPD2     H 6313   0.894   0.304   0.833 -0.9491 -2.5716 -3.0070
  423MPD2    H1 6314   0.947   0.516   0.471  1.4757 -0.6197  0.1683
  423MPD2    H2 6315   0.924   0.742   0.827 -0.1922  0.1722 -1.7507
  423MPD2    H3 6316   0.986   0.730   0.594 -1.0728 -1.9479 -4.2513
  423MPD2     N 6317   0.926   0.293   0.570  0.5589  0.2947  0.5415
  423MPD2    H5 6318   0.936   0.306   0.470  0.9790 -1.5700  0.3582
  423MPD2    N1 6319   0.891   0.520   0.995 -0.0615 -0.0430 -0.6044
  423MPD2    H7 6320   0.891   0.430   1.043  2.0452 -0.1669 -0.8568
  424TMC3    C1 6321   0.860   0.599   1.213  0.2435 -0.5381 -0.2676
  424TMC3    C2 6322   0.935   0.496   1.266  0.1902  0.8782 -0.6877
  424TMC3    C3 6323   0.914   0.457   1.393 -0.2176  0.2111 -1.1249
  424TMC3    C4 6324   0.762   0.665   1.287 -0.1739  0.2908 -0.4059
  424TMC3    C5 6325   0.734   0.608   1.412 -0.1896 -0.1908  0.1470
  424TMC3    C6 6326   0.806   0.508   1.464  0.1432 -0.0560  0.3057
  424TMC3     C 6327   0.865   0.630   1.073 -0.0088  0.4445 -0.4767
  424TMC3     O 6328   0.841   0.748   1.045  0.3341  0.0998  0.1683
  424TMC3     H 6329   1.007   0.457   1.194  0.5681  0.4398 -0.0774
  424TMC3    H1 6330   0.705   0.747   1.247  0.1828  0.4854 -0.5189
  424TMC3    H2 6331   0.787   0.479   1.567  1.1273  0.6171  0.6663
  424TMC3    C7 6332   0.623   0.674   1.486 -0.2523  0.1325 -0.0994
  424TMC3    C8 6333   0.985   0.348   1.451 -0.5011 -0.0289  0.2886
  424TMC3    O1 6334   0.579   0.785   1.446  0.3478  0.6204 -0.3297
  424TMC3    O2 6335   0.934   0.315   1.562 -0.4794 -0.0206  0.3713
  425MPD2     C 6336   4.317   3.896  17.635  0.2290 -0.2652  0.0365
  425MPD2    C1 6337   4.265   3.783  17.579 -0.2215  0.0286  0.3194
  425MPD2    C2 6338   4.135   3.786  17.537  0.4762  0.0516 -0.1479
  425MPD2    C3 6339   4.055   3.897  17.537  0.9113 -0.0513 -0.2526
  425MPD2    C4 6340   4.109   4.008  17.586  0.0986 -0.7841 -0.1096
  425MPD2    C5 6341   4.243   4.013  17.629 -0.2344  0.4536 -0.1245
  425MPD2     H 6342   4.081   3.698  17.504  0.4700  0.0820 -0.2186
  425MPD2    H1 6343   4.056   4.101  17.607  2.3950 -0.2314  3.2840
  425MPD2    H2 6344   4.422   3.917  17.654  0.2216 -0.0431 -0.1651
  425MPD2    H3 6345   4.292   4.106  17.654  0.1599  0.1616  0.1751
  425MPD2     N 6346   3.917   3.883  17.499 -0.7232  0.4391 -0.2340
  425MPD2    H5 6347   3.896   3.789  17.467 -1.8033  0.9989 -1.1919
  425MPD2    N1 6348   4.353   3.673  17.562 -0.2577 -0.1539 -0.0812
  425MPD2    H7 6349   4.447   3.678  17.600  0.3455 -4.2855 -0.9810
  426TMC3    C1 6350   4.432   3.477  17.459 -0.1167  0.6335 -0.1482
  426TMC3    C2 6351   4.416   3.382  17.357  0.2958  0.1096  0.0190
  426TMC3    C3 6352   4.527   3.317  17.314 -0.6781  0.3284  0.5260
  426TMC3    C4 6353   4.558   3.510  17.507  0.2440  0.3945  0.0331
  426TMC3    C5 6354   4.668   3.436  17.463 -0.3792 -0.2076 -0.1493
  426TMC3    C6 6355   4.651   3.340  17.368 -0.7659 -0.7686 -0.6456
  426TMC3     C 6356   4.320   3.567  17.479 -0.0663  0.1315  0.1438
  426TMC3     O 6357   4.215   3.520  17.439  0.4261 -0.2170 -0.8481
  426TMC3     H 6358   4.316   3.353  17.328  0.2977 -0.2925  0.4151
  426TMC3    H1 6359   4.579   3.595  17.572 -0.2556  0.4998  0.0523
  426TMC3    H2 6360   0.009   3.270  17.341 -0.1630  0.4735 -2.0639
  426TMC3    C7 6361   0.074   3.440  17.529  0.9276  0.3612 -0.0254
  426TMC3    C8 6362   4.519   3.223  17.201 -0.3477  0.2327  0.3382
  426TMC3    O1 6363   0.170   3.377  17.485  0.2499  0.2041 -0.3927
  426TMC3    O2 6364   4.616   3.193  17.133 -0.2517  0.4747 -0.2321
  427MPD2     C 6365   3.327   1.351  14.861  0.4236 -0.0923 -0.2248
  427MPD2    C1 6366   3.279   1.253  14.951 -0.1262  0.5161  0.2955
  427MPD2    C2 6367   3.144   1.230  14.944  0.0862  0.3243  0.4774
  427MPD2    C3 6368   3.056   1.294  14.852 -0.7209 -0.2694  0.2551
  427MPD2    C4 6369   3.107   1.401  14.781 -0.1968 -0.2208  0.1061
  427MPD2    C5 6370   3.245   1.421  14.783 -0.4603  0.1173  0.6314
  427MPD2     H 6371   3.106   1.151  15.007 -1.1161  1.3858  1.0656
  427MPD2    H1 6372   3.045   1.464  14.719 -1.5473 -0.0123  1.6813
  427MPD2    H2 6373   3.428   1.389  14.877  0.0942  0.4026  0.7013
  427MPD2    H3 6374   3.294   1.498  14.723  0.2246 -1.6999 -1.1337
  427MPD2     N 6375   2.915   1.283  14.870 -0.2690 -0.2620  0.5533
  427MPD2    H5 6376   2.867   1.369  14.845  0.6327  0.4031  1.1108
  427MPD2    N1 6377   3.365   1.190  15.054 -0.3138  0.3348  0.1549
  427MPD2    H7 6378   3.339   1.101  15.096  3.0134 -0.5183  0.3504
  428TMC3    C1 6379   3.558   1.153  15.190 -0.3842  0.5987  0.7663
  428TMC3    C2 6380   3.504   1.033  15.231  0.0364  0.2474 -0.1986
  428TMC3    C3 6381   3.588   0.963  15.317  0.1102  0.3451  0.1106
  428TMC3    C4 6382   3.667   1.205  15.243 -0.2097 -0.7976 -0.3155
  428TMC3    C5 6383   3.752   1.127  15.313 -0.1544  0.3909  0.1506
  428TMC3    C6 6384   3.712   1.005  15.349 -0.0416  0.4412 -0.7834
  428TMC3     C 6385   3.488   1.238  15.092  0.3178  0.5982 -1.0066
  428TMC3     O 6386   3.542   1.345  15.060 -0.0952  0.5179  0.2565
  428TMC3     H 6387   3.425   0.980  15.179  0.3990 -0.5848  0.1056
  428TMC3    H1 6388   3.709   1.301  15.214  1.8232 -1.5957 -0.0009
  428TMC3    H2 6389   3.773   0.951  15.420  0.3377  2.1341  0.1838
  428TMC3    C7 6390   3.874   1.179  15.364 -0.1201  0.6861 -0.1381
  428TMC3    C8 6391   3.524   0.848  15.375 -0.3569 -0.1758 -0.0261
  428TMC3    O1 6392   3.919   1.121  15.461 -0.2420 -0.1733  0.9148
  428TMC3    O2 6393   3.434   0.789  15.317  0.5024 -0.1020 -0.3089
  429MPD2     C 6394   3.929   1.570   0.209 -0.3034  0.4884 -0.6777
  429MPD2    C1 6395   3.922   1.531   0.078  0.0809  0.3428  0.4336
  429MPD2    C2 6396   3.956   1.623  17.664  0.0119  0.0304 -0.1898
  429MPD2    C3 6397   4.011   1.743   0.018 -0.1789 -0.5627 -0.2667
  429MPD2    C4 6398   4.034   1.767   0.159 -0.1822 -0.3234 -0.3213
  429MPD2    C5 6399   3.983   1.685   0.252  0.5938 -0.7496  0.4594
  429MPD2     H 6400   3.941   1.606  17.558 -0.0735 -0.9680 -0.0143
  429MPD2    H1 6401   4.073   1.863   0.192  0.4791 -0.4424 -0.7427
  429MPD2    H2 6402   3.897   1.507   0.291  0.6916  0.5415 -0.2507
  429MPD2    H3 6403   3.969   1.701   0.358  0.1628 -3.1095  0.7591
  429MPD2     N 6404   4.053   1.833  17.600 -0.6180  0.1883  0.4615
  429MPD2    H5 6405   4.025   1.812  17.505  1.6609  0.2075 -0.2098
  429MPD2    N1 6406   3.880   1.410   0.028  0.4033  0.3508 -0.7279
  429MPD2    H7 6407   3.895   1.403  17.614 -3.5295  3.0119 -1.5436
  430TMC3    C1 6408   4.193   1.982  17.498 -0.3239  0.4268  0.1428
  430TMC3    C2 6409   4.111   1.972  17.386  0.0187 -0.3769  0.0409
  430TMC3    C3 6410   4.172   1.936  17.267  0.2714 -0.1340 -0.2103
  430TMC3    C4 6411   4.324   1.955  17.494  0.1041 -0.7238 -0.1931
  430TMC3    C5 6412   4.377   1.914  17.371 -0.3473  1.0343  0.1948
  430TMC3    C6 6413   4.307   1.915  17.254 -0.1009  0.1151 -0.4661
  430TMC3     C 6414   4.132   1.940  17.621 -0.1807  0.1830  0.6417
  430TMC3     O 6415   4.196   1.974   0.035 -0.5342  0.6166  0.7141
  430TMC3     H 6416   4.003   1.971  17.395 -0.1037  0.1485 -1.4162
  430TMC3    H1 6417   4.368   1.931  17.590 -2.3260  0.0629  1.1219
  430TMC3    H2 6418   4.349   1.884  17.159 -1.2630  0.7070 -1.1726
  430TMC3    C7 6419   4.497   1.820  17.379  1.2421 -0.7090  0.2326
  430TMC3    C8 6420   4.097   1.931  17.140  0.1913 -0.0250  0.0036
  430TMC3    O1 6421   4.497   1.724  17.303  0.2760 -0.7383  0.6378
  430TMC3    O2 6422   4.140   1.846  17.060  0.6742 -0.4359  0.7577
  431MPD2     C 6423   0.180   1.396  12.705  0.6685  0.6578  0.6498
  431MPD2    C1 6424   0.304   1.399  12.646 -0.3773 -0.3786 -0.2837
  431MPD2    C2 6425   0.360   1.277  12.604  0.1102  0.5624 -0.4921
  431MPD2    C3 6426   0.297   1.156  12.623 -0.6791 -0.9963 -0.5739
  431MPD2    C4 6427   0.174   1.158  12.688 -0.1012  0.0545  0.4201
  431MPD2    C5 6428   0.116   1.279  12.727 -0.3599 -0.6799 -0.2569
  431MPD2     H 6429   0.462   1.284  12.567  0.0186  0.9220 -0.6813
  431MPD2    H1 6430   0.128   1.061  12.703  0.5633 -0.6208 -1.9652
  431MPD2    H2 6431   0.129   1.490  12.722  0.5613  0.7550 -0.2084
  431MPD2    H3 6432   0.012   1.272  12.758 -0.2828 -1.0858 -0.0838
  431MPD2     N 6433   0.347   1.029  12.581  0.6116 -0.3693 -0.1860
  431MPD2    H5 6434   0.299   0.945  12.613  0.5212  0.6594  2.3427
  431MPD2    N1 6435   0.369   1.527  12.622 -0.1754  0.1642 -0.0170
  431MPD2    H7 6436   0.320   1.606  12.665  1.3059  0.4283  1.1718
  432TMC3    C1 6437   0.470   0.869  12.451  0.4252  1.0040 -0.9004
  432TMC3    C2 6438   0.528   0.843  12.332  0.0422  0.0155  0.0243
  432TMC3    C3 6439   0.607   0.727  12.317  0.0751 -0.4907  0.0288
  432TMC3    C4 6440   0.480   0.784  12.555 -0.0660 -0.5537  0.3690
  432TMC3    C5 6441   0.553   0.666  12.540  0.3282 -0.1628 -0.2046
  432TMC3    C6 6442   0.609   0.639  12.422 -0.0875  0.4091 -0.2636
  432TMC3     C 6443   0.443   1.007  12.482  1.0803 -0.2900  0.0851
  432TMC3     O 6444   0.504   1.086  12.410  0.7301  0.8708  0.0795
  432TMC3     H 6445   0.527   0.918  12.254 -1.5955  1.3908  1.3743
  432TMC3    H1 6446   0.431   0.811  12.648  1.1538 -0.4494  0.9855
  432TMC3    H2 6447   0.681   0.559  12.407 -0.4290 -0.3071  2.0198
  432TMC3    C7 6448   0.589   0.580  12.657 -0.1380 -0.2447  0.5384
  432TMC3    C8 6449   0.708   0.720  12.209  0.0778 -0.2558  0.4382
  432TMC3    O1 6450   0.676   0.500  12.646  0.0230  0.0602  0.2079
  432TMC3    O2 6451   0.749   0.608  12.172 -1.2905 -0.0983  0.1283
  433MPD2     C 6452   4.392   0.058  11.241 -0.0083  0.5471  0.2804
  433MPD2    C1 6453   4.312   4.673  11.283 -0.7184  0.3207  0.0697
  433MPD2    C2 6454   4.309   4.646  11.419  0.6293 -0.0698  0.0391
  433MPD2    C3 6455   4.388   4.711  11.513 -0.0429  0.2244 -1.0991
  433MPD2    C4 6456   4.476   0.092  11.466  0.1953 -0.1144  0.1626
  433MPD2    C5 6457   4.481   0.115  11.328 -0.0807 -0.3974  0.6442
  433MPD2     H 6458   4.239   4.569  11.449  0.0803 -0.2022 -1.5881
  433MPD2    H1 6459   4.541   0.148  11.531 -0.8998  0.0997  1.0757
  433MPD2    H2 6460   4.405   0.086  11.137  1.2405 -0.3849  0.1827
  433MPD2    H3 6461   4.542   0.201  11.303 -2.6488  1.3007  0.1273
  433MPD2     N 6462   4.380   4.665  11.645 -0.3406  0.3078 -0.4711
  433MPD2    H5 6463   4.306   4.599  11.666  0.3750 -0.6154 -0.8874
  433MPD2    N1 6464   4.254   4.587  11.183 -0.6228  0.5089  0.6743
  433MPD2    H7 6465   4.270   4.612  11.085 -0.7135  2.6179  1.1910
  434TMC3    C1 6466   4.160   4.380  11.098  0.2059  0.3486 -0.5969
  434TMC3    C2 6467   4.196   4.247  11.124 -0.0200 -0.1922  0.4586
  434TMC3    C3 6468   4.261   4.184  11.024 -0.9813 -0.1835 -0.6718
  434TMC3    C4 6469   4.169   4.438  10.975 -0.3403 -0.3744 -0.1867
  434TMC3    C5 6470   4.233   4.371  10.878  0.2231  0.7747 -0.0000
  434TMC3    C6 6471   4.275   4.244  10.901  0.3867 -0.1934  0.1132
  434TMC3     C 6472   4.197   4.467  11.208 -0.2548 -0.1536 -0.1415
  434TMC3     O 6473   4.185   4.410  11.313 -0.0365  0.2722  0.8299
  434TMC3     H 6474   4.202   4.204  11.223  0.1253 -0.0211  0.5250
  434TMC3    H1 6475   4.120   4.534  10.961 -2.0767 -1.0776  1.0177
  434TMC3    H2 6476   4.343   4.196  10.832 -0.7254 -1.2290 -0.2479
  434TMC3    C7 6477   4.186   4.400  10.740 -0.8925  0.2540  0.5767
  434TMC3    C8 6478   4.378   4.107  11.068  0.3978 -0.1739  0.3738
  434TMC3    O1 6479   4.165   4.514  10.704 -0.4100 -0.0587 -0.1268
  434TMC3    O2 6480   4.487   4.160  11.049 -0.2198  0.0064 -0.3030
  435MPD2     C 6481   1.332   4.538  15.597 -0.3842 -0.5561 -0.0619
  435MPD2    C1 6482   1.316   4.534  15.735  0.1086  0.0367 -0.2286
  435MPD2    C2 6483   1.418   4.488  15.814  1.1024  0.0335 -0.3121
  435MPD2    C3 6484   1.530   4.420  15.764 -0.1978  0.8363 -0.1221
  435MPD2    C4 6485   1.537   4.408  15.624  0.3325  0.0559  0.5396
  435MPD2    C5 6486   1.443   4.477  15.546  0.1360  0.0758 -0.1876
  435MPD2     H 6487   1.412   4.482  15.922  2.0982  0.3707 -0.2432
  435MPD2    H1 6488   1.619   4.350  15.583  0.3650 -0.1875  0.9520
  435MPD2    H2 6489   1.254   4.587  15.540 -2.0948 -2.1806  0.8715
  435MPD2    H3 6490   1.450   4.472  15.438 -1.5953  0.7776 -0.3425
  435MPD2     N 6491   1.624   4.368  15.855  0.2674 -0.5178 -0.4818
  435MPD2    H5 6492   1.625   4.410  15.948  3.4991 -0.0229 -0.7613
  435MPD2    N1 6493   1.193   4.573  15.797  0.0408 -0.1449  0.1135
  435MPD2    H7 6494   1.188   4.543  15.894  0.1928 -3.8563 -1.0165
  436TMC3    C1 6495   0.792   0.063  15.911 -0.5835 -0.1096 -0.0914
  436TMC3    C2 6496   0.894   0.051  15.824  0.5038 -0.0952 -0.6593
  436TMC3    C3 6497   0.983   4.670  15.848  0.3288 -0.1536 -0.0319
  436TMC3    C4 6498   0.765   4.689  16.005  0.5781 -0.0397  0.5638
  436TMC3    C5 6499   0.856   4.590  16.022  0.4845  0.5795 -0.0349
  436TMC3    C6 6500   0.968   4.577  15.950  0.3660 -0.4648 -0.9385
  436TMC3     C 6501   0.702   0.180  15.907  0.0169 -0.5159 -0.4791
  436TMC3     O 6502   0.712   0.255  15.812 -0.3284  0.3830  0.4814
  436TMC3     H 6503   0.906   0.128  15.748 -1.7342  0.4823 -0.4353
  436TMC3    H1 6504   0.674   4.699  16.064 -0.9378 -0.3178 -1.7153
  436TMC3    H2 6505   1.036   4.493  15.951  0.7611 -0.1346 -0.2866
  436TMC3    C7 6506   0.852   4.522  16.149 -0.7321 -0.3386 -1.3613
  436TMC3    C8 6507   1.082   4.637  15.746  0.1644  0.7946  0.4520
  436TMC3    O1 6508   0.823   4.600  16.240  0.0421 -0.1613  0.2762
  436TMC3    O2 6509   1.069   4.699  15.640 -0.3291 -0.8501  0.0621
  437TMC3    C1 6510   4.226   2.200  12.930  0.6172  0.3635  0.1878
  437TMC3    C2 6511   4.101   2.254  12.949 -0.4218 -0.2283  0.5261
  437TMC3    C3 6512   4.105   2.388  12.926  0.4881 -0.3601  0.6697
  437TMC3    C4 6513   4.339   2.269  12.889  0.2686  1.0319 -0.1987
  437TMC3    C5 6514   4.331   2.406  12.864 -0.1688 -0.1814 -0.8901
  437TMC3    C6 6515   4.209   2.468  12.889  0.0403 -0.3589  0.2556
  437TMC3     C 6516   4.234   2.055  12.947 -0.5587  0.0072  0.0648
  437TMC3     O 6517   4.126   1.996  12.941  0.3878  0.4409 -0.2271
  437TMC3     H 6518   4.013   2.199  12.981 -1.1060  1.7351  2.0225
  437TMC3    H1 6519   4.435   2.224  12.863  1.0912  1.5686  1.9124
  437TMC3    H2 6520   4.193   2.575  12.896 -3.1903 -0.5869 -3.2944
  437TMC3    C7 6521   4.449   2.494  12.854 -0.6376 -0.6648  0.5925
  437TMC3    C8 6522   3.970   2.457  12.910 -0.3186  0.0848  0.4861
  437TMC3    O1 6523   4.430   2.611  12.822  0.0708 -0.2250  0.0998
  437TMC3    O2 6524   3.972   2.549  12.829  0.0842 -0.5466  0.1022
  438MPD2     C 6525   2.584   2.521  17.163 -0.0657  0.2396  0.1364
  438MPD2    C1 6526   2.655   2.425  17.242 -0.0547 -0.2093  0.7440
  438MPD2    C2 6527   2.596   2.390  17.364  0.2634 -0.3027  0.2043
  438MPD2    C3 6528   2.469   2.431  17.394 -0.4159 -0.2522  0.0738
  438MPD2    C4 6529   2.406   2.527  17.317 -0.4725  0.0053 -0.3022
  438MPD2    C5 6530   2.467   2.584  17.205  0.1444 -0.1470  0.3109
  438MPD2     H 6531   2.658   2.328  17.428  3.2545  0.8235 -1.6024
  438MPD2    H1 6532   2.303   2.555  17.335 -0.3327  0.7419 -0.6164
  438MPD2    H2 6533   2.610   2.565  17.068 -0.2862 -0.3347 -0.1878
  438MPD2    H3 6534   2.422   2.657  17.138  0.0353  0.5206  1.1090
  438MPD2     N 6535   2.393   2.370  17.502  0.3965 -0.0602  0.4676
  438MPD2    H5 6536   2.307   2.417  17.527 -0.5952 -0.6290 -1.8259
  438MPD2    N1 6537   2.788   2.375  17.209 -0.5678 -0.3705  0.1896
  438MPD2    H7 6538   2.847   2.331  17.279 -0.1234 -0.1873 -0.0674
  439TMC3    C1 6539   2.958   2.291  17.067  0.6790 -0.6415 -0.6045
  439TMC3    C2 6540   2.988   2.219  16.949 -0.3945 -0.2156  0.3130
  439TMC3    C3 6541   3.076   2.117  16.953 -0.5892 -0.4438 -0.1495
  439TMC3    C4 6542   3.034   2.266  17.180 -0.2807 -0.0049 -0.0547
  439TMC3    C5 6543   3.144   2.177  17.172 -0.6083  0.1233 -0.4489
  439TMC3    C6 6544   3.149   2.086  17.065 -0.1517 -1.2715 -0.1220
  439TMC3     C 6545   2.834   2.368  17.080 -0.0880  0.6036 -0.8702
  439TMC3     O 6546   2.788   2.397  16.967 -0.7270 -0.3945  0.4856
  439TMC3     H 6547   2.927   2.247  16.865  0.9615 -0.0687 -0.6204
  439TMC3    H1 6548   3.019   2.337  17.260  1.1840 -0.3530  0.5178
  439TMC3    H2 6549   3.215   2.000  17.070  0.7511 -0.6167 -0.7821
  439TMC3    C7 6550   3.210   2.125  17.298  0.5467 -0.4306 -0.1413
  439TMC3    C8 6551   3.060   1.996  16.867 -0.1814 -0.5488 -0.3528
  439TMC3    O1 6552   3.192   2.192  17.399 -0.2356 -0.6115 -0.2411
  439TMC3    O2 6553   3.130   1.908  16.902  0.6402  0.1298  0.2069
  440MPD2     C 6554   1.212   2.803  15.291  0.2920  0.5558 -0.2249
  440MPD2    C1 6555   1.262   2.822  15.419  0.5156 -0.0499  0.6792
  440MPD2    C2 6556   1.392   2.770  15.436 -0.5871 -0.0876 -0.0457
  440MPD2    C3 6557   1.460   2.685  15.354  0.0974 -0.5407 -0.4216
  440MPD2    C4 6558   1.397   2.666  15.233 -1.1384 -0.5169  0.1345
  440MPD2    C5 6559   1.287   2.730  15.199 -0.2456  0.2033  0.0685
  440MPD2     H 6560   1.435   2.788  15.534  1.3066 -0.5874 -0.7878
  440MPD2    H1 6561   1.453   2.609  15.160 -0.7140 -1.2637  1.0554
  440MPD2    H2 6562   1.120   2.844  15.251 -1.3761 -1.0895  1.9671
  440MPD2    H3 6563   1.253   2.715  15.097 -1.0831  0.5694  0.2880
  440MPD2     N 6564   1.589   2.627  15.379  0.2736  0.3458  0.1704
  440MPD2    H5 6565   1.618   2.553  15.315  1.1489  0.6077  0.2763
  440MPD2    N1 6566   1.188   2.891  15.517  0.2622  0.2946  0.1992
  440MPD2    H7 6567   1.243   2.915  15.599  1.1100  0.7625 -0.5032
  441TMC3    C1 6568   1.790   2.606  15.501 -0.0766  0.6528 -0.2158
  441TMC3    C2 6569   1.896   2.691  15.521 -0.1943 -0.5721 -0.6282
  441TMC3    C3 6570   1.964   2.669  15.636  0.0005  0.1215 -0.3721
  441TMC3    C4 6571   1.753   2.504  15.580 -0.4719  0.1467  0.1782
  441TMC3    C5 6572   1.826   2.489  15.691  0.3901 -0.6104  0.3481
  441TMC3    C6 6573   1.929   2.564  15.722  0.6462 -0.0171  1.1918
  441TMC3     C 6574   1.671   2.679  15.471 -0.5851 -0.2157  0.7845
  441TMC3     O 6575   1.667   2.795  15.518  0.2532 -0.2376 -0.0943
  441TMC3     H 6576   1.914   2.773  15.454  1.6646  0.7476  1.4830
  441TMC3    H1 6577   1.664   2.447  15.556  1.0576 -1.8411 -0.7138
  441TMC3    H2 6578   1.972   2.566  15.821  0.5519 -1.5664  1.2679
  441TMC3    C7 6579   1.758   2.428  15.808  0.2005  0.3837 -0.0986
  441TMC3    C8 6580   1.972   2.790  15.711  0.1230 -0.5573  0.9708
  441TMC3    O1 6581   1.639   2.441  15.815  0.2820  0.3448 -0.1664
  441TMC3    O2 6582   2.073   2.808  15.778 -0.1068 -0.4322  0.0234
  442MPD2     C 6583   3.980   3.889  16.820 -0.2463  0.9977 -0.2452
  442MPD2    C1 6584   3.875   3.813  16.767  0.0730 -0.0493 -0.5293
  442MPD2    C2 6585   3.913   3.685  16.727  1.1685  0.3400  0.2043
  442MPD2    C3 6586   4.047   3.643  16.733  0.8389  0.3519 -0.2914
  442MPD2    C4 6587   4.152   3.726  16.758  0.5176  0.1870  0.5743
  442MPD2    C5 6588   4.112   3.850  16.807 -0.4074  0.0235 -0.7827
  442MPD2     H 6589   3.833   3.619  16.696  0.1576  1.9008 -0.4542
  442MPD2    H1 6590   4.256   3.695  16.759  0.5111  0.1863  1.3883
  442MPD2    H2 6591   3.956   3.983  16.867 -1.6546  1.1402 -1.2594
  442MPD2    H3 6592   4.185   3.918  16.849  0.3164 -1.2603  0.0274
  442MPD2     N 6593   4.081   3.507  16.729 -0.8135  0.8667  0.3462
  442MPD2    H5 6594   4.181   3.489  16.721 -1.0800 -0.3157 -0.4282
  442MPD2    N1 6595   3.741   3.863  16.761 -0.2086 -0.6536  0.4002
  442MPD2    H7 6596   3.661   3.804  16.745  1.0283 -1.7683 -1.7372
  443TMC3    C1 6597   3.589   4.040  16.775  0.7421 -0.4312 -0.1418
  443TMC3    C2 6598   3.543   4.125  16.678 -0.7216 -0.1137  0.1993
  443TMC3    C3 6599   3.400   4.147  16.686  0.4285 -0.4172  0.1024
  443TMC3    C4 6600   3.505   3.977  16.863 -0.0205 -0.3707 -0.5422
  443TMC3    C5 6601   3.375   4.016  16.869  0.2638  0.9808 -0.1223
  443TMC3    C6 6602   3.319   4.103  16.784 -0.0270 -0.7259 -0.0241
  443TMC3     C 6603   3.725   4.002  16.767 -0.0709  0.7477 -0.0987
  443TMC3     O 6604   3.803   4.100  16.753  0.2759  0.2736 -0.1331
  443TMC3     H 6605   3.600   4.182  16.606 -0.9291 -1.8966 -1.3586
  443TMC3    H1 6606   3.550   3.911  16.936  0.6555  0.8082  0.1130
  443TMC3    H2 6607   3.215   4.137  16.784  0.2802  0.2452  2.2958
  443TMC3    C7 6608   3.310   3.971  16.989  0.2245  0.2566  0.0614
  443TMC3    C8 6609   3.331   4.226  16.590 -0.2507 -0.2142  0.2676
  443TMC3    O1 6610   3.356   3.869  17.040 -0.6416  0.0317  0.5390
  443TMC3    O2 6611   3.295   4.333  16.637  0.1508  0.3549 -0.1276
  444MPD2     C 6612   4.393   3.191   0.082 -0.1210  0.5507  0.3322
  444MPD2    C1 6613   4.309   3.111   0.005  0.0804 -0.6630  0.7810
  444MPD2    C2 6614   4.364   3.045  17.586 -0.1645 -0.0078 -0.1107
  444MPD2    C3 6615   4.494   3.044  17.549  0.0089  0.6412  0.3938
  444MPD2    C4 6616   4.576   3.138  17.624  0.6002 -0.5555 -0.3158
  444MPD2    C5 6617   4.520   3.208   0.044  0.3441 -0.2533  0.1100
  444MPD2     H 6618   4.300   2.983  17.524 -0.1492  0.1841 -0.3172
  444MPD2    H1 6619   4.684   3.128  17.621  0.5355 -0.5642 -3.1678
  444MPD2    H2 6620   4.352   3.236   0.171  0.9943 -0.5998  1.4202
  444MPD2    H3 6621   4.574   3.273   0.111 -1.6768  1.0626  0.4652
  444MPD2     N 6622   4.528   2.966  17.439  0.3587 -0.6895  0.0919
  444MPD2    H5 6623   4.457   2.896  17.417  2.5489 -3.1227  0.7364
  444MPD2    N1 6624   4.172   3.089   0.025 -0.2012 -0.0280 -0.0154
  444MPD2    H7 6625   4.119   3.044  17.637 -1.0193  1.8011 -0.5455
  445TMC3    C1 6626   4.692   2.840  17.334  0.1506 -0.1018  0.0287
  445TMC3    C2 6627   4.597   2.752  17.285  0.2777 -0.0392 -0.1741
  445TMC3    C3 6628   4.639   2.624  17.251  0.4455  0.5360 -0.1725
  445TMC3    C4 6629   0.101   2.808  17.340 -0.8755 -0.2314 -0.1672
  445TMC3    C5 6630   0.138   2.678  17.316 -0.2831  0.1766  0.1870
  445TMC3    C6 6631   0.047   2.581  17.278 -0.1764 -0.1318  0.1623
  445TMC3     C 6632   4.656   2.970  17.386 -0.3122  0.3592  0.7036
  445TMC3     O 6633   0.022   3.051  17.414 -0.4785 -0.6447  0.3424
  445TMC3     H 6634   4.504   2.791  17.246  1.6951  2.8900 -0.6233
  445TMC3    H1 6635   0.169   2.883  17.379 -1.0259 -0.1545 -0.0533
  445TMC3    H2 6636   0.065   2.476  17.258 -3.9660 -0.7469  0.0422
  445TMC3    C7 6637   0.272   2.647  17.335 -0.3759 -0.4852 -0.3990
  445TMC3    C8 6638   4.561   2.544  17.163  0.0634 -0.6058  0.4355
  445TMC3    O1 6639   0.354   2.732  17.318  0.1668  0.3288  0.2714
  445TMC3    O2 6640   4.612   2.455  17.096  0.2239  0.6674 -0.0779
  446MPD2     C 6641   4.124   3.901  11.592  0.6529  0.0467  0.8199
  446MPD2    C1 6642   4.078   3.983  11.496 -0.1373  0.4918  0.0118
  446MPD2    C2 6643   4.150   4.094  11.459  0.1412 -0.7289  0.0700
  446MPD2    C3 6644   4.279   4.105  11.509  0.1807 -0.5068  0.1214
  446MPD2    C4 6645   4.331   4.018  11.599 -0.7245  0.4916 -0.0069
  446MPD2    C5 6646   4.243   3.925  11.647  0.2385 -0.2515 -0.0884
  446MPD2     H 6647   4.113   4.174  11.396  1.9011  0.2336  0.2676
  446MPD2    H1 6648   4.436   4.017  11.622 -0.5406 -0.0627 -0.8618
  446MPD2    H2 6649   4.066   3.815  11.628  0.6622 -1.0545 -1.8369
  446MPD2    H3 6650   4.293   3.857  11.716  0.7197 -1.2570 -1.4258
  446MPD2     N 6651   4.354   4.218  11.461 -0.3299 -0.1852  0.1533
  446MPD2    H5 6652   4.326   4.266  11.376  1.9582 -0.5571 -0.8034
  446MPD2    N1 6653   3.952   3.967  11.435  0.1424 -0.6190 -0.6418
  446MPD2    H7 6654   3.927   4.046  11.375 -0.0424  0.4995  0.8998
  447TMC3    C1 6655   4.555   4.353  11.405  0.5179  0.2918 -0.3853
  447TMC3    C2 6656   4.499   4.406  11.289 -0.5977 -0.0470  0.2172
  447TMC3    C3 6657   4.565   4.507  11.227 -0.1614 -0.2925 -0.1567
  447TMC3    C4 6658   4.666   4.406  11.460 -0.5492  0.4700  0.3552
  447TMC3    C5 6659   0.012   4.506  11.400 -0.1456  1.0044 -0.5463
  447TMC3    C6 6660   4.683   4.557  11.283  0.4117  0.2666 -0.5099
  447TMC3     C 6661   4.488   4.240  11.483  0.5741  0.5519 -0.3154
  447TMC3     O 6662   4.559   4.190  11.568  0.1223 -0.2538 -0.3154
  447TMC3     H 6663   4.425   4.357  11.227 -1.0993  0.0892  0.7010
  447TMC3    H1 6664   4.700   4.349  11.546 -1.0488  0.0742  0.2905
  447TMC3    H2 6665   0.001   4.651  11.247 -1.0837  1.8449  2.0228
  447TMC3    C7 6666   0.147   4.469  11.357  0.2528 -0.4413  0.3144
  447TMC3    C8 6667   4.580   4.516  11.083  0.3613  0.1283 -0.1767
  447TMC3    O1 6668   0.165   4.434  11.241 -0.2856  0.0325 -0.0740
  447TMC3    O2 6669   4.483   4.546  11.017  0.1575  0.9007 -0.2099
  448TMC3    C1 6670   2.467   0.049  17.305  0.2175 -0.2584 -0.8566
  448TMC3    C2 6671   2.484   4.671  17.215  0.2962  0.2021  0.2752
  448TMC3    C3 6672   2.575   4.572  17.238 -0.3478 -0.3365  0.4536
  448TMC3    C4 6673   2.556   0.067  17.408  0.2299 -0.0928  0.6505
  448TMC3    C5 6674   2.653   4.692  17.422 -0.0063  0.6782  0.4035
  448TMC3    C6 6675   2.660   4.578  17.347  0.2595 -0.3222 -0.2100
  448TMC3     C 6676   2.327   0.084  17.332  0.7838 -0.4415 -0.3482
  448TMC3     O 6677   2.257   0.072  17.229 -0.0544 -0.3439  0.5718
  448TMC3     H 6678   2.411   4.652  17.137  2.9684  1.2102 -2.4780
  448TMC3    H1 6679   2.563   0.158  17.466  0.3344  0.1177  0.3054
  448TMC3    H2 6680   2.741   4.509  17.368  0.1605 -0.9345 -1.8288
  448TMC3    C7 6681   2.735   4.711  17.541  0.0514  0.1061  0.3396
  448TMC3    C8 6682   2.574   4.442  17.174 -0.3981  0.5001 -0.4324
  448TMC3    O1 6683   2.787   0.096  17.572  0.0295  0.3783  0.2979
  448TMC3    O2 6684   2.620   4.352  17.247  0.2830  0.2035 -0.2732
  449MPD2     C 6685   3.966   2.437  13.736  0.4570 -0.1513  0.3977
  449MPD2    C1 6686   3.906   2.556  13.718  0.0064  0.1757 -0.4650
  449MPD2    C2 6687   3.804   2.567  13.625  0.0312  0.1697  0.4238
  449MPD2    C3 6688   3.768   2.468  13.540  0.0108 -0.7883  0.1082
  449MPD2    C4 6689   3.840   2.353  13.555  0.3115  0.2733 -0.3657
  449MPD2    C5 6690   3.939   2.343  13.645 -0.7965  0.0922  0.2719
  449MPD2     H 6691   3.754   2.662  13.614  0.0247  0.1245  0.0655
  449MPD2    H1 6692   3.822   2.260  13.501  0.4573  0.4877 -0.7793
  449MPD2    H2 6693   4.034   2.420  13.819  0.2096 -0.2863  0.5739
  449MPD2    H3 6694   3.984   2.245  13.652  1.6160  1.2650  0.9891
  449MPD2     N 6695   3.668   2.495  13.443 -0.0467  0.0549 -0.0625
  449MPD2    H5 6696   3.613   2.580  13.450 -3.0550 -2.0552  2.2228
  449MPD2    N1 6697   3.922   2.671  13.797 -0.5012 -0.1742  0.2138
  449MPD2    H7 6698   3.852   2.745  13.791 -1.6329 -1.3464 -0.8066
  450TMC3    C1 6699   4.035   2.831  13.927 -0.4052  0.5739 -0.2667
  450TMC3    C2 6700   4.137   2.897  13.864 -0.2429  0.1087  0.0338
  450TMC3    C3 6701   4.103   3.025  13.831  0.5708 -0.2231  0.5610
  450TMC3    C4 6702   3.911   2.880  13.937  0.2723 -0.1892 -0.0191
  450TMC3    C5 6703   3.877   3.003  13.889 -0.3032 -0.3636  0.3051
  450TMC3    C6 6704   3.978   3.083  13.830  0.0062 -0.1298  0.2908
  450TMC3     C 6705   4.030   2.697  13.870  0.3958 -0.2866  0.6111
  450TMC3     O 6706   4.131   2.635  13.879  0.0365  0.1168  0.3570
  450TMC3     H 6707   4.240   2.866  13.874 -0.1543  0.0969 -0.8378
  450TMC3    H1 6708   3.836   2.826  13.993  0.0045 -0.8860 -1.0554
  450TMC3    H2 6709   3.969   3.190  13.814 -0.2825  0.1520  2.2801
  450TMC3    C7 6710   3.764   2.979  13.806  0.3052 -0.0519  0.1170
  450TMC3    C8 6711   4.210   3.107  13.774 -0.5519  0.9743  0.4277
  450TMC3    O1 6712   3.723   2.861  13.813  0.1412 -0.7699 -0.3809
  450TMC3    O2 6713   4.237   3.222  13.813  0.6588 -0.7230  0.1153
  451MPD2     C 6714   0.081   0.743   2.382  0.3896 -0.3565  0.5958
  451MPD2    C1 6715   0.114   0.854   2.305  0.0971 -0.0081  0.1604
  451MPD2    C2 6716   0.238   0.856   2.242  0.5562 -0.2032 -0.0909
  451MPD2    C3 6717   0.336   0.755   2.255  0.0751 -0.5112  0.7801
  451MPD2    C4 6718   0.304   0.653   2.334  0.5906 -0.1460  0.1012
  451MPD2    C5 6719   0.183   0.647   2.397 -0.3718 -0.3497 -0.0811
  451MPD2     H 6720   0.255   0.932   2.167 -1.0563 -1.4609 -1.7434
  451MPD2    H1 6721   0.376   0.577   2.363  0.0685  0.7163  3.6766
  451MPD2    H2 6722   4.703   0.734   2.425 -0.1225  2.2777 -0.0069
  451MPD2    H3 6723   0.162   0.562   2.461 -1.6489 -0.9745 -1.3370
  451MPD2     N 6724   0.462   0.753   2.189  0.3092  0.1049 -0.0668
  451MPD2    H5 6725   0.524   0.684   2.231 -0.5253 -0.4586  0.2391
  451MPD2    N1 6726   0.023   0.957   2.302 -0.6508  1.0204  0.0075
  451MPD2    H7 6727   4.657   0.928   2.346 -0.4118 -0.7600 -0.6724
  452TMC3    C1 6728   0.644   0.812   2.050 -0.4430 -0.4315 -0.1719
  452TMC3    C2 6729   0.742   0.741   2.112 -0.4171  0.0226  0.4295
  452TMC3    C3 6730   0.860   0.729   2.059 -0.6824  0.2122 -0.1084
  452TMC3    C4 6731   0.667   0.862   1.924  0.2501 -1.1335 -0.0073
  452TMC3    C5 6732   0.789   0.846   1.867  0.5046 -0.4024 -0.3624
  452TMC3    C6 6733   0.885   0.777   1.934  0.4679  1.0701  0.1938
  452TMC3     C 6734   0.516   0.851   2.105 -0.5169  0.1436  0.4229
  452TMC3     O 6735   0.462   0.953   2.064  0.5339 -0.2535  0.0258
  452TMC3     H 6736   0.723   0.690   2.205 -1.1246  0.5649  0.5872
  452TMC3    H1 6737   0.586   0.917   1.878  0.4802 -0.1590  0.7469
  452TMC3    H2 6738   0.989   0.784   1.905  0.4252 -0.1996 -0.2804
  452TMC3    C7 6739   0.810   0.907   1.738  0.2952 -0.2637  0.2118
  452TMC3    C8 6740   0.948   0.639   2.128 -0.2474 -0.2925 -0.5217
  452TMC3    O1 6741   0.739   1.000   1.703  0.1765  0.4115  0.3766
  452TMC3    O2 6742   0.917   0.619   2.246 -0.0475 -0.2320  0.1959
  453TMC3    C1 6743   1.836   3.097  12.219  0.3769  0.7895  0.4268
  453TMC3    C2 6744   1.774   2.977  12.205 -0.3546 -0.6079  0.0806
  453TMC3    C3 6745   1.666   2.973  12.119  0.0601  0.0169  0.5407
  453TMC3    C4 6746   1.786   3.208  12.156 -0.3320  0.3321  0.4549
  453TMC3    C5 6747   1.672   3.202  12.082  0.6015 -0.1877  0.4495
  453TMC3    C6 6748   1.608   3.083  12.062  0.1386 -0.9325 -0.3586
  453TMC3     C 6749   1.961   3.127  12.293 -0.1690 -0.3634  0.3978
  453TMC3     O 6750   1.987   3.245  12.304 -0.4178  0.1792 -0.4387
  453TMC3     H 6751   1.820   2.889  12.249 -0.0688 -0.7960 -0.5948
  453TMC3    H1 6752   1.842   3.301  12.160  0.2003  0.0101  0.4608
  453TMC3    H2 6753   1.534   3.070  11.984 -1.5864  4.2835  0.4055
  453TMC3    C7 6754   1.650   3.304  11.986 -0.8193  0.0711 -1.1808
  453TMC3    C8 6755   1.624   2.838  12.081  0.1939  0.0001  0.1599
  453TMC3    O1 6756   1.607   3.271  11.878  0.1822  0.9251 -0.1041
  453TMC3    O2 6757   1.637   2.761  12.175  0.2158  0.4680 -0.3846
  454MPD2     C 6758   0.429   2.966  16.729  0.7465  0.0011 -0.0995
  454MPD2    C1 6759   0.374   2.854  16.672 -0.0877 -0.4047  0.4337
  454MPD2    C2 6760   0.315   2.761  16.759  0.1980  0.7776 -0.3704
  454MPD2    C3 6761   0.337   2.776  16.897 -0.4880  0.9572  0.0349
  454MPD2    C4 6762   0.401   2.884  16.948  0.2101 -0.1636 -0.3289
  454MPD2    C5 6763   0.433   2.989  16.865 -0.8084 -0.3470  0.6356
  454MPD2     H 6764   0.272   2.674  16.711 -0.7462  1.5504 -0.9210
  454MPD2    H1 6765   0.403   2.884  17.057  1.5907 -1.0301 -0.3512
  454MPD2    H2 6766   0.475   3.039  16.664  0.8538 -0.3401 -0.4058
  454MPD2    H3 6767   0.469   3.079  16.912  1.6681  0.1650 -2.2570
  454MPD2     N 6768   0.296   2.684  16.998  0.2097  0.1353 -0.0052
  454MPD2    H5 6769   0.330   2.691  17.093 -0.1159 -0.3500  0.1470
  454MPD2    N1 6770   0.358   2.837  16.534  0.5029 -0.1641 -0.1049
  454MPD2    H7 6771   0.318   2.752  16.494  2.2847 -1.2748  0.4564
  455TMC3    C1 6772   0.110   2.574  16.875 -0.6436 -0.4883  1.0587
  455TMC3    C2 6773   0.041   2.692  16.879  0.3244 -1.0056  0.2445
  455TMC3    C3 6774   4.643   2.687  16.814 -0.5525 -0.5524  0.5652
  455TMC3    C4 6775   0.057   2.456  16.839  0.2655  0.0512 -0.4248
  455TMC3    C5 6776   4.649   2.463  16.785  0.8220  0.2524  0.3480
  455TMC3    C6 6777   4.578   2.577  16.771  0.0960  0.0903 -0.5487
  455TMC3     C 6778   0.217   2.567  16.975 -0.1153 -1.1306  0.0911
  455TMC3     O 6779   0.213   2.470  17.055  0.3514 -0.6715 -0.6562
  455TMC3     H 6780   0.085   2.785  16.912  2.1234 -1.0669 -2.0420
  455TMC3    H1 6781   0.129   2.376  16.830 -2.7751 -2.7980  0.6991
  455TMC3    H2 6782   4.482   2.591  16.724  0.3794  0.9901 -0.8633
  455TMC3    C7 6783   4.588   2.337  16.736  0.4644 -0.3549  0.3599
  455TMC3    C8 6784   4.576   2.812  16.847  1.0794 -0.0163 -0.7111
  455TMC3    O1 6785   4.486   2.345  16.672 -0.8777 -0.0095  0.8221
  455TMC3    O2 6786   4.636   2.919  16.848 -0.4400  0.5355 -0.4580
  456MPD2     C 6787   2.658   3.086  16.525  0.0134 -0.6504 -0.6079
  456MPD2    C1 6788   2.741   3.068  16.636  0.4486 -0.0551  0.0943
  456MPD2    C2 6789   2.742   3.166  16.733 -0.0128 -0.2740  0.1778
  456MPD2    C3 6790   2.649   3.272  16.734  0.0196 -0.6083  0.0009
  456MPD2    C4 6791   2.559   3.287  16.628  0.1691 -0.2016  0.2341
  456MPD2    C5 6792   2.574   3.194  16.519 -0.0324 -0.3441  0.2468
  456MPD2     H 6793   2.786   3.147  16.830 -1.5015 -1.5032  0.6129
  456MPD2    H1 6794   2.486   3.367  16.626 -0.3104 -0.6376  0.1644
  456MPD2    H2 6795   2.663   3.023  16.437  0.9609 -2.0129  0.4276
  456MPD2    H3 6796   2.511   3.222  16.435  1.5852  2.3436 -0.0378
  456MPD2     N 6797   2.631   3.359  16.849  0.6376  0.2269  0.2270
  456MPD2    H5 6798   2.693   3.333  16.925  0.5858 -3.6764 -1.0525
  456MPD2    N1 6799   2.836   2.965  16.632  0.8665  0.1929 -0.0163
  456MPD2    H7 6800   2.826   2.894  16.561  0.0933  0.9907 -0.7106
  457TMC3    C1 6801   2.561   3.549  16.982  0.6442 -0.5687  0.2764
  457TMC3    C2 6802   2.545   3.688  16.970 -0.5861  0.4543 -0.4129
  457TMC3    C3 6803   2.590   3.757  17.076  0.3912  0.1001 -0.1931
  457TMC3    C4 6804   2.633   3.495  17.083 -0.5874  0.0521  0.4113
  457TMC3    C5 6805   2.677   3.572  17.189 -0.0259  0.4724 -0.2645
  457TMC3    C6 6806   2.661   3.708  17.184 -0.3672 -0.5034  0.0083
  457TMC3     C 6807   2.532   3.463  16.868 -0.5719  0.9298  0.3486
  457TMC3     O 6808   2.456   3.509  16.785  0.1937 -0.1900  0.6603
  457TMC3     H 6809   2.492   3.723  16.881 -2.4870  0.5100  0.7315
  457TMC3    H1 6810   2.638   3.387  17.088  0.7221  0.0340 -1.1640
  457TMC3    H2 6811   2.704   3.773  17.259 -1.5670 -0.5138  0.7038
  457TMC3    C7 6812   2.741   3.510  17.306 -0.8656 -0.4347  1.1398
  457TMC3    C8 6813   2.586   3.900  17.073 -0.1395 -0.0537 -0.0189
  457TMC3    O1 6814   2.783   3.398  17.278  0.0460 -0.4561 -0.0410
  457TMC3    O2 6815   2.605   3.951  17.187 -0.5445 -0.3116  0.6447
  458MPD2     C 6816   0.207   2.547  12.694  0.7895  0.2609 -0.2604
  458MPD2    C1 6817   0.210   2.457  12.802 -0.8196  0.1105  0.7532
  458MPD2    C2 6818   0.085   2.425  12.865 -0.4024  0.4003 -0.0874
  458MPD2    C3 6819   4.687   2.470  12.819 -0.5403 -1.0181 -0.8763
  458MPD2    C4 6820   4.693   2.551  12.702 -0.6172 -0.2289 -0.0766
  458MPD2    C5 6821   0.084   2.587  12.649 -0.3186  0.4800 -0.3356
  458MPD2     H 6822   0.073   2.371  12.958 -1.7311 -2.4871 -1.9501
  458MPD2    H1 6823   4.601   2.578  12.651  0.2824 -1.8208 -2.5455
  458MPD2    H2 6824   0.291   2.568  12.629  0.5391 -1.1098 -1.0350
  458MPD2    H3 6825   0.073   2.651  12.562  1.0690  1.8042  0.4598
  458MPD2     N 6826   4.568   2.427  12.874  0.0730  0.5008 -0.1649
  458MPD2    H5 6827   4.565   2.347  12.937 -2.8650  0.0787 -0.8437
  458MPD2    N1 6828   0.336   2.406  12.855 -0.1043 -1.0718 -0.1745
  458MPD2    H7 6829   0.421   2.427  12.805 -1.5396  2.7007 -1.0646
  459TMC3    C1 6830   0.491   2.282  12.988  0.7401  0.3218 -0.8968
  459TMC3    C2 6831   0.592   2.352  12.924  0.3339 -0.8860 -0.9619
  459TMC3    C3 6832   0.714   2.315  12.954 -0.0797  0.4609 -0.0026
  459TMC3    C4 6833   0.512   2.176  13.075  0.1334  0.4240 -0.3260
  459TMC3    C5 6834   0.645   2.150  13.111  0.2985  0.2222  0.2577
  459TMC3    C6 6835   0.749   2.230  13.064  0.5756  0.6766  1.4374
  459TMC3     C 6836   0.352   2.322  12.965  0.3939  0.2370  0.4141
  459TMC3     O 6837   0.271   2.253  13.024 -0.2494  0.0274  0.1696
  459TMC3     H 6838   0.565   2.442  12.870  0.4563  1.1151  2.3114
  459TMC3    H1 6839   0.430   2.151  13.142  0.5583  0.0765  0.0611
  459TMC3    H2 6840   0.853   2.216  13.091 -0.1282 -1.5861  2.9787
  459TMC3    C7 6841   0.678   2.066  13.234  0.3971  0.6561 -0.1405
  459TMC3    C8 6842   0.822   2.375  12.881  0.2067 -0.5434 -0.2225
  459TMC3    O1 6843   0.607   1.965  13.240  0.1565 -0.0750 -0.2374
  459TMC3    O2 6844   0.929   2.379  12.941  0.3582  0.2866  0.2528
  460MPD2     C 6845   0.176   4.447  10.930 -0.3117 -0.2891  0.2919
  460MPD2    C1 6846   0.047   4.471  10.926 -0.0867 -0.1225  0.5990
  460MPD2    C2 6847   4.704   4.509  10.808  0.1507  0.1597 -0.1489
  460MPD2    C3 6848   0.047   4.506  10.689  1.1344  0.4337  0.3707
  460MPD2    C4 6849   0.184   4.478  10.696  0.7156  0.1956 -0.1535
  460MPD2    C5 6850   0.247   4.445  10.813 -0.1505 -0.2359  0.0967
  460MPD2     H 6851   4.600   4.540  10.808  0.1996  0.3088  1.9176
  460MPD2    H1 6852   0.235   4.474  10.601  2.8359 -0.2872  0.9932
  460MPD2    H2 6853   0.223   4.412  11.021  0.8107 -0.7653 -0.4655
  460MPD2    H3 6854   0.348   4.406  10.817  0.1713  0.4477 -1.4792
  460MPD2     N 6855   4.696   4.530  10.568  0.0495 -0.2756 -0.3503
  460MPD2    H5 6856   4.600   4.561  10.579  0.1891  0.7223 -2.0731
  460MPD2    N1 6857   4.704   4.474  11.047  0.5788  0.6468  0.4817
  460MPD2    H7 6858   0.045   4.458  11.125  2.2467 -0.0007 -0.9828
  461TMC3    C1 6859   4.632   4.509  10.348 -0.2633  0.6854  0.3208
  461TMC3    C2 6860   4.616   4.390  10.280  0.1366  0.4131 -0.7694
  461TMC3    C3 6861   4.511   4.380  10.195 -0.4492 -0.2466 -0.4350
  461TMC3    C4 6862   4.529   4.605  10.348 -0.4260 -0.0758  0.0826
  461TMC3    C5 6863   4.424   4.588  10.273  0.0411  0.1019 -0.5450
  461TMC3    C6 6864   4.412   4.476  10.188  0.7668  0.2196 -0.1434
  461TMC3     C 6865   0.020   4.510  10.439 -0.2151 -0.4447 -0.4329
  461TMC3     O 6866   0.127   4.482  10.396  0.0042  0.0290  0.1776
  461TMC3     H 6867   4.669   4.297  10.299  0.3182  0.7784  0.4517
  461TMC3    H1 6868   4.558   4.703  10.383 -0.4969 -0.0239 -0.0063
  461TMC3    H2 6869   4.325   4.470  10.124 -0.5207  1.0375  1.5137
  461TMC3    C7 6870   4.316   4.689  10.252  0.1166  0.6658  0.2112
  461TMC3    C8 6871   4.489   4.251  10.122  0.0690  0.7222 -0.2534
  461TMC3    O1 6872   4.234   4.687  10.159 -0.0987 -0.3990 -0.0499
  461TMC3    O2 6873   4.553   4.157  10.168 -0.0153 -0.4031 -0.3057
  462TMC3    C1 6874   4.474   0.338   0.467  0.2256  0.1997 -0.1820
  462TMC3    C2 6875   4.526   0.243   0.389  0.2671  0.2299  0.0044
  462TMC3    C3 6876   4.430   0.165   0.330  0.0009  0.2032 -0.1843
  462TMC3    C4 6877   4.344   0.348   0.488  1.2238 -0.3009  0.4697
  462TMC3    C5 6878   4.245   0.270   0.428  0.6810 -0.2364 -0.6467
  462TMC3    C6 6879   4.298   0.177   0.348  0.0589 -0.5812  0.2795
  462TMC3     C 6880   4.567   0.438   0.529 -0.5561  0.2312 -0.4115
  462TMC3     O 6881   4.516   0.505   0.619  0.7352 -0.5311  0.0013
  462TMC3     H 6882   4.631   0.220   0.384 -0.5166 -2.6572 -2.9797
  462TMC3    H1 6883   4.300   0.431   0.543 -1.9386 -1.1973 -0.7106
  462TMC3    H2 6884   4.226   0.118   0.292  0.1546 -1.8155  1.4680
  462TMC3    C7 6885   4.104   0.251   0.467 -0.3892  0.4967 -0.1523
  462TMC3    C8 6886   4.469   0.049   0.248 -0.1950  0.2941 -0.1759
  462TMC3    O1 6887   4.039   0.211   0.372  0.4707 -0.2988 -0.5662
  462TMC3    O2 6888   4.403   4.669   0.251 -0.6708 -0.2064 -0.3142
  463MPD2     C 6889   0.881   4.429   2.321  0.2742  0.4638  0.0262
  463MPD2    C1 6890   0.824   4.520   2.232 -0.1225  0.4113 -0.6608
  463MPD2    C2 6891   0.907   4.606   2.156  0.3415  0.2035 -0.0150
  463MPD2    C3 6892   1.042   4.604   2.172 -0.4597 -0.4825  0.1299
  463MPD2    C4 6893   1.095   4.525   2.269  0.5865  0.1689 -0.2378
  463MPD2    C5 6894   1.015   4.431   2.339  0.4632 -0.2411  0.1337
  463MPD2     H 6895   0.856   4.675   2.090 -1.4904 -0.2273  0.9279
  463MPD2    H1 6896   1.202   4.514   2.286  0.6882  0.5840 -0.6241
  463MPD2    H2 6897   0.832   4.341   2.362  0.6095  0.1723 -0.1993
  463MPD2    H3 6898   1.068   4.353   2.393 -0.8193 -1.4915 -0.4245
  463MPD2     N 6899   1.127   4.681   2.101 -0.2017 -0.5237  0.0928
  463MPD2    H5 6900   1.226   4.675   2.124 -0.2222 -0.7502  0.1289
  463MPD2    N1 6901   0.682   4.523   2.203 -0.1224  0.4355  0.7420
  463MPD2    H7 6902   0.648   4.589   2.134 -0.1591  0.5607  0.8797
  464TMC3    C1 6903   0.455   4.434   2.206  0.0798  0.4207 -0.8519
  464TMC3    C2 6904   0.410   4.525   2.118 -0.7818 -0.4075 -0.1847
  464TMC3    C3 6905   0.281   4.514   2.075  1.1547  0.0713 -0.1387
  464TMC3    C4 6906   0.381   4.326   2.244 -0.4028  0.4226  0.6037
  464TMC3    C5 6907   0.257   4.306   2.194  0.1386 -0.8921 -0.3648
  464TMC3    C6 6908   0.198   4.406   2.118 -0.4700  0.4201 -0.4933
  464TMC3     C 6909   0.587   4.438   2.266 -0.4296  0.4892 -0.0952
  464TMC3     O 6910   0.605   4.359   2.353 -0.5520  0.4045  0.0986
  464TMC3     H 6911   0.467   4.616   2.103  0.3300 -0.8885  1.0866
  464TMC3    H1 6912   0.422   4.240   2.295 -0.3641  0.1842  0.1684
  464TMC3    H2 6913   0.094   4.392   2.092 -0.3641 -1.5417  0.1093
  464TMC3    C7 6914   0.187   4.180   2.221 -0.1748 -0.1665  0.1906
  464TMC3    C8 6915   0.224   4.627   2.000  0.1292  0.1497  0.3357
  464TMC3    O1 6916   0.225   4.114   2.316  0.0073  0.3210  0.6390
  464TMC3    O2 6917   0.305   4.704   1.953  0.8734  0.2196 -0.0456
  465MPD2     C 6918   2.048   2.400  16.616  0.3501  0.5097 -0.2930
  465MPD2    C1 6919   2.020   2.438  16.745 -0.3584 -0.3774 -0.1192
  465MPD2    C2 6920   1.924   2.538  16.761  0.0197 -0.0025 -0.2816
  465MPD2    C3 6921   1.861   2.606  16.657 -0.8459  0.1862  0.0843
  465MPD2    C4 6922   1.894   2.567  16.531  0.1166  0.3185  0.2038
  465MPD2    C5 6923   1.987   2.461  16.513  0.0019  0.8912  0.0168
  465MPD2     H 6924   1.905   2.562  16.865 -1.0875  2.5195 -1.0715
  465MPD2    H1 6925   1.837   2.605  16.447 -1.3864  0.2404  1.1982
  465MPD2    H2 6926   2.115   2.317  16.595 -2.9595 -2.1340 -0.4355
  465MPD2    H3 6927   2.004   2.433  16.410  0.0992 -1.1851  0.6095
  465MPD2     N 6928   1.773   2.712  16.690 -0.3663 -0.2667  0.3184
  465MPD2    H5 6929   1.749   2.736  16.785  0.8756  1.7052  0.1371
  465MPD2    N1 6930   2.084   2.396  16.862  0.6665 -0.7131 -0.1389
  465MPD2    H7 6931   2.059   2.438  16.951 -1.5989  0.7954 -1.4833
  466TMC3    C1 6932   1.461   2.969  16.809  0.2847  0.5209 -0.4392
  466TMC3    C2 6933   1.446   3.087  16.743  0.2279  0.1330  0.0693
  466TMC3    C3 6934   1.529   3.109  16.639  0.1374 -0.6175  0.6116
  466TMC3    C4 6935   1.551   2.879  16.768  0.4159 -0.1138  0.0604
  466TMC3    C5 6936   1.628   2.908  16.662 -0.9661 -0.1594  0.6614
  466TMC3    C6 6937   1.622   3.019  16.593 -0.1141 -0.2435  0.5665
  466TMC3     C 6938   1.387   2.956  16.934 -0.7940  0.4479 -0.4066
  466TMC3     O 6939   1.462   2.905  17.015  0.1818 -0.1263 -0.0143
  466TMC3     H 6940   1.371   3.157  16.779 -0.5888 -0.6572 -0.1007
  466TMC3    H1 6941   1.557   2.780  16.812 -1.0326  0.3383  1.2481
  466TMC3    H2 6942   1.665   3.044  16.496  1.3286 -1.3356  0.9384
  466TMC3    C7 6943   1.705   2.802  16.601  0.0655 -0.1543 -0.6110
  466TMC3    C8 6944   1.544   3.242  16.595 -0.0777 -0.3893 -0.1998
  466TMC3    O1 6945   1.698   2.803  16.480 -0.7482 -0.2464 -0.0911
  466TMC3    O2 6946   1.566   3.255  16.475  0.0822 -0.1389 -0.3364
  467TMC3    C1 6947   2.593   1.590  14.019 -0.8625  0.1671 -0.2282
  467TMC3    C2 6948   2.526   1.551  13.913 -0.5322 -0.5358 -0.4799
  467TMC3    C3 6949   2.412   1.467  13.934 -0.5958  0.5049  0.1578
  467TMC3    C4 6950   2.533   1.583  14.143 -0.3247 -0.4822 -0.8310
  467TMC3    C5 6951   2.408   1.524  14.157 -0.3365 -0.1720 -0.2179
  467TMC3    C6 6952   2.350   1.459  14.056  0.0377 -0.2781 -0.1723
  467TMC3     C 6953   2.725   1.655  13.998 -0.3971 -0.3987  0.3289
  467TMC3     O 6954   2.773   1.666  13.888 -0.2388  0.0627 -0.1247
  467TMC3     H 6955   2.582   1.570  13.822  0.0864  0.9484  0.2133
  467TMC3    H1 6956   2.590   1.612  14.231 -0.9708  0.1606 -0.6309
  467TMC3    H2 6957   2.279   1.380  14.078 -0.5333  0.2890  0.0232
  467TMC3    C7 6958   2.384   1.450  14.285 -0.0340 -0.4506 -0.2983
  467TMC3    C8 6959   2.323   1.427  13.820 -0.2652 -0.2075 -0.2759
  467TMC3    O1 6960   2.475   1.443  14.366 -0.1767 -0.3287 -0.1706
  467TMC3    O2 6961   2.219   1.377  13.858  0.0269 -0.0284 -0.4598
  468MPD2     C 6962   1.059   4.496  10.624  0.5289 -1.0754 -0.3558
  468MPD2    C1 6963   1.195   4.520  10.632 -0.5062  0.1062  0.2239
  468MPD2    C2 6964   1.279   4.424  10.688 -0.2832 -0.4499 -0.6442
  468MPD2    C3 6965   1.226   4.306  10.736  0.1092  0.1694  0.0246
  468MPD2    C4 6966   1.090   4.289  10.734 -0.6976  0.4504 -0.8331
  468MPD2    C5 6967   1.008   4.382  10.670 -0.0348 -0.4296 -0.2014
  468MPD2     H 6968   1.386   4.439  10.694 -0.1697 -1.0318 -1.1315
  468MPD2    H1 6969   1.038   4.210  10.787 -1.0330 -0.0716 -1.9532
  468MPD2    H2 6970   0.991   4.573  10.587  1.6952 -0.5234 -1.3472
  468MPD2    H3 6971   0.900   4.374  10.675  0.0270  1.2001  3.1802
  468MPD2     N 6972   1.309   4.199  10.783 -0.1478 -0.3386  0.5038
  468MPD2    H5 6973   1.263   4.111  10.803 -1.2870  0.3317  0.7950
  468MPD2    N1 6974   1.263   4.633  10.581  0.3362 -0.4234 -0.0439
  468MPD2    H7 6975   1.363   4.636  10.597  0.4358 -2.6837 -0.3723
  469TMC3    C1 6976   1.304   0.108  10.466 -0.6191  0.1955  0.4838
  469TMC3    C2 6977   1.415   0.120  10.556 -0.0090 -0.2129 -0.0004
  469TMC3    C3 6978   1.521   0.197  10.512 -0.2606  0.6210  0.9961
  469TMC3    C4 6979   1.288   0.192  10.359  0.1343  0.0458  0.0441
  469TMC3    C5 6980   1.391   0.269  10.321 -0.3291  1.2054 -0.0318
  469TMC3    C6 6981   1.513   0.269  10.391 -0.4223 -0.1288  0.5092
  469TMC3     C 6982   1.205   0.015  10.506 -0.4046  0.4020 -0.1498
  469TMC3     O 6983   1.092   0.035  10.455 -0.2016  0.8385 -0.0205
  469TMC3     H 6984   1.408   0.075  10.654 -1.6472  1.0103  0.4562
  469TMC3    H1 6985   1.201   0.201  10.295  0.5020  1.2397 -0.2963
  469TMC3    H2 6986   1.602   0.322  10.359 -0.6665 -1.2337 -2.0130
  469TMC3    C7 6987   1.366   0.381  10.223  0.3838  0.5365 -0.2191
  469TMC3    C8 6988   1.629   0.238  10.602  0.1231 -0.6437 -0.4119
  469TMC3    O1 6989   1.260   0.396  10.166 -0.3207  0.5369  0.0935
  469TMC3    O2 6990   1.725   0.304  10.560  0.1123  0.1810  0.3130
  470TMC3    C1 6991   3.764   0.976   1.122 -0.5777  0.0445  0.1298
  470TMC3    C2 6992   3.727   1.094   1.184  0.5441  0.1383  0.9976
  470TMC3    C3 6993   3.759   1.112   1.318 -0.3223  0.5522  0.2115
  470TMC3    C4 6994   3.837   0.880   1.180 -0.2350  0.0356 -0.2891
  470TMC3    C5 6995   3.866   0.900   1.311  0.4751 -0.4112  0.3147
  470TMC3    C6 6996   3.826   1.010   1.378  0.1239 -0.0858  0.0695
  470TMC3     C 6997   3.718   0.961   0.984 -0.2808  0.4633 -0.8742
  470TMC3     O 6998   3.720   1.060   0.910 -0.3877 -0.1368  0.1203
  470TMC3     H 6999   3.667   1.163   1.125  2.9791  1.6557  0.3157
  470TMC3    H1 7000   3.885   0.806   1.118  0.0976 -1.5421  1.8445
  470TMC3    H2 7001   3.852   1.019   1.483 -2.1648 -1.9410  0.7873
  470TMC3    C7 7002   3.986   0.834   1.364  0.7336 -0.0681  0.1727
  470TMC3    C8 7003   3.741   1.238   1.396 -0.1306  0.3606 -0.3506
  470TMC3    O1 7004   4.067   0.805   1.277 -0.0384 -0.8026  0.0127
  470TMC3    O2 7005   3.763   1.232   1.517  0.1185 -0.2906  0.7197
  471MPD2     C 7006   3.758   2.099  16.805 -0.0765  0.6900 -0.8133
  471MPD2    C1 7007   3.832   1.985  16.802 -0.1906 -0.0299  0.7763
  471MPD2    C2 7008   3.904   1.957  16.913  0.3316 -0.0651 -0.6464
  471MPD2    C3 7009   3.915   2.046  17.016 -0.4383 -0.1727 -0.6139
  471MPD2    C4 7010   3.837   2.161  17.014 -0.9229 -0.0649 -0.1583
  471MPD2    C5 7011   3.762   2.186  16.906 -0.2015  0.3499  0.5166
  471MPD2     H 7012   3.968   1.870  16.909  0.9094  0.2378  2.2499
  471MPD2    H1 7013   3.845   2.248  17.078  1.3024  0.6257 -1.3873
  471MPD2    H2 7014   3.692   2.124  16.723 -0.7299  0.1484 -0.4504
  471MPD2    H3 7015   3.708   2.280  16.899 -0.1208  0.0998 -3.6727
  471MPD2     N 7016   4.004   2.035  17.126  0.7217 -0.0081  0.3613
  471MPD2    H5 7017   4.007   2.112  17.192  2.6402 -0.2260  0.5506
  471MPD2    N1 7018   3.839   1.887  16.703 -0.0980  0.0660 -0.2853
  471MPD2    H7 7019   3.887   1.803  16.732 -2.1612 -1.3118 -0.8692
  472TMC3    C1 7020   3.791   1.774  16.501  0.0096 -0.9511  0.1174
  472TMC3    C2 7021   3.692   1.754  16.414  0.4043  0.1478  0.7830
  472TMC3    C3 7022   3.659   1.620  16.392  0.1078 -0.0089 -0.5035
  472TMC3    C4 7023   3.855   1.676  16.572  1.2509 -0.2016 -0.5136
  472TMC3    C5 7024   3.818   1.545  16.537 -0.2206  0.7584  0.3502
  472TMC3    C6 7025   3.721   1.512  16.443 -0.1963 -0.4761 -0.7983
  472TMC3     C 7026   3.773   1.894  16.582  0.1914  0.8155 -0.1446
  472TMC3     O 7027   3.712   1.986  16.538  0.0434 -0.0399  0.0500
  472TMC3     H 7028   3.644   1.839  16.367  0.1320 -0.2307  0.3709
  472TMC3    H1 7029   3.949   1.691  16.622  1.2727  0.3241 -0.7109
  472TMC3    H2 7030   3.703   1.410  16.412  0.1286 -1.5343  2.5072
  472TMC3    C7 7031   3.886   1.439  16.610  0.6859  0.1488 -0.5640
  472TMC3    C8 7032   3.533   1.595  16.322  0.1123  0.0930 -0.2424
  472TMC3    O1 7033   3.925   1.458  16.723 -0.6016  0.6298  0.6034
  472TMC3    O2 7034   3.505   1.681  16.241  0.3620  0.3181 -0.3733
  473MPD2     C 7035   4.250   4.052  14.718  0.1061 -0.5411 -0.6757
  473MPD2    C1 7036   4.155   4.106  14.634  0.0787  0.9799 -0.1840
  473MPD2    C2 7037   4.087   4.215  14.670 -0.1865  0.2445 -0.3914
  473MPD2    C3 7038   4.119   4.283  14.789  0.1223  0.3409 -0.2063
  473MPD2    C4 7039   4.216   4.225  14.870  0.0066 -0.0707 -0.3618
  473MPD2    C5 7040   4.278   4.107  14.841 -0.2941  0.2778  0.1370
  473MPD2     H 7041   4.017   4.261  14.602 -1.4176  0.2714  0.8803
  473MPD2    H1 7042   4.244   4.282  14.958 -0.6972  1.1070 -0.8919
  473MPD2    H2 7043   4.295   3.955  14.700 -1.2850 -1.5844  1.4953
  473MPD2    H3 7044   4.347   4.056  14.909  0.8926  0.9242 -0.5874
  473MPD2     N 7045   4.068   4.411  14.829 -0.1855  0.1650 -0.4273
  473MPD2    H5 7046   4.104   4.462  14.909 -0.9008 -0.3026  0.1940
  473MPD2    N1 7047   4.121   4.043  14.514 -0.5019  0.2726  0.1752
  473MPD2    H7 7048   4.043   4.085  14.465 -0.7772  0.2385  0.5811
  474TMC3    C1 7049   3.958   4.607  14.815  0.6551  0.1356  0.3144
  474TMC3    C2 7050   3.850   4.676  14.772  0.1185  0.1039  0.2262
  474TMC3    C3 7051   3.854   0.088  14.766  0.1284 -0.1992  0.0280
  474TMC3    C4 7052   4.065   4.666  14.877  0.0711  0.2628 -0.6813
  474TMC3    C5 7053   4.072   0.081  14.866 -0.0307  0.2921 -0.2231
  474TMC3    C6 7054   3.969   0.151  14.798  0.2185 -0.2791  0.5674
  474TMC3     C 7055   3.987   4.482  14.749 -0.8375 -0.5043 -0.0642
  474TMC3     O 7056   3.931   4.451  14.643 -0.4545 -0.4306  0.1151
  474TMC3     H 7057   3.762   4.626  14.736 -0.3386  1.3510 -0.3998
  474TMC3    H1 7058   4.162   4.618  14.872  0.0771  0.1872  0.1960
  474TMC3    H2 7059   3.967   0.259  14.811  0.8076 -0.3794  1.5351
  474TMC3    C7 7060   4.196   0.148  14.893  0.0776  0.1958 -0.0435
  474TMC3    C8 7061   3.777   0.147  14.658 -0.0228  0.4720  0.5059
  474TMC3    O1 7062   4.210   0.260  14.839  0.4883  0.7372  0.4649
  474TMC3    O2 7063   3.667   0.097  14.646  0.3380  0.3690  0.0192
  475MPD2     C 7064   3.038   1.766  10.112  0.4995  0.2165  0.0948
  475MPD2    C1 7065   3.121   1.875  10.103  0.4634  0.2591  0.3190
  475MPD2    C2 7066   3.096   1.983  10.190  0.0944  0.2088 -0.3028
  475MPD2    C3 7067   2.985   1.988  10.273  0.1938  0.3384 -0.0007
  475MPD2    C4 7068   2.902   1.874  10.278  0.2575  0.2241 -0.1498
  475MPD2    C5 7069   2.933   1.767  10.199  0.3466  0.2495  0.4340
  475MPD2     H 7070   3.157   2.072  10.195  0.9902 -0.3025 -2.2709
  475MPD2    H1 7071   2.817   1.856  10.342  0.9833  0.4587  0.8778
  475MPD2    H2 7072   3.047   1.678  10.049 -2.0296 -0.4334  0.6534
  475MPD2    H3 7073   2.865   1.682  10.201  0.8333 -0.1611 -0.3283
  475MPD2     N 7074   2.971   2.098  10.362  0.1180 -0.1107  0.1008
  475MPD2    H5 7075   3.048   2.163  10.352  0.0086 -0.3393 -2.1142
  475MPD2    N1 7076   3.226   1.877   9.999  0.5543 -0.3742  0.4068
  475MPD2    H7 7077   3.235   1.785   9.956 -0.1685  0.3450 -1.2745
  476TMC3    C1 7078   3.285   2.112   9.981  0.0443  0.5553  0.2854
  476TMC3    C2 7079   3.161   2.153   9.940  0.2143 -1.1602 -0.9614
  476TMC3    C3 7080   3.144   2.285   9.905  0.1833  0.3020  0.8858
  476TMC3    C4 7081   3.387   2.201   9.992 -0.4381 -0.0286  0.5165
  476TMC3    C5 7082   3.359   2.333   9.959  0.2529 -0.6580  0.1551
  476TMC3    C6 7083   3.242   2.378   9.914 -0.4828  0.4188  0.6302
  476TMC3     C 7084   3.324   1.970   9.979 -0.0716 -0.7021 -0.2779
  476TMC3     O 7085   3.437   1.942   9.932  0.7031 -0.0036 -0.0977
  476TMC3     H 7086   3.095   2.072   9.911 -0.5542 -1.4389  1.5742
  476TMC3    H1 7087   3.484   2.158  10.017 -0.8132 -2.1398 -1.6513
  476TMC3    H2 7088   3.223   2.482   9.889  0.8644  0.4308 -0.3544
  476TMC3    C7 7089   3.460   2.424  10.000 -0.3139 -0.2592  0.0535
  476TMC3    C8 7090   3.009   2.339   9.925 -0.5187 -0.1379  0.6632
  476TMC3    O1 7091   3.580   2.389   9.993  0.4402  0.5215 -0.4666
  476TMC3    O2 7092   2.988   2.452   9.882 -0.4268  0.0586 -0.4438
  477MPD2     C 7093   0.768   3.854  11.893  0.0673 -0.2768 -0.0987
  477MPD2    C1 7094   0.713   3.758  11.812  0.4069  0.2114  0.6767
  477MPD2    C2 7095   0.729   3.627  11.848  0.3065 -0.2618  0.6177
  477MPD2    C3 7096   0.806   3.588  11.961  0.3635 -0.0590  0.8851
  477MPD2    C4 7097   0.880   3.688  12.022 -1.0708 -0.9824 -0.3916
  477MPD2    C5 7098   0.864   3.822  11.986 -0.6446  0.4559 -0.1257
  477MPD2     H 7099   0.681   3.544  11.798  2.2772 -1.6173  0.9778
  477MPD2    H1 7100   0.963   3.667  12.088 -0.2539 -1.6444 -1.6242
  477MPD2    H2 7101   0.750   3.954  11.853 -1.6795 -0.7311 -0.4325
  477MPD2    H3 7102   0.929   3.887  12.043  0.6478 -0.9071 -0.0494
  477MPD2     N 7103   0.816   3.459  12.003 -0.5075 -0.9085  0.0122
  477MPD2    H5 7104   0.761   3.390  11.952 -2.2868 -1.4232  2.6051
  477MPD2    N1 7105   0.627   3.808  11.709  0.1910  0.1186 -0.6106
  477MPD2    H7 7106   0.622   3.909  11.699 -0.3361  0.0161 -1.4161
  478TMC3    C1 7107   0.469   3.815  11.531 -0.4397 -0.3024 -0.3117
  478TMC3    C2 7108   0.501   3.951  11.540  0.0218 -0.0567  0.2553
  478TMC3    C3 7109   0.393   4.039  11.559  0.1164 -0.4337  0.1165
  478TMC3    C4 7110   0.339   3.772  11.513 -0.1991 -0.7790  0.0149
  478TMC3    C5 7111   0.248   3.868  11.510  0.2579  0.1214 -0.3821
  478TMC3    C6 7112   0.271   3.994  11.535  0.7583 -0.7258  0.3696
  478TMC3     C 7113   0.541   3.734  11.628 -0.3852 -0.0245 -0.6570
  478TMC3     O 7114   0.522   3.613  11.626  0.6292 -0.1352  0.3479
  478TMC3     H 7115   0.603   3.986  11.547  0.3041 -1.0022  0.8666
  478TMC3    H1 7116   0.313   3.667  11.512 -1.8498 -0.3751 -0.5771
  478TMC3    H2 7117   0.181   4.055  11.533  1.1180 -0.1679  1.3563
  478TMC3    C7 7118   0.108   3.824  11.488  0.3512  0.1607 -0.0547
  478TMC3    C8 7119   0.422   4.126  11.672  0.0151 -0.2451  0.4662
  478TMC3    O1 7120   0.098   3.709  11.528 -0.5180 -0.3467  0.1702
  478TMC3    O2 7121   0.533   4.127  11.721  0.0687 -0.1744 -0.1544
  479MPD2     C 7122   4.069   1.482  15.295 -0.2290 -0.6957  0.6814
  479MPD2    C1 7123   4.022   1.374  15.365 -0.4079  0.0748 -0.8270
  479MPD2    C2 7124   4.078   1.355  15.491 -0.1208 -0.0600  0.0015
  479MPD2    C3 7125   4.171   1.445  15.548  0.1254 -0.0444 -1.3409
  479MPD2    C4 7126   4.221   1.546  15.474  0.7808  0.1150  1.1441
  479MPD2    C5 7127   4.169   1.558  15.347 -0.4252 -0.1410 -0.1832
  479MPD2     H 7128   4.043   1.276  15.556  0.1657 -0.8145 -0.7721
  479MPD2    H1 7129   4.292   1.617  15.514  1.7609  0.1921 -0.7243
  479MPD2    H2 7130   4.047   1.506  15.192  0.9668  0.4080  0.6814
  479MPD2    H3 7131   4.216   1.640  15.293  0.9760 -0.6201  0.3157
  479MPD2     N 7132   4.227   1.431  15.677 -0.7194  0.0436 -0.4332
  479MPD2    H5 7133   4.318   1.474  15.686 -1.2070  0.9633  0.1308
  479MPD2    N1 7134   3.928   1.295  15.304  0.1590  0.4312  0.6672
  479MPD2    H7 7135   3.894   1.306  15.209 -1.3518  1.2284  1.3033
  480TMC3    C1 7136   3.904   1.159  15.870  0.2389  0.3988 -0.2135
  480TMC3    C2 7137   3.805   1.239  15.809  0.2572 -1.0427 -1.1779
  480TMC3    C3 7138   3.831   1.357  15.755  0.2520 -0.8395 -0.4002
  480TMC3    C4 7139   4.030   1.200  15.859 -0.4962 -0.0744  0.3374
  480TMC3    C5 7140   4.053   1.314  15.793 -0.6613 -0.9789  0.0256
  480TMC3    C6 7141   3.956   1.410  15.763 -0.3284  0.0475 -0.1183
  480TMC3     C 7142   3.878   1.035  15.937  0.6250  0.4266 -0.0941
  480TMC3     O 7143   3.974   0.983  15.992 -0.1639  0.5900  0.0900
  480TMC3     H 7144   3.701   1.225  15.834  0.7869 -2.9072 -0.0555
  480TMC3    H1 7145   4.116   1.143  15.893  0.5672  1.1885 -0.2490
  480TMC3    H2 7146   3.972   1.516  15.750  1.0960 -0.3888 -1.9587
  480TMC3    C7 7147   4.198   1.338  15.776 -0.0883  1.1818 -0.3296
  480TMC3    C8 7148   3.741   1.389  15.647 -0.1347  0.8338  0.0917
  480TMC3    O1 7149   4.272   1.313  15.869 -0.2674  0.4215 -0.0733
  480TMC3    O2 7150   3.649   1.310  15.627 -0.0379  0.2179  0.2262
  481MPD2     C 7151   0.560   0.674  14.435 -0.0360  0.3520 -0.2957
  481MPD2    C1 7152   0.480   0.575  14.490 -0.3958  0.4754  0.0826
  481MPD2    C2 7153   0.520   0.492  14.594  0.3105  0.2757 -0.6452
  481MPD2    C3 7154   0.657   0.490  14.629 -0.3172 -0.2041 -0.4056
  481MPD2    C4 7155   0.744   0.589  14.571  0.1089 -0.3464 -0.2305
  481MPD2    C5 7156   0.689   0.673  14.478 -0.4586  0.6406 -0.0577
  481MPD2     H 7157   0.460   0.408  14.625  2.4075 -1.1560 -0.4843
  481MPD2    H1 7158   0.851   0.590  14.581  0.2935 -1.2943 -1.9987
  481MPD2    H2 7159   0.539   0.751  14.361 -1.4845 -0.8365 -1.1063
  481MPD2    H3 7160   0.757   0.745  14.435  0.6588 -0.4539 -0.1394
  481MPD2     N 7161   0.723   0.413  14.732  0.1492  0.6440  1.0508
  481MPD2    H5 7162   0.821   0.427  14.753  0.2942 -2.3001  2.4372
  481MPD2    N1 7163   0.342   0.570  14.445 -0.7185  0.5131 -0.6064
  481MPD2    H7 7164   0.318   0.634  14.370  0.3869 -1.5864 -2.7649
  482TMC3    C1 7165   0.119   0.502  14.424  0.0561 -0.5325  0.4406
  482TMC3    C2 7166   0.037   0.395  14.413 -0.5690  0.0207  0.2472
  482TMC3    C3 7167   4.652   0.391  14.321  0.1813  0.1836  0.4478
  482TMC3    C4 7168   0.095   0.622  14.363  0.1131 -0.0413  0.2728
  482TMC3    C5 7169   4.712   0.616  14.268  0.5568  0.1195  0.6550
  482TMC3    C6 7170   4.630   0.510  14.249  0.3791  0.3894 -0.2224
  482TMC3     C 7171   0.248   0.468  14.479  0.4037  0.2201  0.4134
  482TMC3     O 7172   0.253   0.367  14.549  0.1154  0.5760 -0.3641
  482TMC3     H 7173   0.066   0.298  14.452 -2.5115 -1.1078 -1.1177
  482TMC3    H1 7174   0.163   0.706  14.363 -2.1046  1.7499  1.5831
  482TMC3    H2 7175   4.579   0.508  14.153  1.8106  0.5377 -0.9910
  482TMC3    C7 7176   4.698   0.731  14.177  0.3483  0.0206  0.2294
  482TMC3    C8 7177   4.621   0.264  14.265 -0.0570 -0.2107  0.0849
  482TMC3    O1 7178   4.626   0.733  14.080 -0.2782 -0.3038  0.4286
  482TMC3    O2 7179   4.639   0.163  14.332 -0.0345  0.1014 -0.0835
  483TMC3    C1 7180   2.970   3.676   0.707  0.6728  0.0735  0.3400
  483TMC3    C2 7181   2.913   3.795   0.686  0.0287  0.2213 -0.2632
  483TMC3    C3 7182   2.927   3.895   0.776  0.2241 -0.2328 -0.3584
  483TMC3    C4 7183   3.041   3.656   0.818  0.0485 -0.4762 -0.1878
  483TMC3    C5 7184   3.066   3.757   0.908 -0.4509  0.1650 -0.5611
  483TMC3    C6 7185   3.005   3.885   0.889 -0.0019  0.2255 -0.3672
  483TMC3     C 7186   2.947   3.573   0.611  0.2945 -0.7622  0.3704
  483TMC3     O 7187   2.947   3.588   0.490 -0.6439  0.7569 -0.3797
  483TMC3     H 7188   2.845   3.813   0.604 -0.1216 -1.3713 -0.4802
  483TMC3    H1 7189   3.102   3.566   0.820 -0.1463 -0.6050 -0.0612
  483TMC3    H2 7190   3.030   3.967   0.955  1.2140 -0.9790  0.6955
  483TMC3    C7 7191   3.158   3.748   1.015  0.2319 -0.2473 -0.2873
  483TMC3    C8 7192   2.904   4.022   0.717  0.2628 -0.4215  0.2329
  483TMC3    O1 7193   3.190   3.858   1.061 -0.7528  0.4301 -0.0514
  483TMC3    O2 7194   2.916   4.040   0.597 -0.4103  0.2733 -0.1579
  484MPD2     C 7195   0.807   2.567  12.572 -0.3939 -0.3460  0.6287
  484MPD2    C1 7196   0.869   2.480  12.660  0.0485  0.2374 -0.2976
  484MPD2    C2 7197   1.004   2.463  12.661 -0.8548 -0.4943  0.2188
  484MPD2    C3 7198   1.085   2.527  12.563 -0.8642  0.4350 -0.4273
  484MPD2    C4 7199   1.020   2.604  12.466 -0.1071 -0.4446  0.1914
  484MPD2    C5 7200   0.891   2.640  12.488  0.3414 -0.6839  0.4978
  484MPD2     H 7201   1.056   2.405  12.736  0.6891  0.5213 -0.0656
  484MPD2    H1 7202   1.072   2.662  12.391 -0.3731  0.5855  0.7892
  484MPD2    H2 7203   0.701   2.587  12.582 -0.4310 -0.4993  0.5462
  484MPD2    H3 7204   0.839   2.707  12.420  0.8719 -0.4221  0.3501
  484MPD2     N 7205   1.217   2.505  12.540  0.5116  0.2180 -0.3041
  484MPD2    H5 7206   1.269   2.564  12.476 -0.4506  0.4871 -0.8340
  484MPD2    N1 7207   0.779   2.426  12.763 -0.2500  0.1169  0.3176
  484MPD2    H7 7208   0.681   2.424  12.739  0.4912 -0.8682 -2.6309
  485TMC3    C1 7209   1.439   2.470  12.585  0.3471 -0.4348 -0.2738
  485TMC3    C2 7210   1.528   2.470  12.692  0.1838  0.2055  0.1026
  485TMC3    C3 7211   1.654   2.516  12.660 -0.2769 -0.9468  0.5506
  485TMC3    C4 7212   1.473   2.480  12.457  0.4312 -0.0336  0.0495
  485TMC3    C5 7213   1.600   2.531  12.435 -0.2314 -0.1971  0.4560
  485TMC3    C6 7214   1.682   2.566  12.536 -0.0664  0.9728  0.2806
  485TMC3     C 7215   1.307   2.442  12.626  0.6721 -0.1505 -0.3528
  485TMC3     O 7216   1.283   2.388  12.732 -0.0979  0.3500 -0.7036
  485TMC3     H 7217   1.499   2.454  12.795  3.1034 -1.0301  0.7209
  485TMC3    H1 7218   1.416   2.449  12.370  1.1240 -0.6814 -0.1743
  485TMC3    H2 7219   1.781   2.591  12.501 -0.2699  0.4504 -0.6981
  485TMC3    C7 7220   1.667   2.436  12.349  0.1470  0.2915  0.6205
  485TMC3    C8 7221   1.769   2.436  12.701  0.0975  0.8214  0.4858
  485TMC3    O1 7222   1.676   2.317  12.383 -0.1058 -0.8884  0.0889
  485TMC3    O2 7223   1.883   2.473  12.678 -0.1101 -0.6403  0.3862
  486MPD2     C 7224   3.202   1.335  12.912 -0.5745  0.0126  0.1415
  486MPD2    C1 7225   3.234   1.266  12.798  0.6557  0.0224 -0.3958
  486MPD2    C2 7226   3.221   1.320  12.670 -0.1830 -0.3285 -0.3197
  486MPD2    C3 7227   3.198   1.455  12.663 -0.2044  0.4873  0.1895
  486MPD2    C4 7228   3.164   1.523  12.778  0.2329  0.0679 -0.1774
  486MPD2    C5 7229   3.169   1.464  12.899  0.6577 -0.3007 -0.6460
  486MPD2     H 7230   3.258   1.262  12.585  0.0839 -0.1085 -0.3537
  486MPD2    H1 7231   3.125   1.624  12.784  0.0653 -0.1304  2.0473
  486MPD2    H2 7232   3.211   1.296  13.013 -2.0276 -1.5422 -0.3210
  486MPD2    H3 7233   3.146   1.520  12.989  0.5966  1.6492 -1.8840
  486MPD2     N 7234   3.209   1.525  12.537  0.8797 -0.3673  0.0226
  486MPD2    H5 7235   3.204   1.475  12.448 -0.7083 -1.4446  0.7169
  486MPD2    N1 7236   3.270   1.134  12.827  0.2459  0.2504 -0.4877
  486MPD2    H7 7237   3.279   1.109  12.925  1.0996 -0.3673 -0.7213
  487TMC3    C1 7238   3.377   0.931  12.796 -0.0607  0.1936  0.6342
  487TMC3    C2 7239   3.353   0.805  12.741 -0.2753  0.0183  0.5855
  487TMC3    C3 7240   3.442   0.705  12.774 -0.0240 -0.1822  0.5205
  487TMC3    C4 7241   3.475   0.955  12.884 -0.3226 -0.0627 -0.3002
  487TMC3    C5 7242   3.558   0.850  12.919 -1.0007 -0.2737  0.5794
  487TMC3    C6 7243   3.542   0.724  12.867 -0.2338  0.0722 -0.8495
  487TMC3     C 7244   3.283   1.029  12.743  0.0664 -0.0432 -0.3756
  487TMC3     O 7245   3.255   1.018  12.626 -0.6393 -0.0554  0.2941
  487TMC3     H 7246   3.275   0.796  12.667 -0.3831  0.0023  0.7014
  487TMC3    H1 7247   3.507   1.051  12.923  0.7171 -1.1088  1.4453
  487TMC3    H2 7248   3.596   0.642  12.913 -1.2550  0.2067  0.5862
  487TMC3    C7 7249   3.580   0.852  13.066  0.7882  1.0420  0.7055
  487TMC3    C8 7250   3.369   0.584  12.790  0.1724  0.6610  1.1610
  487TMC3    O1 7251   3.507   0.922  13.131  0.1027 -0.3204 -0.3623
  487TMC3    O2 7252   3.427   0.478  12.786  0.3149  0.1463 -0.9145
  488MPD2     C 7253   3.525   3.089  17.024 -0.0330 -0.3395  0.2205
  488MPD2    C1 7254   3.465   3.205  16.990  0.2579  0.3661 -0.2099
  488MPD2    C2 7255   3.390   3.269  17.089 -0.5054  0.5128 -0.3002
  488MPD2    C3 7256   3.372   3.220  17.217  0.2181  0.8329  0.1997
  488MPD2    C4 7257   3.417   3.095  17.244 -0.2245 -0.4567 -0.0698
  488MPD2    C5 7258   3.498   3.039  17.149  0.6850  0.1467  0.1309
  488MPD2     H 7259   3.347   3.366  17.066  0.0237  0.9020  0.3686
  488MPD2    H1 7260   3.403   3.042  17.337  1.0981  0.5329  0.7066
  488MPD2    H2 7261   3.594   3.043  16.954 -1.0270  1.0829 -1.6967
  488MPD2    H3 7262   3.529   2.936  17.165  2.9521  0.2025 -4.0343
  488MPD2     N 7263   3.300   3.292  17.314  0.2920 -0.0273  0.2039
  488MPD2    H5 7264   3.266   3.382  17.282 -1.8771  0.0483  2.8114
  488MPD2    N1 7265   3.482   3.264  16.862 -0.4689  0.0573 -0.7670
  488MPD2    H7 7266   3.426   3.343  16.830 -1.4499  0.9120  3.0487
  489TMC3    C1 7267   3.195   3.351  17.514 -0.0979 -0.2728 -0.0294
  489TMC3    C2 7268   3.132   3.434  17.422  0.6565 -0.4221  0.2088
  489TMC3    C3 7269   3.110   3.561  17.470 -0.3088  0.0727  0.4744
  489TMC3    C4 7270   3.238   3.397  17.632 -0.3794  0.8984  0.0644
  489TMC3    C5 7271   3.221   3.530  17.669  0.6970 -0.0250  0.3602
  489TMC3    C6 7272   3.156   3.612  17.588  0.2834 -0.2288  0.8146
  489TMC3     C 7273   3.277   3.251  17.445 -0.0668  0.7952 -0.7230
  489TMC3     O 7274   3.316   3.153  17.509  0.3792 -0.0681 -0.0146
  489TMC3     H 7275   3.086   3.404  17.329  1.3054 -1.1784  0.1341
  489TMC3    H1 7276   3.292   3.325   0.007  2.7312  2.1992 -1.2198
  489TMC3    H2 7277   3.155   3.720  17.602  3.7392 -0.0902  0.1083
  489TMC3    C7 7278   3.252   3.585   0.113 -0.4879  0.0012  0.3656
  489TMC3    C8 7279   3.096   3.652  17.361  0.5627 -0.2821 -0.0241
  489TMC3    O1 7280   3.265   3.709   0.119  0.0197 -0.2631 -0.2665
  489TMC3    O2 7281   3.157   3.623  17.257 -0.1937 -1.2725  0.2308
  490MPD2     C 7282   4.708   3.108   0.317  0.0406 -0.0536  0.5213
  490MPD2    C1 7283   4.666   2.979   0.293  0.4584 -0.9792 -0.5712
  490MPD2    C2 7284   0.024   2.892   0.219  0.3692 -0.2845 -0.1952
  490MPD2    C3 7285   0.140   2.942   0.161 -0.1408  0.2000  0.1153
  490MPD2    C4 7286   0.175   3.073   0.188  0.4373  0.5752 -0.2057
  490MPD2    C5 7287   0.099   3.158   0.262  0.4746 -0.7379 -0.3634
  490MPD2     H 7288   4.713   2.791   0.194 -2.5669  0.1210  1.9244
  490MPD2    H1 7289   0.261   3.117   0.139 -1.1641  0.6987 -2.9000
  490MPD2    H2 7290   4.641   3.173   0.371  1.0028 -0.0328  1.7064
  490MPD2    H3 7291   0.130   3.262   0.273 -1.2334 -0.1156 -1.3818
  490MPD2     N 7292   0.234   2.872   0.083 -0.3425  0.6396  0.8150
  490MPD2    H5 7293   0.323   2.919   0.074  0.6297 -1.5483 -1.0063
  490MPD2    N1 7294   4.546   2.916   0.334  0.9231 -0.6654  0.4317
  490MPD2    H7 7295   4.518   2.831   0.284 -1.6799 -0.1590  1.0133
  491TMC3    C1 7296   4.342   2.868   0.430 -0.1116  0.4741 -0.2959
  491TMC3    C2 7297   4.301   2.827   0.551 -0.3832 -0.3686 -0.2465
  491TMC3    C3 7298   4.185   2.748   0.556 -0.7990  0.7222  0.0659
  491TMC3    C4 7299   4.275   2.835   0.315  0.2174 -0.9631 -0.1040
  491TMC3    C5 7300   4.174   2.749   0.322 -0.0260  0.1171  0.0244
  491TMC3    C6 7301   4.127   2.702   0.444 -0.0141  0.0622 -0.2931
  491TMC3     C 7302   4.454   2.952   0.430 -0.2965 -0.3827  0.3979
  491TMC3     O 7303   4.470   3.030   0.523 -0.2557 -0.1094 -0.1029
  491TMC3     H 7304   4.349   2.862   0.642  1.7991 -0.4832 -1.3610
  491TMC3    H1 7305   4.316   2.863   0.218  0.9880  1.9260  1.0508
  491TMC3    H2 7306   4.041   2.636   0.451 -0.0841  0.3431  1.5081
  491TMC3    C7 7307   4.103   2.721   0.205  0.5821  0.4496 -0.0194
  491TMC3    C8 7308   4.133   2.717   0.690  0.0893 -0.3651 -0.3592
  491TMC3    O1 7309   4.116   2.793   0.107 -0.1417 -0.5508 -0.2340
  491TMC3    O2 7310   4.069   2.611   0.696 -0.3180  0.0553  0.1689
  492MPD2     C 7311   0.252   2.434  11.618 -0.7566 -0.1305 -0.1314
  492MPD2    C1 7312   0.147   2.447  11.531 -0.1907 -0.2772 -0.5724
  492MPD2    C2 7313   0.017   2.438  11.580  0.0560  0.3881  0.7132
  492MPD2    C3 7314   4.718   2.417  11.716 -0.5374 -0.3669 -0.3276
  492MPD2    C4 7315   0.103   2.398  11.802 -0.6758  0.3536  0.3431
  492MPD2    C5 7316   0.231   2.415  11.753  0.3196  0.4576 -0.2983
  492MPD2     H 7317   4.651   2.454  11.518  0.1723 -1.1004  0.1667
  492MPD2    H1 7318   0.100   2.390  11.910  1.1152  1.7941  0.5024
  492MPD2    H2 7319   0.352   2.417  11.580  0.1350  1.2838  1.5602
  492MPD2    H3 7320   0.314   2.405  11.821  0.3072 -0.2629 -0.3943
  492MPD2     N 7321   4.589   2.409  11.774 -0.2757  0.4016  0.3697
  492MPD2    H5 7322   4.581   2.372  11.868 -0.4719  0.7711  0.4964
  492MPD2    N1 7323   0.177   2.461  11.395  0.2447  0.7984 -0.9421
  492MPD2    H7 7324   0.274   2.466  11.366  1.0976 -0.6427  1.7305
  493TMC3    C1 7325   0.140   2.466  11.167  1.1071 -0.2116 -0.4549
  493TMC3    C2 7326   0.244   2.550  11.151 -1.0493  0.1982 -0.0420
  493TMC3    C3 7327   0.286   2.591  11.026 -0.7629  0.0031 -0.5558
  493TMC3    C4 7328   0.060   2.424  11.062 -0.3385  0.1455  0.5212
  493TMC3    C5 7329   0.102   2.463  10.941 -0.0097  0.6075  0.1059
  493TMC3    C6 7330   0.210   2.544  10.916  0.6213 -0.2177 -0.2302
  493TMC3     C 7331   0.081   2.450  11.294  0.3260  0.7291 -0.4959
  493TMC3     O 7332   4.690   2.396  11.296  0.2215  0.4961  0.3710
  493TMC3     H 7333   0.291   2.596  11.238  2.5043 -1.0378 -1.3364
  493TMC3    H1 7334   4.700   2.352  11.070  0.4824 -0.7766  0.4964
  493TMC3    H2 7335   0.236   2.578  10.817 -3.0592 -0.6497 -1.3274
  493TMC3    C7 7336   0.054   2.388  10.830 -0.2353 -0.5340 -0.1805
  493TMC3    C8 7337   0.403   2.678  11.011  0.2493 -0.5115  0.6567
  493TMC3    O1 7338   0.064   2.452  10.725 -0.0431  0.0709 -0.0901
  493TMC3    O2 7339   0.462   2.722  11.111 -0.0866 -0.5640 -0.3202
  494TMC3    C1 7340   0.615   0.029   0.965  0.0848  0.9286  0.3982
  494TMC3    C2 7341   0.619   4.644   1.049 -0.1413 -0.2376 -0.4477
  494TMC3    C3 7342   0.600   4.520   1.000  0.0537  0.3649 -0.2471
  494TMC3    C4 7343   0.607   0.016   0.828 -0.3516 -0.1792  0.2186
  494TMC3    C5 7344   0.582   4.613   0.781  0.4043 -0.7102 -0.0031
  494TMC3    C6 7345   0.571   4.502   0.864 -0.7247  0.2804 -0.0674
  494TMC3     C 7346   0.559   0.150   1.026 -0.8474 -0.3021 -0.1284
  494TMC3     O 7347   0.521   0.130   1.143  0.0308 -0.1991  0.5073
  494TMC3     H 7348   0.636   4.658   1.156  0.1297  1.1933 -0.6774
  494TMC3    H1 7349   0.609   0.092   0.751  2.7724  0.5686  1.0284
  494TMC3    H2 7350   0.544   4.408   0.818 -0.7593  0.5486 -0.5869
  494TMC3    C7 7351   0.553   4.605   0.638 -0.4269  0.0346 -0.4302
  494TMC3    C8 7352   0.558   4.416   1.097 -0.1704  0.3443 -0.1334
  494TMC3    O1 7353   0.568   4.703   0.565 -0.3388  0.2272  0.1929
  494TMC3    O2 7354   0.522   4.437   1.211 -0.3250 -0.1450 -0.0893
  495TMC3    C1 7355   4.101   1.801  14.897  0.0330  0.6665  0.0936
  495TMC3    C2 7356   4.068   1.862  14.781  0.1444  0.4815  0.5031
  495TMC3    C3 7357   3.949   1.929  14.776 -0.2825 -0.3140  0.3628
  495TMC3    C4 7358   4.014   1.811  15.006  0.5093  0.5684  0.1024
  495TMC3    C5 7359   3.902   1.886  14.994 -0.4813  0.1083 -0.3870
  495TMC3    C6 7360   3.868   1.953  14.883  0.5361  0.0990 -0.5180
  495TMC3     C 7361   4.116   1.657  14.883  0.8062 -0.1821 -0.0476
  495TMC3     O 7362   4.034   1.586  14.943  0.0655 -0.1661 -0.0470
  495TMC3     H 7363   4.135   1.868  14.695  1.7962 -0.0858  1.7373
  495TMC3    H1 7364   4.039   1.757  15.097  2.1140 -0.8982 -1.2060
  495TMC3    H2 7365   3.773   2.001  14.864  0.0652 -0.1345  1.2381
  495TMC3    C7 7366   3.792   1.851  15.088  0.0635 -0.6294  0.3328
  495TMC3    C8 7367   3.867   1.891  14.667 -0.4869 -0.6898  0.1126
  495TMC3    O1 7368   3.680   1.868  15.043 -0.0442  0.2082 -0.6660
  495TMC3    O2 7369   3.761   1.948  14.650 -0.1527 -0.0080  0.3522
  496MPD2     C 7370   1.296   1.361  16.061 -0.4188 -0.2570  0.2164
  496MPD2    C1 7371   1.176   1.325  15.998 -0.0135  0.5793 -0.0683
  496MPD2    C2 7372   1.059   1.392  16.031 -0.3127 -0.6794 -0.5545
  496MPD2    C3 7373   1.061   1.492  16.129 -0.5714 -0.0145 -0.2097
  496MPD2    C4 7374   1.183   1.518  16.190 -0.3832  0.7062  0.3427
  496MPD2    C5 7375   1.303   1.452  16.160  0.7427 -0.4430  0.3421
  496MPD2     H 7376   0.969   1.358  15.980 -1.0844  2.1121 -1.0416
  496MPD2    H1 7377   1.194   1.601  16.259  3.4808  0.6916 -0.2735
  496MPD2    H2 7378   1.385   1.308  16.029  0.0961  1.1434 -0.6650
  496MPD2    H3 7379   1.389   1.482  16.219  1.3759  0.7913 -1.2051
  496MPD2     N 7380   0.947   1.554  16.174 -0.3368  0.0185 -0.4380
  496MPD2    H5 7381   0.961   1.613  16.256 -1.8687 -0.6430  0.3147
  496MPD2    N1 7382   1.178   1.234  15.892 -0.5047  0.7069  0.7447
  496MPD2    H7 7383   1.093   1.226  15.838  0.2802 -0.8224 -0.2639
  497TMC3    C1 7384   0.727   1.639  16.199 -0.2499 -0.9540 -0.2234
  497TMC3    C2 7385   0.610   1.674  16.140  0.5248  0.4054  0.2826
  497TMC3    C3 7386   0.532   1.766  16.205  0.6538 -0.1264 -0.1702
  497TMC3    C4 7387   0.749   1.661  16.331 -0.5605 -0.1813  0.0289
  497TMC3    C5 7388   0.668   1.747  16.398 -0.3047 -0.5148  0.3184
  497TMC3    C6 7389   0.567   1.807  16.333  0.1333 -0.4232  0.1191
  497TMC3     C 7390   0.821   1.549  16.126 -0.2324  0.9969  0.0149
  497TMC3     O 7391   0.788   1.490  16.024  1.1936  0.6076 -0.2204
  497TMC3     H 7392   0.590   1.659  16.034  0.0057  1.5766  0.2130
  497TMC3    H1 7393   0.837   1.616  16.375 -0.8659  0.1126  0.9334
  497TMC3    H2 7394   0.502   1.867  16.395 -0.5259 -2.2593  1.2259
  497TMC3    C7 7395   0.635   1.722  16.539 -0.3992  0.5959 -0.3738
  497TMC3    C8 7396   0.446   1.858  16.139 -0.7202 -0.1512 -0.5945
  497TMC3    O1 7397   0.525   1.744  16.584  0.3688  0.6150 -0.4662
  497TMC3    O2 7398   0.452   1.973  16.179  0.5324 -0.2113  0.1056
  498MPD2     C 7399   1.548   2.091   9.573 -0.0997 -0.6058 -0.6510
  498MPD2    C1 7400   1.581   1.997   9.668 -0.5391 -0.2556  0.2881
  498MPD2    C2 7401   1.493   1.892   9.687 -0.0615 -0.7714  0.3577
  498MPD2    C3 7402   1.383   1.874   9.610  0.3471  0.4090 -0.5489
  498MPD2    C4 7403   1.357   1.959   9.512 -0.0704  0.2435  0.6030
  498MPD2    C5 7404   1.441   2.067   9.496  0.0558 -0.2457 -0.3544
  498MPD2     H 7405   1.526   1.828   9.768 -1.0352  0.8037  1.9946
  498MPD2    H1 7406   1.276   1.952   9.441 -0.8112  1.4189  1.3280
  498MPD2    H2 7407   1.612   2.175   9.549 -1.2948  0.5911  0.3657
  498MPD2    H3 7408   1.415   2.141   9.421  3.4283  2.7202  1.3964
  498MPD2     N 7409   1.309   1.759   9.649  0.2169  0.0743 -0.0457
  498MPD2    H5 7410   1.340   1.707   9.731 -1.1468 -0.1366  0.3404
  498MPD2    N1 7411   1.695   2.003   9.746 -0.5510  0.2954  0.0656
  498MPD2    H7 7412   1.709   1.925   9.810  2.2636  1.4247  0.8370
  499TMC3    C1 7413   1.904   2.063   9.835  0.6838  0.2270  0.0970
  499TMC3    C2 7414   1.872   2.004   9.953 -0.0142 -0.1165 -0.3886
  499TMC3    C3 7415   1.976   1.992  10.041 -0.1676 -0.1586 -0.0344
  499TMC3    C4 7416   2.027   2.102   9.802  0.0187  1.0297  0.1471
  499TMC3    C5 7417   2.125   2.093   9.892  0.0098  0.2612 -0.3507
  499TMC3    C6 7418   2.103   2.034  10.019  0.3820 -0.5769  0.3112
  499TMC3     C 7419   1.810   2.081   9.729  0.0111  0.0370  0.0732
  499TMC3     O 7420   1.828   2.163   9.641 -0.0765  0.0527 -0.1455
  499TMC3     H 7421   1.772   1.971   9.979 -0.6796  2.2464  0.0668
  499TMC3    H1 7422   2.061   2.141   9.707 -0.4573 -1.3602 -0.9878
  499TMC3    H2 7423   2.186   2.023  10.088  1.5874 -3.2949 -1.5711
  499TMC3    C7 7424   2.261   2.094   9.841 -0.1069 -0.1110  0.2255
  499TMC3    C8 7425   1.946   1.949  10.178 -0.5330 -0.3826 -0.0507
  499TMC3    O1 7426   2.288   2.161   9.744  0.0819  0.5840 -0.0003
  499TMC3    O2 7427   1.855   1.870  10.200  0.2371 -0.9969  0.7636
  500MPD2     C 7428   4.204   3.246   9.918 -0.3369  0.0279  0.1888
  500MPD2    C1 7429   4.161   3.374   9.921 -0.6788  0.6632  0.8648
  500MPD2    C2 7430   4.051   3.397   9.843  0.3515  0.9652 -0.2070
  500MPD2    C3 7431   3.982   3.295   9.767 -0.8060 -0.0105 -0.3935
  500MPD2    C4 7432   4.029   3.169   9.778  0.3211  0.4323 -0.2903
  500MPD2    C5 7433   4.141   3.149   9.846 -0.3336  0.6716 -0.2677
  500MPD2     H 7434   4.009   3.497   9.835 -0.0342  1.0024  2.1932
  500MPD2    H1 7435   3.980   3.084   9.734 -2.5496  2.3818 -0.8312
  500MPD2    H2 7436   4.279   3.197   9.979  0.7962  1.0782 -0.3655
  500MPD2    H3 7437   4.183   3.049   9.850 -0.4257  0.6781  1.1192
  500MPD2     N 7438   3.868   3.324   9.697 -0.0160 -0.0059 -0.4607
  500MPD2    H5 7439   3.856   3.420   9.665 -0.6775  0.8778  2.4255
  500MPD2    N1 7440   4.220   3.478   9.981  0.2293  0.6318  0.3831
  500MPD2    H7 7441   4.175   3.569   9.972  1.1659  0.9016 -1.5817
  501TMC3    C1 7442   4.347   3.589  10.141 -0.2148  0.1327  0.9408
  501TMC3    C2 7443   4.264   3.698  10.132  0.5396  0.1766 -0.3539
  501TMC3    C3 7444   4.295   3.804  10.207 -0.6673 -0.3932  0.1836
  501TMC3    C4 7445   4.452   3.579  10.233  0.3547  0.6209 -0.0101
  501TMC3    C5 7446   4.479   3.684  10.314 -0.2225 -0.2083  0.0524
  501TMC3    C6 7447   4.408   3.802  10.298 -0.3476 -0.3872 -0.0619
  501TMC3     C 7448   4.320   3.465  10.074 -0.4587 -0.3499  0.4318
  501TMC3     O 7449   4.373   3.363  10.112  0.0028  0.0049 -0.1297
  501TMC3     H 7450   4.186   3.704  10.057  0.3932  3.0912  0.0173
  501TMC3    H1 7451   4.514   3.490  10.241  1.7125  1.4521 -1.3102
  501TMC3    H2 7452   4.426   3.882  10.370  0.5663 -0.6084 -0.0358
  501TMC3    C7 7453   4.550   3.644  10.434 -0.2289 -0.0571  0.4105
  501TMC3    C8 7454   4.224   3.930  10.194  0.2099 -0.2957 -0.0208
  501TMC3    O1 7455   4.613   3.537  10.432 -0.0034 -0.1886 -0.3671
  501TMC3    O2 7456   4.165   3.960  10.091 -0.1066 -0.5480  0.3929
  502TMC3    C1 7457   3.244   2.450  15.829  0.3892  0.5432  0.0009
  502TMC3    C2 7458   3.210   2.579  15.783  0.0677 -0.3354 -0.0232
  502TMC3    C3 7459   3.116   2.587  15.680 -0.1715  0.2628  0.3617
  502TMC3    C4 7460   3.201   2.335  15.770 -0.7531 -0.4562  0.2523
  502TMC3    C5 7461   3.110   2.358  15.670  0.1853  0.6877 -0.2967
  502TMC3    C6 7462   3.066   2.477  15.614 -0.0096 -0.0915  0.1990
  502TMC3     C 7463   3.360   2.441  15.923 -0.1147  0.0343 -1.1910
  502TMC3     O 7464   3.439   2.534  15.930  0.6314 -0.1476 -0.2751
  502TMC3     H 7465   3.253   2.664  15.835  0.9984 -0.8810  0.0970
  502TMC3    H1 7466   3.236   2.235  15.791 -1.6530 -0.5831  1.1206
  502TMC3    H2 7467   2.999   2.484  15.530  0.8936  0.9780 -0.4359
  502TMC3    C7 7468   3.051   2.239  15.619  0.1197 -0.0930 -0.0224
  502TMC3    C8 7469   3.113   2.709  15.605 -0.4008 -0.4961  0.4890
  502TMC3    O1 7470   3.107   2.133  15.632  0.9130  0.0750  0.0446
  502TMC3    O2 7471   3.104   2.698  15.483  0.2228  0.3605  0.7528
  503MPD2     C 7472   0.834   3.578  17.372  0.0784  0.2795 -0.2639
  503MPD2    C1 7473   0.779   3.604  17.495 -1.2149 -0.6739  0.1090
  503MPD2    C2 7474   0.803   3.520  17.600  0.6483  0.0362 -0.0062
  503MPD2    C3 7475   0.876   3.406  17.585 -0.7257 -0.1885 -0.1590
  503MPD2    C4 7476   0.941   3.385  17.466  0.3401 -0.1181 -0.0779
  503MPD2    C5 7477   0.918   3.476  17.357 -1.0529  0.1331 -0.6624
  503MPD2     H 7478   0.753   3.540   0.009  0.4974 -1.6441  0.2632
  503MPD2    H1 7479   1.016   3.310  17.446 -0.4308 -0.4865 -1.6145
  503MPD2    H2 7480   0.820   3.643  17.286  0.4546  1.7236  0.7743
  503MPD2    H3 7481   0.972   3.451  17.267 -2.1789  0.3364 -1.3878
  503MPD2     N 7482   0.884   3.316   0.014  0.1085  0.4499  0.8755
  503MPD2    H5 7483   0.836   3.345   0.099 -1.1096  2.5733 -0.5374
  503MPD2    N1 7484   0.699   3.717  17.522  0.4487 -0.2884 -0.2420
  503MPD2    H7 7485   0.658   3.731  17.613  0.5289  0.4512 -0.3215
  504TMC3    C1 7486   0.960   3.118   0.131  0.1547  0.6252  0.2197
  504TMC3    C2 7487   0.897   3.153   0.246 -0.1298  0.6194  0.0039
  504TMC3    C3 7488   0.891   3.051   0.335  0.6249 -0.0222  0.4483
  504TMC3    C4 7489   1.025   3.002   0.119  1.1203  0.7206  0.2777
  504TMC3    C5 7490   1.039   2.916   0.218  0.3543 -0.0389 -0.6812
  504TMC3    C6 7491   0.972   2.938   0.334 -0.0746  0.7568  0.7569
  504TMC3     C 7492   0.944   3.190   0.009  0.0663  0.5010 -0.1705
  504TMC3     O 7493   0.996   3.137  17.598 -0.0791  0.2654  0.8766
  504TMC3     H 7494   0.819   3.229   0.240 -3.0594 -2.2991  1.2620
  504TMC3    H1 7495   1.084   2.973   0.032  1.5937  1.6085  0.2992
  504TMC3    H2 7496   0.978   2.869   0.418  1.0340 -0.4918 -0.3273
  504TMC3    C7 7497   1.108   2.790   0.194  0.1870 -0.1684 -0.4221
  504TMC3    C8 7498   0.812   3.076   0.453 -0.4287 -0.5206 -0.5978
  504TMC3    O1 7499   1.200   2.790   0.115  0.7057 -0.2706  0.5262
  504TMC3    O2 7500   0.809   3.197   0.480 -0.2684 -0.5947  0.1409
  505MPD2     C 7501   0.657   1.176  10.533  0.2883 -0.8309  0.0384
  505MPD2    C1 7502   0.655   1.054  10.470  0.2049  0.1832  0.2079
  505MPD2    C2 7503   0.770   0.974  10.472  0.8329 -0.7096 -0.6658
  505MPD2    C3 7504   0.885   1.010  10.545 -0.1217  0.6523 -0.5398
  505MPD2    C4 7505   0.889   1.131  10.607  0.3622  0.3419 -0.0612
  505MPD2    C5 7506   0.771   1.205  10.605  0.7680  0.1839 -0.2361
  505MPD2     H 7507   0.770   0.869  10.445  2.1547 -0.5179 -1.4046
  505MPD2    H1 7508   0.966   1.173  10.671  0.1752  0.5620  0.0207
  505MPD2    H2 7509   0.563   1.227  10.547  0.4067 -0.8471  0.9428
  505MPD2    H3 7510   0.771   1.287  10.675  4.2742 -0.6520  0.8012
  505MPD2     N 7511   0.997   0.920  10.538  0.1601  1.0505 -0.2458
  505MPD2    H5 7512   0.984   0.833  10.488  3.0970 -1.1379  2.7666
  505MPD2    N1 7513   0.539   1.004  10.402 -0.0455  0.1755 -0.3140
  505MPD2    H7 7514   0.461   1.067  10.386 -0.7488 -0.4132  0.8222
  506TMC3    C1 7515   0.394   0.857  10.275 -0.6075  0.6007 -0.6551
  506TMC3    C2 7516   0.370   0.946  10.177  0.3463  0.1714  0.3693
  506TMC3    C3 7517   0.315   0.887  10.063 -0.2409  0.9850  0.1163
  506TMC3    C4 7518   0.382   0.720  10.255 -0.1443  0.0659  0.2720
  506TMC3    C5 7519   0.341   0.670  10.132 -0.2058 -0.0623 -0.1270
  506TMC3    C6 7520   0.289   0.752  10.044 -0.0883 -0.3059 -0.3692
  506TMC3     C 7521   0.531   0.881  10.335 -0.3100 -0.2536 -0.3283
  506TMC3     O 7522   0.622   0.809  10.295 -0.2153 -0.0565 -0.3012
  506TMC3     H 7523   0.388   1.053  10.178 -0.6274  0.3136  2.0364
  506TMC3    H1 7524   0.423   0.649  10.326 -0.1573 -0.6303 -0.4184
  506TMC3    H2 7525   0.278   0.712   9.944  1.5546 -2.1774  0.2060
  506TMC3    C7 7526   0.435   0.573  10.077  0.6156  0.2797  0.0784
  506TMC3    C8 7527   0.329   0.972   9.944 -0.4949  0.1858 -0.3603
  506TMC3    O1 7528   0.395   0.513   9.979  0.6754 -0.1085 -0.3260
  506TMC3    O2 7529   0.259   0.941   9.849 -0.7521  0.0572 -0.4570
  507TMC3    C1 7530   1.714   2.365  15.014  0.1195  0.1031 -0.0963
  507TMC3    C2 7531   1.661   2.274  14.927  0.0870 -0.3285 -0.0542
  507TMC3    C3 7532   1.676   2.304  14.794 -0.2304  0.1290  0.7086
  507TMC3    C4 7533   1.788   2.471  14.977 -0.2111 -0.3156  0.1476
  507TMC3    C5 7534   1.815   2.482  14.840  0.1288 -0.0570 -1.0280
  507TMC3    C6 7535   1.761   2.402  14.745 -0.3866 -0.0876 -0.2573
  507TMC3     C 7536   1.659   2.358  15.149 -0.1467  0.4320 -0.3998
  507TMC3     O 7537   1.727   2.400  15.239 -0.5134  0.5386  0.2478
  507TMC3     H 7538   1.599   2.190  14.957 -0.3384  0.4471  1.2537
  507TMC3    H1 7539   1.822   2.545  15.047  1.7248 -0.1027 -1.0247
  507TMC3    H2 7540   1.778   2.427  14.641  0.1707  1.4982  0.2238
  507TMC3    C7 7541   1.797   2.617  14.794 -0.2383  0.7070 -0.7137
  507TMC3    C8 7542   1.545   2.305  14.732  0.3472  0.5006 -0.7233
  507TMC3    O1 7543   1.697   2.637  14.722 -0.2305 -0.3263  0.8570
  507TMC3    O2 7544   1.459   2.231  14.777  0.1933  0.3279 -0.1941
  508MPD2     C 7545   2.324   0.293  16.568  0.0368 -0.4712 -0.0893
  508MPD2    C1 7546   2.459   0.306  16.537  0.0411 -0.1816 -0.0443
  508MPD2    C2 7547   2.494   0.315  16.402 -0.1703 -0.4161  0.3699
  508MPD2    C3 7548   2.394   0.314  16.309 -0.3166  0.3739  0.3856
  508MPD2    C4 7549   2.266   0.288  16.338  0.5568  0.2482 -0.1248
  508MPD2    C5 7550   2.230   0.283  16.468 -0.0517  0.0513 -0.0545
  508MPD2     H 7551   2.592   0.350  16.371 -2.0661  3.4389 -1.1921
  508MPD2    H1 7552   2.179   0.289  16.273  0.9334 -1.9392 -0.6663
  508MPD2    H2 7553   2.297   0.273  16.672 -0.4144 -1.7581 -0.4599
  508MPD2    H3 7554   2.124   0.283  16.489 -0.0149 -1.1427  0.1049
  508MPD2     N 7555   2.436   0.345  16.177  0.0709 -0.1690  0.0233
  508MPD2    H5 7556   2.534   0.361  16.158 -0.1097  0.4194 -0.4155
  508MPD2    N1 7557   2.556   0.320  16.638 -0.3043  0.1026  0.9634
  508MPD2    H7 7558   2.531   0.321  16.736 -0.8145  2.1305  0.8157
  509TMC3    C1 7559   2.429   0.516  15.730  0.4184 -0.0532  0.1209
  509TMC3    C2 7560   2.565   0.543  15.738 -0.2367 -0.2955  0.4098
  509TMC3    C3 7561   2.623   0.529  15.857  0.4192  0.6714 -0.1249
  509TMC3    C4 7562   2.359   0.469  15.847 -0.2263 -1.0911 -0.4167
  509TMC3    C5 7563   2.432   0.441  15.954 -0.0441  0.0757 -0.1497
  509TMC3    C6 7564   2.563   0.474  15.969 -0.0759 -0.6258 -0.3727
  509TMC3     C 7565   2.351   0.551  15.610 -0.5943 -0.5823 -0.2100
  509TMC3     O 7566   2.247   0.494  15.611 -0.2267 -0.2187  0.2598
  509TMC3     H 7567   2.614   0.572  15.646  0.3313  1.0574  1.1392
  509TMC3    H1 7568   2.255   0.440  15.844 -0.1154 -1.1485 -3.9201
  509TMC3    H2 7569   2.615   0.467  16.064 -1.5255 -0.4270  0.4272
  509TMC3    C7 7570   2.357   0.375  16.069 -0.0326  0.2163 -0.4940
  509TMC3    C8 7571   2.767   0.559  15.882 -0.5222  0.0924 -0.0241
  509TMC3    O1 7572   2.237   0.355  16.054  0.4842 -0.0835 -0.4188
  509TMC3    O2 7573   2.823   0.484  15.964  0.3967  0.1440  0.3211
  510MPD2     C 7574   0.308   1.877  14.729 -0.0224 -0.1079  0.5623
  510MPD2    C1 7575   0.354   1.760  14.775  0.4078 -0.4925  0.3101
  510MPD2    C2 7576   0.479   1.715  14.736 -0.2526  0.6819 -0.0845
  510MPD2    C3 7577   0.553   1.787  14.643  1.1533  0.1734  0.4755
  510MPD2    C4 7578   0.495   1.892  14.585  0.4203 -1.2594  0.0538
  510MPD2    C5 7579   0.370   1.934  14.619 -0.2026 -0.3092 -1.0272
  510MPD2     H 7580   0.529   1.626  14.773 -0.3111  1.0766  0.9265
  510MPD2    H1 7581   0.538   1.940  14.497  0.3421  0.4494  0.9420
  510MPD2    H2 7582   0.204   1.898  14.752  0.7599  3.2009  0.9458
  510MPD2    H3 7583   0.330   2.007  14.550  0.7452  0.1862 -1.0599
  510MPD2     N 7584   0.685   1.748  14.616 -0.5264  0.4863 -0.1008
  510MPD2    H5 7585   0.726   1.678  14.676  0.8889  1.7632  0.4366
  510MPD2    N1 7586   0.270   1.684  14.867 -0.2609 -0.1460  0.4684
  510MPD2    H7 7587   0.179   1.726  14.886  0.7049  1.6484  1.0827
  511TMC3    C1 7588   0.197   1.493  14.980  0.2817  0.3995  0.2208
  511TMC3    C2 7589   0.130   1.541  15.086 -0.4816 -0.8303  0.1051
  511TMC3    C3 7590   0.037   1.464  15.150 -0.1187  0.2685 -0.0279
  511TMC3    C4 7591   0.165   1.372  14.932 -0.1788  0.1806  0.3351
  511TMC3    C5 7592   0.059   1.300  14.979  0.0855 -0.0461 -0.0237
  511TMC3    C6 7593   0.004   1.341  15.099  0.3854  0.5129 -0.4571
  511TMC3     C 7594   0.305   1.561  14.919 -0.5983 -0.3459  0.2401
  511TMC3     O 7595   0.403   1.491  14.903  0.6709 -0.4155 -0.0707
  511TMC3     H 7596   0.156   1.640  15.123 -1.3083 -0.3859 -0.4909
  511TMC3    H1 7597   0.206   1.347  14.835  0.7835 -0.2974  0.8692
  511TMC3    H2 7598   4.638   1.295  15.144  1.7775 -1.1584  0.5705
  511TMC3    C7 7599   0.003   1.186  14.907  0.5497  0.7101  0.9682
  511TMC3    C8 7600   0.009   1.503  15.286 -0.4465  0.1406  0.5368
  511TMC3    O1 7601   0.041   1.174  14.792 -0.0867  0.0174 -0.3585
  511TMC3    O2 7602   4.712   1.621  15.318 -0.3489 -0.4293  0.3155
  512TMC3    C1 7603   3.890   1.122  13.494  0.5242 -0.4782  0.5478
  512TMC3    C2 7604   3.958   1.063  13.599  0.6336 -0.1337 -0.1324
  512TMC3    C3 7605   4.061   0.979  13.571  0.0837 -0.2613  0.0429
  512TMC3    C4 7606   3.902   1.069  13.364  0.5546 -0.6766  0.0358
  512TMC3    C5 7607   4.002   0.978  13.343 -0.6729 -0.2993 -0.3214
  512TMC3    C6 7608   4.089   0.939  13.442  0.1698 -0.1414 -0.3298
  512TMC3     C 7609   3.798   1.230  13.521  0.4033  0.1158 -0.6963
  512TMC3     O 7610   3.800   1.274  13.634  0.5607  0.3062  0.6788
  512TMC3     H 7611   3.954   1.094  13.702  3.2601  0.2360 -0.1421
  512TMC3    H1 7612   3.851   1.110  13.277 -1.1059  0.8166  1.7306
  512TMC3    H2 7613   4.178   0.878  13.428 -1.2385 -2.1956 -0.3391
  512TMC3    C7 7614   4.027   0.929  13.210  0.1727 -0.1903 -0.5210
  512TMC3    C8 7615   4.171   0.969  13.656 -0.3972  1.0367  0.0381
  512TMC3    O1 7616   3.986   0.997  13.120 -0.6571 -0.0788 -0.2260
  512TMC3    O2 7617   4.242   0.870  13.655 -0.3424 -0.3041  0.4986
  513MPD2     C 7618   1.011   1.384  13.440  0.3066 -0.2344  0.1030
  513MPD2    C1 7619   0.984   1.246  13.423 -0.7081  0.3890  0.4029
  513MPD2    C2 7620   1.049   1.159  13.509 -0.0520 -0.2287 -0.2719
  513MPD2    C3 7621   1.144   1.208  13.596  0.0404 -0.1935  0.1690
  513MPD2    C4 7622   1.166   1.342  13.614 -0.6978  0.3804  0.5707
  513MPD2    C5 7623   1.098   1.433  13.534  0.5696 -0.3216 -0.3558
  513MPD2     H 7624   1.026   1.053  13.497  1.2227 -0.4809 -0.4736
  513MPD2    H1 7625   1.224   1.388  13.693  0.0603  0.9877 -0.3417
  513MPD2    H2 7626   0.948   1.459  13.393 -0.4249 -0.0328  1.4233
  513MPD2    H3 7627   1.101   1.542  13.541  1.6412 -0.4920  1.6873
  513MPD2     N 7628   1.212   1.111  13.670 -0.6776 -0.2266  0.1172
  513MPD2    H5 7629   1.200   1.015  13.641  2.8174 -1.1475  1.6586
  513MPD2    N1 7630   0.904   1.193  13.319 -0.0989 -0.5067  0.6331
  513MPD2    H7 7631   0.901   1.092  13.305 -0.7671 -0.6679  2.0163
  514TMC3    C1 7632   0.796   1.173  13.116  0.1754 -0.3241  0.5389
  514TMC3    C2 7633   0.856   1.207  13.001  0.3441 -0.7080  0.1919
  514TMC3    C3 7634   0.919   1.106  12.935 -1.0510 -0.2520  0.0368
  514TMC3    C4 7635   0.777   1.047  13.160 -0.3953  0.6776 -0.1646
  514TMC3    C5 7636   0.846   0.944  13.094  0.3646 -0.0220  0.4951
  514TMC3    C6 7637   0.925   0.978  12.982  0.5016  0.0201  0.2209
  514TMC3     C 7638   0.831   1.266  13.226  0.0615  0.0261 -0.9242
  514TMC3     O 7639   0.847   1.385  13.200  0.6431  0.3573  0.3570
  514TMC3     H 7640   0.868   1.310  12.971  2.2809  0.1229  3.8036
  514TMC3    H1 7641   0.712   1.024  13.244 -0.6450  0.3463 -0.4457
  514TMC3    H2 7642   0.995   0.906  12.943 -0.4134  0.6968 -2.6641
  514TMC3    C7 7643   0.900   0.857  13.194 -0.0588  0.4402  0.5970
  514TMC3    C8 7644   1.045   1.149  12.875 -0.2887  0.0852 -0.0645
  514TMC3    O1 7645   0.884   0.893  13.313  0.4436 -0.6786  0.5147
  514TMC3    O2 7646   1.148   1.093  12.911  0.0075 -0.3429  0.3470
  515MPD2     C 7647   4.181   3.072  14.759 -0.2131  0.2265  0.0034
  515MPD2    C1 7648   4.199   2.937  14.757 -0.8579  0.1448 -0.2001
  515MPD2    C2 7649   4.283   2.880  14.857 -0.9394  0.2756  0.0736
  515MPD2    C3 7650   4.361   2.956  14.939  1.1283  0.4978  0.2247
  515MPD2    C4 7651   4.351   3.100  14.929 -0.0319  0.3901 -0.1645
  515MPD2    C5 7652   4.263   3.153  14.839  0.1930  0.7741  0.3649
  515MPD2     H 7653   4.284   2.771  14.863 -1.7734  0.3322  1.4619
  515MPD2    H1 7654   4.413   3.157  14.997 -1.2608  0.1363  1.1657
  515MPD2    H2 7655   4.113   3.122  14.691 -0.3909 -0.4123 -0.2874
  515MPD2    H3 7656   4.244   3.260  14.831  0.7073  0.9865  1.8350
  515MPD2     N 7657   4.447   2.916  15.043 -0.4706  0.5435  0.0249
  515MPD2    H5 7658   4.495   2.988  15.095  0.1844 -0.1847  0.4342
  515MPD2    N1 7659   4.112   2.856  14.671 -0.0060 -0.3159  0.0917
  515MPD2    H7 7660   4.113   2.755  14.683 -0.8179 -0.1453  1.5173
  516TMC3    C1 7661   3.949   2.794  14.502 -0.0504  0.1228 -0.1353
  516TMC3    C2 7662   3.884   2.832  14.385 -0.1235  0.3943  0.2380
  516TMC3    C3 7663   3.768   2.770  14.361  0.1158 -0.1179 -0.0884
  516TMC3    C4 7664   3.896   2.695  14.586 -0.2877 -0.1089 -0.2658
  516TMC3    C5 7665   3.779   2.635  14.549  0.3468  0.4197  0.4224
  516TMC3    C6 7666   3.717   2.667  14.432  0.8457  0.4450  0.3881
  516TMC3     C 7667   4.036   2.898  14.565  0.5983 -0.6901  0.2355
  516TMC3     O 7668   4.018   3.012  14.520 -0.0780 -0.4433  0.4724
  516TMC3     H 7669   3.929   2.910  14.325 -1.3266  0.1435 -1.0024
  516TMC3    H1 7670   3.961   2.659  14.666  1.2054  0.3414 -1.2707
  516TMC3    H2 7671   3.627   2.619  14.396  1.6560  0.3172 -1.4330
  516TMC3    C7 7672   3.717   2.552  14.651 -0.5832  0.3328  0.8384
  516TMC3    C8 7673   3.693   2.815  14.242 -0.2223 -0.5431 -0.2112
  516TMC3    O1 7674   3.778   2.554  14.755 -0.3026  0.3699  0.1659
  516TMC3    O2 7675   3.622   2.732  14.185 -0.1867  0.1192  0.5239
  517MPD2     C 7676   3.157   4.240  17.604  0.0800  0.1558  0.3474
  517MPD2    C1 7677   3.283   4.232  17.660 -0.1980  0.2205 -0.2833
  517MPD2    C2 7678   3.319   4.332   0.062 -0.0019 -0.3217  0.3175
  517MPD2    C3 7679   3.238   4.438   0.093 -0.4519  0.6384 -0.3217
  517MPD2    C4 7680   3.116   4.444   0.039  0.5178 -0.3660  0.3437
  517MPD2    C5 7681   3.075   4.339  17.646  0.6514  0.2887  0.3273
  517MPD2     H 7682   3.423   4.341   0.092  0.6708  0.6325 -2.2397
  517MPD2    H1 7683   3.049   4.522   0.073 -0.4305 -0.4127 -1.3947
  517MPD2    H2 7684   3.112   4.162  17.544 -1.6270  1.0820  0.4185
  517MPD2    H3 7685   2.970   4.345  17.616  1.0138  1.1207 -0.7989
  517MPD2     N 7686   3.270   4.531   0.193  0.0385  0.0836  0.3088
  517MPD2    H5 7687   3.212   4.612   0.213  1.6565  0.5459  3.1829
  517MPD2    N1 7688   3.375   4.129  17.622 -0.6504  0.4813  0.1723
  517MPD2    H7 7689   3.471   4.146  17.649 -0.5133 -0.0041 -0.0162
  518TMC3    C1 7690   3.457   3.946  17.499  0.1155  0.1713 -0.3704
  518TMC3    C2 7691   3.437   3.828  17.433 -0.4539 -0.6528  0.5119
  518TMC3    C3 7692   3.551   3.766  17.376 -0.3342 -0.2735 -0.0445
  518TMC3    C4 7693   3.582   4.002  17.519 -0.1466 -0.8163  0.4875
  518TMC3    C5 7694   3.687   3.932  17.464  0.7658  0.2109  0.3208
  518TMC3    C6 7695   3.672   3.816  17.394 -0.1879  0.0445 -0.2018
  518TMC3     C 7696   3.342   4.021  17.545  0.7586  1.0331 -0.3558
  518TMC3     O 7697   3.236   3.964  17.523  0.6096 -0.4380 -0.4915
  518TMC3     H 7698   3.340   3.781  17.424 -0.4521 -0.3801 -0.9222
  518TMC3    H1 7699   3.602   4.100  17.562 -0.5763  0.5988 -2.5137
  518TMC3    H2 7700   3.761   3.776  17.345 -0.9649  0.9861 -2.4071
  518TMC3    C7 7701   3.819   3.978  17.507 -0.4187 -0.8560  0.1267
  518TMC3    C8 7702   3.549   3.623  17.365 -0.1288 -0.3752  0.4590
  518TMC3    O1 7703   3.825   4.082  17.577  0.4031  0.3599 -0.3761
  518TMC3    O2 7704   3.468   3.561  17.427 -0.0627  0.4338  0.2452
  519MPD2     C 7705   0.644   2.970  14.603  0.2315 -0.6743  0.0969
  519MPD2    C1 7706   0.675   2.977  14.468  0.3862  0.3754  0.1040
  519MPD2    C2 7707   0.736   2.872  14.411 -0.5055 -0.3199 -0.8564
  519MPD2    C3 7708   0.756   2.750  14.478 -0.4712 -0.4552 -0.3932
  519MPD2    C4 7709   0.722   2.743  14.608 -0.2712 -0.1707 -0.3873
  519MPD2    C5 7710   0.665   2.852  14.670 -0.0618  0.3988 -0.2656
  519MPD2     H 7711   0.756   2.867  14.305 -0.2519 -0.2029 -0.8134
  519MPD2    H1 7712   0.732   2.653  14.668  0.2145 -0.0005 -0.2123
  519MPD2    H2 7713   0.606   3.056  14.656  0.6959 -0.0628 -0.5600
  519MPD2    H3 7714   0.639   2.846  14.775 -1.4421 -0.5572 -0.6593
  519MPD2     N 7715   0.801   2.640  14.399 -0.4501 -0.1238 -0.1429
  519MPD2    H5 7716   0.830   2.662  14.304 -2.3336  1.0593 -0.4432
  519MPD2    N1 7717   0.623   3.088  14.392 -0.6837  0.5536 -0.3297
  519MPD2    H7 7718   0.563   3.154  14.440  0.9544 -0.0614  2.5305
  520TMC3    C1 7719   0.832   2.429  14.336 -0.0897 -0.3036 -0.5033
  520TMC3    C2 7720   0.769   2.461  14.217  0.6748 -0.0429  0.3590
  520TMC3    C3 7721   0.783   2.374  14.109 -0.1654 -0.2912  0.2928
  520TMC3    C4 7722   0.894   2.318  14.356 -0.3748  0.2233  0.4173
  520TMC3    C5 7723   0.905   2.233  14.246 -0.5434 -0.2164 -0.5969
  520TMC3    C6 7724   0.864   2.271  14.120 -0.2743 -0.0043  0.4007
  520TMC3     C 7725   0.811   2.514  14.451 -0.6325  0.4731 -0.0505
  520TMC3     O 7726   0.836   2.470  14.563 -0.7223 -1.0735  0.3822
  520TMC3     H 7727   0.692   2.538  14.220  0.6348  0.0234 -1.8109
  520TMC3    H1 7728   0.945   2.282  14.444  0.6116  2.8225  0.9033
  520TMC3    H2 7729   0.849   2.196  14.043  1.0626 -0.3812  0.5011
  520TMC3    C7 7730   1.005   2.135  14.256 -0.2412 -0.3173  0.0235
  520TMC3    C8 7731   0.731   2.402  13.973 -0.2662  0.3515 -0.0865
  520TMC3    O1 7732   1.019   2.066  14.357  0.2859 -0.1742  0.0985
  520TMC3    O2 7733   0.805   2.368  13.882 -0.2576 -0.6618 -0.2971
  521MPD2     C 7734   1.557   1.047   0.197  0.8630  0.2781 -0.1072
  521MPD2    C1 7735   1.527   0.943   0.113 -0.4219 -0.4787  0.0467
  521MPD2    C2 7736   1.627   0.860   0.072 -0.2032  0.1494  0.2992
  521MPD2    C3 7737   1.759   0.878   0.111 -0.6981 -0.3276 -0.7816
  521MPD2    C4 7738   1.790   0.976   0.208  0.0334  0.2105  0.0929
  521MPD2    C5 7739   1.686   1.056   0.243  0.7078  0.3200 -0.6075
  521MPD2     H 7740   1.603   0.789  17.679 -2.5548 -0.7791  1.8764
  521MPD2    H1 7741   1.889   1.008   0.239  0.4136  0.8002 -1.7481
  521MPD2    H2 7742   1.490   1.130   0.213 -0.5300 -0.6527 -1.1014
  521MPD2    H3 7743   1.706   1.142   0.307 -0.1961 -0.1776  0.3534
  521MPD2     N 7744   1.855   0.790   0.042 -0.1004  1.1943  0.1798
  521MPD2    H5 7745   1.812   0.718  17.670  0.2045  1.2914 -0.1647
  521MPD2    N1 7746   1.388   0.934   0.074 -0.3580  0.2091 -0.3104
  521MPD2    H7 7747   1.318   0.999   0.107  0.9327  0.2638  2.3516
  522TMC3    C1 7748   2.063   0.699  17.664 -0.3827 -0.5732  0.4318
  522TMC3    C2 7749   2.179   0.647   0.031 -0.5556 -0.2893 -0.1624
  522TMC3    C3 7750   2.243   0.561  17.632 -0.1750  0.1188  0.6866
  522TMC3    C4 7751   2.005   0.668  17.547 -0.4187  0.3967 -0.0013
  522TMC3    C5 7752   2.060   0.556  17.486 -0.0527 -0.7368 -0.6872
  522TMC3    C6 7753   2.180   0.507  17.526  0.7302  0.1861  0.1067
  522TMC3     C 7754   1.990   0.785   0.068 -0.5148  0.0774  0.5190
  522TMC3     O 7755   2.049   0.861   0.139  0.1207  0.1276  0.1511
  522TMC3     H 7756   2.214   0.672   0.131 -0.8570 -0.9407  0.1055
  522TMC3    H1 7757   1.926   0.725  17.500 -0.7453  0.8527  1.0897
  522TMC3    H2 7758   2.231   0.430  17.470  0.3946 -0.3228  0.4994
  522TMC3    C7 7759   2.024   0.527  17.347 -0.8046 -0.3882  0.3689
  522TMC3    C8 7760   2.381   0.517  17.649  0.1256 -0.6010 -0.0121
  522TMC3    O1 7761   2.106   0.470  17.276  0.2501 -0.3587 -0.0065
  522TMC3    O2 7762   2.415   0.503   0.078 -0.1171  0.1798  0.4863
  523MPD2     C 7763   4.251   0.228  10.508 -0.4358  0.5694 -0.4715
  523MPD2    C1 7764   4.244   0.165  10.386 -0.0175 -0.6324 -0.2737
  523MPD2    C2 7765   4.156   0.217  10.296 -0.1530  0.2232 -0.1323
  523MPD2    C3 7766   4.062   0.309  10.333  0.3831  0.3660 -1.0035
  523MPD2    C4 7767   4.072   0.369  10.452  0.9291 -0.3724 -0.2539
  523MPD2    C5 7768   4.166   0.328  10.543  0.2638  0.2563  0.7681
  523MPD2     H 7769   4.151   0.166  10.200 -0.0336 -0.1062  0.0407
  523MPD2    H1 7770   4.001   0.444  10.484  0.8177  0.6040 -2.8027
  523MPD2    H2 7771   4.312   0.183  10.586 -2.2285 -0.9050  0.0958
  523MPD2    H3 7772   4.166   0.380  10.638 -1.7810 -1.3293  1.6425
  523MPD2     N 7773   3.970   0.358  10.237  0.0508 -0.7614  0.4681
  523MPD2    H5 7774   3.918   0.434  10.279  0.2405  0.4353 -1.4343
  523MPD2    N1 7775   4.329   0.055  10.357 -0.4348  0.3587  0.4945
  523MPD2    H7 7776   4.397   0.047  10.432  0.6560  1.0654 -0.4330
  524TMC3    C1 7777   3.804   0.368  10.067 -0.0966  0.2233 -0.8116
  524TMC3    C2 7778   3.803   0.341   9.931 -0.6926 -0.3205  0.1759
  524TMC3    C3 7779   3.736   0.431   9.852  0.3453  0.4056 -0.4185
  524TMC3    C4 7780   3.755   0.481  10.117  0.1965  0.4421 -0.0736
  524TMC3    C5 7781   3.690   0.564  10.028  0.0434  0.3653 -0.3246
  524TMC3    C6 7782   3.681   0.550   9.895 -0.4267 -0.0628 -0.3026
  524TMC3     C 7783   3.913   0.291  10.125  0.4251  0.2864  0.3737
  524TMC3     O 7784   3.953   0.190  10.062  0.5845 -0.0882 -0.4622
  524TMC3     H 7785   3.808   0.243   9.885  1.3057  0.1153 -0.5040
  524TMC3    H1 7786   3.757   0.505  10.223 -1.8181 -0.9672  0.2976
  524TMC3    H2 7787   3.654   0.631   9.829 -2.0071 -1.5469 -1.4704
  524TMC3    C7 7788   3.616   0.670  10.089  0.3426 -0.1000  0.0388
  524TMC3    C8 7789   3.745   0.415   9.705  0.2975  0.4730 -0.1009
  524TMC3    O1 7790   3.655   0.699  10.202 -0.3572  0.0319  0.5771
  524TMC3    O2 7791   3.817   0.324   9.666  0.4813  0.0842  0.3633
  525MPD2     C 7792   1.995   2.152  14.613  0.0850 -0.0031  0.1907
  525MPD2    C1 7793   2.109   2.170  14.686 -0.6332  0.1269 -0.4173
  525MPD2    C2 7794   2.190   2.276  14.651  0.5062 -0.6944  0.0821
  525MPD2    C3 7795   2.159   2.358  14.545 -0.7153  0.5468  0.1159
  525MPD2    C4 7796   2.049   2.341  14.469 -0.0833 -0.1361  0.4237
  525MPD2    C5 7797   1.977   2.234  14.504  0.0796  0.2958  0.0849
  525MPD2     H 7798   2.277   2.293  14.713  1.5960 -1.6192 -1.1851
  525MPD2    H1 7799   2.024   2.406  14.386  1.5599  0.1990  0.1951
  525MPD2    H2 7800   1.919   2.077  14.629  0.2867 -0.5919 -1.7069
  525MPD2    H3 7801   1.889   2.211  14.444 -0.7206 -0.4195  1.5241
  525MPD2     N 7802   2.235   2.473  14.526 -1.0412 -0.7591 -0.1640
  525MPD2    H5 7803   2.192   2.553  14.479  1.2061  0.9962  0.7647
  525MPD2    N1 7804   2.152   2.084  14.789  0.3801  0.3807  0.1538
  525MPD2    H7 7805   2.247   2.092  14.824  1.6382 -3.2961 -2.3254
  526TMC3    C1 7806   2.178   1.889  14.906 -0.2301  0.1951 -0.2004
  526TMC3    C2 7807   2.124   1.789  14.988 -0.2353  0.0053 -0.0395
  526TMC3    C3 7808   2.209   1.703  15.050  0.2987  0.3341 -0.2339
  526TMC3    C4 7809   2.312   1.897  14.890 -1.0224  0.0544  0.4916
  526TMC3    C5 7810   2.395   1.804  14.950 -0.5211  0.0954  0.5642
  526TMC3    C6 7811   2.345   1.703  15.028 -0.7875 -0.0753  0.2856
  526TMC3     C 7812   2.086   1.976  14.832  0.1559  0.7666 -0.4793
  526TMC3     O 7813   1.971   1.938  14.806 -0.0017  0.2716 -0.2523
  526TMC3     H 7814   2.018   1.769  14.980 -0.0949 -0.2338 -1.2907
  526TMC3    H1 7815   2.352   1.976  14.827  2.7696 -1.8887  0.4351
  526TMC3    H2 7816   2.412   1.646  15.091  1.6148  1.6237 -0.7450
  526TMC3    C7 7817   2.538   1.813  14.930  0.2796  0.0734  0.0131
  526TMC3    C8 7818   2.170   1.657  15.182  0.4234  1.0123 -0.1017
  526TMC3    O1 7819   2.615   1.724  14.950 -0.3834  0.2068 -0.0358
  526TMC3    O2 7820   2.252   1.590  15.243  0.9688  0.0238  0.5046
  527MPD2     C 7821   0.274   0.731   1.873 -0.9486 -0.2353  0.5151
  527MPD2    C1 7822   0.308   0.594   1.855 -0.4265  0.3506  0.3300
  527MPD2    C2 7823   0.411   0.555   1.763  0.3808  0.3326 -0.4863
  527MPD2    C3 7824   0.471   0.647   1.685  0.5289 -0.4741  0.4885
  527MPD2    C4 7825   0.421   0.784   1.693  0.1485  0.0035 -0.0033
  527MPD2    C5 7826   0.332   0.822   1.788 -0.6528 -0.4939 -0.2633
  527MPD2     H 7827   0.448   0.453   1.754  1.5824  0.7079  0.3114
  527MPD2    H1 7828   0.463   0.865   1.634  1.5013  0.3516  1.4371
  527MPD2    H2 7829   0.195   0.766   1.939 -0.7404  2.7906 -0.8226
  527MPD2    H3 7830   0.301   0.926   1.795 -1.3915 -0.5633 -2.3970
  527MPD2     N 7831   0.572   0.600   1.594 -0.1740 -0.1176  0.5295
  527MPD2    H5 7832   0.597   0.501   1.601  0.4225 -0.0218 -0.2457
  527MPD2    N1 7833   0.228   0.499   1.921 -0.1021 -0.7548  0.3300
  527MPD2    H7 7834   0.267   0.406   1.929 -0.1064 -0.5916  2.0802
  528TMC3    C1 7835   0.082   0.416   2.091 -0.0334 -0.2566 -0.0906
  528TMC3    C2 7836   0.175   0.324   2.129 -0.0121  0.2925 -0.3738
  528TMC3    C3 7837   0.139   0.206   2.191  0.3078 -0.0227 -0.3818
  528TMC3    C4 7838   4.663   0.397   2.117 -0.4067  0.4231  0.1892
  528TMC3    C5 7839   4.635   0.278   2.184  0.5307 -0.5642  0.2910
  528TMC3    C6 7840   0.007   0.185   2.227  0.5320 -0.4059  0.2920
  528TMC3     C 7841   0.111   0.523   1.997 -0.1087 -0.0893 -0.1732
  528TMC3     O 7842   0.033   0.618   1.986 -0.1179 -0.1300 -0.9307
  528TMC3     H 7843   0.281   0.347   2.119 -0.1686  0.3276 -1.9153
  528TMC3    H1 7844   4.603   0.484   2.094 -0.2377  0.7343  0.9595
  528TMC3    H2 7845   4.681   0.098   2.271  2.6821 -3.5053 -3.6396
  528TMC3    C7 7846   4.497   0.242   2.199  0.8237 -0.2674 -0.2497
  528TMC3    C8 7847   0.232   0.153   2.287  0.6411  0.0087  0.0413
  528TMC3    O1 7848   4.458   0.155   2.275  0.0940 -0.1726  0.4058
  528TMC3    O2 7849   0.335   0.211   2.298  0.1231  0.4179  0.4420
  529MPD2     C 7850   2.444   4.109   1.218 -0.1137  0.3300  0.1465
  529MPD2    C1 7851   2.489   3.988   1.160  0.3716  0.0061 -0.9246
  529MPD2    C2 7852   2.500   3.976   1.019  0.6789  0.5819  0.4623
  529MPD2    C3 7853   2.467   4.082   0.941 -0.8057  0.0661  0.1029
  529MPD2    C4 7854   2.427   4.201   1.002  0.5779  0.1330  0.2533
  529MPD2    C5 7855   2.415   4.212   1.137  0.9949 -0.6011 -0.4938
  529MPD2     H 7856   2.537   3.888   0.967 -0.7694  1.0683 -1.3646
  529MPD2    H1 7857   2.410   4.292   0.947  0.7066 -0.3216 -0.5455
  529MPD2    H2 7858   2.436   4.115   1.326 -0.5230  1.4715  0.0459
  529MPD2    H3 7859   2.405   4.314   1.172 -0.7963 -0.8325 -0.3414
  529MPD2     N 7860   2.469   4.077   0.800 -0.3512 -0.3061  0.2996
  529MPD2    H5 7861   2.467   4.164   0.748 -0.9052 -0.9808 -0.8279
  529MPD2    N1 7862   2.506   3.883   1.250  0.2469  0.5350 -0.0406
  529MPD2    H7 7863   2.495   3.909   1.347 -3.3160 -1.4128  0.0655
  530TMC3    C1 7864   2.522   3.660   1.343 -0.1649 -0.5659 -0.3492
  530TMC3    C2 7865   2.591   3.706   1.447  0.1620  0.2873 -0.9069
  530TMC3    C3 7866   2.628   3.613   1.547 -0.8710 -0.5329  0.1234
  530TMC3    C4 7867   2.507   3.526   1.326  0.2819  0.1550  0.8838
  530TMC3    C5 7868   2.531   3.436   1.430 -0.7759  0.2847  0.2966
  530TMC3    C6 7869   2.592   3.481   1.539  0.2156 -0.9828 -0.0145
  530TMC3     C 7870   2.506   3.749   1.221  0.2154 -0.1477  0.1259
  530TMC3     O 7871   2.497   3.697   1.110  0.3570 -0.3009  0.3703
  530TMC3     H 7872   2.625   3.808   1.463  1.1801  0.2587 -2.9087
  530TMC3    H1 7873   2.472   3.490   1.230 -2.2087 -0.3786  1.9941
  530TMC3    H2 7874   2.591   3.415   1.625  1.0602 -0.8525  0.0985
  530TMC3    C7 7875   2.459   3.308   1.426 -0.1026 -0.0034  0.1462
  530TMC3    C8 7876   2.752   3.655   1.613  0.2838  0.2946  0.2934
  530TMC3    O1 7877   2.482   3.225   1.508  0.0384  0.3531  0.0175
  530TMC3    O2 7878   2.806   3.760   1.567 -0.4905  0.1995 -0.5624
  531MPD2     C 7879   1.221   0.503  13.384 -0.4643 -0.5520 -0.1771
  531MPD2    C1 7880   1.169   0.609  13.446  0.1230  0.3590  0.4138
  531MPD2    C2 7881   1.077   0.686  13.372 -0.4085 -0.2649 -0.2675
  531MPD2    C3 7882   1.048   0.659  13.239  0.0098 -0.0509  0.7502
  531MPD2    C4 7883   1.111   0.552  13.175 -0.4342  0.0451  0.6598
  531MPD2    C5 7884   1.197   0.475  13.249  0.4376 -0.2053  0.1268
  531MPD2     H 7885   1.030   0.771  13.419 -0.3038 -0.7227  0.6707
  531MPD2    H1 7886   1.106   0.535  13.068 -0.1455  1.0083  0.4952
  531MPD2    H2 7887   1.294   0.438  13.431 -0.8814 -0.8717  0.0175
  531MPD2    H3 7888   1.248   0.391  13.204 -1.7436 -1.3799 -0.1606
  531MPD2     N 7889   0.963   0.738  13.156  0.0630  0.2109  0.0666
  531MPD2    H5 7890   0.957   0.713  13.058  0.1576  2.5426 -0.5223
  531MPD2    N1 7891   1.205   0.639  13.579  0.4705 -0.1967  0.0794
  531MPD2    H7 7892   1.259   0.566  13.625  1.1874  0.3865  0.1564
  532TMC3    C1 7893   1.274   0.781  13.753  0.5698 -0.5857  0.2949
  532TMC3    C2 7894   1.251   0.902  13.813  0.0974 -0.0901  0.9549
  532TMC3    C3 7895   1.347   0.996  13.817 -0.9149  0.3056 -0.1493
  532TMC3    C4 7896   1.404   0.744  13.735 -0.9102 -0.5738  0.4139
  532TMC3    C5 7897   1.504   0.837  13.764 -0.2900  0.8557  0.6449
  532TMC3    C6 7898   1.475   0.967  13.807 -0.2484 -0.1043 -0.5347
  532TMC3     C 7899   1.178   0.758  13.650  0.1452 -0.0678 -0.2720
  532TMC3     O 7900   1.111   0.854  13.611 -0.3731  0.0404  0.3660
  532TMC3     H 7901   1.146   0.932  13.819  0.3452  0.9658  0.1159
  532TMC3    H1 7902   1.433   0.650  13.690 -3.4865 -2.0967  1.9196
  532TMC3    H2 7903   1.559   1.034  13.816 -1.2759  1.4993 -2.8361
  532TMC3    C7 7904   1.646   0.809  13.759 -0.1467  0.1770 -0.6159
  532TMC3    C8 7905   1.312   1.125  13.763 -0.6188  0.0390 -0.0087
  532TMC3    O1 7906   1.731   0.892  13.794 -0.1412  0.1672 -0.2571
  532TMC3    O2 7907   1.389   1.219  13.778 -0.4624  0.1664 -0.4210
  533TMC3    C1 7908   2.390   2.638  14.584 -0.1327  0.3654  0.0366
  533TMC3    C2 7909   2.518   2.667  14.601  0.2127 -0.3513  0.2293
  533TMC3    C3 7910   2.547   2.770  14.690 -0.2430  0.1420  0.1732
  533TMC3    C4 7911   2.290   2.697  14.654 -0.3465 -0.0311  0.3965
  533TMC3    C5 7912   2.323   2.786  14.755  0.2379 -0.0915 -0.1469
  533TMC3    C6 7913   2.451   2.828  14.766 -0.0299 -0.4949 -0.5434
  533TMC3     C 7914   2.364   2.496  14.571 -0.5394 -0.3752  0.0628
  533TMC3     O 7915   2.450   2.418  14.614 -0.5092 -0.2366  0.0358
  533TMC3     H 7916   2.595   2.609  14.551  0.8932 -0.3512  1.2766
  533TMC3    H1 7917   2.187   2.663  14.649 -0.3554  0.2852 -1.6062
  533TMC3    H2 7918   2.482   2.907  14.834  0.6577 -2.1197  1.0230
  533TMC3    C7 7919   2.244   2.756  14.878  0.5768  0.4082  0.5165
  533TMC3    C8 7920   2.684   2.801  14.726 -0.6720  0.1730 -0.3265
  533TMC3    O1 7921   2.167   2.664  14.876  0.2648 -0.0485  1.1350
  533TMC3    O2 7922   2.700   2.852  14.837  0.0418 -0.0635 -0.0947
  534MPD2     C 7923   4.715   3.962   2.210  0.0349 -0.1071 -0.0916
  534MPD2    C1 7924   0.023   4.031   2.098 -0.7917  0.3656 -0.0566
  534MPD2    C2 7925   4.674   4.000   1.982 -0.0561 -0.1443 -0.8073
  534MPD2    C3 7926   4.580   3.902   1.971 -0.3587 -0.1799 -0.2411
  534MPD2    C4 7927   4.557   3.825   2.082 -0.2925  0.2700 -0.4995
  534MPD2    C5 7928   4.631   3.853   2.194  0.5009  0.1864 -0.4734
  534MPD2     H 7929   4.700   4.073   1.907 -1.4739  0.5977 -0.5623
  534MPD2    H1 7930   4.491   3.740   2.090 -1.3288  1.3238  2.0619
  534MPD2    H2 7931   0.021   3.990   2.311  0.7580 -4.4564  0.9290
  534MPD2    H3 7932   4.607   3.796   2.284 -1.3165  2.2551  0.3536
  534MPD2     N 7933   4.507   3.874   1.854 -0.6840 -0.4848  0.0570
  534MPD2    H5 7934   4.444   3.795   1.862 -0.4893 -0.4754  1.7617
  534MPD2    N1 7935   0.114   4.139   2.107  0.1773  0.2008 -0.2112
  534MPD2    H7 7936   0.118   4.200   2.026 -1.9060 -0.0746 -0.5302
  535TMC3    C1 7937   4.446   3.897   1.629  0.4570 -0.0724  1.2147
  535TMC3    C2 7938   4.319   3.858   1.659 -0.4150  0.0978  0.6596
  535TMC3    C3 7939   4.263   3.785   1.559  0.0241  0.5414 -0.4390
  535TMC3    C4 7940   4.509   3.890   1.511 -0.6733  1.1650  0.6079
  535TMC3    C5 7941   4.443   3.810   1.418  0.1412  0.0853  0.7836
  535TMC3    C6 7942   4.325   3.744   1.447 -0.2711 -1.0806  0.4026
  535TMC3     C 7943   4.524   3.943   1.736 -0.1306  0.1252 -0.2393
  535TMC3     O 7944   4.620   4.015   1.705 -0.4345  0.6853  0.4037
  535TMC3     H 7945   4.269   3.879   1.752  0.7924 -2.3438  1.8259
  535TMC3    H1 7946   4.607   3.931   1.490 -0.6527  0.9650  0.3161
  535TMC3    H2 7947   4.267   3.690   1.372 -1.8499  1.7420 -0.4239
  535TMC3    C7 7948   4.523   3.741   1.316 -0.1412 -0.7649 -0.2352
  535TMC3    C8 7949   4.117   3.787   1.563 -0.0296 -0.1223 -0.5945
  535TMC3    O1 7950   4.483   3.629   1.285  0.2526  0.0605 -0.2214
  535TMC3    O2 7951   4.059   3.693   1.507 -0.0052  0.5865 -0.1583
  536MPD2     C 7952   3.509   2.268  17.195  0.1018  0.0449 -0.4885
  536MPD2    C1 7953   3.533   2.133  17.205 -0.7713 -0.2652  0.2715
  536MPD2    C2 7954   3.513   2.046  17.101 -0.1998 -0.5657 -0.7810
  536MPD2    C3 7955   3.462   2.098  16.985 -0.5444  0.4655  0.4360
  536MPD2    C4 7956   3.433   2.239  16.975  0.9185 -0.1939  0.0908
  536MPD2    C5 7957   3.462   2.318  17.081 -0.7939  0.6435 -0.0831
  536MPD2     H 7958   3.522   1.938  17.112 -1.3291 -0.8394 -2.5304
  536MPD2    H1 7959   3.381   2.281  16.890  1.1073 -1.1295 -0.4860
  536MPD2    H2 7960   3.525   2.331  17.281 -1.0240  0.3618 -0.5132
  536MPD2    H3 7961   3.446   2.424  17.070  0.0439  0.9703  1.7685
  536MPD2     N 7962   3.430   2.023  16.873  0.7454 -0.4331  0.0204
  536MPD2    H5 7963   3.393   2.069  16.791 -2.2471 -0.6355  1.2515
  536MPD2    N1 7964   3.583   2.080  17.331  0.2122 -0.6457  0.2767
  536MPD2    H7 7965   3.583   2.141  17.412 -0.6527  0.9668 -0.9500
  537TMC3    C1 7966   3.672   1.936  17.484 -0.2747 -0.0854  0.1885
  537TMC3    C2 7967   3.742   2.042  17.534 -0.3785 -0.6325 -0.2102
  537TMC3    C3 7968   3.774   2.032  17.668  0.0552  0.3110  0.2199
  537TMC3    C4 7969   3.644   1.818  17.552 -0.1030 -0.4711 -0.3026
  537TMC3    C5 7970   3.679   1.820   0.004  0.7034  0.5537 -0.1188
  537TMC3    C6 7971   3.750   1.921   0.064  0.2667  0.5460  0.3771
  537TMC3     C 7972   3.599   1.950  17.363 -0.8219 -0.5792  0.6868
  537TMC3     O 7973   3.547   1.851  17.308  0.0091 -0.1012  0.8275
  537TMC3     H 7974   3.775   2.120  17.466 -1.9405 -0.1043 -0.3534
  537TMC3    H1 7975   3.587   1.740  17.504 -1.2523  0.0145  0.2792
  537TMC3    H2 7976   3.771   1.930   0.170  1.4154  1.7859  0.0416
  537TMC3    C7 7977   3.612   1.727   0.090 -0.2319 -0.0406 -0.1472
  537TMC3    C8 7978   3.821   2.150   0.049  0.2266 -0.1923 -0.0226
  537TMC3    O1 7979   3.587   1.783   0.196 -0.0266  0.1766 -0.2207
  537TMC3    O2 7980   3.894   2.136   0.145 -1.2179  0.0954  0.4034
  538TMC3    C1 7981   0.395   0.054  11.289  0.2031  0.4121 -0.0995
  538TMC3    C2 7982   0.477   4.720  11.197  0.2377  0.3414 -0.3035
  538TMC3    C3 7983   0.427   4.698  11.068  0.0947 -0.3627 -1.2953
  538TMC3    C4 7984   0.268   0.083  11.254 -0.8443  0.3608 -0.2175
  538TMC3    C5 7985   0.219   0.073  11.129  0.6037  0.3833 -0.0935
  538TMC3    C6 7986   0.301   0.018  11.035  0.2628  0.5611 -0.5728
  538TMC3     C 7987   0.432   0.057  11.432  0.2198 -0.3694  0.2366
  538TMC3     O 7988   0.349   0.060  11.521  0.1507 -0.1200 -0.1878
  538TMC3     H 7989   0.578   4.689  11.221  0.5154  1.2310 -0.3174
  538TMC3    H1 7990   0.221   0.139  11.334 -1.0073  0.2619 -0.2427
  538TMC3    H2 7991   0.253   0.006  10.939 -1.5189  1.3713  0.2145
  538TMC3    C7 7992   0.117   0.162  11.083  0.4469  0.2371  0.0278
  538TMC3    C8 7993   0.526   4.717  10.964 -0.1232  0.4792  0.1289
  538TMC3    O1 7994   0.035   0.117  11.006  0.1703 -0.1121 -0.1539
  538TMC3    O2 7995   0.481   0.037  10.855 -0.1782  0.5848 -0.4434
  539MPD2     C 7996   0.426   4.312  11.909 -0.0095  1.1032 -0.2861
  539MPD2    C1 7997   0.314   4.266  11.836 -0.3383 -0.7173  0.7396
  539MPD2    C2 7998   0.192   4.324  11.875 -0.5896  0.7432 -0.1675
  539MPD2    C3 7999   0.182   4.417  11.980 -0.4491  0.9955 -0.0642
  539MPD2    C4 8000   0.296   4.468  12.032  0.3372  0.5787  0.0764
  539MPD2    C5 8001   0.417   4.414  11.999 -0.1802 -0.1409 -0.7918
  539MPD2     H 8002   0.109   4.305  11.807  0.5292 -1.3683 -0.9610
  539MPD2    H1 8003   0.297   4.537  12.116  1.8316  0.7486 -0.0917
  539MPD2    H2 8004   0.523   4.269  11.886 -0.1432 -0.1172  1.4565
  539MPD2    H3 8005   0.512   4.448  12.040 -1.4402  0.3971  1.7253
  539MPD2     N 8006   0.056   4.483  12.011 -0.3778 -0.1462  0.4868
  539MPD2    H5 8007   0.069   4.571  12.061  0.3259 -0.4795  0.8866
  539MPD2    N1 8008   0.309   4.170  11.734 -0.1113 -0.1767  0.7463
  539MPD2    H7 8009   0.214   4.148  11.706 -0.3143  0.1056  1.2122
  540TMC3    C1 8010   4.540   4.511  12.027  0.0328  0.1544  0.3124
  540TMC3    C2 8011   4.540   4.622  11.944  0.2648  0.4533 -0.3850
  540TMC3    C3 8012   4.426   4.654  11.878 -0.1122  0.0265 -0.5035
  540TMC3    C4 8013   4.429   4.440  12.056 -0.5362  0.4650  1.0340
  540TMC3    C5 8014   4.311   4.481  11.997 -0.2848 -0.3940 -0.1822
  540TMC3    C6 8015   4.311   4.587  11.904 -0.0962  0.1673 -0.2097
  540TMC3     C 8016   4.653   4.427  11.992 -0.0146  0.3105 -0.1519
  540TMC3     O 8017   4.630   4.319  11.941  0.7374  0.1496  0.8526
  540TMC3     H 8018   4.629   4.667  11.899  1.4384 -1.2136  0.2880
  540TMC3    H1 8019   4.440   4.351  12.118 -2.0844  0.0073  0.6435
  540TMC3    H2 8020   4.221   4.621  11.854 -1.5689 -2.9617  0.3373
  540TMC3    C7 8021   4.187   4.441  12.063  0.1246  0.0143  0.2965
  540TMC3    C8 8022   4.445   4.719  11.755  0.3101  0.1728 -0.1744
  540TMC3    O1 8023   4.089   4.501  12.016  0.3121 -0.3548  0.3115
  540TMC3    O2 8024   4.538   0.074  11.750 -0.1761 -0.1197 -0.2034
  541MPD2     C 8025   2.473   1.076  13.141  0.0031  0.3634  0.2454
  541MPD2    C1 8026   2.590   1.008  13.134  0.0867 -0.2648 -0.5514
  541MPD2    C2 8027   2.679   1.051  13.033 -0.0853 -0.2964 -0.4548
  541MPD2    C3 8028   2.638   1.159  12.944 -0.1164  0.1566 -0.5279
  541MPD2    C4 8029   2.513   1.215  12.960  1.0476 -0.3720 -0.5704
  541MPD2    C5 8030   2.434   1.176  13.063  0.1660 -0.0634  0.3307
  541MPD2     H 8031   2.763   0.985  13.017 -0.4822 -0.6477 -1.1360
  541MPD2    H1 8032   2.473   1.300  12.905  4.0416 -0.4239 -2.7852
  541MPD2    H2 8033   2.390   1.053  13.208  0.5727 -2.3901  0.0217
  541MPD2    H3 8034   2.342   1.226  13.092  0.5383  0.2401  0.9942
  541MPD2     N 8035   2.711   1.207  12.837  0.0608  0.0617  0.2628
  541MPD2    H5 8036   2.665   1.266  12.768 -1.7495  0.2872  1.6685
  541MPD2    N1 8037   2.622   0.890  13.205  0.0687  0.1778 -0.6356
  541MPD2    H7 8038   2.708   0.839  13.187  0.4810  0.2194  1.1792
  542TMC3    C1 8039   2.875   1.250  12.687 -0.5217  0.4045 -0.0652
  542TMC3    C2 8040   2.933   1.169  12.599  0.1635 -0.4101  0.7116
  542TMC3    C3 8041   2.953   1.217  12.476 -0.1031  0.6166  0.3984
  542TMC3    C4 8042   2.818   1.367  12.660  0.3647 -0.5981  0.1244
  542TMC3    C5 8043   2.836   1.418  12.532 -0.6430  0.0926 -0.2344
  542TMC3    C6 8044   2.905   1.339  12.439 -0.5009 -0.0731  0.1541
  542TMC3     C 8045   2.841   1.183  12.812 -0.1303 -0.3933 -0.1437
  542TMC3     O 8046   2.918   1.091  12.848  0.3343 -0.2382  0.3570
  542TMC3     H 8047   2.969   1.073  12.634  2.2196  0.1913  0.2746
  542TMC3    H1 8048   2.777   1.435  12.733 -0.0407 -0.4377 -0.2508
  542TMC3    H2 8049   2.930   1.383  12.343  0.2424 -2.5758 -0.7714
  542TMC3    C7 8050   2.810   1.562  12.514 -0.6569 -0.3190 -0.2434
  542TMC3    C8 8051   3.000   1.138  12.366  0.5691 -0.2077  0.1043
  542TMC3    O1 8052   2.830   1.634  12.608  0.2764 -0.0056  0.0794
  542TMC3    O2 8053   2.997   1.184  12.253 -0.1977  0.0136 -0.4930
  543TMC3    C1 8054   2.343   2.201  17.666  0.3396  0.2340  0.4435
  543TMC3    C2 8055   2.365   2.076   0.026  0.8260 -0.1804 -1.0323
  543TMC3    C3 8056   2.306   2.030   0.141  0.2220 -0.2594  0.6950
  543TMC3    C4 8057   2.269   2.289   0.048  0.4662 -0.0225  0.4724
  543TMC3    C5 8058   2.199   2.242   0.162 -0.2687  0.4318 -0.9186
  543TMC3    C6 8059   2.226   2.117   0.209  0.0840  0.0684 -0.4884
  543TMC3     C 8060   2.431   2.250  17.562 -0.4570  0.2199 -0.1498
  543TMC3     O 8061   2.526   2.181  17.529  0.1209  0.1618 -0.3675
  543TMC3     H 8062   2.444   2.014  17.669  3.0316  1.1270  1.1345
  543TMC3    H1 8063   2.283   2.393   0.024 -0.0527 -0.4639 -1.7134
  543TMC3    H2 8064   2.173   2.082   0.297  1.2531 -1.0738 -0.2357
  543TMC3    C7 8065   2.144   2.345   0.245  0.1159 -0.8742  0.4538
  543TMC3    C8 8066   2.348   1.902   0.206 -0.1313 -0.2910 -0.1593
  543TMC3    O1 8067   2.184   2.459   0.233  0.0820 -0.3049 -0.1462
  543TMC3    O2 8068   2.304   1.882   0.317 -0.4538  0.0880  0.3401
  544MPD2     C 8069   2.634   1.471   0.261 -0.4430 -0.7500  0.1489
  544MPD2    C1 8070   2.586   1.469   0.132  0.2154 -0.2091  0.2063
  544MPD2    C2 8071   2.506   1.582   0.092  0.4251 -0.4067 -0.3837
  544MPD2    C3 8072   2.488   1.692   0.173 -0.9137  0.3004  0.3677
  544MPD2    C4 8073   2.546   1.687   0.295  0.0304  0.0442 -1.1383
  544MPD2    C5 8074   2.617   1.580   0.338  0.3412 -0.0546  0.3855
  544MPD2     H 8075   2.471   1.587  17.675  0.4149  0.5204 -0.3343
  544MPD2    H1 8076   2.534   1.764   0.371  0.4528 -0.0927 -0.9356
  544MPD2    H2 8077   2.689   1.388   0.303  0.7738  0.2274  0.5030
  544MPD2    H3 8078   2.654   1.581   0.440 -0.6560 -0.5509  0.7509
  544MPD2     N 8079   2.408   1.808   0.125  0.2328  0.2043 -0.1175
  544MPD2    H5 8080   2.397   1.819   0.025 -3.6111  0.2172  0.3183
  544MPD2    N1 8081   2.620   1.359   0.052  0.1524 -0.2252  0.4930
  544MPD2    H7 8082   2.691   1.301   0.097 -0.0344 -2.2466 -1.8444
  545TMC3    C1 8083   2.636   1.222  17.542 -0.1978 -0.2521  0.3198
  545TMC3    C2 8084   2.651   1.237  17.410  0.0250 -0.5721 -0.3032
  545TMC3    C3 8085   2.730   1.149  17.345  0.3473  0.2598  1.2145
  545TMC3    C4 8086   2.716   1.140  17.616 -0.1642  0.5502 -0.1031
  545TMC3    C5 8087   2.810   1.062  17.548 -0.2307 -0.7441 -0.0803
  545TMC3    C6 8088   2.807   1.058  17.413 -0.7648  0.2383  0.6245
  545TMC3     C 8089   2.574   1.332  17.606 -0.1211  0.3116  0.1894
  545TMC3     O 8090   2.491   1.399  17.544  0.2218 -0.2278 -0.5506
  545TMC3     H 8091   2.594   1.311  17.353 -0.9306 -1.3140 -0.3077
  545TMC3    H1 8092   2.705   1.121   0.037  0.4913 -0.9389 -0.3116
  545TMC3    H2 8093   2.872   0.990  17.359 -0.4701 -0.4008  1.7892
  545TMC3    C7 8094   2.847   0.940  17.609 -0.0251 -0.4809 -0.1498
  545TMC3    C8 8095   2.675   1.096  17.221  0.1099 -0.6138  0.2143
  545TMC3    O1 8096   2.854   0.837  17.546  0.1203 -0.5345  0.2766
  545TMC3    O2 8097   2.552   1.083  17.223 -0.0894 -0.0847 -0.8232
  546MPD2     C 8098   3.660   2.551   0.707 -0.3332  0.4728 -0.7275
  546MPD2    C1 8099   3.663   2.509   0.574 -0.0881  0.9720  0.4183
  546MPD2    C2 8100   3.710   2.597   0.479  0.1458 -0.2521 -0.0180
  546MPD2    C3 8101   3.760   2.723   0.516 -0.1535  0.5818 -0.1700
  546MPD2    C4 8102   3.783   2.741   0.650 -0.1410 -0.2278 -0.6923
  546MPD2    C5 8103   3.724   2.667   0.747  0.7701  0.2460  0.1157
  546MPD2     H 8104   3.716   2.570   0.374  0.1378 -4.3007  1.0570
  546MPD2    H1 8105   3.843   2.820   0.695 -0.7439  1.4064 -2.8161
  546MPD2    H2 8106   3.629   2.479   0.782 -0.0102 -0.4757 -1.5068
  546MPD2    H3 8107   3.747   2.680   0.852  0.1798  0.3197  0.2366
  546MPD2     N 8108   3.797   2.820   0.420 -0.2139  0.1303 -0.4268
  546MPD2    H5 8109   3.839   2.902   0.464  2.3305 -1.4491  0.1310
  546MPD2    N1 8110   3.608   2.382   0.553 -0.2025  0.0865  0.7608
  546MPD2    H7 8111   3.531   2.356   0.614  0.9676 -1.2146  1.6588
  547TMC3    C1 8112   3.529   2.198   0.411 -0.3189 -0.5090  0.6606
  547TMC3    C2 8113   3.526   2.133   0.287 -0.0307 -0.1241 -0.1374
  547TMC3    C3 8114   3.425   2.045   0.258  0.0623 -0.9940  0.5015
  547TMC3    C4 8115   3.424   2.173   0.502 -0.2723 -0.8275  0.5265
  547TMC3    C5 8116   3.326   2.086   0.466  0.0352 -0.0787 -0.3542
  547TMC3    C6 8117   3.314   2.035   0.340  0.5400  0.4708  0.1361
  547TMC3     C 8118   3.625   2.300   0.443 -0.3580 -0.0756  1.2076
  547TMC3     O 8119   3.710   2.313   0.355  0.0026 -0.2531 -0.0474
  547TMC3     H 8120   3.613   2.136   0.223  2.0187 -1.4986  2.5404
  547TMC3    H1 8121   3.419   2.218   0.601 -1.8402 -2.8872  1.3853
  547TMC3    H2 8122   3.220   1.993   0.305 -0.1417  3.1674 -1.2797
  547TMC3    C7 8123   3.209   2.092   0.553 -0.0098 -0.1674  0.0027
  547TMC3    C8 8124   3.398   2.026   0.117 -0.8486 -0.5483  0.6843
  547TMC3    O1 8125   3.187   2.187   0.626  0.4887  0.4474 -0.5421
  547TMC3    O2 8126   3.459   2.100   0.041 -0.8085 -0.7715  0.0881
  548MPD2     C 8127   3.906   3.027  12.685  0.1620  0.3437  0.8011
  548MPD2    C1 8128   3.850   2.940  12.589 -0.1352  0.2917  0.2529
  548MPD2    C2 8129   3.907   2.922  12.463 -0.2903  0.4514 -0.4301
  548MPD2    C3 8130   4.032   2.961  12.442 -0.3320 -0.2620  0.1968
  548MPD2    C4 8131   4.098   3.036  12.538  0.1467 -0.6974  0.5282
  548MPD2    C5 8132   4.029   3.070  12.659  0.5067  0.4991  0.3058
  548MPD2     H 8133   3.854   2.870  12.384 -0.3782  1.7084 -1.1835
  548MPD2    H1 8134   4.197   3.077  12.522  0.7725 -1.5790  2.0660
  548MPD2    H2 8135   3.875   3.037  12.788 -0.7286  1.1512  0.4605
  548MPD2    H3 8136   4.079   3.122  12.740  2.9804  0.2316 -1.0616
  548MPD2     N 8137   4.092   2.918  12.317  0.0765  0.2695  0.3156
  548MPD2    H5 8138   4.029   2.864  12.258 -1.3288  3.2068 -0.8543
  548MPD2    N1 8139   3.719   2.901  12.615 -0.6031  0.4099  0.2716
  548MPD2    H7 8140   3.674   2.937  12.698  0.6078  1.9773  0.2344
  549TMC3    C1 8141   3.509   2.837  12.532 -0.1304  0.6853 -0.0290
  549TMC3    C2 8142   3.453   2.959  12.562  1.1303 -0.8207 -0.8457
  549TMC3    C3 8143   3.323   2.990  12.517  0.8441 -0.4294 -0.2491
  549TMC3    C4 8144   3.434   2.755  12.450  0.0994  0.0476 -0.3402
  549TMC3    C5 8145   3.315   2.786  12.398  0.3123 -0.1173 -0.3315
  549TMC3    C6 8146   3.255   2.912  12.427 -1.0839  0.7988 -0.0300
  549TMC3     C 8147   3.651   2.817  12.528 -0.0162  0.2433  0.1768
  549TMC3     O 8148   3.700   2.718  12.469 -0.2880  0.1032  0.1000
  549TMC3     H 8149   3.500   3.021  12.638 -4.3609  1.7259  0.5466
  549TMC3    H1 8150   3.484   2.664  12.417 -1.4879 -0.5478 -1.1273
  549TMC3    H2 8151   3.158   2.937  12.385 -0.9173  0.8106 -0.4146
  549TMC3    C7 8152   3.261   2.710  12.284 -0.6817 -0.1522  0.4070
  549TMC3    C8 8153   3.251   3.113  12.562  0.1445 -0.3936 -0.2318
  549TMC3    O1 8154   3.194   2.765  12.198 -0.1000 -0.1629  0.2520
  549TMC3    O2 8155   3.139   3.119  12.511  0.8177 -0.1521  0.0247
  550TMC3    C1 8156   1.915   0.893  12.757 -0.1872  0.0649 -0.2185
  550TMC3    C2 8157   1.822   0.927  12.859 -0.5900  0.6716  0.1660
  550TMC3    C3 8158   1.757   1.049  12.842  0.7896 -0.0826 -0.2981
  550TMC3    C4 8159   1.939   0.971  12.644  0.1069 -0.0576  0.2990
  550TMC3    C5 8160   1.877   1.091  12.637  0.1637  0.2621  0.2407
  550TMC3    C6 8161   1.780   1.129  12.729  0.3698  0.2079 -0.2548
  550TMC3     C 8162   1.984   0.768  12.776 -0.5660 -0.2938 -0.3557
  550TMC3     O 8163   1.932   0.686  12.850 -0.0688 -0.2322 -0.2314
  550TMC3     H 8164   1.820   0.863  12.947  1.0120 -0.0331 -0.3045
  550TMC3    H1 8165   2.009   0.936  12.569  1.4970  0.2640  1.4586
  550TMC3    H2 8166   1.722   1.220  12.716 -1.5862 -1.0129 -0.2297
  550TMC3    C7 8167   1.902   1.177  12.523  0.3128  0.9107  0.4793
  550TMC3    C8 8168   1.654   1.089  12.931  0.2477 -0.8133  0.0130
  550TMC3    O1 8169   2.018   1.187  12.482  0.1298 -0.5117  0.3734
  550TMC3    O2 8170   1.615   1.207  12.915  0.1164 -0.4489  0.7451
  551TMC3    C1 8171   4.609   3.670  13.790 -0.0043 -0.0800 -0.4078
  551TMC3    C2 8172   4.646   3.796  13.741 -0.1199  0.4138  0.1718
  551TMC3    C3 8173   4.661   3.897  13.834 -0.6883 -0.3398  0.8236
  551TMC3    C4 8174   4.577   3.652  13.920  0.4323  0.0059 -0.0750
  551TMC3    C5 8175   4.586   3.756  14.005  0.1818 -0.3866 -0.1048
  551TMC3    C6 8176   4.639   3.878  13.967 -0.2121  0.8597  0.7411
  551TMC3     C 8177   4.515   3.609  13.697 -0.2403 -0.0979 -0.6819
  551TMC3     O 8178   4.553   3.568  13.586 -0.0062 -0.4673  0.1924
  551TMC3     H 8179   4.680   3.803  13.638  2.4585 -0.3895  0.9878
  551TMC3    H1 8180   4.550   3.553  13.954 -0.4606 -0.2083 -1.4441
  551TMC3    H2 8181   4.675   3.948  14.042  0.6209  0.0649  1.0777
  551TMC3    C7 8182   4.563   3.746  14.145 -1.1455 -0.3608 -0.4897
  551TMC3    C8 8183   0.049   3.989  13.800  0.3659 -0.1767  0.4176
  551TMC3    O1 8184   4.591   3.843  14.219 -0.4519 -0.5595  0.0456
  551TMC3    O2 8185   0.102   4.046  13.895  0.2612 -0.1785 -0.2914
  552MPD2     C 8186   1.549   0.968  14.142 -0.0200  0.1983  0.2575
  552MPD2    C1 8187   1.623   0.851  14.131 -0.3136 -0.3544 -0.5412
  552MPD2    C2 8188   1.760   0.849  14.158  0.5875 -0.4225 -0.6772
  552MPD2    C3 8189   1.824   0.964  14.202 -0.6120  0.0755 -0.3447
  552MPD2    C4 8190   1.744   1.081  14.214  0.5550 -0.1566  0.5800
  552MPD2    C5 8191   1.615   1.082  14.172 -0.3768 -0.1848  0.0648
  552MPD2     H 8192   1.815   0.756  14.153 -3.2751 -2.7071 -1.1466
  552MPD2    H1 8193   1.786   1.179  14.234  0.6658  0.6297 -3.4348
  552MPD2    H2 8194   1.445   0.987  14.116  0.5795  1.6433 -1.0687
  552MPD2    H3 8195   1.555   1.172  14.178 -0.7018 -0.3606 -0.5512
  552MPD2     N 8196   1.958   0.956  14.240 -0.1822 -0.1279  0.0632
  552MPD2    H5 8197   1.988   0.864  14.271  0.8132  0.5379  1.0713
  552MPD2    N1 8198   1.564   0.733  14.101 -0.0874 -0.1154  0.1776
  552MPD2    H7 8199   1.631   0.659  14.085  2.0821  1.5623  1.4706
  553TMC3    C1 8200   1.419   0.562  14.065  0.2438 -0.5509  0.1007
  553TMC3    C2 8201   1.302   0.519  14.005  0.4494  0.4320 -0.1148
  553TMC3    C3 8202   1.290   0.384  13.989 -0.0679 -0.4998  0.0930
  553TMC3    C4 8203   1.505   0.479  14.131 -0.4505  0.3074 -0.1441
  553TMC3    C5 8204   1.480   0.346  14.128  0.1670  0.0513 -0.4101
  553TMC3    C6 8205   1.377   0.292  14.051  0.6016 -0.1981  0.5925
  553TMC3     C 8206   1.435   0.705  14.079 -0.4348  0.3311 -0.0878
  553TMC3     O 8207   1.336   0.778  14.079  0.1242 -0.6378  0.0698
  553TMC3     H 8208   1.227   0.585  13.965  1.1923  1.0380 -0.5129
  553TMC3    H1 8209   1.580   0.518  14.199  1.5922 -0.8954 -1.6728
  553TMC3    H2 8210   1.376   0.186  14.030 -2.0751 -0.0952  0.1776
  553TMC3    C7 8211   1.569   0.252  14.188 -0.0508  0.1870  0.5849
  553TMC3    C8 8212   1.220   0.343  13.871 -0.3834 -0.2702 -0.8410
  553TMC3    O1 8213   1.527   0.146  14.222  0.1398  0.2325  0.2241
  553TMC3    O2 8214   1.154   0.427  13.815 -0.4566 -0.2910 -0.0649
  554TMC3    C1 8215   3.557   4.305  11.778  0.5852  0.8884 -0.0301
  554TMC3    C2 8216   3.461   4.303  11.674  0.1729 -0.5996 -0.0048
  554TMC3    C3 8217   3.509   4.298  11.547  0.2042  0.6179  0.7296
  554TMC3    C4 8218   3.693   4.329  11.755  0.5521  0.1771 -0.1115
  554TMC3    C5 8219   3.726   4.332  11.622 -0.3817  0.9701  0.1356
  554TMC3    C6 8220   3.638   4.315  11.521  0.0407  0.2162 -0.4391
  554TMC3     C 8221   3.513   4.247  11.905 -0.9535 -0.2240 -0.3522
  554TMC3     O 8222   3.404   4.200  11.917 -0.2526 -0.7184 -0.0846
  554TMC3     H 8223   3.357   4.303  11.702  0.0454 -2.0488 -0.4664
  554TMC3    H1 8224   3.764   4.326  11.838 -2.5398 -1.5118  2.4619
  554TMC3    H2 8225   3.673   4.335  11.420  0.1671 -0.9190 -0.6241
  554TMC3    C7 8226   3.834   4.428  11.590 -0.7376 -0.1032 -0.3550
  554TMC3    C8 8227   3.423   4.296  11.430 -0.4041  0.1000 -0.4524
  554TMC3    O1 8228   3.863   4.437  11.474  0.3894 -0.2001  0.0210
  554TMC3    O2 8229   3.470   4.313  11.321  0.3977  0.2107 -0.4246
  555TMC3    C1 8230   2.551   4.030  15.296 -1.4160 -0.0008 -0.1166
  555TMC3    C2 8231   2.507   4.106  15.398 -0.2868  0.1085 -0.0088
  555TMC3    C3 8232   2.509   4.053  15.527 -0.0304  0.0172 -0.0072
  555TMC3    C4 8233   2.604   3.906  15.313  0.2248  0.1494  0.0595
  555TMC3    C5 8234   2.595   3.854  15.442  0.1276  0.4640  0.3148
  555TMC3    C6 8235   2.553   3.925  15.554  0.0603  0.5668  0.6174
  555TMC3     C 8236   2.576   4.097  15.174 -0.2648 -0.2235  0.0317
  555TMC3     O 8237   2.679   4.074  15.112 -0.4373 -0.1404  0.7095
  555TMC3     H 8238   2.493   4.212  15.380 -0.1152  0.3611  1.3414
  555TMC3    H1 8239   2.638   3.850  15.227  0.0068  1.0393 -0.6021
  555TMC3    H2 8240   2.547   3.881  15.654 -1.7919  0.8074  0.6109
  555TMC3    C7 8241   2.625   3.717  15.467 -0.1014  0.4318  0.1231
  555TMC3    C8 8242   2.539   4.151  15.625  0.4282  0.0009  0.4236
  555TMC3    O1 8243   2.618   3.677  15.582  0.2580  0.1345  0.5869
  555TMC3    O2 8244   2.516   4.268  15.588 -0.2680 -0.1598 -0.2296
  556MPD2     C 8245   0.702   0.986  11.011 -0.7019  0.3477  0.1324
  556MPD2    C1 8246   0.731   0.859  11.070 -0.3360  0.1939 -0.1655
  556MPD2    C2 8247   0.731   0.741  10.996  0.3895 -0.4456  0.0548
  556MPD2    C3 8248   0.691   0.751  10.863  0.1497 -0.1138  0.1271
  556MPD2    C4 8249   0.660   0.868  10.806  0.1058  0.2728  0.0214
  556MPD2    C5 8250   0.665   0.989  10.877 -0.7131  0.2832  0.4305
  556MPD2     H 8251   0.756   0.643  11.035  0.8552 -0.9629 -1.5571
  556MPD2    H1 8252   0.635   0.884  10.702  0.5869 -0.9121 -0.2691
  556MPD2    H2 8253   0.701   1.076  11.071  0.1208 -0.4203  1.2989
  556MPD2    H3 8254   0.640   1.086  10.835  1.1488  0.6874  0.2471
  556MPD2     N 8255   0.692   0.630  10.779 -0.4525  0.8747  0.2581
  556MPD2    H5 8256   0.733   0.548  10.822 -0.8253  1.1653  1.1789
  556MPD2    N1 8257   0.741   0.869  11.212  0.2540  0.1104  0.0715
  556MPD2    H7 8258   0.776   0.960  11.241  2.1368 -0.6994  0.3694
  557TMC3    C1 8259   0.686   0.509  10.583 -0.3185  0.4799 -1.2386
  557TMC3    C2 8260   0.609   0.453  10.484 -0.0249  0.2495  0.4013
  557TMC3    C3 8261   0.657   0.356  10.406  0.6802  0.1575  0.4102
  557TMC3    C4 8262   0.817   0.470  10.596 -0.4212  0.3300  0.3077
  557TMC3    C5 8263   0.873   0.381  10.509 -0.4313 -0.7842 -0.5947
  557TMC3    C6 8264   0.791   0.315  10.423  0.1419  0.8688 -0.5683
  557TMC3     C 8265   0.629   0.615  10.656  0.5486 -0.1940 -0.3156
  557TMC3     O 8266   0.534   0.675  10.615 -0.3643  0.3864 -0.6778
  557TMC3     H 8267   0.506   0.487  10.481 -0.0233  0.0047 -2.0610
  557TMC3    H1 8268   0.874   0.521  10.673 -0.4823  0.2566  0.4008
  557TMC3    H2 8269   0.834   0.247  10.351  1.2028 -0.1692  1.0201
  557TMC3    C7 8270   0.947   0.277  10.579 -0.3242  0.0814 -0.0675
  557TMC3    C8 8271   0.564   0.284  10.316  0.1748  0.7837 -0.3913
  557TMC3    O1 8272   1.057   0.303  10.629 -0.0517 -0.0908  0.0099
  557TMC3    O2 8273   0.452   0.333  10.307 -0.0062 -0.3131  0.2188
  558TMC3    C1 8274   3.660   3.308   9.587 -0.1787  0.2244 -0.0137
  558TMC3    C2 8275   3.625   3.417   9.660  0.0857 -0.9837  0.4802
  558TMC3    C3 8276   3.496   3.426   9.683 -0.3187 -0.1593 -0.0209
  558TMC3    C4 8277   3.581   3.220   9.529 -0.0750 -0.3505 -0.1769
  558TMC3    C5 8278   3.452   3.232   9.553 -0.6662  0.0599 -0.2149
  558TMC3    C6 8279   3.404   3.334   9.633  0.0787  0.7618  0.1068
  558TMC3     C 8280   3.778   3.236   9.643 -0.4895 -0.8085 -0.7364
  558TMC3     O 8281   3.753   3.112   9.667  0.3486 -0.7261  0.4924
  558TMC3     H 8282   3.694   3.482   9.711  0.8216 -0.8964 -0.6253
  558TMC3    H1 8283   3.614   3.152   9.451 -1.9319 -1.0520 -0.3426
  558TMC3    H2 8284   3.297   3.336   9.650 -0.1938  0.8993 -1.5978
  558TMC3    C7 8285   3.384   3.111   9.578  0.3486 -0.4577  0.6501
  558TMC3    C8 8286   3.456   3.520   9.790  0.7051  0.4418  0.1268
  558TMC3    O1 8287   3.264   3.105   9.550  0.4086  0.3439  0.6552
  558TMC3    O2 8288   3.524   3.620   9.786 -0.3200 -0.6213  0.4049
  559MPD2     C 8289   3.241   4.267  10.798  0.1165 -0.3476 -0.2799
  559MPD2    C1 8290   3.157   4.216  10.898  0.6823  0.3527  0.2040
  559MPD2    C2 8291   3.217   4.160  11.011 -0.6989 -0.5440 -0.0899
  559MPD2    C3 8292   3.352   4.137  11.017 -0.3274 -0.6289 -0.6931
  559MPD2    C4 8293   3.429   4.189  10.916  0.0759 -0.3634 -0.5718
  559MPD2    C5 8294   3.374   4.253  10.806 -0.7081  0.3696 -0.0553
  559MPD2     H 8295   3.148   4.129  11.088 -3.3873 -0.5439 -2.5069
  559MPD2    H1 8296   3.537   4.179  10.909  0.1040 -1.6597  2.0050
  559MPD2    H2 8297   3.201   4.328  10.718  1.0434  0.5679 -0.0367
  559MPD2    H3 8298   3.436   4.296  10.728  0.0191 -1.4164 -0.4634
  559MPD2     N 8299   3.406   4.061  11.128 -0.3020  0.2614 -0.0532
  559MPD2    H5 8300   3.340   4.019  11.192 -0.3315  2.4220  1.3258
  559MPD2    N1 8301   3.016   4.243  10.887  0.2066  0.3699 -0.4467
  559MPD2    H7 8302   2.983   4.299  10.810 -1.2885  1.6871  1.1523
  560TMC3    C1 8303   3.571   3.957  11.254  0.7353  0.6739 -0.2923
  560TMC3    C2 8304   3.507   3.841  11.235  0.0076 -0.3352  0.0751
  560TMC3    C3 8305   3.564   3.724  11.280 -0.0944 -0.5539  0.5194
  560TMC3    C4 8306   3.692   3.971  11.314 -0.0613  0.8474 -0.4344
  560TMC3    C5 8307   3.746   3.856  11.367  0.0447 -0.1854  0.0483
  560TMC3    C6 8308   3.681   3.732  11.356  0.3120  0.0730 -0.0072
  560TMC3     C 8309   3.546   4.054  11.156 -0.4382  0.2167  0.5355
  560TMC3     O 8310   3.643   4.106  11.108  0.4089  0.0115 -0.1088
  560TMC3     H 8311   3.417   3.836  11.175 -0.4100  0.3199  0.6497
  560TMC3    H1 8312   3.739   4.065  11.342 -0.0959  0.0722  2.3021
  560TMC3    H2 8313   3.729   3.644  11.397  0.2582  0.2599  0.4623
  560TMC3    C7 8314   3.868   3.853  11.448  0.2250 -0.3495  0.2628
  560TMC3    C8 8315   3.515   3.596  11.222 -1.5757  0.2198 -0.2843
  560TMC3    O1 8316   3.901   3.743  11.485 -0.3642 -0.2741 -0.0259
  560TMC3    O2 8317   3.411   3.595  11.153  0.0252 -0.2500  0.0949
  561TMC3    C1 8318   1.216   2.911  11.089  0.1275  0.2744  0.5618
  561TMC3    C2 8319   1.258   2.843  11.203 -0.1104  0.6001 -0.2926
  561TMC3    C3 8320   1.243   2.910  11.326  0.2903  0.0881  0.3007
  561TMC3    C4 8321   1.139   3.034  11.101  0.0492  0.0178  0.3528
  561TMC3    C5 8322   1.136   3.099  11.221  0.4420  0.2116  0.8474
  561TMC3    C6 8323   1.187   3.038  11.335  0.3715  0.5828  0.0104
  561TMC3     C 8324   1.261   2.860  10.965 -0.1151  0.0913 -0.7959
  561TMC3     O 8325   1.192   2.895  10.870 -0.1251 -0.1097  0.3545
  561TMC3     H 8326   1.290   2.739  11.197 -1.4374  0.1001  1.2878
  561TMC3    H1 8327   1.107   3.086  11.011 -0.7016  1.0814  1.2230
  561TMC3    H2 8328   1.202   3.098  11.424  2.4865 -1.0074  0.7323
  561TMC3    C7 8329   1.084   3.235  11.232 -0.1003  0.4374  0.2571
  561TMC3    C8 8330   1.235   2.837  11.452  0.1284  0.5603  0.3427
  561TMC3    O1 8331   1.032   3.267  11.338  0.4220  0.2274  0.0231
  561TMC3    O2 8332   1.272   2.718  11.448 -0.4386 -0.2283  0.6113
  562TMC3    C1 8333   2.391   4.617  16.251  0.3343  0.6898 -0.1410
  562TMC3    C2 8334   2.479   4.703  16.189 -0.6052 -0.3273  0.3523
  562TMC3    C3 8335   2.471   0.002  16.053 -0.0529  0.2030  0.4349
  562TMC3    C4 8336   2.309   4.542  16.172  0.3169  1.1513 -0.2186
  562TMC3    C5 8337   2.310   4.561  16.039  0.3349 -0.3596 -0.2650
  562TMC3    C6 8338   2.384   4.652  15.971 -0.0176  0.6024 -0.3473
  562TMC3     C 8339   2.379   4.617  16.399  0.2034  0.4748 -0.1988
  562TMC3     O 8340   2.266   4.586  16.438 -0.1458  0.1770  0.3617
  562TMC3     H 8341   2.551   0.044  16.242 -1.1875 -1.0881  2.0224
  562TMC3    H1 8342   2.242   4.471  16.220  1.0098  0.0447 -0.9024
  562TMC3    H2 8343   2.383   4.658  15.863 -1.7383 -0.9885 -0.4284
  562TMC3    C7 8344   2.287   4.436  15.959 -0.6590  0.3007  0.3835
  562TMC3    C8 8345   2.567   0.094  15.988  0.3462 -0.1649  0.3472
  562TMC3    O1 8346   2.263   4.443  15.841  0.2964 -0.3892 -0.7675
  562TMC3    O2 8347   2.660   0.143  16.051  0.0221 -0.4482 -0.5640
  563MPD2     C 8348   0.042   0.787  15.770 -0.0256  0.3187 -0.1258
  563MPD2    C1 8349   0.003   0.901  15.838  0.6674 -0.2838 -0.0886
  563MPD2    C2 8350   0.098   0.988  15.888 -0.2003  0.0759 -0.9693
  563MPD2    C3 8351   0.232   0.958  15.872  0.0146 -0.5805  0.0964
  563MPD2    C4 8352   0.270   0.851  15.795  0.4570  0.0253 -0.2004
  563MPD2    C5 8353   0.176   0.758  15.753 -0.6857 -0.0307 -0.1383
  563MPD2     H 8354   0.070   1.072  15.951 -2.3057 -0.5574 -1.0503
  563MPD2    H1 8355   0.372   0.816  15.783  0.9269  1.3021  0.0984
  563MPD2    H2 8356   4.690   0.713  15.738  0.6469  0.6595 -2.4273
  563MPD2    H3 8357   0.207   0.665  15.705  1.3041  1.0634 -0.9609
  563MPD2     N 8358   0.325   1.043  15.945 -0.0370  0.1837 -0.0504
  563MPD2    H5 8359   0.288   1.120  16.001  1.8140  0.8556  0.2448
  563MPD2    N1 8360   4.587   0.914  15.853 -0.2503 -0.4685  0.9282
  563MPD2    H7 8361   4.526   0.859  15.793 -1.2999  2.2475 -0.5052
  564TMC3    C1 8362   4.381   0.985  15.954  0.3004  0.1337  0.0924
  564TMC3    C2 8363   4.353   0.853  15.953  0.5204  0.2409 -0.1801
  564TMC3    C3 8364   4.298   0.807  16.069 -0.0129 -0.1589 -0.1551
  564TMC3    C4 8365   4.327   1.070  16.048 -0.8287  0.0977 -0.5900
  564TMC3    C5 8366   4.247   1.026  16.147  0.1882 -0.4440  0.1639
  564TMC3    C6 8367   4.240   0.891  16.158  0.2296  0.6630 -0.1394
  564TMC3     C 8368   4.527   1.006  15.934 -0.2421 -0.0867 -0.1750
  564TMC3     O 8369   4.570   1.092  16.007  0.4940  0.5242 -0.1319
  564TMC3     H 8370   4.411   0.786  15.890  1.5421  2.2706 -1.3954
  564TMC3    H1 8371   4.360   1.173  16.056  0.5477 -0.3446 -0.6050
  564TMC3    H2 8372   4.174   0.852  16.234  1.2709 -0.9042 -0.0285
  564TMC3    C7 8373   4.301   1.080  16.270  0.1000  0.0624 -0.0046
  564TMC3    C8 8374   4.376   0.708  16.141 -0.3229 -0.1768 -0.5173
  564TMC3    O1 8375   4.307   1.201  16.277 -0.8129 -0.6512  0.1961
  564TMC3    O2 8376   4.379   0.719  16.260  0.3496 -0.6047 -0.0953
  565TMC3    C1 8377   0.543   1.842  10.329  0.1249  0.8861 -0.3225
  565TMC3    C2 8378   0.607   1.818  10.451  0.0001  0.2169 -0.3383
  565TMC3    C3 8379   0.563   1.714  10.525  0.4652 -0.2988  0.1645
  565TMC3    C4 8380   0.449   1.755  10.277  0.4382  0.0621  0.0558
  565TMC3    C5 8381   0.433   1.640  10.349 -0.5128  0.6072 -0.1592
  565TMC3    C6 8382   0.473   1.624  10.478  0.6805  0.3151  0.3609
  565TMC3     C 8383   0.601   1.944  10.237  0.0587 -0.3616  0.2835
  565TMC3     O 8384   0.534   1.977  10.140 -0.1798  0.7508 -0.4472
  565TMC3     H 8385   0.669   1.893  10.499 -0.6492 -0.0872  0.9512
  565TMC3    H1 8386   0.397   1.789  10.188 -1.9960 -0.4464  1.2839
  565TMC3    H2 8387   0.480   1.525  10.521  0.8237  0.7376  1.2952
  565TMC3    C7 8388   0.331   1.539  10.306 -0.3069 -0.7423 -0.2788
  565TMC3    C8 8389   0.649   1.689  10.640 -0.5094  0.5673 -0.0479
  565TMC3    O1 8390   0.284   1.470  10.400  0.0437  0.0306  0.7686
  565TMC3    O2 8391   0.737   1.771  10.665 -0.3157  0.3861 -0.0789
  566MPD2     C 8392   1.893   3.359  14.421 -0.0804  0.0468  0.8361
  566MPD2    C1 8393   1.883   3.464  14.332 -0.0552  0.6257 -0.1412
  566MPD2    C2 8394   1.918   3.440  14.199 -0.4659  0.8055 -0.3440
  566MPD2    C3 8395   1.956   3.312  14.162  0.1716  0.1695 -0.1545
  566MPD2    C4 8396   1.971   3.204  14.252 -0.0210  0.0803  0.1316
  566MPD2    C5 8397   1.934   3.233  14.381 -0.4464  0.4603  0.0530
  566MPD2     H 8398   1.932   3.516  14.124  0.6568  0.8085 -0.1345
  566MPD2    H1 8399   1.993   3.103  14.221 -1.2119 -0.7761  2.0463
  566MPD2    H2 8400   1.863   3.378  14.524 -0.6407 -0.2968  0.7361
  566MPD2    H3 8401   1.936   3.151  14.452 -0.2626  0.0662 -0.4133
  566MPD2     N 8402   2.002   3.305  14.024 -0.6255  0.2493 -0.7872
  566MPD2    H5 8403   1.962   3.365  13.953 -0.1390  1.4134 -0.0719
  566MPD2    N1 8404   1.872   3.598  14.381  0.2851  0.4338 -0.3698
  566MPD2    H7 8405   1.870   3.602  14.483 -0.7011  0.1294 -0.3739
  567TMC3    C1 8406   1.901   3.830  14.384 -0.5104 -0.3839 -0.2592
  567TMC3    C2 8407   1.900   3.941  14.301 -0.5301 -0.2967 -0.5235
  567TMC3    C3 8408   1.997   4.036  14.324 -0.4928  0.7382  0.3283
  567TMC3    C4 8409   1.987   3.824  14.493  0.4353 -0.4928  0.3780
  567TMC3    C5 8410   2.074   3.925  14.514  0.3964 -0.4626 -0.0543
  567TMC3    C6 8411   2.089   4.030  14.426 -0.8198 -0.3473 -0.4827
  567TMC3     C 8412   1.866   3.717  14.307  0.4505 -0.3459  0.0825
  567TMC3     O 8413   1.858   3.731  14.184 -0.1375 -0.1063  0.2857
  567TMC3     H 8414   1.830   3.947  14.218 -0.8634 -0.1480 -0.2307
  567TMC3    H1 8415   2.016   3.728  14.535  0.8061  0.4015  2.1446
  567TMC3    H2 8416   2.174   4.097  14.436 -1.2344  0.1957 -0.5436
  567TMC3    C7 8417   2.157   3.921  14.637  0.2583 -0.8472 -0.4046
  567TMC3    C8 8418   2.040   4.104  14.202  0.7339  0.4432 -0.8416
  567TMC3    O1 8419   2.270   3.962  14.625  0.5281 -0.1118 -0.1217
  567TMC3    O2 8420   2.015   4.032  14.105 -0.0169  0.5523  0.1187
  568MPD2     C 8421   4.578   4.487  17.343  0.4780 -0.2025  0.1591
  568MPD2    C1 8422   4.492   4.477  17.235 -0.2634  0.0883  0.3696
  568MPD2    C2 8423   4.517   4.551  17.123  0.3604  0.0828 -0.1934
  568MPD2    C3 8424   4.617   4.645  17.121 -0.3079 -0.1578  1.0952
  568MPD2    C4 8425   4.687   4.663  17.239  0.4575 -0.0942  0.0540
  568MPD2    C5 8426   4.672   4.589  17.348  0.1689 -0.8049  0.7557
  568MPD2     H 8427   4.454   4.534  17.036 -0.2403 -0.7525  0.4099
  568MPD2    H1 8428   0.031   0.029  17.233 -1.4364  1.2744 -0.7431
  568MPD2    H2 8429   4.575   4.428  17.435  0.9173  0.6534  0.7233
  568MPD2    H3 8430   0.023   4.598  17.429  2.6985 -0.9492 -1.4556
  568MPD2     N 8431   4.659   0.004  17.014  0.2229  0.7801 -0.9553
  568MPD2    H5 8432   0.014   0.072  17.020 -1.4637  2.5689  0.0919
  568MPD2    N1 8433   4.391   4.377  17.246 -0.4520 -0.3803  0.5731
  568MPD2    H7 8434   4.403   4.306  17.318  1.5941 -1.4892 -0.8520
  569TMC3    C1 8435   4.646   0.115  16.823 -0.1116 -0.0348  0.4851
  569TMC3    C2 8436   4.620   0.232  16.897 -1.3634  0.7635 -0.0278
  569TMC3    C3 8437   4.592   0.344  16.822  0.2092 -0.4860  0.0994
  569TMC3    C4 8438   4.651   0.106  16.691 -0.1109 -0.5400  0.0410
  569TMC3    C5 8439   4.624   0.221  16.619 -0.9716 -0.0647  0.4635
  569TMC3    C6 8440   4.608   0.346  16.683 -0.7215  0.4872  0.7052
  569TMC3     C 8441   4.609   4.718  16.890  0.3172 -0.4108 -0.2985
  569TMC3     O 8442   4.529   4.640  16.841  0.5081 -0.2320  0.0919
  569TMC3     H 8443   4.599   0.234  17.003 -0.9792 -1.5502  0.0982
  569TMC3    H1 8444   4.682   0.010  16.651 -1.7409 -0.3428 -1.6859
  569TMC3    H2 8445   4.602   0.443  16.636  0.9289  0.5636  0.6708
  569TMC3    C7 8446   4.660   0.225  16.482 -0.2642  0.7021 -0.3360
  569TMC3    C8 8447   4.600   0.468  16.899  0.5439 -0.4313  0.5258
  569TMC3    O1 8448   0.033   0.157  16.442 -0.3611 -0.2976  0.6654
  569TMC3    O2 8449   4.684   0.473  16.985 -0.1728  0.6057  0.6269
  570TMC3    C1 8450   3.597   3.336  16.675 -0.4052  0.3366  0.4600
  570TMC3    C2 8451   3.664   3.294  16.564 -0.2746 -0.1576  0.0985
  570TMC3    C3 8452   3.677   3.370  16.459  0.2084  0.8579  0.1268
  570TMC3    C4 8453   3.553   3.466  16.688  0.4282  0.0886 -0.2595
  570TMC3    C5 8454   3.563   3.542  16.571 -0.7654  0.4700  0.0383
  570TMC3    C6 8455   3.623   3.489  16.455  0.8577 -0.1142  0.5775
  570TMC3     C 8456   3.588   3.242  16.782 -1.2089 -0.4163  0.5136
  570TMC3     O 8457   3.670   3.150  16.785 -0.1203 -0.1248 -0.1350
  570TMC3     H 8458   3.687   3.188  16.564  0.0929 -0.0778  0.7220
  570TMC3    H1 8459   3.512   3.501  16.782 -0.2421 -1.1781 -0.0736
  570TMC3    H2 8460   3.632   3.547  16.363  1.5258  0.9644  1.3115
  570TMC3    C7 8461   3.494   3.670  16.574  0.2656 -0.0967 -0.9202
  570TMC3    C8 8462   3.755   3.321  16.343 -0.6978 -1.0481  0.3386
  570TMC3    O1 8463   3.494   3.736  16.678  0.0026 -0.3819  0.4797
  570TMC3    O2 8464   3.785   3.406  16.256 -0.0037 -0.3308  0.1153
  571MPD2     C 8465   2.583   0.021   0.682 -0.8723 -0.1900  0.0719
  571MPD2    C1 8466   2.551   0.064   0.556  0.3402 -0.4867  0.1047
  571MPD2    C2 8467   2.551   0.195   0.524 -0.1183  0.2316  0.4050
  571MPD2    C3 8468   2.573   0.287   0.622 -0.6459 -0.4995  0.2835
  571MPD2    C4 8469   2.592   0.253   0.753  0.1800 -0.0134  0.8230
  571MPD2    C5 8470   2.606   0.117   0.780  0.8069 -0.3291  0.2893
  571MPD2     H 8471   2.522   0.225   0.424 -0.1346 -2.7238 -0.4790
  571MPD2    H1 8472   2.629   0.330   0.820  0.3513  0.4041  0.2537
  571MPD2    H2 8473   2.594   4.641   0.720  2.6035  0.5784  1.1534
  571MPD2    H3 8474   2.630   0.083   0.880 -1.6597  3.6437  2.2029
  571MPD2     N 8475   2.583   0.426   0.595  0.4872 -0.3967  0.0831
  571MPD2    H5 8476   2.604   0.491   0.671  1.9318 -0.5221 -0.2236
  571MPD2    N1 8477   2.532   4.678   0.461 -0.1415 -0.1947  0.4022
  571MPD2    H7 8478   2.543   4.588   0.507  2.4191  0.0175  0.2130
  572TMC3    C1 8479   2.593   0.637   0.471 -0.6980  0.2100  0.1322
  572TMC3    C2 8480   2.593   0.702   0.588 -0.2311 -0.1661  0.4004
  572TMC3    C3 8481   2.593   0.839   0.594 -0.1894 -0.4901  0.3971
  572TMC3    C4 8482   2.580   0.694   0.347  0.2035  0.7802  0.5639
  572TMC3    C5 8483   2.590   0.834   0.351  0.3571 -0.1253 -0.2065
  572TMC3    C6 8484   2.587   0.903   0.475 -0.2423  0.4955 -0.1506
  572TMC3     C 8485   2.603   0.484   0.469 -0.0863 -0.1338  0.2433
  572TMC3     O 8486   2.591   0.436   0.359  0.2953  0.2449  0.4974
  572TMC3     H 8487   2.647   0.656   0.671  2.2302 -0.2148 -1.2163
  572TMC3    H1 8488   2.566   0.632   0.260  2.7230 -0.7162  1.2057
  572TMC3    H2 8489   2.572   1.010   0.478 -2.1472  0.1961  1.5907
  572TMC3    C7 8490   2.546   0.910   0.238 -0.1898  0.2307  0.1618
  572TMC3    C8 8491   2.594   0.911   0.719 -0.3216 -0.2653  0.2441
  572TMC3    O1 8492   2.489   1.012   0.272  0.0328  0.6593 -0.4297
  572TMC3    O2 8493   2.636   1.027   0.710 -0.0700 -1.0087 -0.0662
  573MPD2     C 8494   2.795   0.556   1.475 -0.1524  0.2814  0.4914
  573MPD2    C1 8495   2.909   0.630   1.472  0.0429 -0.9429  0.1276
  573MPD2    C2 8496   2.951   0.689   1.356  0.2632  0.6449 -0.9078
  573MPD2    C3 8497   2.867   0.683   1.249 -0.1849  0.9560 -0.1316
  573MPD2    C4 8498   2.762   0.598   1.243 -0.4788 -0.1640  0.3102
  573MPD2    C5 8499   2.725   0.539   1.358 -0.2545 -0.1506  0.5862
  573MPD2     H 8500   3.041   0.749   1.360  1.0592 -0.6979  1.1896
  573MPD2    H1 8501   2.704   0.579   1.154  1.0811 -0.1915 -0.7014
  573MPD2    H2 8502   2.742   0.509   1.556 -1.0840  3.0529  1.5004
  573MPD2    H3 8503   2.630   0.488   1.363 -0.9256  1.2747  2.3730
  573MPD2     N 8504   2.891   0.752   1.128  0.0439 -0.0756 -0.1067
  573MPD2    H5 8505   2.844   0.717   1.045 -1.5811 -0.9660  1.1719
  573MPD2    N1 8506   2.973   0.641   1.595  0.0518  0.0999 -0.4321
  573MPD2    H7 8507   2.921   0.607   1.676  0.5162 -0.0707 -0.2060
  574TMC3    C1 8508   2.982   0.909   0.981  0.2602  0.3070  0.4064
  574TMC3    C2 8509   2.976   0.829   0.869 -0.1831 -0.7856 -1.0628
  574TMC3    C3 8510   2.976   0.892   0.745 -0.2165  0.9062  0.5255
  574TMC3    C4 8511   2.999   1.045   0.973 -0.4805  0.1073 -0.1024
  574TMC3    C5 8512   2.991   1.106   0.851  0.0647  1.2557  0.3086
  574TMC3    C6 8513   2.995   1.030   0.737  0.1542  0.3324  0.4762
  574TMC3     C 8514   2.971   0.866   1.119  1.0315  0.8368  0.0433
  574TMC3     O 8515   3.002   0.938   1.213  0.1241 -0.4481 -0.1953
  574TMC3     H 8516   2.947   0.724   0.872 -2.3538 -0.1359  0.3331
  574TMC3    H1 8517   2.999   1.099   1.067  0.8581 -0.0086 -0.0411
  574TMC3    H2 8518   3.006   1.081   0.642 -1.8568 -0.6115 -0.2568
  574TMC3    C7 8519   3.057   1.234   0.835  0.9362  0.0600 -0.2679
  574TMC3    C8 8520   2.942   0.815   0.631  0.4805  0.3732 -0.1793
  574TMC3    O1 8521   3.100   1.259   0.723  0.4266  0.8551  0.1119
  574TMC3    O2 8522   2.951   0.695   0.648  0.0573 -0.0401 -0.1235
  575TMC3    C1 8523   1.227   1.883  11.301 -0.2877 -0.1836  0.1302
  575TMC3    C2 8524   1.147   1.896  11.417  0.0275 -0.1668  0.2374
  575TMC3    C3 8525   1.012   1.869  11.420 -0.7773 -0.8590  0.3569
  575TMC3    C4 8526   1.168   1.847  11.183 -0.1434  0.4768 -0.3690
  575TMC3    C5 8527   1.030   1.810  11.187 -0.6402 -0.5584  0.4002
  575TMC3    C6 8528   0.954   1.822  11.306  0.0609  0.6434 -0.0317
  575TMC3     C 8529   1.362   1.934  11.310 -0.0033  0.8953 -0.5992
  575TMC3     O 8530   1.415   1.928  11.420 -0.0960  0.2932 -0.2711
  575TMC3     H 8531   1.188   1.941  11.506 -0.9266 -1.0101  1.1102
  575TMC3    H1 8532   1.217   1.802  11.098  0.9915  0.1785  0.4435
  575TMC3    H2 8533   0.854   1.782  11.299  0.0139  0.6619  0.5652
  575TMC3    C7 8534   0.982   1.731  11.072 -0.0802  0.0368 -0.6196
  575TMC3    C8 8535   0.932   1.932  11.526 -0.1867 -0.0465 -0.3059
  575TMC3    O1 8536   1.012   1.761  10.958  0.4193  0.5378  0.0099
  575TMC3    O2 8537   0.991   1.976  11.622  0.0874  0.1965 -0.1863
  576MPD2     C 8538   0.516   3.135  12.710 -0.6353  0.3788 -0.2181
  576MPD2    C1 8539   0.525   3.240  12.624  0.6114  0.1091 -0.1002
  576MPD2    C2 8540   0.451   3.351  12.644 -0.2650  0.0925  0.5054
  576MPD2    C3 8541   0.363   3.358  12.750 -0.1071 -0.3585  0.2743
  576MPD2    C4 8542   0.356   3.249  12.840  0.8410  0.5064  0.2108
  576MPD2    C5 8543   0.431   3.141  12.812 -0.6077  0.4161  0.5791
  576MPD2     H 8544   0.481   3.437  12.586  0.2959 -0.9501 -0.7395
  576MPD2    H1 8545   0.288   3.241  12.924 -2.0008  0.7455 -2.0655
  576MPD2    H2 8546   0.585   3.051  12.712 -1.3264 -0.1806  0.0179
  576MPD2    H3 8547   0.425   3.053  12.875  1.2667 -0.5633 -0.6189
  576MPD2     N 8548   0.292   3.479  12.753 -0.1401  0.3904 -0.2012
  576MPD2    H5 8549   0.315   3.546  12.681 -0.6072 -0.2662 -0.9561
  576MPD2    N1 8550   0.619   3.239  12.519  0.5329 -0.0535 -0.4459
  576MPD2    H7 8551   0.625   3.323  12.462 -1.2045  1.5693  1.7951
  577TMC3    C1 8552   0.768   3.156  12.356 -0.0874  0.5810 -1.1370
  577TMC3    C2 8553   0.807   3.043  12.288  0.1191 -0.5132  0.3036
  577TMC3    C3 8554   0.858   3.057  12.163 -0.1423 -0.3913 -0.1704
  577TMC3    C4 8555   0.784   3.281  12.304 -0.5084 -0.3283  0.0020
  577TMC3    C5 8556   0.828   3.292  12.171  0.0156  0.1227  0.1525
  577TMC3    C6 8557   0.862   3.179  12.100 -0.3857 -0.3014  0.4506
  577TMC3     C 8558   0.707   3.134  12.487  0.4579  0.5090  0.6920
  577TMC3     O 8559   0.724   3.024  12.535  0.0092 -0.1351  0.0532
  577TMC3     H 8560   0.803   2.947  12.338 -0.8778 -0.1129  0.9920
  577TMC3    H1 8561   0.748   3.367  12.359 -0.2065  0.6307 -1.3005
  577TMC3    H2 8562   0.912   3.189  12.004  1.0918  0.0303  1.2456
  577TMC3    C7 8563   0.867   3.419  12.129  0.0294  0.5439  0.0054
  577TMC3    C8 8564   0.884   2.932  12.095 -0.6151 -0.0068 -0.2270
  577TMC3    O1 8565   0.908   3.493  12.217 -0.6817  0.4755  0.0052
  577TMC3    O2 8566   0.885   2.829  12.165 -0.4068 -0.1377  0.4710
  578MPD2     C 8567   2.730   3.414   1.078 -0.2322 -0.0702 -0.2723
  578MPD2    C1 8568   2.754   3.324   1.177 -0.0140 -0.3867 -0.0639
  578MPD2    C2 8569   2.854   3.354   1.275  0.3323 -0.1658 -0.0833
  578MPD2    C3 8570   2.911   3.480   1.280  0.0781  0.1605 -0.4463
  578MPD2    C4 8571   2.870   3.570   1.193 -0.4287  0.1840 -0.4099
  578MPD2    C5 8572   2.775   3.540   1.100 -0.0533  0.5759  0.5562
  578MPD2     H 8573   2.873   3.286   1.357 -3.1887 -0.3467  0.5661
  578MPD2    H1 8574   2.925   3.663   1.183  1.2415 -1.0297 -2.3029
  578MPD2    H2 8575   2.665   3.397   0.993  0.2553  0.2170 -0.7053
  578MPD2    H3 8576   2.734   3.613   1.031  1.8738 -0.1962 -1.4132
  578MPD2     N 8577   3.016   3.499   1.385  0.3471 -0.4941  0.2417
  578MPD2    H5 8578   3.045   3.420   1.443 -3.3546  0.9503  4.0012
  578MPD2    N1 8579   2.698   3.195   1.177  0.2355  0.5731  0.2203
  578MPD2    H7 8580   2.753   3.126   1.227  1.0466  0.3081 -1.0215
  579TMC3    C1 8581   3.203   3.589   1.493 -0.2148 -0.0180  0.6135
  579TMC3    C2 8582   3.267   3.705   1.528 -0.3951  0.1127  0.3158
  579TMC3    C3 8583   3.387   3.690   1.589 -0.0710  0.2043 -0.5918
  579TMC3    C4 8584   3.239   3.461   1.529 -0.2046 -0.1475 -0.1053
  579TMC3    C5 8585   3.349   3.465   1.612 -0.5113 -0.2525 -0.5878
  579TMC3    C6 8586   3.433   3.569   1.638 -0.1289 -0.7382  0.2252
  579TMC3     C 8587   3.094   3.611   1.399 -0.1330 -0.1167 -0.1727
  579TMC3     O 8588   3.070   3.725   1.358  0.3758  0.1030  0.4664
  579TMC3     H 8589   3.242   3.801   1.484  1.1784  0.7690  0.8459
  579TMC3    H1 8590   3.188   3.373   1.492 -0.9217  1.6998 -3.4533
  579TMC3    H2 8591   3.510   3.556   1.713 -0.2002 -0.9971  0.2550
  579TMC3    C7 8592   3.375   3.341   1.685  0.7555 -0.1760 -0.6663
  579TMC3    C8 8593   3.460   3.811   1.626  0.1298  0.0785 -0.1011
  579TMC3    O1 8594   3.487   3.344   1.733 -0.1283 -0.3557  0.1950
  579TMC3    O2 8595   3.391   3.912   1.638 -0.1183 -0.1151  0.0071
  580TMC3    C1 8596   2.893   2.246  11.362 -0.5803 -0.0919  0.3377
  580TMC3    C2 8597   2.952   2.186  11.259  0.0343 -0.1427  0.4156
  580TMC3    C3 8598   2.928   2.050  11.244 -0.2897 -0.5647 -0.1274
  580TMC3    C4 8599   2.813   2.181  11.449  0.5923 -0.2989 -0.5115
  580TMC3    C5 8600   2.794   2.047  11.437 -0.4619  1.0537  0.6209
  580TMC3    C6 8601   2.861   1.981  11.339 -0.4906  0.3522  0.4111
  580TMC3     C 8602   2.956   2.360  11.416 -0.6533 -0.0903  0.5543
  580TMC3     O 8603   3.053   2.398  11.349 -0.4987  0.6029 -0.0315
  580TMC3     H 8604   3.006   2.240  11.183  0.0137  0.6139  0.9422
  580TMC3    H1 8605   2.757   2.222  11.532  1.2270 -1.5175  0.5192
  580TMC3    H2 8606   2.870   1.874  11.346 -0.9461  0.2069 -1.1706
  580TMC3    C7 8607   2.809   1.982  11.566  0.4692  0.5653  0.5219
  580TMC3    C8 8608   3.016   1.964  11.166 -0.2570 -0.8874 -0.0158
  580TMC3    O1 8609   2.834   2.060  11.655  0.6236 -0.5094 -0.1771
  580TMC3    O2 8610   2.988   1.842  11.173 -0.5432  0.3373 -0.2456
  581MPD2     C 8611   0.951   1.881  15.392 -0.1609 -0.1491 -0.2716
  581MPD2    C1 8612   0.925   1.988  15.473 -0.2180  1.0419 -0.2053
  581MPD2    C2 8613   0.821   2.071  15.436  0.1091  0.2139 -1.3250
  581MPD2    C3 8614   0.742   2.044  15.328  0.0602 -0.3222  0.1920
  581MPD2    C4 8615   0.764   1.931  15.251 -0.2706  0.6028  0.6891
  581MPD2    C5 8616   0.873   1.854  15.287  0.1929 -0.1573 -0.3270
  581MPD2     H 8617   0.817   2.159  15.499  2.0527 -0.6432 -0.0328
  581MPD2    H1 8618   0.711   1.910  15.159  0.4368  1.0029  0.1865
  581MPD2    H2 8619   1.024   1.810  15.430  0.8685 -1.0625 -3.9208
  581MPD2    H3 8620   0.890   1.762  15.232 -0.9432  0.5887 -1.9165
  581MPD2     N 8621   0.625   2.127  15.301 -1.0464 -0.5574 -0.3979
  581MPD2    H5 8622   0.628   2.218  15.346 -1.6880 -0.6923 -0.0744
  581MPD2    N1 8623   1.016   2.005  15.584  0.6572 -0.0342  0.5515
  581MPD2    H7 8624   1.103   1.955  15.573  1.1952  1.3074 -1.2733
  582TMC3    C1 8625   1.108   2.061  15.793 -0.0265 -0.3207  0.3785
  582TMC3    C2 8626   1.096   2.113  15.923  0.4958  0.3376  1.2961
  582TMC3    C3 8627   1.178   2.065  16.023  0.7032 -0.0288 -0.3671
  582TMC3    C4 8628   1.190   1.945  15.772 -0.0085 -0.0116 -0.3677
  582TMC3    C5 8629   1.243   1.883  15.886 -0.9763 -0.2388 -0.4138
  582TMC3    C6 8630   1.245   1.946  16.008  0.1166  0.2851 -0.2554
  582TMC3     C 8631   1.001   2.085  15.695  0.1484 -0.3300 -0.4932
  582TMC3     O 8632   0.904   2.134  15.741 -0.1642  0.4828  0.9937
  582TMC3     H 8633   1.038   2.202  15.947 -0.4077 -0.4378  1.9960
  582TMC3    H1 8634   1.195   1.892  15.677 -0.1979  0.4932 -0.6599
  582TMC3    H2 8635   1.293   1.880  16.080  1.2594 -0.5935 -1.8254
  582TMC3    C7 8636   1.307   1.753  15.880 -0.1101 -0.7634  0.0950
  582TMC3    C8 8637   1.178   2.119  16.159 -0.6803 -0.3164  0.5868
  582TMC3    O1 8638   1.422   1.757  15.919 -0.2943 -0.7710 -0.2337
  582TMC3    O2 8639   1.103   2.209  16.186  0.0156  0.2314  0.0957
  583MPD2     C 8640   1.015   3.893  17.171 -0.1197 -0.1135  0.6926
  583MPD2    C1 8641   0.986   4.005  17.095 -1.0798  0.2495  0.0690
  583MPD2    C2 8642   0.923   4.108  17.160 -0.2713 -0.9146 -0.9861
  583MPD2    C3 8643   0.891   4.105  17.296 -0.3876  0.6178  0.1414
  583MPD2    C4 8644   0.921   3.984  17.368 -0.5901 -0.1750 -0.3540
  583MPD2    C5 8645   0.978   3.883  17.302 -0.1074 -0.7620  0.6897
  583MPD2     H 8646   0.904   4.201  17.107 -0.5972 -0.2414  0.3299
  583MPD2    H1 8647   0.906   3.976  17.475 -0.3121 -0.4725 -0.3372
  583MPD2    H2 8648   1.068   3.807  17.131 -1.2764 -0.5209  0.0401
  583MPD2    H3 8649   1.000   3.787  17.347 -0.1665  0.6720  3.7589
  583MPD2     N 8650   0.842   4.224  17.359  0.1415 -0.4051  0.9444
  583MPD2    H5 8651   0.836   4.306  17.300 -0.8521 -0.0396  1.5510
  583MPD2    N1 8652   1.009   4.016  16.955 -0.3024  0.2073  0.0952
  583MPD2    H7 8653   0.982   4.098  16.902  3.3157 -0.4197 -2.6904
  584TMC3    C1 8654   0.775   4.389  17.522 -0.2975 -0.6893  0.4454
  584TMC3    C2 8655   0.821   4.493  17.446  0.1018 -0.6112 -0.1157
  584TMC3    C3 8656   0.770   4.616  17.473  0.8478  0.3318 -1.0586
  584TMC3    C4 8657   0.703   4.408  17.636 -0.4548  0.3052  0.0209
  584TMC3    C5 8658   0.659   4.531  17.660  0.2963 -0.4628  0.4004
  584TMC3    C6 8659   0.701   4.637  17.584 -0.7439 -0.6617 -0.4400
  584TMC3     C 8660   0.811   4.248  17.496  0.2732 -0.1951 -0.1610
  584TMC3     O 8661   0.789   4.163  17.579  0.6134 -0.2719 -0.5617
  584TMC3     H 8662   0.898   4.475  17.372  2.1493  0.2093  1.7920
  584TMC3    H1 8663   0.672   4.320   0.004 -1.7532  1.6449  1.4607
  584TMC3    H2 8664   0.666   0.016  17.610  0.9827  0.2382 -1.6018
  584TMC3    C7 8665   0.610   4.553   0.105  1.1687 -0.5545 -0.7952
  584TMC3    C8 8666   0.786   4.714  17.371  0.3009 -0.3320  0.2010
  584TMC3    O1 8667   0.646   4.658   0.157 -0.5225  0.5630 -0.1048
  584TMC3    O2 8668   0.789   4.666  17.259  0.2198 -0.1182  0.5684
  585MPD2     C 8669   0.485   3.314   0.345 -0.0272 -0.2420 -0.0248
  585MPD2    C1 8670   0.451   3.188   0.394  0.1433 -0.1774  0.1091
  585MPD2    C2 8671   0.480   3.076   0.319 -0.0242  0.0252 -0.0466
  585MPD2    C3 8672   0.540   3.091   0.194 -0.1652 -0.4874  0.8549
  585MPD2    C4 8673   0.563   3.217   0.136  0.5905 -0.2612  0.2967
  585MPD2    C5 8674   0.535   3.324   0.222  0.1634  0.1611 -0.5068
  585MPD2     H 8675   0.460   2.979   0.363  0.4462 -0.1702 -0.2708
  585MPD2    H1 8676   0.600   3.225   0.035  0.1448  2.5896  0.3543
  585MPD2    H2 8677   0.452   3.395   0.409  1.5509  1.1953 -1.0095
  585MPD2    H3 8678   0.545   3.422   0.177 -2.7157  0.5304 -0.3929
  585MPD2     N 8679   0.561   2.981   0.104  0.0193  0.1494 -0.7029
  585MPD2    H5 8680   0.568   2.997   0.004  0.0334  0.5698 -0.6364
  585MPD2    N1 8681   0.390   3.185   0.521 -0.3359 -1.1384  0.6751
  585MPD2    H7 8682   0.372   3.273   0.568 -0.6495  0.6018 -2.7467
  586TMC3    C1 8683   0.569   2.754   0.030  0.1189  0.6183  0.1113
  586TMC3    C2 8684   0.598   2.630   0.074 -0.0238 -0.0483  0.0185
  586TMC3    C3 8685   0.499   2.532   0.082  0.3186  0.2917  0.8744
  586TMC3    C4 8686   0.448   2.782  17.660  0.4066  0.0867 -0.3942
  586TMC3    C5 8687   0.344   2.690  17.677  0.4156 -0.4878  0.1493
  586TMC3    C6 8688   0.372   2.563   0.046  0.2788  0.4396  0.0930
  586TMC3     C 8689   0.589   2.850   0.139  0.3967  0.6981 -0.1953
  586TMC3     O 8690   0.601   2.806   0.253 -0.0275  0.4886  0.5043
  586TMC3     H 8691   0.689   2.615   0.130 -0.7084 -2.9185  0.3924
  586TMC3    H1 8692   0.429   2.882  17.622  2.9081  0.6495 -0.1607
  586TMC3    H2 8693   0.299   2.487   0.071  0.7523 -0.5322 -1.4864
  586TMC3    C7 8694   0.215   2.744   0.038 -0.1673 -0.2855  0.3838
  586TMC3    C8 8695   0.536   2.397   0.110 -0.2854  0.4060  0.4367
  586TMC3    O1 8696   0.120   2.669   0.056 -0.4318 -0.2123 -0.0205
  586TMC3    O2 8697   0.455   2.340   0.184 -0.1796 -0.2386  0.0410
  587TMC3    C1 8698   2.405   1.653  17.086  0.3087 -0.4578 -0.5441
  587TMC3    C2 8699   2.345   1.735  17.176 -0.5108  0.3017 -0.0620
  587TMC3    C3 8700   2.411   1.759  17.293 -0.3766 -0.5885  0.5976
  587TMC3    C4 8701   2.534   1.609  17.106 -0.4460  0.0913 -0.4163
  587TMC3    C5 8702   2.592   1.624  17.229  0.2880 -0.0572  0.8619
  587TMC3    C6 8703   2.534   1.704  17.327 -0.0522 -0.2882 -0.6753
  587TMC3     C 8704   2.326   1.590  16.979 -0.2422  0.6698  0.0817
  587TMC3     O 8705   2.378   1.511  16.897 -0.2403 -0.1045 -0.2374
  587TMC3     H 8706   2.255   1.789  17.150  0.5360  1.4288 -1.3269
  587TMC3    H1 8707   2.578   1.550  17.027  1.1740  0.5488  0.1641
  587TMC3    H2 8708   2.586   1.727  17.419 -0.2906  1.6479 -1.0209
  587TMC3    C7 8709   2.717   1.550  17.253  1.1467 -0.1789 -0.4266
  587TMC3    C8 8710   2.337   1.796  17.413 -0.0196  0.8013 -0.8897
  587TMC3    O1 8711   2.769   1.492  17.158  0.4451 -0.4625  0.0048
  587TMC3    O2 8712   2.386   1.791  17.523  0.0439 -0.3661 -0.6530
  588TMC3    C1 8713   0.133   4.051   9.905  0.4367 -0.1923  0.4214
  588TMC3    C2 8714   0.062   3.935   9.915 -0.0777 -0.2571 -0.0592
  588TMC3    C3 8715   0.132   3.836   9.972  0.3676 -0.6425  0.0325
  588TMC3    C4 8716   0.259   4.072   9.958 -0.0476  0.6044 -0.5845
  588TMC3    C5 8717   0.319   3.960  10.013 -1.1229  0.0783 -0.4261
  588TMC3    C6 8718   0.255   3.844  10.019 -0.2776  0.6364  0.1277
  588TMC3     C 8719   0.060   4.177   9.867 -0.6395  0.5106  0.1021
  588TMC3     O 8720   4.669   4.161   9.823 -0.3463 -0.0419 -0.1243
  588TMC3     H 8721   4.681   3.920   9.882 -0.8339 -0.6534  2.4265
  588TMC3    H1 8722   0.317   4.162   9.948  1.5362 -0.4867 -1.2583
  588TMC3    H2 8723   0.299   3.770  10.084 -0.5031  0.8771  0.5549
  588TMC3    C7 8724   0.418   3.998  10.108  0.0454  0.2867 -0.1049
  588TMC3    C8 8725   0.055   3.714   9.999 -0.0451 -0.4462 -0.6452
  588TMC3    O1 8726   0.516   3.927  10.127 -0.1743  0.1737 -0.4860
  588TMC3    O2 8727   4.656   3.723   9.970 -0.0581  0.5948 -0.5980
  589TMC3    C1 8728   3.391   1.620   2.074 -0.2948 -0.2579 -0.2191
  589TMC3    C2 8729   3.450   1.562   2.179 -0.0106  0.4688 -0.0311
  589TMC3    C3 8730   3.574   1.512   2.151 -1.5899 -0.1527  1.1176
  589TMC3    C4 8731   3.454   1.628   1.952  0.2966 -0.1497 -0.3739
  589TMC3    C5 8732   3.579   1.583   1.930  0.2164  0.4104 -0.5457
  589TMC3    C6 8733   3.642   1.519   2.026 -0.6404  0.4391  0.2382
  589TMC3     C 8734   3.269   1.701   2.088  0.7854 -0.0687 -0.2771
  589TMC3     O 8735   3.207   1.739   1.989 -0.4374 -0.6006  0.4097
  589TMC3     H 8736   3.422   1.573   2.283 -1.4813  0.6626 -0.4500
  589TMC3    H1 8737   3.410   1.686   1.871 -1.8765 -0.8208  0.3352
  589TMC3    H2 8738   3.720   1.448   2.002 -1.9264 -0.7436 -0.4823
  589TMC3    C7 8739   3.613   1.537   1.791 -0.6347 -0.1858  0.3294
  589TMC3    C8 8740   3.643   1.457   2.263 -0.6342  0.1921 -0.4502
  589TMC3    O1 8741   3.686   1.443   1.789  0.1143  0.0863 -0.2860
  589TMC3    O2 8742   3.576   1.414   2.362  0.3783  0.0604  0.4032
  590MPD2     C 8743   3.372   0.202  17.040 -0.5246  0.4623 -0.2658
  590MPD2    C1 8744   3.321   0.264  16.930  0.2548 -0.2309  0.5383
  590MPD2    C2 8745   3.413   0.305  16.827 -0.2793  0.2084 -0.1497
  590MPD2    C3 8746   3.547   0.279  16.847  0.1709 -0.5543 -0.0546
  590MPD2    C4 8747   3.598   0.221  16.962  0.7701 -0.2212  0.0963
  590MPD2    C5 8748   3.507   0.191  17.061  0.6895  0.6628 -0.3136
  590MPD2     H 8749   3.374   0.349  16.736  0.8962  1.8606  0.1648
  590MPD2    H1 8750   3.698   0.184  16.977  0.6861  0.4221  2.2752
  590MPD2    H2 8751   3.308   0.173  17.122 -0.1524 -0.3721 -0.2760
  590MPD2    H3 8752   3.534   0.139  17.153 -0.8834 -0.7894 -0.6869
  590MPD2     N 8753   3.629   0.308  16.740 -0.0092 -0.1401  0.1309
  590MPD2    H5 8754   3.585   0.323  16.650 -0.0921 -1.3954 -0.0373
  590MPD2    N1 8755   3.180   0.286  16.931 -0.1312 -0.3820 -0.2484
  590MPD2    H7 8756   3.132   0.244  17.011  0.2356  2.2063  1.3257
  591TMC3    C1 8757   3.811   0.341  16.606  0.3903  0.3056 -0.0450
  591TMC3    C2 8758   3.917   0.269  16.550 -0.2426 -0.0658 -0.2645
  591TMC3    C3 8759   3.952   0.299  16.424  0.2320 -0.4205  0.0295
  591TMC3    C4 8760   3.738   0.431  16.531  0.6842 -1.1930 -0.1543
  591TMC3    C5 8761   3.777   0.461  16.411 -0.3986  1.0288  0.1003
  591TMC3    C6 8762   3.880   0.392  16.356  0.3357  0.1263 -0.1178
  591TMC3     C 8763   3.765   0.298  16.735  0.2490  0.0073  0.4686
  591TMC3     O 8764   3.842   0.235  16.809 -0.2386 -0.3624 -1.0245
  591TMC3     H 8765   3.976   0.201  16.612  0.5266  2.6635  2.0053
  591TMC3    H1 8766   3.656   0.493  16.566  1.7357  0.3746 -0.4710
  591TMC3    H2 8767   3.898   0.404  16.250  0.6336 -2.0268 -0.3158
  591TMC3    C7 8768   3.690   0.526  16.323  0.5496 -0.0776  0.4928
  591TMC3    C8 8769   4.026   0.200  16.348  0.4615  0.0210 -0.3859
  591TMC3    O1 8770   3.577   0.477  16.322  0.2994 -0.1526  0.1739
  591TMC3    O2 8771   4.026   0.082  16.380 -0.0610 -0.3266 -0.4420
  592MPD2     C 8772   4.180   2.323  11.078 -0.0833  0.0383  0.3950
  592MPD2    C1 8773   4.190   2.376  11.208 -0.6218  0.6027 -0.4155
  592MPD2    C2 8774   4.128   2.296  11.301 -0.4809 -0.4661 -0.8388
  592MPD2    C3 8775   4.044   2.193  11.268  0.4052 -0.0206  0.1662
  592MPD2    C4 8776   4.036   2.148  11.136  0.1506  0.1175 -0.5609
  592MPD2    C5 8777   4.103   2.220  11.042 -0.7099 -0.4695  0.0487
  592MPD2     H 8778   4.132   2.311  11.408 -1.4942 -1.7033 -0.6311
  592MPD2    H1 8779   3.971   2.069  11.101  1.3167 -0.9226 -0.3463
  592MPD2    H2 8780   4.241   2.376  11.006 -3.2460  1.2611 -1.4058
  592MPD2    H3 8781   4.098   2.185  10.940  0.9187 -3.1028  0.8766
  592MPD2     N 8782   3.960   2.142  11.372 -0.1456 -0.3388  0.2798
  592MPD2    H5 8783   3.994   2.175  11.461 -1.2461  0.8719  0.2511
  592MPD2    N1 8784   4.266   2.492  11.236  0.0436  0.5192 -0.3412
  592MPD2    H7 8785   4.326   2.532  11.165 -1.0737 -1.2972 -2.3246
  593TMC3    C1 8786   4.377   2.649  11.388  0.3399  0.1971 -0.2621
  593TMC3    C2 8787   4.354   2.736  11.493 -0.4544 -0.0773  0.3537
  593TMC3    C3 8788   4.428   2.848  11.502 -0.4578 -0.2530 -0.3820
  593TMC3    C4 8789   4.475   2.671  11.296 -0.3554  0.0188 -0.2469
  593TMC3    C5 8790   4.552   2.779  11.317  0.4867 -1.0292  0.4067
  593TMC3    C6 8791   4.523   2.874  11.409 -0.2170 -0.0859  0.1433
  593TMC3     C 8792   4.264   2.559  11.356  0.2701 -0.3071 -0.3418
  593TMC3     O 8793   4.174   2.542  11.440 -0.5367 -0.7145 -0.2981
  593TMC3     H 8794   4.285   2.712  11.573  0.1187  0.4133  0.9958
  593TMC3    H1 8795   4.495   2.607  11.212 -1.5890  0.0873 -0.5899
  593TMC3    H2 8796   4.579   2.966  11.413 -1.0918  0.4343  0.5104
  593TMC3    C7 8797   4.661   2.798  11.222 -0.1826  0.2483 -0.6129
  593TMC3    C8 8798   4.397   2.953  11.600  0.0549  0.6168  0.8785
  593TMC3    O1 8799   0.037   2.858  11.268  0.2757 -0.3792 -0.3937
  593TMC3    O2 8800   4.284   2.962  11.638 -0.7294  0.0302 -0.1156
  594MPD2     C 8801   2.673   1.237  13.937 -0.6653 -0.3748  0.1659
  594MPD2    C1 8802   2.648   1.236  14.069 -0.1691 -0.3855  0.1924
  594MPD2    C2 8803   2.741   1.299  14.152 -0.0259 -0.1375 -0.0527
  594MPD2    C3 8804   2.863   1.352  14.113  0.0271 -0.4843  0.4459
  594MPD2    C4 8805   2.896   1.337  13.976 -0.2897 -0.1540 -0.1879
  594MPD2    C5 8806   2.796   1.275  13.895  0.0971 -0.4106  0.0554
  594MPD2     H 8807   2.729   1.314  14.259  0.8812 -0.6989  0.1308
  594MPD2    H1 8808   2.987   1.364  13.923  2.1479 -1.6983  3.1868
  594MPD2    H2 8809   2.599   1.194  13.870 -1.3368  2.1728 -0.7039
  594MPD2    H3 8810   2.824   1.262  13.791  0.2461  2.7478 -0.3150
  594MPD2     N 8811   2.942   1.430  14.204  0.4894 -0.4591  0.3967
  594MPD2    H5 8812   2.915   1.417  14.301  0.1546  0.7877  0.4746
  594MPD2    N1 8813   2.535   1.165  14.116  0.1155  0.7091 -0.7184
  594MPD2    H7 8814   2.468   1.117  14.056  0.3052  0.5289 -0.7859
  595TMC3    C1 8815   3.271   1.682  14.400 -0.3450 -0.3641  0.2668
  595TMC3    C2 8816   3.240   1.602  14.295 -0.3736  0.1534  0.3485
  595TMC3    C3 8817   3.103   1.578  14.282  0.0169 -0.4399  0.2938
  595TMC3    C4 8818   3.180   1.726  14.493  0.5519  0.1121  0.0535
  595TMC3    C5 8819   3.049   1.691  14.474 -0.2691 -0.6750  0.2688
  595TMC3    C6 8820   3.004   1.616  14.368  0.3956 -0.4334 -0.3652
  595TMC3     C 8821   3.414   1.705  14.426 -0.0557 -0.2498  0.0639
  595TMC3     O 8822   3.433   1.760  14.533  0.1968  0.6469 -0.1830
  595TMC3     H 8823   3.312   1.569  14.221 -0.1000  0.4427  0.4879
  595TMC3    H1 8824   3.223   1.775  14.580  0.7695  0.8635 -0.4801
  595TMC3    H2 8825   2.898   1.599  14.356  0.2690 -1.4733  2.2123
  595TMC3    C7 8826   2.946   1.740  14.563 -0.3169  0.4339 -0.2933
  595TMC3    C8 8827   3.058   1.497  14.173  0.6048  0.1112  0.0985
  595TMC3    O1 8828   2.845   1.670  14.573  0.3523 -0.0119 -0.5147
  595TMC3    O2 8829   3.114   1.503  14.065  0.0129  0.5989 -0.2468
  596MPD2     C 8830   1.775   3.865  17.153  0.2768  0.7630 -0.3159
  596MPD2    C1 8831   1.785   3.974  17.063 -0.8324  0.4273  0.7104
  596MPD2    C2 8832   1.815   3.948  16.935  0.0310 -0.1778  0.4622
  596MPD2    C3 8833   1.850   3.812  16.890  0.3052 -0.5472 -0.0138
  596MPD2    C4 8834   1.845   3.705  16.986  0.7573  0.5049  0.4042
  596MPD2    C5 8835   1.803   3.733  17.114 -0.3043 -0.5561  0.2810
  596MPD2     H 8836   1.801   4.035  16.871 -1.1690 -1.4528 -1.0262
  596MPD2    H1 8837   1.859   3.602  16.956  0.2684  0.6745 -0.4301
  596MPD2    H2 8838   1.722   3.868  17.247  0.1903 -0.9865 -0.3057
  596MPD2    H3 8839   1.795   3.652  17.185 -0.4078 -1.1981 -0.4645
  596MPD2     N 8840   1.871   3.774  16.751  0.1857  0.2598  0.2236
  596MPD2    H5 8841   1.885   3.677  16.726 -0.4619 -0.2086  1.6207
  596MPD2    N1 8842   1.737   4.100  17.099 -0.3277 -0.0639 -0.3225
  596MPD2    H7 8843   1.740   4.172  17.028  0.5166  0.7390  0.5285
  597TMC3    C1 8844   1.642   4.273  17.226 -0.2579  0.1824  0.1521
  597TMC3    C2 8845   1.697   4.367  17.141  0.0434 -0.1625  0.8091
  597TMC3    C3 8846   1.673   4.498  17.164  0.1048  0.7661  0.1673
  597TMC3    C4 8847   1.550   4.310  17.323 -0.1652 -0.0788 -0.4503
  597TMC3    C5 8848   1.531   4.443  17.341 -0.5377 -0.4869 -0.4908
  597TMC3    C6 8849   1.587   4.539  17.263 -0.8423 -0.0091 -0.2962
  597TMC3     C 8850   1.700   4.141  17.230  0.2103  0.7168  0.0166
  597TMC3     O 8851   1.695   4.077  17.334  0.5334 -0.0206 -0.3445
  597TMC3     H 8852   1.784   4.346  17.079  0.0643 -2.3858  1.5892
  597TMC3    H1 8853   1.500   4.248  17.395 -1.9048  2.0741  0.2024
  597TMC3    H2 8854   1.575   4.645  17.284 -0.0447 -0.5469  2.8074
  597TMC3    C7 8855   1.413   4.485  17.416 -0.0040  0.3743 -1.1608
  597TMC3    C8 8856   1.724   4.609  17.078  0.0370 -0.1024 -0.3785
  597TMC3    O1 8857   1.376   4.420  17.515 -0.0183 -0.2163  0.0002
  597TMC3    O2 8858   1.707   0.007  17.116  0.3704  0.6120 -0.5351
  598TMC3    C1 8859   4.358   0.406  15.336  0.9849 -0.3193  0.1588
  598TMC3    C2 8860   4.246   0.328  15.341  0.1957 -0.3659  0.7091
  598TMC3    C3 8861   4.154   0.341  15.240  0.0878 -0.5219  0.7462
  598TMC3    C4 8862   4.377   0.501  15.243 -0.3594 -0.0530  0.1327
  598TMC3    C5 8863   4.276   0.517  15.146 -0.3514  0.1023 -0.3068
  598TMC3    C6 8864   4.165   0.438  15.144 -0.1122  0.4393 -0.5365
  598TMC3     C 8865   4.439   0.401  15.464 -0.0998  0.4442  0.1224
  598TMC3     O 8866   4.380   0.374  15.570  0.1448 -0.2514  0.1988
  598TMC3     H 8867   4.232   0.271  15.432  2.0860 -1.6886  0.1628
  598TMC3    H1 8868   4.465   0.563  15.248  0.6627 -1.6113  1.4128
  598TMC3    H2 8869   4.104   0.444  15.055 -1.8048 -0.6820  0.5591
  598TMC3    C7 8870   4.291   0.612  15.038  0.3895  0.1125 -0.3118
  598TMC3    C8 8871   4.046   0.247  15.221 -0.2122  0.3108  0.1370
  598TMC3    O1 8872   4.225   0.604  14.941 -0.1430  0.3316  0.1122
  598TMC3    O2 8873   3.953   0.275  15.152  0.6441  0.4600 -0.4930
  599MPD2     C 8874   4.705   3.359  16.214 -0.1122 -0.1587 -0.7680
  599MPD2    C1 8875   4.679   3.225  16.229 -0.2251 -0.9548 -0.2634
  599MPD2    C2 8876   4.564   3.187  16.311  0.1614 -0.3638 -0.1405
  599MPD2    C3 8877   4.499   3.288  16.385  0.5340 -0.2787  0.3363
  599MPD2    C4 8878   4.536   3.422  16.368 -0.6056  0.3366 -0.1821
  599MPD2    C5 8879   4.638   3.456  16.283 -0.2443 -0.1585 -0.6841
  599MPD2     H 8880   4.527   3.086  16.316 -2.4634  0.5657 -1.2045
  599MPD2    H1 8881   4.483   3.503  16.417 -1.1359  0.0446 -0.2706
  599MPD2    H2 8882   0.063   3.383  16.143 -2.3194  1.3632 -2.6728
  599MPD2    H3 8883   4.665   3.560  16.279 -4.6217  1.0202  0.4737
  599MPD2     N 8884   4.394   3.268  16.473 -0.0023  0.0118  0.1895
  599MPD2    H5 8885   4.349   3.354  16.505  2.0046  1.0486  0.2644
  599MPD2    N1 8886   0.049   3.129  16.178  0.1417  0.8036 -0.1090
  599MPD2    H7 8887   0.136   3.167  16.142 -0.6597  2.7611  0.0336
  600TMC3    C1 8888   4.216   3.156  16.584  0.6770  0.2287 -0.5871
  600TMC3    C2 8889   4.168   3.041  16.642  0.2415 -0.4799  0.0579
  600TMC3    C3 8890   4.054   3.041  16.717  0.2522  0.1135 -0.1524
  600TMC3    C4 8891   4.151   3.275  16.598 -0.9617  0.4349 -0.0220
  600TMC3    C5 8892   4.045   3.276  16.690  0.4043  0.4764  0.3702
  600TMC3    C6 8893   3.987   3.162  16.744  0.1890 -0.4020 -0.3170
  600TMC3     C 8894   4.340   3.149  16.507 -0.6496 -0.0067 -0.4057
  600TMC3     O 8895   4.390   3.038  16.499  0.1414 -0.1692 -0.7541
  600TMC3     H 8896   4.226   2.949  16.641  0.7552 -0.1593  0.3748
  600TMC3    H1 8897   4.173   3.357  16.531 -2.9357 -0.1944 -1.4538
  600TMC3    H2 8898   3.913   3.167  16.822 -2.1282  0.0380 -2.5366
  600TMC3    C7 8899   3.986   3.403  16.731 -0.0553  0.8246  1.1710
  600TMC3    C8 8900   3.986   2.909  16.741  0.0585  0.4167  0.0029
  600TMC3    O1 8901   3.873   3.398  16.775 -0.4105 -0.1313 -0.1073
  600TMC3    O2 8902   4.057   2.813  16.717 -0.2214  0.1939  0.0827
  601MPD2     C 8903   2.362   0.881  17.450 -0.3131  0.3729  0.2933
  601MPD2    C1 8904   2.317   0.943  17.562  0.1936  1.1828 -0.6336
  601MPD2    C2 8905   2.389   0.939  17.682 -0.7076  0.4107 -0.0908
  601MPD2    C3 8906   2.507   0.867   0.003  0.8396 -0.3806 -0.2841
  601MPD2    C4 8907   2.553   0.802  17.576 -0.0868  0.6758 -0.0456
  601MPD2    C5 8908   2.488   0.816  17.451  0.2353  1.1312 -0.4421
  601MPD2     H 8909   2.345   0.991   0.080  0.7482  0.8487  0.3917
  601MPD2    H1 8910   2.641   0.739  17.586 -1.9852 -1.8357  0.5601
  601MPD2    H2 8911   2.306   0.893  17.358  0.1643  0.2635 -0.0143
  601MPD2    H3 8912   2.510   0.757  17.362 -1.3509 -0.2311  0.0654
  601MPD2     N 8913   2.576   0.847   0.124  0.4058 -0.0500 -0.6561
  601MPD2    H5 8914   2.655   0.783   0.122  0.5932  0.1336  0.7782
  601MPD2    N1 8915   2.204   1.025  17.564 -0.1319 -0.7362  0.3493
  601MPD2    H7 8916   2.195   1.084  17.646 -1.7850  0.5561 -0.7631
  602TMC3    C1 8917   1.981   1.093  17.520 -0.0886 -0.4433 -0.0864
  602TMC3    C2 8918   2.003   1.201  17.611  0.6901 -0.8748 -0.0800
  602TMC3    C3 8919   1.890   1.270  17.643  0.3827  0.8624 -0.6359
  602TMC3    C4 8920   1.859   1.049  17.491  0.1500  0.3234 -0.8836
  602TMC3    C5 8921   1.754   1.115  17.538  0.8166  0.1081  0.3070
  602TMC3    C6 8922   1.767   1.233  17.606  0.3323  0.3550  0.1966
  602TMC3     C 8923   2.094   1.013  17.480 -0.0675  0.7132 -0.4646
  602TMC3     O 8924   2.081   0.950  17.376  0.1933 -0.1986  0.3443
  602TMC3     H 8925   2.105   1.217  17.642  0.3688  0.5644  0.2756
  602TMC3    H1 8926   1.853   0.955  17.437  1.8808  0.2015 -0.8794
  602TMC3    H2 8927   1.681   1.278  17.655 -0.7249 -0.4084 -0.9383
  602TMC3    C7 8928   1.625   1.073  17.474 -0.5141 -0.0002 -0.1552
  602TMC3    C8 8929   1.899   1.392   0.031 -0.5457 -0.9719  0.6277
  602TMC3    O1 8930   1.628   0.991  17.385 -0.2984  0.0532  0.6478
  602TMC3    O2 8931   1.995   1.418   0.099 -0.4789 -0.2713 -0.1809
  603TMC3    C1 8932   0.562   1.310  11.414 -0.2574 -0.4833  0.3485
  603TMC3    C2 8933   0.573   1.323  11.547  0.3233 -0.3953  0.5146
  603TMC3    C3 8934   0.578   1.447  11.599 -0.3273  0.2000  0.4066
  603TMC3    C4 8935   0.566   1.418  11.329  0.0616 -0.8014  0.2820
  603TMC3    C5 8936   0.572   1.542  11.386 -0.2156 -0.4291 -0.2798
  603TMC3    C6 8937   0.565   1.560  11.521 -0.5772 -0.3750  0.5917
  603TMC3     C 8938   0.503   1.190  11.352 -0.2577 -0.3201 -0.0047
  603TMC3     O 8939   0.504   1.178  11.233 -0.5505 -0.1273 -0.0961
  603TMC3     H 8940   0.566   1.239  11.615  0.1620 -0.0547  0.9140
  603TMC3    H1 8941   0.556   1.408  11.222 -0.5303  2.5879  0.0130
  603TMC3    H2 8942   0.603   1.654  11.559  1.3326  0.0975 -2.5205
  603TMC3    C7 8943   0.582   1.668  11.312  0.5016  0.1880 -0.6899
  603TMC3    C8 8944   0.525   1.457  11.734 -0.2713  0.6785 -0.1999
  603TMC3    O1 8945   0.653   1.759  11.362 -0.0640  0.1493  0.3490
  603TMC3    O2 8946   0.502   1.356  11.797  0.6679 -0.3874 -0.7349
  604MPD2     C 8947   0.352   0.500  16.088 -0.2931 -0.1924 -0.0875
  604MPD2    C1 8948   0.391   0.417  16.192 -0.7608  0.4710  0.5639
  604MPD2    C2 8949   0.483   0.322  16.169 -0.2628  0.2714  0.5852
  604MPD2    C3 8950   0.539   0.307  16.047  0.3570  0.6349  0.1357
  604MPD2    C4 8951   0.498   0.391  15.942 -0.5325  0.0425  0.0494
  604MPD2    C5 8952   0.410   0.489  15.967  0.5281  1.1544  0.4298
  604MPD2     H 8953   0.512   0.254  16.248  1.6495  1.4030  0.8677
  604MPD2    H1 8954   0.524   0.367  15.840  1.8087  1.0461  0.3959
  604MPD2    H2 8955   0.279   0.578  16.101  0.2180 -0.2657  3.0632
  604MPD2    H3 8956   0.383   0.556  15.887  0.6512 -0.2727 -0.8154
  604MPD2     N 8957   0.637   0.205  16.028 -0.2225  0.3128  0.5127
  604MPD2    H5 8958   0.664   0.148  16.107 -1.7604  0.5966  1.2468
  604MPD2    N1 8959   0.320   0.433  16.316 -0.1146 -0.0828 -0.0603
  604MPD2    H7 8960   0.262   0.517  16.323  0.8978  0.3849  2.9998
  605TMC3    C1 8961   0.279   0.436  16.536  0.2340  0.1307 -0.0599
  605TMC3    C2 8962   0.364   0.463  16.643  0.4656  0.3762  0.0277
  605TMC3    C3 8963   0.331   0.573  16.727 -0.0640  0.3822  0.2926
  605TMC3    C4 8964   0.168   0.512  16.523 -0.4302 -0.3448 -0.4545
  605TMC3    C5 8965   0.135   0.617  16.605 -0.2079 -0.2890  0.0305
  605TMC3    C6 8966   0.222   0.652  16.705  0.3411 -0.3248 -1.1919
  605TMC3     C 8967   0.337   0.360  16.433 -0.6672  0.4734  0.2538
  605TMC3     O 8968   0.415   0.269  16.453 -0.1245  0.7914  0.4813
  605TMC3     H 8969   0.444   0.392  16.660  0.4901  0.6365  0.9974
  605TMC3    H1 8970   0.094   0.491  16.448 -2.3339 -0.1639  1.3690
  605TMC3    H2 8971   0.207   0.730  16.778  1.3206  0.4483 -1.8275
  605TMC3    C7 8972   0.003   0.694  16.581  0.2218  0.2871  0.0164
  605TMC3    C8 8973   0.443   0.652  16.777 -0.1457 -0.2404 -0.4077
  605TMC3    O1 8974   4.646   0.628  16.514 -0.0781  0.1812  0.5140
  605TMC3    O2 8975   0.548   0.628  16.720  0.9791 -0.8575 -0.7132
  606TMC3    C1 8976   2.244   3.745  17.089 -0.2050  0.3414  0.6868
  606TMC3    C2 8977   2.266   3.784  17.218 -0.3288  0.4657  0.2714
  606TMC3    C3 8978   2.261   3.685  17.313 -0.0863 -0.5694  0.2043
  606TMC3    C4 8979   2.199   3.621  17.047  0.1908  0.2312  0.0492
  606TMC3    C5 8980   2.186   3.532  17.158  0.3908  0.2825  0.2475
  606TMC3    C6 8981   2.227   3.559  17.283 -0.5388 -0.5729  0.8978
  606TMC3     C 8982   2.216   3.855  17.003 -0.3103  0.0821 -0.1359
  606TMC3     O 8983   2.187   3.966  17.048  0.4545  0.1857  0.3716
  606TMC3     H 8984   2.296   3.885  17.244 -3.6157  2.1197 -2.3144
  606TMC3    H1 8985   2.172   3.581  16.950 -1.8030  1.6534  0.0307
  606TMC3    H2 8986   2.216   3.478  17.354  0.8314  0.4223  2.2444
  606TMC3    C7 8987   2.123   3.408  17.132  0.1354 -0.1465  0.5762
  606TMC3    C8 8988   2.322   3.705  17.439  1.0062  0.3612 -0.1522
  606TMC3    O1 8989   2.148   3.356  17.024 -0.5454 -0.0734  0.1592
  606TMC3    O2 8990   2.328   3.824  17.472  0.5615  0.2890 -0.6991
  607MPD2     C 8991   3.920   1.943  11.723  0.4134 -0.0490 -0.2610
  607MPD2    C1 8992   3.899   2.031  11.830 -0.7521  0.4938  0.2833
  607MPD2    C2 8993   3.827   1.989  11.945 -0.5865  0.3835  0.1905
  607MPD2    C3 8994   3.790   1.857  11.965 -0.3802  0.0276 -0.6173
  607MPD2    C4 8995   3.799   1.776  11.858  0.1320 -0.1456  0.4065
  607MPD2    C5 8996   3.871   1.814  11.740  0.6346 -0.0587  0.0734
  607MPD2     H 8997   3.829   2.057  12.029  0.4763  1.9964 -1.1542
  607MPD2    H1 8998   3.771   1.671  11.867 -0.7130  0.0670  0.2123
  607MPD2    H2 8999   3.986   1.970  11.642  2.3574 -2.0032  0.6377
  607MPD2    H3 9000   3.899   1.747  11.659 -0.9913 -1.6289  0.8186
  607MPD2     N 9001   3.741   1.823  12.098 -0.7375 -0.0885  0.4089
  607MPD2    H5 9002   3.747   1.906  12.156  0.6333  0.6753 -0.8262
  607MPD2    N1 9003   3.966   2.156  11.849 -0.2723  0.1105 -0.7841
  607MPD2    H7 9004   3.969   2.191  11.944  0.3489  1.0279 -1.1405
  608TMC3    C1 9005   4.137   2.300  11.806  0.2434  0.0237 -0.6241
  608TMC3    C2 9006   4.132   2.333  11.941  0.0488 -0.0571  0.3034
  608TMC3    C3 9007   4.242   2.401  11.989  1.2427 -0.6109  0.2828
  608TMC3    C4 9008   4.240   2.336  11.722 -0.5699 -0.0355 -0.3060
  608TMC3    C5 9009   4.353   2.392  11.788  0.3268  0.7424 -0.6300
  608TMC3    C6 9010   4.360   2.431  11.919  0.0851 -0.2282  0.3628
  608TMC3     C 9011   4.035   2.213  11.752 -0.0811  0.4726  0.1237
  608TMC3     O 9012   4.024   2.202  11.630 -0.2507 -0.4971  0.0503
  608TMC3     H 9013   4.041   2.344  11.998 -2.3828  0.4238 -3.6626
  608TMC3    H1 9014   4.251   2.297  11.622  0.1681 -1.3149  0.2676
  608TMC3    H2 9015   4.434   2.493  11.968 -1.5521  1.4392  0.7200
  608TMC3    C7 9016   4.470   2.410  11.701 -0.3025 -0.1915 -0.6782
  608TMC3    C8 9017   4.243   2.417  12.134 -0.1415  0.1489 -0.0729
  608TMC3    O1 9018   4.445   2.418  11.581  0.0308 -0.3333  0.1420
  608TMC3    O2 9019   4.293   2.515  12.186  0.0013 -0.0382  0.7663
  609TMC3    C1 9020   2.523   0.410   9.199  0.7499 -0.1367 -0.0801
  609TMC3    C2 9021   2.522   0.451   9.067  0.2909  0.7289  0.4331
  609TMC3    C3 9022   2.629   0.416   8.987 -0.3045 -0.3018 -0.3727
  609TMC3    C4 9023   2.638   0.362   9.254 -1.0839 -0.4377  0.5685
  609TMC3    C5 9024   2.751   0.346   9.174 -0.1919  0.5393  0.2161
  609TMC3    C6 9025   2.749   0.367   9.040  0.4706 -0.0849 -0.2887
  609TMC3     C 9026   2.401   0.419   9.281  0.3539  0.4157  0.3157
  609TMC3     O 9027   2.406   0.353   9.379 -0.0133 -0.1672  0.3890
  609TMC3     H 9028   2.430   0.479   9.017  1.1568  0.3266 -1.3979
  609TMC3    H1 9029   2.651   0.331   9.357  1.8800 -2.5795 -0.4518
  609TMC3    H2 9030   2.833   0.355   8.973  2.1265 -2.4112  2.2163
  609TMC3    C7 9031   2.878   0.314   9.241  0.4602 -0.1266 -0.1002
  609TMC3    C8 9032   2.622   0.453   8.853 -0.2390  0.4349 -0.1974
  609TMC3    O1 9033   2.881   0.308   9.361  0.3448  0.0917 -0.0490
  609TMC3    O2 9034   2.724   0.511   8.803 -0.5888  0.0063  0.2595
  610TMC3    C1 9035   4.198   1.481  12.781 -0.3170 -0.5771  0.0737
  610TMC3    C2 9036   4.287   1.573  12.726  0.6728 -0.2742 -0.0310
  610TMC3    C3 9037   4.427   1.555  12.736 -0.7455 -0.1028 -0.0034
  610TMC3    C4 9038   4.244   1.378  12.859  0.0156 -0.0175  0.2605
  610TMC3    C5 9039   4.383   1.363  12.870 -0.0083 -0.3940 -0.9569
  610TMC3    C6 9040   4.474   1.447  12.808 -0.5483  0.1675  0.1147
  610TMC3     C 9041   4.061   1.525  12.778 -0.5396  0.1583  0.2387
  610TMC3     O 9042   4.037   1.642  12.812 -0.3516 -0.4621  0.4685
  610TMC3     H 9043   4.256   1.672  12.693  0.9348 -0.1619  0.0516
  610TMC3    H1 9044   4.171   1.309  12.901 -2.9812  1.9651 -1.6558
  610TMC3    H2 9045   4.580   1.425  12.811 -0.8055 -0.8039  2.0325
  610TMC3    C7 9046   4.432   1.256  12.961 -0.4507 -0.1605 -0.4661
  610TMC3    C8 9047   4.517   1.667  12.762 -0.0034  0.5245  0.4792
  610TMC3    O1 9048   4.548   1.213  12.952 -0.0439  0.3244  0.2882
  610TMC3    O2 9049   4.612   1.644  12.834  0.7302  0.0104  0.0069
  611MPD2     C 9050   4.558   1.229  10.771  0.4249  0.4983 -0.3199
  611MPD2    C1 9051   4.493   1.280  10.669  0.7106 -0.0198  0.2869
  611MPD2    C2 9052   4.551   1.399  10.612  0.2687  0.1185 -0.0033
  611MPD2    C3 9053   4.684   1.440  10.640  0.6692  0.1751 -0.4269
  611MPD2    C4 9054   0.027   1.366  10.741 -0.1103 -0.6099 -0.5934
  611MPD2    C5 9055   4.687   1.266  10.800 -0.2975 -0.5608  0.3190
  611MPD2     H 9056   4.503   1.463  10.539 -0.3998  1.3494  1.5138
  611MPD2    H1 9057   0.127   1.389  10.776  0.8431 -0.9563 -3.0739
  611MPD2    H2 9058   4.514   1.144  10.821  2.7255 -0.4175  0.1276
  611MPD2    H3 9059   0.017   1.222  10.885  2.1199  0.7622 -0.4573
  611MPD2     N 9060   0.035   1.544  10.584 -0.0955 -0.1606  0.3793
  611MPD2    H5 9061   0.123   1.562  10.632 -0.3729  1.0877  0.4353
  611MPD2    N1 9062   4.357   1.240  10.641 -1.0970 -0.8578 -0.7446
  611MPD2    H7 9063   4.322   1.150  10.674 -0.7783 -0.4400  0.7454
  612TMC3    C1 9064   0.085   1.742  10.468  0.0995 -0.1114  0.2534
  612TMC3    C2 9065   0.165   1.771  10.577  0.1564  0.1396  0.0399
  612TMC3    C3 9066   0.233   1.887  10.574 -0.3316 -0.1549  1.0931
  612TMC3    C4 9067   0.068   1.827  10.368 -0.1375  0.2491  0.5819
  612TMC3    C5 9068   0.142   1.943  10.371  0.3293 -0.2593  0.1212
  612TMC3    C6 9069   0.224   1.979  10.472 -0.4315  0.5973  0.0888
  612TMC3     C 9070   4.715   1.632  10.485 -0.1249 -0.6874  0.8472
  612TMC3     O 9071   4.615   1.626  10.410 -0.6467  0.1785  0.0785
  612TMC3     H 9072   0.175   1.701  10.660  0.7425 -0.5926 -0.6549
  612TMC3    H1 9073   0.005   1.801  10.284 -0.1702 -1.5819  1.1651
  612TMC3    H2 9074   0.286   2.068  10.461  0.5373 -0.1133 -0.2196
  612TMC3    C7 9075   0.138   2.024  10.250  0.0922  0.8937 -0.4033
  612TMC3    C8 9076   0.324   1.928  10.675  0.4582  0.0034 -0.4322
  612TMC3    O1 9077   0.146   1.959  10.145  0.0364  0.3535 -0.3242
  612TMC3    O2 9078   0.371   2.042  10.668  0.1118  0.5018 -0.0957
  613MPD2     C 9079   2.937   3.743  16.905  0.5285 -0.2198  0.5079
  613MPD2    C1 9080   2.881   3.848  16.835  0.5589 -0.0927  1.1718
  613MPD2    C2 9081   2.786   3.810  16.741 -0.8004 -0.8938 -0.4821
  613MPD2    C3 9082   2.767   3.676  16.707  0.3256  0.6752  0.5710
  613MPD2    C4 9083   2.843   3.579  16.760  0.2537 -0.1556 -0.4205
  613MPD2    C5 9084   2.926   3.616  16.863  0.7324 -0.2002 -0.2810
  613MPD2     H 9085   2.726   3.893  16.707 -0.3588 -1.2441 -2.0939
  613MPD2    H1 9086   2.846   3.480  16.715 -1.9793 -0.3042 -0.2542
  613MPD2    H2 9087   2.991   3.760  16.998 -1.1739  0.6817  1.3427
  613MPD2    H3 9088   2.986   3.536  16.906 -1.7685 -2.1083 -0.3724
  613MPD2     N 9089   2.684   3.629  16.600  0.4410 -0.5171  0.6349
  613MPD2    H5 9090   2.688   3.529  16.584  0.2934 -0.5584  0.8685
  613MPD2    N1 9091   2.914   3.986  16.858  0.0341 -0.0443  0.2012
  613MPD2    H7 9092   2.977   4.012  16.933  0.1027 -2.1556  0.8703
  614TMC3    C1 9093   2.901   4.064  16.623 -0.2090  0.0538  0.3009
  614TMC3    C2 9094   2.992   3.977  16.572  0.7276  0.0823  0.2882
  614TMC3    C3 9095   3.000   3.952  16.437  0.4304  0.0164 -0.1171
  614TMC3    C4 9096   2.814   4.139  16.551  0.2993 -0.0348 -0.1431
  614TMC3    C5 9097   2.826   4.112  16.414 -0.5889  0.2760  0.3885
  614TMC3    C6 9098   2.919   4.023  16.359  0.5066 -0.3237  0.6466
  614TMC3     C 9099   2.891   4.090  16.771  0.6785 -0.2470 -0.1902
  614TMC3     O 9100   2.890   4.204  16.802  0.2673 -0.3795 -0.5351
  614TMC3     H 9101   3.054   3.910  16.630  3.5754  1.0885 -1.5657
  614TMC3    H1 9102   2.742   4.204  16.600 -0.2780  0.3301 -1.4634
  614TMC3    H2 9103   2.934   4.018  16.251  1.1582  0.4894  0.7053
  614TMC3    C7 9104   2.744   4.194  16.330 -0.2804  0.2773 -0.1369
  614TMC3    C8 9105   3.015   3.811  16.392 -0.4247  0.2021 -0.2233
  614TMC3    O1 9106   2.683   4.289  16.381  0.5393 -0.1302 -0.2364
  614TMC3    O2 9107   2.991   3.791  16.273 -0.0998 -0.3208 -0.2442
  615MPD2     C 9108   1.979   0.096  16.256  0.6935 -0.1656 -0.0237
  615MPD2    C1 9109   1.909   0.186  16.174 -0.0751 -0.2964  0.2447
  615MPD2    C2 9110   1.881   0.151  16.046 -0.5806 -0.5315  0.4502
  615MPD2    C3 9111   1.904   0.024  16.001  0.5574  0.9548  0.6294
  615MPD2    C4 9112   1.979   4.662  16.082 -0.9595 -0.0780  1.2515
  615MPD2    C5 9113   2.015   4.694  16.210  0.1219 -0.3439 -0.7733
  615MPD2     H 9114   1.832   0.227  15.986 -0.4724 -0.6518  0.2131
  615MPD2    H1 9115   2.006   4.564  16.044  0.4651  1.6630 -2.2230
  615MPD2    H2 9116   1.998   0.112  16.361 -3.0987  1.5651  0.3934
  615MPD2    H3 9117   2.064   4.623  16.276 -0.1028 -0.9250 -1.2338
  615MPD2     N 9118   1.868   4.701  15.871  0.0502 -0.5365 -0.0393
  615MPD2    H5 9119   1.912   4.616  15.838  0.1807 -0.7070  0.5723
  615MPD2    N1 9120   1.887   0.315  16.211  0.4955 -0.4936 -0.4462
  615MPD2    H7 9121   1.863   0.384  16.141 -1.7817 -0.3662  0.4579
  616TMC3    C1 9122   1.907   0.503  16.354 -0.6996  0.0693  0.2268
  616TMC3    C2 9123   1.991   0.557  16.264 -0.2454 -0.4628 -0.4562
  616TMC3    C3 9124   2.084   0.642  16.309 -0.2577 -0.4575 -0.4873
  616TMC3    C4 9125   1.898   0.558  16.483  0.1802 -0.0938  0.2261
  616TMC3    C5 9126   1.983   0.655  16.521  0.2830  0.6647 -0.3311
  616TMC3    C6 9127   2.086   0.696  16.435  0.7584 -0.5112  0.3027
  616TMC3     C 9128   1.891   0.364  16.340 -0.5486 -0.4288 -0.1594
  616TMC3     O 9129   1.905   0.306  16.447  0.0710  0.4314  0.2842
  616TMC3     H 9130   2.014   0.524  16.163  0.1809 -1.0546 -0.1601
  616TMC3    H1 9131   1.833   0.530  16.565 -0.5993 -2.1873 -1.1145
  616TMC3    H2 9132   2.146   0.783  16.460  0.5221  0.0938 -1.2567
  616TMC3    C7 9133   1.980   0.701  16.659  0.7182  0.6978 -0.5808
  616TMC3    C8 9134   2.191   0.685  16.210  0.1479 -0.6096  0.7386
  616TMC3    O1 9135   1.868   0.707  16.712  0.3790 -0.1373  0.2082
  616TMC3    O2 9136   2.174   0.668  16.092 -0.4039 -0.1099 -0.5211
  617MPD2     C 9137   0.551   3.662  14.801 -0.6651 -0.4161  0.6637
  617MPD2    C1 9138   0.517   3.609  14.681 -0.2233 -0.3368 -0.1071
  617MPD2    C2 9139   0.391   3.544  14.673 -0.1546  0.5992 -0.0059
  617MPD2    C3 9140   0.305   3.546  14.787  0.0451  0.4255 -0.5368
  617MPD2    C4 9141   0.345   3.602  14.901  0.0490 -0.6087 -0.5240
  617MPD2    C5 9142   0.462   3.671  14.908 -0.9815  0.8893  0.0217
  617MPD2     H 9143   0.348   3.510  14.579  1.6684 -0.8935 -0.3185
  617MPD2    H1 9144   0.280   3.607  14.988  2.9029  2.1250  1.5164
  617MPD2    H2 9145   0.647   3.709  14.820 -1.1336  0.6626  0.3525
  617MPD2    H3 9146   0.494   3.727  14.995  1.1886  1.9088 -1.4122
  617MPD2     N 9147   0.168   3.502  14.793  0.3609  0.4902  0.4159
  617MPD2    H5 9148   0.122   3.490  14.883  0.9113  1.8690  0.8789
  617MPD2    N1 9149   0.611   3.623  14.577  0.7883  0.0195 -0.1400
  617MPD2    H7 9150   0.692   3.680  14.598  1.2538 -1.1026  1.1061
  618TMC3    C1 9151   0.744   3.550  14.394 -0.6435 -0.3146  0.4824
  618TMC3    C2 9152   0.762   3.445  14.303  0.3974 -0.3403  0.0613
  618TMC3    C3 9153   0.892   3.408  14.284  1.0291  0.4788  0.1212
  618TMC3    C4 9154   0.849   3.615  14.454 -0.8605  0.4665  0.2478
  618TMC3    C5 9155   0.971   3.558  14.448  0.2107  0.1818  0.1031
  618TMC3    C6 9156   0.993   3.451  14.367 -0.5531  0.1405 -0.8320
  618TMC3     C 9157   0.615   3.558  14.455 -0.5483  1.1055  0.2635
  618TMC3     O 9158   0.522   3.485  14.415 -0.1309  0.6259 -0.4469
  618TMC3     H 9159   0.674   3.411  14.249  0.4186 -2.0858  1.1268
  618TMC3    H1 9160   0.828   3.708  14.505 -1.4480 -0.0167  0.8999
  618TMC3    H2 9161   1.094   3.444  14.327  0.4241 -0.6331  1.7515
  618TMC3    C7 9162   1.068   3.664  14.416 -0.1888 -0.6955 -0.3183
  618TMC3    C8 9163   0.922   3.353  14.149 -0.3457 -0.4871 -0.3398
  618TMC3    O1 9164   1.040   3.751  14.335  0.0161 -0.0779 -0.4298
  618TMC3    O2 9165   0.831   3.349  14.073 -0.2983  0.2329  0.6590
  619MPD2     C 9166   1.804   4.443  14.046  0.3504  0.6214 -0.7024
  619MPD2    C1 9167   1.712   4.440  13.937 -0.8097  0.1488  0.1244
  619MPD2    C2 9168   1.585   4.386  13.941  0.3333 -0.4604 -0.1601
  619MPD2    C3 9169   1.529   4.347  14.061 -0.3288  0.0170 -0.3648
  619MPD2    C4 9170   1.617   4.339  14.167  0.0217  0.9534 -0.4500
  619MPD2    C5 9171   1.756   4.375  14.158  0.1013  0.3826  0.8670
  619MPD2     H 9172   1.528   4.383  13.848 -0.1751  2.2659  0.0750
  619MPD2    H1 9173   1.593   4.296  14.263 -0.5471 -0.6254 -1.2832
  619MPD2    H2 9174   1.906   4.477  14.032  0.2770  0.7422 -0.9415
  619MPD2    H3 9175   1.825   4.379  14.241 -0.0204  0.1269  0.9788
  619MPD2     N 9176   1.394   4.302  14.073 -0.3703  0.0318  0.6073
  619MPD2    H5 9177   1.352   4.297  13.980 -0.3699  3.2615  0.4152
  619MPD2    N1 9178   1.736   4.497  13.813  0.2435  0.1320  0.1405
  619MPD2    H7 9179   1.657   4.495  13.749  1.0837 -3.7051 -0.8114
  620TMC3    C1 9180   1.825   4.616  13.637 -0.4597 -0.1621 -0.4501
  620TMC3    C2 9181   1.734   4.543  13.563 -0.1971 -0.1838  0.5055
  620TMC3    C3 9182   1.648   4.600  13.478 -0.0933 -0.0103 -0.8335
  620TMC3    C4 9183   1.835   0.031  13.610  0.0376 -0.3951 -0.3215
  620TMC3    C5 9184   1.764   0.079  13.500  0.5516 -1.1230 -0.1790
  620TMC3    C6 9185   1.663   0.014  13.433 -0.2132 -0.1005 -1.1569
  620TMC3     C 9186   1.837   4.580  13.777 -0.2190 -0.2116 -0.9976
  620TMC3     O 9187   1.915   4.636  13.850 -0.1450 -0.1122  0.1057
  620TMC3     H 9188   1.731   4.436  13.580  1.5087 -0.6556 -2.0798
  620TMC3    H1 9189   1.877   0.093  13.689 -3.0872  1.1336  0.1688
  620TMC3    H2 9190   1.617   0.060  13.347  2.6786  0.2468 -2.5267
  620TMC3    C7 9191   1.757   0.224  13.501  0.3364 -0.3187 -0.0044
  620TMC3    C8 9192   1.520   4.595  13.542 -0.4454 -0.1510 -0.3531
  620TMC3    O1 9193   1.659   0.270  13.447  0.1073  0.0742 -0.3817
  620TMC3    O2 9194   1.508   4.530  13.646  0.0130 -0.2778 -0.3400
  621MPD2     C 9195   2.165   0.009  10.546 -0.3859 -0.2426  0.3365
  621MPD2    C1 9196   2.211   4.673  10.425  0.2847 -0.5366 -0.1512
  621MPD2    C2 9197   2.200   0.032  10.309  0.1979 -0.7713 -0.4302
  621MPD2    C3 9198   2.125   0.146  10.304  0.3573  0.2230  0.1606
  621MPD2    C4 9199   2.070   0.192  10.421 -0.0403  0.8280 -0.3480
  621MPD2    C5 9200   2.093   0.126  10.537 -0.0682  0.7389  0.1633
  621MPD2     H 9201   2.239   4.712  10.216  3.1583 -0.0007  0.5045
  621MPD2    H1 9202   2.008   0.282  10.426 -1.1644 -0.0688  2.1358
  621MPD2    H2 9203   2.177   4.679  10.641 -2.9274 -2.9497 -0.7733
  621MPD2    H3 9204   2.064   0.168  10.633  1.1410 -0.1991  0.9429
  621MPD2     N 9205   2.104   0.205  10.175 -0.2430  0.8704 -0.0012
  621MPD2    H5 9206   2.170   0.182  10.102  0.3429  4.4556 -0.5934
  621MPD2    N1 9207   2.266   4.544  10.419 -0.0506 -0.1035 -0.2058
  621MPD2    H7 9208   2.305   4.517  10.329  0.6426 -0.7927  0.3008
  622TMC3    C1 9209   2.263   4.319  10.468  1.0022 -0.5087 -0.3440
  622TMC3    C2 9210   2.152   4.241  10.454 -0.2968 -0.0880 -0.3454
  622TMC3    C3 9211   2.158   4.135  10.363  0.0198  0.6472  0.5778
  622TMC3    C4 9212   2.376   4.294  10.401 -0.9655  0.1017  0.1135
  622TMC3    C5 9213   2.383   4.184  10.318  0.0978 -0.5678  0.2521
  622TMC3    C6 9214   2.272   4.106  10.293  0.1167 -0.0290 -0.4167
  622TMC3     C 9215   2.236   4.451  10.517 -0.1966  0.3097 -0.4224
  622TMC3     O 9216   2.160   4.466  10.611 -0.2089  0.1069 -0.8548
  622TMC3     H 9217   2.061   4.249  10.513 -0.8023 -0.1354 -1.1244
  622TMC3    H1 9218   2.456   4.367  10.414 -1.4842  0.1332  3.0618
  622TMC3    H2 9219   2.273   4.027  10.218 -1.2588  1.2889 -1.8156
  622TMC3    C7 9220   2.497   4.172  10.229  0.1806  0.2158  0.0266
  622TMC3    C8 9221   2.048   4.044  10.352 -0.3055 -0.3244 -0.1155
  622TMC3    O1 9222   2.596   4.228  10.255  0.9734 -0.2292  0.0465
  622TMC3    O2 9223   2.088   3.930  10.328 -0.6209  0.2438 -0.1638
  623MPD2     C 9224   1.160   1.092  16.275  0.4049  0.4066 -0.0881
  623MPD2    C1 9225   1.041   1.082  16.347  0.8740  0.6816 -0.0624
  623MPD2    C2 9226   1.054   1.043  16.481 -0.0249  0.2080  0.7407
  623MPD2    C3 9227   1.175   0.991  16.534  0.3949 -0.1578 -0.2199
  623MPD2    C4 9228   1.291   1.016  16.462 -0.1303 -0.6624 -0.7366
  623MPD2    C5 9229   1.285   1.060  16.331 -0.6762 -0.5331 -0.5112
  623MPD2     H 9230   0.968   1.044  16.547 -1.1759 -0.8081 -0.7445
  623MPD2    H1 9231   1.390   0.992  16.500  0.0860  0.4886 -0.5712
  623MPD2    H2 9232   1.159   1.122  16.171 -0.0652  0.8695  0.0512
  623MPD2    H3 9233   1.377   1.071  16.275 -2.1923  1.7624 -2.5292
  623MPD2     N 9234   1.167   0.931  16.664  0.1528 -0.7852  0.5868
  623MPD2    H5 9235   1.075   0.911  16.702  0.4133  0.3223  1.8089
  623MPD2    N1 9236   0.915   1.113  16.293  0.5168 -0.3545  1.1142
  623MPD2    H7 9237   0.846   1.135  16.365 -0.7435  2.8320 -1.0596
  624TMC3    C1 9238   1.318   0.742  17.052 -0.1569 -0.2400  0.2363
  624TMC3    C2 9239   1.211   0.781  17.124  0.4490  0.2815  0.3525
  624TMC3    C3 9240   1.107   0.833  17.050 -0.0155  0.1590  0.1646
  624TMC3    C4 9241   1.336   0.755  16.918 -0.0560  1.1802 -0.9150
  624TMC3    C5 9242   1.233   0.826  16.861  0.0427 -0.2029 -0.2823
  624TMC3    C6 9243   1.117   0.868  16.924  0.1351  0.2797  0.2610
  624TMC3     C 9244   1.417   0.653  17.113 -0.1330 -0.6910 -0.2136
  624TMC3     O 9245   1.427   0.660  17.233  0.9566 -0.3403 -0.1772
  624TMC3     H 9246   1.209   0.770  17.232  2.5035 -0.4190  0.3104
  624TMC3    H1 9247   1.412   0.706  16.858  0.0266  0.5131 -0.2615
  624TMC3    H2 9248   1.041   0.934  16.885  1.6964  1.7649 -0.2571
  624TMC3    C7 9249   1.275   0.884  16.734 -0.3954 -0.4292  0.4652
  624TMC3    C8 9250   0.977   0.817  17.115 -0.0019 -0.0524  0.1470
  624TMC3    O1 9251   1.387   0.857  16.696 -0.8353  0.0300 -0.0751
  624TMC3    O2 9252   0.974   0.792  17.236  0.4046 -0.0552 -0.3852
  625MPD2     C 9253   1.250   2.054   0.920  0.0919  0.1710  0.6727
  625MPD2    C1 9254   1.287   2.187   0.919  0.3651  0.4547  0.8390
  625MPD2    C2 9255   1.422   2.223   0.921  0.9346 -0.8010 -0.2296
  625MPD2    C3 9256   1.522   2.122   0.914 -0.1306 -0.1701 -0.3354
  625MPD2    C4 9257   1.483   1.988   0.928 -0.2505  0.0710  0.2541
  625MPD2    C5 9258   1.349   1.956   0.934 -0.4212 -0.7958 -0.2325
  625MPD2     H 9259   1.455   2.325   0.936  0.0828 -0.2842 -1.8378
  625MPD2    H1 9260   1.557   1.911   0.943  1.2946  1.1010 -2.0679
  625MPD2    H2 9261   1.147   2.018   0.921  0.8804 -2.0778  0.5732
  625MPD2    H3 9262   1.318   1.854   0.954 -0.5074 -0.7091  0.0817
  625MPD2     N 9263   1.658   2.168   0.920 -0.1062 -0.1141  0.1632
  625MPD2    H5 9264   1.661   2.270   0.923  0.0461 -0.0900 -0.7735
  625MPD2    N1 9265   1.192   2.285   0.951 -0.3542 -0.7270  0.3302
  625MPD2    H7 9266   1.225   2.381   0.949  1.8098 -1.5112 -1.0110
  626TMC3    C1 9267   1.005   2.396   1.032  0.2153  0.1503 -0.6517
  626TMC3    C2 9268   0.882   2.433   0.992 -0.0210  0.3062 -0.4583
  626TMC3    C3 9269   0.833   2.558   1.027 -0.0284 -0.0752  0.3673
  626TMC3    C4 9270   1.090   2.477   1.105  0.5430  0.9638  0.6348
  626TMC3    C5 9271   1.032   2.594   1.144 -0.2761 -0.6219 -0.6149
  626TMC3    C6 9272   0.910   2.643   1.101  0.3936 -0.5379  0.5245
  626TMC3     C 9273   1.061   2.267   0.988  0.0171 -0.4891 -0.3046
  626TMC3     O 9274   0.983   2.178   0.963  0.1408 -0.5103 -0.3555
  626TMC3     H 9275   0.830   2.365   0.924  0.4499 -0.2904 -0.2263
  626TMC3    H1 9276   1.190   2.444   1.128  0.9159  1.2121 -0.6350
  626TMC3    H2 9277   0.882   2.744   1.128  0.8736  0.3314 -2.2054
  626TMC3    C7 9278   1.104   2.674   1.237  0.5387 -0.4477 -0.4322
  626TMC3    C8 9279   0.763   2.623   0.919  0.6600 -0.8784 -0.9958
  626TMC3    O1 9280   1.225   2.668   1.231 -0.5255  0.0334 -0.1484
  626TMC3    O2 9281   0.781   2.571   0.808  0.5794 -0.3210  0.0327
  627MPD2     C 9282   0.273   2.244  14.572  0.1867 -0.1534  0.1609
  627MPD2    C1 9283   0.189   2.219  14.676  0.2950 -0.4245  0.1212
  627MPD2    C2 9284   0.068   2.152  14.644 -0.3322  0.7563 -0.2220
  627MPD2    C3 9285   0.029   2.124  14.510  0.0908  0.3206  0.1024
  627MPD2    C4 9286   0.114   2.154  14.410  1.0051  0.0131  0.6799
  627MPD2    C5 9287   0.229   2.224  14.442 -0.1539  0.4839 -0.3570
  627MPD2     H 9288   0.003   2.114  14.722 -0.6329  1.1946 -0.2597
  627MPD2    H1 9289   0.089   2.151  14.305 -1.1447 -0.3118  1.2020
  627MPD2    H2 9290   0.366   2.298  14.586 -1.1189  2.4383 -1.2350
  627MPD2    H3 9291   0.292   2.248  14.357  0.4079 -1.0293 -0.3625
  627MPD2     N 9292   4.624   2.076  14.482 -0.0145  0.3159  0.4826
  627MPD2    H5 9293   4.558   2.070  14.559  2.2467  1.4684  2.5155
  627MPD2    N1 9294   0.231   2.245  14.807  0.6572  0.5070  0.0472
  627MPD2    H7 9295   0.311   2.306  14.821  2.5466 -1.8573 -0.3280
  628TMC3    C1 9296   0.247   2.251  15.036  0.4890 -0.2400 -0.5559
  628TMC3    C2 9297   0.328   2.149  15.085 -0.1739 -0.1445 -0.0394
  628TMC3    C3 9298   0.432   2.190  15.172  0.3436 -0.3225 -0.1751
  628TMC3    C4 9299   0.282   2.383  15.041 -0.1628 -0.1429 -0.1826
  628TMC3    C5 9300   0.384   2.418  15.121  0.2516 -0.6938 -0.5707
  628TMC3    C6 9301   0.460   2.322  15.182 -0.2784 -0.3627 -0.2376
  628TMC3     C 9302   0.164   2.208  14.921  0.4848  0.2966  0.7222
  628TMC3     O 9303   0.074   2.128  14.944  0.1549  0.5811 -0.6138
  628TMC3     H 9304   0.298   2.047  15.067  1.8766 -1.0779  1.8112
  628TMC3    H1 9305   0.215   2.443  14.981 -1.4124 -1.3381  0.0201
  628TMC3    H2 9306   0.534   2.357  15.253 -1.3156  0.2381  0.5453
  628TMC3    C7 9307   0.384   2.555  15.171 -0.3816 -0.9376  0.0460
  628TMC3    C8 9308   0.525   2.088  15.209  0.5820 -0.8530 -0.7300
  628TMC3    O1 9309   0.448   2.583  15.270  0.2157  0.2375 -0.5126
  628TMC3    O2 9310   0.498   1.980  15.158 -0.1379  0.0271  0.3491
  629MPD2     C 9311   2.675   0.820  16.086  0.5832  0.7732  0.1367
  629MPD2    C1 9312   2.671   0.786  16.220 -0.8074 -0.3595  0.4982
  629MPD2    C2 9313   2.554   0.741  16.272  0.3407  0.0686  0.4470
  629MPD2    C3 9314   2.434   0.748  16.209  1.0087 -0.4248 -0.8437
  629MPD2    C4 9315   2.437   0.787  16.072  0.1453  0.0150  0.3036
  629MPD2    C5 9316   2.562   0.818  16.011 -0.6584 -0.6927 -0.2806
  629MPD2     H 9317   2.545   0.704  16.374 -1.0600 -0.4055  0.1546
  629MPD2    H1 9318   2.347   0.797  16.012  1.7111 -0.1377 -2.1068
  629MPD2    H2 9319   2.770   0.843  16.040  1.0687 -2.8193 -0.7158
  629MPD2    H3 9320   2.550   0.835  15.905 -0.1375 -1.6427 -0.4873
  629MPD2     N 9321   2.312   0.706  16.274 -1.0229 -0.5878 -0.1379
  629MPD2    H5 9322   2.314   0.679  16.372  0.4586 -0.0168 -0.0171
  629MPD2    N1 9323   2.794   0.811  16.292 -0.0946 -0.1804 -0.1701
  629MPD2    H7 9324   2.873   0.832  16.233  0.2996 -0.6805  0.1772
  630TMC3    C1 9325   2.929   0.810  16.478 -0.2987 -0.0749 -0.1832
  630TMC3    C2 9326   2.998   0.914  16.431  0.0751  0.4234 -0.0641
  630TMC3    C3 9327   3.107   0.954  16.502 -0.1633 -0.0919 -0.1765
  630TMC3    C4 9328   2.949   0.764  16.601 -0.0612  0.7420 -0.4489
  630TMC3    C5 9329   3.057   0.807  16.668 -0.2198  0.4674  0.6686
  630TMC3    C6 9330   3.136   0.905  16.621  0.4677  0.0551  0.2311
  630TMC3     C 9331   2.805   0.779  16.427  0.7967  0.4658  0.7329
  630TMC3     O 9332   2.721   0.738  16.504  0.3484  0.1662 -0.0220
  630TMC3     H 9333   2.980   0.940  16.327  0.7143 -0.4641 -0.3973
  630TMC3    H1 9334   2.919   0.663  16.629  1.2967  0.3551 -0.3705
  630TMC3    H2 9335   3.217   0.938  16.685  0.6778 -2.3784  1.2345
  630TMC3    C7 9336   3.070   0.789  16.814 -0.3380  0.3406 -0.0967
  630TMC3    C8 9337   3.187   1.062  16.460  0.3110 -0.2166  0.3249
  630TMC3    O1 9338   3.163   0.835  16.878 -0.2026  0.2002 -0.3031
  630TMC3    O2 9339   3.304   1.057  16.498  0.4354  0.0589  0.3295
  631MPD2     C 9340   1.247   0.541  15.317  0.0630 -0.1829 -0.3104
  631MPD2    C1 9341   1.314   0.566  15.436 -0.5702  0.2288 -0.2059
  631MPD2    C2 9342   1.387   0.461  15.489  0.4292  0.0746 -0.0580
  631MPD2    C3 9343   1.388   0.336  15.435  0.4015  0.3021  0.0260
  631MPD2    C4 9344   1.301   0.310  15.329 -0.2479  0.0029  0.0643
  631MPD2    C5 9345   1.241   0.419  15.264 -0.3412  0.7970  0.2548
  631MPD2     H 9346   1.456   0.481  15.570  0.4481  1.2154 -0.3550
  631MPD2    H1 9347   1.295   0.218  15.272  2.0243  0.8019 -1.4585
  631MPD2    H2 9348   1.197   0.617  15.260 -1.3199 -0.9827 -0.1627
  631MPD2    H3 9349   1.190   0.394  15.172 -0.3535  0.3381  0.3869
  631MPD2     N 9350   1.484   0.237  15.481  0.5334  0.1655 -0.1897
  631MPD2    H5 9351   1.546   0.269  15.555  1.3283 -0.7294 -0.4649
  631MPD2    N1 9352   1.308   0.696  15.490 -0.4333 -0.5149  0.4822
  631MPD2    H7 9353   1.281   0.769  15.425 -1.1551 -1.5794 -0.4071
  632TMC3    C1 9354   1.349   0.883  15.628 -0.1550 -0.2826  0.1565
  632TMC3    C2 9355   1.333   0.940  15.750  0.3665 -0.4104 -0.2304
  632TMC3    C3 9356   1.259   1.060  15.749 -0.2124 -0.0855 -0.0991
  632TMC3    C4 9357   1.315   0.941  15.508 -0.5869  0.5440 -0.7108
  632TMC3    C5 9358   1.269   1.070  15.515 -0.9836  0.2942  0.7147
  632TMC3    C6 9359   1.243   1.128  15.633  0.5857 -0.7037 -0.4809
  632TMC3     C 9360   1.354   0.735  15.616  0.2785 -0.0676 -0.6851
  632TMC3     O 9361   1.372   0.668  15.717  0.1875 -0.1805  0.3917
  632TMC3     H 9362   1.349   0.874  15.834  0.9275  2.1113  1.6357
  632TMC3    H1 9363   1.354   0.911  15.411 -1.2421  1.7749 -1.3604
  632TMC3    H2 9364   1.183   1.219  15.628  1.0674 -0.4603 -1.8148
  632TMC3    C7 9365   1.295   1.143  15.404 -0.1257 -0.8406  0.1113
  632TMC3    C8 9366   1.268   1.130  15.873 -0.3847 -0.8884 -0.0541
  632TMC3    O1 9367   1.258   1.098  15.294 -0.4687 -0.5243  0.0478
  632TMC3    O2 9368   1.368   1.102  15.942 -0.2807 -0.3588 -0.7445
  633MPD2     C 9369   1.149   3.767  17.611 -0.1802 -0.4536 -0.1039
  633MPD2    C1 9370   1.267   3.727  17.553 -0.4155 -0.7469  0.2285
  633MPD2    C2 9371   1.324   3.606  17.590 -0.1414 -0.0597  0.1960
  633MPD2    C3 9372   1.266   3.512  17.668 -0.6826 -0.1456  0.3630
  633MPD2    C4 9373   1.146   3.556   0.046  0.0794 -0.1053 -0.3583
  633MPD2    C5 9374   1.094   3.686   0.021 -0.3198 -0.1111  0.5320
  633MPD2     H 9375   1.422   3.587  17.548  0.5442 -1.5328  2.4597
  633MPD2    H1 9376   1.086   3.486   0.103 -1.3635  0.7036 -0.8971
  633MPD2    H2 9377   1.096   3.855  17.576  2.1758  1.3431  0.7972
  633MPD2    H3 9378   0.993   3.708   0.052 -1.0259  0.5578 -2.2825
  633MPD2     N 9379   1.314   3.376  17.683 -0.7247  0.4155 -0.0768
  633MPD2    H5 9380   1.275   3.319   0.072  0.6225 -0.4517 -0.0363
  633MPD2    N1 9381   1.323   3.802  17.444 -0.1591  0.5491 -0.0524
  633MPD2    H7 9382   1.403   3.755  17.402  0.2405  0.1000  1.1804
  634TMC3    C1 9383   1.346   3.960  17.272  0.3244 -0.6347  0.0789
  634TMC3    C2 9384   1.399   3.861  17.193  0.4832  0.3501 -0.1745
  634TMC3    C3 9385   1.426   3.881  17.063 -0.4757  0.2035 -0.0362
  634TMC3    C4 9386   1.315   4.085  17.225 -1.0045 -0.3269  0.1253
  634TMC3    C5 9387   1.335   4.100  17.090  0.2553  0.2930  0.3304
  634TMC3    C6 9388   1.387   4.004  17.005 -0.9490  0.4385  0.6189
  634TMC3     C 9389   1.288   3.931  17.406 -0.3267 -1.1023 -0.2009
  634TMC3     O 9390   1.227   4.015  17.473 -0.9422  0.1869 -0.0313
  634TMC3     H 9391   1.413   3.762  17.234 -1.3517 -1.2281 -3.3713
  634TMC3    H1 9392   1.264   4.153  17.292 -0.3726 -0.2287  0.5158
  634TMC3    H2 9393   1.383   4.030  16.900 -1.9389  0.9993  0.7961
  634TMC3    C7 9394   1.305   4.221  17.024  0.1184 -1.1335  0.2485
  634TMC3    C8 9395   1.433   3.761  16.984 -0.1013 -0.4096  0.2211
  634TMC3    O1 9396   1.353   4.243  16.917  0.2797  0.8251  0.4267
  634TMC3    O2 9397   1.407   3.654  17.034  0.2092  0.0081  0.2907
  635TMC3    C1 9398   2.452   4.571   0.267  0.1390 -0.8853  0.4550
  635TMC3    C2 9399   2.449   4.575   0.129 -0.3995  0.0409  0.5516
  635TMC3    C3 9400   2.399   4.464   0.067 -0.8051 -0.6598 -0.8568
  635TMC3    C4 9401   2.392   4.465   0.339  0.7062 -0.5131 -0.6738
  635TMC3    C5 9402   2.352   4.353   0.271 -0.1283  0.5180 -0.2489
  635TMC3    C6 9403   2.354   4.352   0.134 -0.9854 -0.2988  0.0072
  635TMC3     C 9404   2.493   4.692   0.332  0.0944  0.1895  0.3123
  635TMC3     O 9405   2.512   0.070   0.267  0.4140 -0.3645 -0.4682
  635TMC3     H 9406   2.494   4.660   0.078 -1.4706  0.7527  0.8019
  635TMC3    H1 9407   2.383   4.481   0.446  2.7049 -0.6571 -0.4781
  635TMC3    H2 9408   2.303   4.272   0.082  0.5054 -0.6953 -0.8351
  635TMC3    C7 9409   2.271   4.241   0.327 -0.6302  0.2093 -0.2055
  635TMC3    C8 9410   2.372   4.483  17.612 -0.1712 -1.4914  0.0485
  635TMC3    O1 9411   2.227   4.153   0.257  0.0234 -0.4818  0.0435
  635TMC3    O2 9412   2.367   4.596  17.573 -0.1022 -0.2549  0.0576
  636MPD2     C 9413   2.234   4.162  15.866  0.4991 -0.1962 -0.1507
  636MPD2    C1 9414   2.290   4.187  15.987  0.0377 -0.4240  0.3834
  636MPD2    C2 9415   2.347   4.088  16.060  0.0132 -0.6308 -0.2390
  636MPD2    C3 9416   2.362   3.958  16.013  0.1611  0.1813 -0.0384
  636MPD2    C4 9417   2.323   3.939  15.883  1.2586  0.3927  0.1365
  636MPD2    C5 9418   2.244   4.032  15.816  0.7567  0.1652  0.2114
  636MPD2     H 9419   2.401   4.121  16.149  1.9735 -2.2249 -0.8250
  636MPD2    H1 9420   2.333   3.840  15.841  0.9124  1.6168 -2.8717
  636MPD2    H2 9421   2.169   4.226  15.807 -2.3612 -0.1595  3.0215
  636MPD2    H3 9422   2.202   4.002  15.720  1.4486  1.4296 -0.4884
  636MPD2     N 9423   2.435   3.864  16.091 -0.4386  0.2782 -0.0685
  636MPD2    H5 9424   2.462   3.887  16.187  2.0726 -1.5417 -0.3214
  636MPD2    N1 9425   2.298   4.323  16.037  0.0718  0.5860 -0.1735
  636MPD2    H7 9426   2.350   4.343  16.122  0.0672 -1.7384  0.3845
  637TMC3    C1 9427   2.540   3.677  16.159 -0.0119 -0.3191  0.2210
  637TMC3    C2 9428   2.533   3.724  16.291  0.3930 -0.1411 -0.3119
  637TMC3    C3 9429   2.584   3.645  16.390 -0.4811 -0.4014  0.1247
  637TMC3    C4 9430   2.620   3.561  16.125  0.9317  0.0972 -0.4494
  637TMC3    C5 9431   2.669   3.489  16.227  0.1298  0.0263  0.2439
  637TMC3    C6 9432   2.641   3.522  16.362 -0.2709  0.0795 -0.1187
  637TMC3     C 9433   2.481   3.749  16.050 -0.2943 -0.0023 -0.5200
  637TMC3     O 9434   2.489   3.690  15.938 -0.9067  0.6492  0.7686
  637TMC3     H 9435   2.478   3.813  16.319  2.4039  1.3583 -1.2008
  637TMC3    H1 9436   2.640   3.531  16.023  2.9516 -0.2604  0.0555
  637TMC3    H2 9437   2.679   3.454  16.437 -0.8669 -0.6013 -0.4291
  637TMC3    C7 9438   2.750   3.372  16.191 -0.1375 -0.3438 -0.0165
  637TMC3    C8 9439   2.612   3.703  16.511  0.3185  0.6808  0.4384
  637TMC3    O1 9440   2.709   3.307  16.103 -0.6555 -0.5805 -0.7090
  637TMC3    O2 9441   2.578   3.818  16.531 -0.0884  0.6379 -0.1219
  638MPD2     C 9442   2.282   2.903  15.213  0.4759  0.2719  0.0006
  638MPD2    C1 9443   2.266   2.803  15.120 -0.1552 -0.6300  0.2904
  638MPD2    C2 9444   2.223   2.680  15.162 -0.3570 -0.7977  0.5881
  638MPD2    C3 9445   2.202   2.654  15.292  0.0886 -0.0173  0.3141
  638MPD2    C4 9446   2.226   2.753  15.389  0.0208  0.0443  0.2878
  638MPD2    C5 9447   2.271   2.877  15.350 -0.4635 -0.1631  0.1316
  638MPD2     H 9448   2.220   2.596  15.093  2.6602  0.9965 -1.7179
  638MPD2    H1 9449   2.199   2.743  15.494  2.6934  0.2672  0.9908
  638MPD2    H2 9450   2.280   3.005  15.176  1.4575  0.3816  0.2431
  638MPD2    H3 9451   2.287   2.947  15.432 -0.6469 -1.8815  1.6287
  638MPD2     N 9452   2.153   2.527  15.338 -0.2257 -0.3474  0.2324
  638MPD2    H5 9453   2.125   2.460  15.267 -0.5865 -0.7335  0.7400
  638MPD2    N1 9454   2.290   2.832  14.981 -0.4448 -0.1474  0.5098
  638MPD2    H7 9455   2.333   2.919  14.951 -1.1000 -0.5634 -1.5881
  639TMC3    C1 9456   2.139   2.330  15.466  0.5354  0.5001  0.0957
  639TMC3    C2 9457   2.044   2.285  15.392  0.6754 -0.1468 -0.5999
  639TMC3    C3 9458   2.042   2.147  15.378  0.8097  0.9076  0.1029
  639TMC3    C4 9459   2.234   2.256  15.526  0.1510  0.3402 -0.0145
  639TMC3    C5 9460   2.236   2.123  15.498 -0.0164  0.2737 -0.7835
  639TMC3    C6 9461   2.146   2.068  15.416 -0.2971 -0.1652 -0.0882
  639TMC3     C 9462   2.169   2.478  15.462 -0.7376 -0.0595 -0.1185
  639TMC3     O 9463   2.240   2.526  15.551 -0.5230 -0.5501 -0.3231
  639TMC3     H 9464   1.973   2.345  15.336  0.3744  1.9040  1.9799
  639TMC3    H1 9465   2.305   2.293  15.598  0.0736  3.0688 -1.3711
  639TMC3    H2 9466   2.151   1.967  15.377 -0.5022 -0.0514 -0.4111
  639TMC3    C7 9467   2.358   2.053  15.508  0.3426  0.2022  0.3098
  639TMC3    C8 9468   1.970   2.103  15.263  0.4810  0.2483  0.2684
  639TMC3    O1 9469   2.335   1.932  15.521  0.8329  0.0370  0.5946
  639TMC3    O2 9470   2.039   2.095  15.162 -0.1830  0.4547  0.2524
  640MPD2     C 9471   2.825   1.239  10.583 -0.7272  0.3861 -0.3378
  640MPD2    C1 9472   2.827   1.307  10.467 -0.4202  0.0678 -0.2264
  640MPD2    C2 9473   2.774   1.436  10.461 -0.9216  0.6554  0.5710
  640MPD2    C3 9474   2.703   1.480  10.567  0.2659 -0.4461 -0.6625
  640MPD2    C4 9475   2.704   1.409  10.689  0.4914  0.4709 -0.0724
  640MPD2    C5 9476   2.768   1.290  10.700 -0.7788 -0.0733 -0.1501
  640MPD2     H 9477   2.755   1.479  10.364  0.3871 -2.3672 -1.0401
  640MPD2    H1 9478   2.644   1.448  10.770 -1.7049 -0.9001 -1.0445
  640MPD2    H2 9479   2.855   1.135  10.582  2.0352  1.1733 -0.2251
  640MPD2    H3 9480   2.766   1.227  10.788 -3.1239 -0.2316 -0.3198
  640MPD2     N 9481   2.633   1.607  10.553  0.2236 -0.1496  0.7227
  640MPD2    H5 9482   2.587   1.639  10.637  0.2774  0.3629  0.5547
  640MPD2    N1 9483   2.878   1.238  10.354  0.5784 -0.5070  0.1655
  640MPD2    H7 9484   2.914   1.143  10.367  1.4885 -0.2735 -0.6820
  641TMC3    C1 9485   2.892   1.172  10.118 -0.2149  0.1179  0.5287
  641TMC3    C2 9486   2.945   1.047  10.161 -0.1210  0.9553  0.9587
  641TMC3    C3 9487   2.920   0.942  10.077  1.1063 -0.0992 -0.5347
  641TMC3    C4 9488   2.818   1.189  10.003 -0.2808 -0.7248 -0.5801
  641TMC3    C5 9489   2.791   1.072   9.934 -0.5059  0.2336  0.4329
  641TMC3    C6 9490   2.839   0.947   9.966  0.1834 -0.0906 -0.3190
  641TMC3     C 9491   2.855   1.276  10.220  0.5382 -0.2035  0.3967
  641TMC3     O 9492   2.798   1.377  10.176 -0.4989 -0.2854 -0.1872
  641TMC3     H 9493   3.030   1.045  10.229  0.9545  2.3368 -0.3364
  641TMC3    H1 9494   2.771   1.282   9.975 -0.5854 -0.3654  1.1157
  641TMC3    H2 9495   2.809   0.857   9.913  0.9209 -1.6705  1.9338
  641TMC3    C7 9496   2.741   1.093   9.796 -0.3860  0.0523  0.1884
  641TMC3    C8 9497   3.001   0.826  10.084 -0.4146  0.0307  0.0494
  641TMC3    O1 9498   2.703   1.202   9.778  0.3798  0.4905 -0.2065
  641TMC3    O2 9499   3.010   0.759   9.981  0.1524  0.3284  0.3658
  642TMC3    C1 9500   4.248   2.892  12.135  0.1481 -1.0137 -1.0601
  642TMC3    C2 9501   4.379   2.865  12.106 -0.3846  0.3754 -0.0446
  642TMC3    C3 9502   4.404   2.798  11.988 -0.4443 -0.7202 -0.3272
  642TMC3    C4 9503   4.140   2.845  12.063 -0.3067 -0.1360 -0.4101
  642TMC3    C5 9504   4.173   2.780  11.946 -0.4011  0.3891 -0.2728
  642TMC3    C6 9505   4.302   2.760  11.905  0.5881  0.3488 -0.0494
  642TMC3     C 9506   4.223   2.941  12.270 -0.1081  0.2643 -0.5114
  642TMC3     O 9507   4.323   2.979  12.329  0.4848 -0.7887 -0.2343
  642TMC3     H 9508   4.461   2.883  12.175 -0.7821 -0.5573  0.6647
  642TMC3    H1 9509   4.039   2.872  12.091  0.3085 -1.2118  2.7646
  642TMC3    H2 9510   4.331   2.730  11.804  0.3191  0.3502 -0.1256
  642TMC3    C7 9511   4.068   2.716  11.866 -0.1202  0.3884 -0.0212
  642TMC3    C8 9512   4.537   2.751  11.970  0.8027 -0.0738  0.4323
  642TMC3    O1 9513   4.100   2.658  11.766 -0.0271  0.4137  0.1792
  642TMC3    O2 9514   4.566   2.740  11.850 -0.0541 -0.5417 -0.2619
  643TMC3    C1 9515   2.698   2.439   1.141  0.7685  0.8283 -0.2776
  643TMC3    C2 9516   2.586   2.480   1.073  0.2281  0.7929  0.1370
  643TMC3    C3 9517   2.553   2.424   0.951 -0.0782  0.4215 -0.4792
  643TMC3    C4 9518   2.775   2.340   1.090 -0.2190  0.4629 -0.5507
  643TMC3    C5 9519   2.745   2.288   0.967  0.3359 -0.3791 -0.4938
  643TMC3    C6 9520   2.640   2.339   0.892  0.0783 -0.1505 -0.4194
  643TMC3     C 9521   2.748   2.517   1.251  0.2352  0.3898 -0.0101
  643TMC3     O 9522   2.683   2.621   1.269  0.0907  0.1950 -0.0768
  643TMC3     H 9523   2.529   2.567   1.102  0.7432  0.5185  1.9807
  643TMC3    H1 9524   2.864   2.305   1.141  0.4253  1.5079 -0.9555
  643TMC3    H2 9525   2.615   2.300   0.794  0.0704 -1.6417  0.1809
  643TMC3    C7 9526   2.826   2.180   0.913  0.1202  0.5459 -0.5216
  643TMC3    C8 9527   2.473   2.504   0.861  0.5104  0.0122 -0.6398
  643TMC3    O1 9528   2.943   2.179   0.946  0.0319 -0.4327  0.8170
  643TMC3    O2 9529   2.365   2.545   0.896  0.1478  0.1818  0.9528
  644MPD2     C 9530   2.560   1.474   9.715 -0.4903 -0.5164 -0.4730
  644MPD2    C1 9531   2.658   1.490   9.614  0.3404 -0.4145  0.0630
  644MPD2    C2 9532   2.653   1.598   9.531  0.2483  0.7696  0.1567
  644MPD2    C3 9533   2.554   1.693   9.545  0.0396 -0.2555 -0.1148
  644MPD2    C4 9534   2.447   1.666   9.637  0.0515  0.2547 -0.2294
  644MPD2    C5 9535   2.452   1.559   9.717 -0.2230 -0.3392  0.0692
  644MPD2     H 9536   2.726   1.618   9.453 -1.3421  1.6002 -1.1275
  644MPD2    H1 9537   2.362   1.732   9.648  0.1422  0.1361  1.1964
  644MPD2    H2 9538   2.545   1.392   9.784  0.7317  0.3648  0.8629
  644MPD2    H3 9539   2.374   1.540   9.790  0.3259  1.2708  1.0890
  644MPD2     N 9540   2.555   1.815   9.471  0.2905 -0.1658 -0.4784
  644MPD2    H5 9541   2.475   1.877   9.468  1.2366  1.1998  2.0790
  644MPD2    N1 9542   2.765   1.396   9.609 -0.6223  0.2189  0.1122
  644MPD2    H7 9543   2.763   1.322   9.679  0.9063 -0.3573 -0.4432
  645TMC3    C1 9544   2.624   1.968   9.310  0.5893  0.2399 -0.5297
  645TMC3    C2 9545   2.730   2.037   9.261 -0.4235 -0.1279 -0.2456
  645TMC3    C3 9546   2.697   2.128   9.165  0.2448 -0.3043 -0.1289
  645TMC3    C4 9547   2.499   1.981   9.260  0.1763 -0.7411  0.7156
  645TMC3    C5 9548   2.474   2.059   9.143 -0.2922 -0.5061 -0.1802
  645TMC3    C6 9549   2.572   2.134   9.100  0.4989  0.4176  0.8485
  645TMC3     C 9550   2.658   1.857   9.386 -0.1207 -0.3219  0.1576
  645TMC3     O 9551   2.770   1.815   9.375 -0.0177 -0.1676 -0.0542
  645TMC3     H 9552   2.829   2.018   9.300  0.1254  2.5178 -0.3133
  645TMC3    H1 9553   2.418   1.914   9.286  0.2640 -0.2313  2.2766
  645TMC3    H2 9554   2.552   2.204   9.019 -0.9120 -1.7029 -0.6401
  645TMC3    C7 9555   2.345   2.083   9.097  0.0635 -0.2096  1.0576
  645TMC3    C8 9556   2.783   2.245   9.141  0.3135  0.2656  0.3549
  645TMC3    O1 9557   2.319   2.199   9.060 -0.0514  0.1138  0.4323
  645TMC3    O2 9558   2.732   2.343   9.087  0.2719 -0.0405 -0.2675
  646MPD2     C 9559   2.487   1.656  14.651 -0.1054 -1.0196 -0.5734
  646MPD2    C1 9560   2.407   1.570  14.721 -0.1745  0.1018  0.0324
  646MPD2    C2 9561   2.271   1.587  14.703  0.8258  0.4238 -0.0724
  646MPD2    C3 9562   2.217   1.680  14.619 -0.4001  0.2021 -0.4006
  646MPD2    C4 9563   2.299   1.765  14.553  0.8647 -0.0306  0.3098
  646MPD2    C5 9564   2.432   1.746  14.570 -0.4001 -0.7710  0.0260
  646MPD2     H 9565   2.209   1.529  14.770  4.0919 -2.1366  0.7085
  646MPD2    H1 9566   2.278   1.856  14.499  0.6310  1.4994  2.9729
  646MPD2    H2 9567   2.595   1.658  14.662 -0.1296 -1.8197 -0.1658
  646MPD2    H3 9568   2.497   1.812  14.512 -1.5363 -0.5722 -1.0121
  646MPD2     N 9569   2.076   1.697  14.612 -0.0955  0.0915 -0.3343
  646MPD2    H5 9570   2.021   1.626  14.659  0.0841 -1.0098 -1.7766
  646MPD2    N1 9571   2.472   1.471  14.790  0.7204 -0.1428  0.2009
  646MPD2    H7 9572   2.572   1.482  14.804  0.6145  1.3786 -0.2474
  647TMC3    C1 9573   2.506   1.270  14.904 -0.8737  0.6626 -0.2461
  647TMC3    C2 9574   2.446   1.185  14.999  0.2627  0.6342 -0.3772
  647TMC3    C3 9575   2.531   1.106  15.064  0.7802 -0.0669 -0.2567
  647TMC3    C4 9576   2.642   1.281  14.886 -0.4873  0.0279 -0.6260
  647TMC3    C5 9577   2.719   1.201  14.969  0.2236 -0.2745  0.6913
  647TMC3    C6 9578   2.668   1.100  15.046 -0.5595  0.5166  0.2773
  647TMC3     C 9579   2.411   1.365  14.848 -0.4910  0.6611 -0.2409
  647TMC3     O 9580   2.293   1.331  14.855 -1.0124 -0.1758 -0.6473
  647TMC3     H 9581   2.341   1.183  15.026 -0.0542  1.1288 -1.6050
  647TMC3    H1 9582   2.680   1.352  14.814  1.2427 -1.3384 -1.0471
  647TMC3    H2 9583   2.733   1.038  15.107 -1.7464  0.5495  1.5721
  647TMC3    C7 9584   2.853   1.175  14.929 -0.6330  0.3051 -0.6828
  647TMC3    C8 9585   2.480   1.022  15.177  0.2384 -0.2722 -0.3697
  647TMC3    O1 9586   2.896   1.062  14.943  0.0850  0.2106 -0.0289
  647TMC3    O2 9587   2.544   1.025  15.281  0.5253 -0.0468  0.8256
  648TMC3    C1 9588   1.863   3.808  16.514 -0.4771 -0.1543  0.5885
  648TMC3    C2 9589   1.921   3.686  16.479 -0.6891  1.1101  0.4282
  648TMC3    C3 9590   1.911   3.633  16.355 -0.0052 -0.4478 -0.5128
  648TMC3    C4 9591   1.795   3.875  16.414  0.0763 -0.1165 -0.6892
  648TMC3    C5 9592   1.782   3.813  16.286  0.2634  0.2939 -0.6762
  648TMC3    C6 9593   1.844   3.693  16.251 -0.3744  0.0434  0.3664
  648TMC3     C 9594   1.862   3.864  16.650 -0.2909  0.3052 -0.3925
  648TMC3     O 9595   1.810   3.973  16.662 -0.0564 -0.1161  0.3413
  648TMC3     H 9596   1.968   3.628  16.558 -2.6841  1.3996  1.8257
  648TMC3    H1 9597   1.745   3.967  16.446  1.0836  0.4037 -0.6279
  648TMC3    H2 9598   1.819   3.637  16.162 -2.9014 -2.4208  2.6085
  648TMC3    C7 9599   1.696   3.871  16.178  0.7103 -0.3525 -0.8569
  648TMC3    C8 9600   1.917   3.492  16.350 -0.4425  0.4330 -0.5441
  648TMC3    O1 9601   1.689   3.820  16.070  0.5137 -0.8161 -0.4369
  648TMC3    O2 9602   1.877   3.436  16.448  0.0653  0.5267  0.5572
  649TMC3    C1 9603   0.517   0.177  13.222  0.5454  0.1335 -0.1484
  649TMC3    C2 9604   0.625   0.164  13.144  0.5619  0.5690 -0.0361
  649TMC3    C3 9605   0.733   0.097  13.196  0.3673  1.2401 -0.0485
  649TMC3    C4 9606   0.496   0.107  13.338 -0.3989 -0.2677 -0.7287
  649TMC3    C5 9607   0.609   0.043  13.386  0.2074  0.1068 -0.4587
  649TMC3    C6 9608   0.726   0.039  13.318  0.1258  0.0146 -0.8774
  649TMC3     C 9609   0.404   0.239  13.166  1.0098 -0.3303 -0.0488
  649TMC3     O 9610   0.330   0.298  13.244  0.4308 -0.0042  0.7771
  649TMC3     H 9611   0.636   0.229  13.057  0.3010  0.2459 -0.3074
  649TMC3    H1 9612   0.404   0.110  13.394  1.8299 -1.5044  3.0225
  649TMC3    H2 9613   0.813   4.720  13.368 -1.2798 -2.1693 -0.1768
  649TMC3    C7 9614   0.598   4.689  13.506 -0.3684 -0.5271 -0.7628
  649TMC3    C8 9615   0.868   0.137  13.159  0.0665 -0.0395 -0.0099
  649TMC3    O1 9616   0.526   0.018  13.592  0.5293  0.0378 -0.3495
  649TMC3    O2 9617   0.959   0.099  13.231 -0.0217 -0.0786  0.0467
  650TMC3    C1 9618   3.228   1.704  12.396 -0.8211 -0.3720  0.4057
  650TMC3    C2 9619   3.250   1.840  12.388  0.8824  1.3193 -0.6607
  650TMC3    C3 9620   3.190   1.913  12.285  0.6645  0.4599 -0.0420
  650TMC3    C4 9621   3.128   1.656  12.312  0.2041  0.2904  0.9709
  650TMC3    C5 9622   3.070   1.730  12.214 -0.1898  0.1361  0.0232
  650TMC3    C6 9623   3.102   1.863  12.195 -0.5757 -0.2779  0.7828
  650TMC3     C 9624   3.230   1.660  12.525  0.8581 -0.2520  0.6610
  650TMC3     O 9625   3.241   1.748  12.609 -0.5091 -0.2864  0.0897
  650TMC3     H 9626   3.319   1.892  12.454  1.8758  0.4710 -1.0178
  650TMC3    H1 9627   3.090   1.555  12.313  1.1986 -0.1124 -2.0591
  650TMC3    H2 9628   3.063   1.922  12.113 -0.2022 -2.6170 -1.0701
  650TMC3    C7 9629   2.995   1.654  12.114  0.6645 -0.9759  0.0113
  650TMC3    C8 9630   3.210   2.057  12.294  0.9158  0.1389 -0.0235
  650TMC3    O1 9631   2.956   1.541  12.137  0.2082 -0.1403 -0.2551
  650TMC3    O2 9632   3.259   2.103  12.397 -0.3723  0.5312 -0.0359
  651MPD2     C 9633   2.074   3.846  10.684 -0.1776 -0.6633  0.4630
  651MPD2    C1 9634   2.046   3.957  10.762  0.2446 -0.7352 -0.0924
  651MPD2    C2 9635   2.149   4.051  10.779 -0.4671 -0.8129  0.4374
  651MPD2    C3 9636   2.274   4.036  10.724  0.7234  0.6606  0.8614
  651MPD2    C4 9637   2.296   3.921  10.653 -0.7292  0.1660 -0.3588
  651MPD2    C5 9638   2.198   3.830  10.624 -0.8444  0.0107 -0.0380
  651MPD2     H 9639   2.140   4.140  10.840 -1.9489 -0.8590  0.2875
  651MPD2    H1 9640   2.387   3.896  10.598  0.0298  1.6595  0.2202
  651MPD2    H2 9641   2.006   3.761  10.682  0.3587 -1.0818 -0.3992
  651MPD2    H3 9642   2.216   3.729  10.588  0.6735  0.1914  0.2259
  651MPD2     N 9643   2.375   4.127  10.757  0.2241  0.5143 -0.0563
  651MPD2    H5 9644   2.350   4.198  10.827 -0.1888  0.8973 -0.5925
  651MPD2    N1 9645   1.923   3.981  10.825 -0.5278 -0.4138  0.2738
  651MPD2    H7 9646   1.906   4.077  10.855  0.7729 -0.3121  0.6979
  652TMC3    C1 9647   2.789   4.223  10.930 -0.5621  0.6811 -0.3782
  652TMC3    C2 9648   2.698   4.140  10.866 -0.5348  0.7407  0.1146
  652TMC3    C3 9649   2.597   4.205  10.808 -0.3242 -0.2588  0.0371
  652TMC3    C4 9650   2.770   4.361  10.932 -0.8342  0.2208 -0.4263
  652TMC3    C5 9651   2.660   4.415  10.869  0.0638  0.0530  0.3168
  652TMC3    C6 9652   2.566   4.342  10.806  0.1945  1.0603 -0.1246
  652TMC3     C 9653   2.920   4.180  10.966  0.4420 -0.3139 -0.0835
  652TMC3     O 9654   2.927   4.084  11.043 -0.3393  0.0484 -0.3229
  652TMC3     H 9655   2.710   4.032  10.874  1.1852  1.0492  1.7923
  652TMC3    H1 9656   2.835   4.433  10.980 -0.9509  0.8574 -1.2149
  652TMC3    H2 9657   2.493   4.385  10.739 -0.1539  1.1917  0.3373
  652TMC3    C7 9658   2.618   4.547  10.927  0.2080  0.0901 -0.3868
  652TMC3    C8 9659   2.513   4.115  10.732 -0.0087 -0.5790  0.7998
  652TMC3    O1 9660   2.650   4.578  11.042 -0.0505  0.5264  0.3307
  652TMC3    O2 9661   2.571   4.046  10.650 -0.1005  0.0923 -0.0011
  653MPD2     C 9662   0.703   4.263   0.484 -0.4067  0.2608 -0.0747
  653MPD2    C1 9663   0.772   4.285   0.366 -0.0738 -0.1875 -0.0029
  653MPD2    C2 9664   0.739   4.212   0.257 -0.1208 -0.3812  1.7377
  653MPD2    C3 9665   0.625   4.125   0.263 -0.0931 -0.3705 -0.1352
  653MPD2    C4 9666   0.563   4.088   0.380 -0.1771 -0.0427 -0.0439
  653MPD2    C5 9667   0.602   4.163   0.488 -0.9328 -0.4234  0.0368
  653MPD2     H 9668   0.785   4.216   0.159 -0.3157 -2.5176  1.5625
  653MPD2    H1 9669   0.482   4.017   0.397 -0.3276  0.2350  0.4019
  653MPD2    H2 9670   0.728   4.309   0.579  2.0201 -1.3003  0.0532
  653MPD2    H3 9671   0.543   4.138   0.575 -2.0644  0.4122 -0.5000
  653MPD2     N 9672   0.578   4.067   0.143 -0.5045  0.4550  0.3605
  653MPD2    H5 9673   0.639   4.061   0.062 -0.4105  2.5053  0.2600
  653MPD2    N1 9674   0.874   4.382   0.351 -0.1450  0.2646  0.0781
  653MPD2    H7 9675   0.915   4.399   0.259 -1.3942  1.4522 -0.2440
  654TMC3    C1 9676   0.444   3.951  17.677 -0.1615  0.0138  0.5153
  654TMC3    C2 9677   0.321   3.927  17.633  0.3109 -0.1472 -0.1525
  654TMC3    C3 9678   0.300   3.858  17.517  0.0699  0.4171  0.3523
  654TMC3    C4 9679   0.555   3.917  17.607 -0.3120 -0.0458  0.9855
  654TMC3    C5 9680   0.532   3.864  17.478  0.0096 -0.9743 -0.2585
  654TMC3    C6 9681   0.405   3.830  17.432  0.2396  0.3943 -0.1634
  654TMC3     C 9682   0.453   4.010   0.123 -0.5918 -0.1552  0.6701
  654TMC3     O 9683   0.357   4.009   0.197  0.6679 -0.0900 -0.0943
  654TMC3     H 9684   0.239   3.940   0.018  0.0047 -1.2197 -0.3022
  654TMC3    H1 9685   0.659   3.919  17.639 -0.8978 -1.3700  2.9385
  654TMC3    H2 9686   0.390   3.763  17.348  2.1826 -0.5230  0.2222
  654TMC3    C7 9687   0.637   3.781  17.421  0.8094  0.2126 -0.8983
  654TMC3    C8 9688   0.159   3.817  17.492  0.2845 -0.0032 -0.0514
  654TMC3    O1 9689   0.625   3.758  17.301  0.2013  1.0463  0.1813
  654TMC3    O2 9690   0.073   3.880  17.550 -0.2496  0.3347  0.0800
  655MPD2     C 9691   2.138   3.694  16.010 -0.0510  0.2248 -0.3757
  655MPD2    C1 9692   2.035   3.749  15.941  0.2603  0.5775  0.6393
  655MPD2    C2 9693   1.997   3.693  15.821  0.0683 -0.1339 -0.1547
  655MPD2    C3 9694   2.054   3.570  15.782 -0.0676 -1.0474  0.7401
  655MPD2    C4 9695   2.167   3.520  15.849  0.6659 -0.3180  0.3414
  655MPD2    C5 9696   2.201   3.582  15.965  0.1115 -0.3694 -0.0917
  655MPD2     H 9697   1.936   3.758  15.760  0.6545 -0.1733 -0.7824
  655MPD2    H1 9698   2.232   3.441  15.813 -0.3374 -1.4438  1.0067
  655MPD2    H2 9699   2.176   3.732  16.104  1.4778 -2.2649  0.0083
  655MPD2    H3 9700   2.273   3.541  16.035  2.6677  0.6095 -2.1554
  655MPD2     N 9701   2.009   3.506  15.664 -0.5947  0.2144 -0.0938
  655MPD2    H5 9702   2.075   3.445  15.618 -0.7739 -0.7784  0.9482
  655MPD2    N1 9703   1.978   3.876  15.969  0.3543  0.1869 -0.4700
  655MPD2    H7 9704   1.912   3.917  15.904  1.4729 -0.1606 -1.8245
  656TMC3    C1 9705   1.941   4.087  16.070 -0.2447  0.3508  0.7524
  656TMC3    C2 9706   1.918   4.152  16.185 -0.0540 -0.3582 -0.0920
  656TMC3    C3 9707   1.839   4.261  16.185 -1.3736 -0.2524  0.1698
  656TMC3    C4 9708   1.873   4.123  15.950 -0.3782 -0.1116 -0.0272
  656TMC3    C5 9709   1.787   4.232  15.955 -0.4709 -0.2855  0.1183
  656TMC3    C6 9710   1.763   4.299  16.077  0.6205 -0.0314 -0.4195
  656TMC3     C 9711   2.005   3.952  16.082  0.0056  0.1905 -0.6918
  656TMC3     O 9712   2.064   3.924  16.187 -1.2225  0.6610  0.3547
  656TMC3     H 9713   1.980   4.121  16.269 -1.4708 -0.5394  0.8755
  656TMC3    H1 9714   1.888   4.079  15.852  2.5716  0.5854  0.1153
  656TMC3    H2 9715   1.682   4.370  16.090 -0.4508 -1.4388  0.5567
  656TMC3    C7 9716   1.709   4.266  15.834 -0.0274 -0.0901  0.1188
  656TMC3    C8 9717   1.774   4.279  16.307 -0.1178  0.3826  1.0725
  656TMC3    O1 9718   1.740   4.207  15.731 -0.1408 -0.3906  0.1939
  656TMC3    O2 9719   1.789   4.183  16.375  0.5606  0.3707  0.1593
  657TMC3    C1 9720   1.014   3.001  15.636 -0.4132 -0.0405 -0.0263
  657TMC3    C2 9721   1.083   2.987  15.751 -0.5206  0.1339  0.2529
  657TMC3    C3 9722   1.053   3.066  15.855 -0.5972 -0.6642  0.3401
  657TMC3    C4 9723   0.912   3.092  15.627  0.0878 -0.1867 -0.5257
  657TMC3    C5 9724   0.891   3.176  15.737 -0.2115  0.1933  0.7385
  657TMC3    C6 9725   0.966   3.169  15.849  0.9210 -0.3435 -0.3196
  657TMC3     C 9726   1.060   2.934  15.516 -0.2370 -0.5570  0.5360
  657TMC3     O 9727   0.984   2.931  15.423 -0.2009 -0.0592 -0.1600
  657TMC3     H 9728   1.143   2.898  15.759 -0.4765  0.2502  1.2984
  657TMC3    H1 9729   0.851   3.098  15.537 -1.4064  1.5894  0.6007
  657TMC3    H2 9730   0.967   3.244  15.928 -2.3120 -0.5637 -0.0577
  657TMC3    C7 9731   0.783   3.275  15.740  0.2768 -0.6066  0.7006
  657TMC3    C8 9732   1.099   3.036  15.984 -0.2801  0.2572 -0.7895
  657TMC3    O1 9733   0.726   3.300  15.840 -0.8085  0.2637  0.0951
  657TMC3    O2 9734   1.025   3.075  16.074  0.1598 -0.4149  0.6421
  658MPD2     C 9735   2.274   3.753  15.109  0.3291 -0.1010  0.2047
  658MPD2    C1 9736   2.167   3.679  15.063 -0.5691 -0.4710  0.3797
  658MPD2    C2 9737   2.114   3.704  14.937  0.0950 -0.3189 -0.5551
  658MPD2    C3 9738   2.179   3.797  14.854  0.4924  0.0273  0.8046
  658MPD2    C4 9739   2.294   3.860  14.897  0.3500  0.2202  0.6678
  658MPD2    C5 9740   2.330   3.846  15.025 -0.2632 -0.0441  0.2538
  658MPD2     H 9741   2.016   3.672  14.904 -0.4471  0.5126  0.2432
  658MPD2    H1 9742   2.350   3.924  14.830 -0.0458 -0.1287  0.0109
  658MPD2    H2 9743   2.319   3.743  15.207  2.3534 -1.9557 -0.9292
  658MPD2    H3 9744   2.421   3.890  15.065  0.4248  0.4077 -1.8013
  658MPD2     N 9745   2.113   3.824  14.726  0.3255  0.3926 -0.3336
  658MPD2    H5 9746   2.023   3.781  14.709  0.1772  0.0709  1.3010
  658MPD2    N1 9747   2.106   3.590  15.153  0.3711  0.4457 -0.5023
  658MPD2    H7 9748   2.113   3.619  15.250 -0.6378  1.0474 -0.6099
  659TMC3    C1 9749   1.936   3.452  15.243 -0.0697 -0.2234 -0.1022
  659TMC3    C2 9750   1.973   3.491  15.372 -0.6061  0.1733 -0.2688
  659TMC3    C3 9751   1.871   3.481  15.465  0.3895 -0.4349  0.3518
  659TMC3    C4 9752   1.806   3.414  15.216  0.4682  0.2534 -0.3956
  659TMC3    C5 9753   1.715   3.415  15.310  0.3278 -0.1776 -0.0742
  659TMC3    C6 9754   1.742   3.453  15.431  0.4020 -0.4025 -0.5050
  659TMC3     C 9755   2.015   3.498  15.129 -0.6011 -0.0779  0.0034
  659TMC3     O 9756   1.987   3.461  15.013  0.1327  0.7094 -0.0172
  659TMC3     H 9757   2.071   3.522  15.406  0.1246 -1.7854 -0.5541
  659TMC3    H1 9758   1.784   3.384  15.114  0.7614 -1.4510  0.0616
  659TMC3    H2 9759   1.666   3.437  15.507  1.7991 -2.4920  0.4628
  659TMC3    C7 9760   1.573   3.391  15.284  0.6497  0.2643 -1.3166
  659TMC3    C8 9761   1.890   3.532  15.603  0.2511 -0.2788 -0.0690
  659TMC3    O1 9762   1.493   3.438  15.363 -0.3936  0.4464 -0.5108
  659TMC3    O2 9763   1.794   3.593  15.646 -0.4565  0.5071 -0.2407
  660MPD2     C 9764   0.638   2.775  12.729 -0.4621 -0.2880 -0.1069
  660MPD2    C1 9765   0.503   2.798  12.704 -0.0152 -0.3956 -1.5454
  660MPD2    C2 9766   0.414   2.769  12.802 -0.3600 -0.0239  0.6475
  660MPD2    C3 9767   0.461   2.730  12.923  0.6838  0.3324  0.2882
  660MPD2    C4 9768   0.594   2.698  12.945  0.0380 -0.5572  0.0076
  660MPD2    C5 9769   0.682   2.726  12.846  0.0877 -0.4044  0.3119
  660MPD2     H 9770   0.310   2.785  12.777 -0.4760 -1.4190  0.2524
  660MPD2    H1 9771   0.630   2.651  13.036 -0.5622 -0.1837  0.4388
  660MPD2    H2 9772   0.711   2.790  12.651  1.1793  0.9606  1.6743
  660MPD2    H3 9773   0.786   2.699  12.852  0.2933  0.0897 -0.9052
  660MPD2     N 9774   0.369   2.702  13.029  0.3487  0.4263 -0.0983
  660MPD2    H5 9775   0.408   2.649  13.107 -1.4565 -1.2252 -0.3175
  660MPD2    N1 9776   0.462   2.854  12.586 -0.8714  0.3901  0.3154
  660MPD2    H7 9777   0.536   2.873  12.520  1.7883 -1.1991  2.8364
  661TMC3    C1 9778   0.323   2.957  12.419 -0.0333  0.4306  0.2442
  661TMC3    C2 9779   0.433   2.948  12.333 -0.2664 -0.6681  0.1970
  661TMC3    C3 9780   0.418   2.979  12.202 -0.3260 -0.4901 -0.6619
  661TMC3    C4 9781   0.205   3.013  12.374  0.2289 -0.7348  0.5126
  661TMC3    C5 9782   0.197   3.047  12.246  0.4838  0.2234 -0.6942
  661TMC3    C6 9783   0.300   3.039  12.158  0.3953  0.5751 -0.1763
  661TMC3     C 9784   0.331   2.891  12.546  0.2291 -0.1909  0.0772
  661TMC3     O 9785   0.226   2.897  12.613  0.0024  0.1084 -0.1541
  661TMC3     H 9786   0.526   2.895  12.352  1.7056  2.6649 -0.3427
  661TMC3    H1 9787   0.114   3.006  12.433  1.0371  0.5929  1.9233
  661TMC3    H2 9788   0.284   3.051  12.052 -0.9764  0.5499  0.0180
  661TMC3    C7 9789   0.061   3.081  12.192  0.7686  0.1587  0.1199
  661TMC3    C8 9790   0.509   2.920  12.103  0.5207  0.4808  0.5394
  661TMC3    O1 9791   4.703   3.112  12.279 -0.4304 -0.0057 -0.5157
  661TMC3    O2 9792   0.553   2.808  12.124  0.2903  0.6548 -0.1482
  662MPD2     C 9793   0.856   1.996   0.143 -0.8368  0.0542 -0.0931
  662MPD2    C1 9794   0.752   2.030   0.225 -0.4042 -0.2927  0.2318
  662MPD2    C2 9795   0.690   2.153   0.207 -0.0783  0.4209  0.7699
  662MPD2    C3 9796   0.719   2.235   0.100 -0.6669  0.0307 -0.1504
  662MPD2    C4 9797   0.829   2.197   0.019  0.2471 -0.3189 -0.2361
  662MPD2    C5 9798   0.898   2.080   0.041  0.0017  0.0595 -0.6903
  662MPD2     H 9799   0.611   2.189   0.272 -0.9277 -1.0120  0.5334
  662MPD2    H1 9800   0.870   2.253  17.622  0.6774  0.3195  0.4085
  662MPD2    H2 9801   0.912   1.905   0.157 -2.6632 -0.9677  0.6256
  662MPD2    H3 9802   0.981   2.062  17.659  0.3045  2.6986 -1.0114
  662MPD2     N 9803   0.660   2.356   0.068 -0.9695 -0.0397 -0.4183
  662MPD2    H5 9804   0.716   2.422   0.015  0.3676 -0.7069  0.1531
  662MPD2    N1 9805   0.697   1.957   0.329  0.3047 -0.1979  0.3791
  662MPD2    H7 9806   0.625   1.994   0.390  0.4181 -0.5313  0.7151
  663TMC3    C1 9807   0.673   1.785   0.480  0.2806 -0.6161 -0.3738
  663TMC3    C2 9808   0.649   1.879   0.572 -0.2433 -0.5340  0.5076
  663TMC3    C3 9809   0.578   1.845   0.682  0.2072 -0.6710  0.1783
  663TMC3    C4 9810   0.633   1.654   0.493  0.0231  0.2495 -0.0470
  663TMC3    C5 9811   0.566   1.618   0.606 -0.0169  0.8700  0.0100
  663TMC3    C6 9812   0.529   1.718   0.696 -0.3949  0.1023  0.6156
  663TMC3     C 9813   0.725   1.827   0.348  0.1413 -0.6347 -0.9752
  663TMC3     O 9814   0.784   1.743   0.275 -0.3314 -0.3119 -0.3685
  663TMC3     H 9815   0.694   1.977   0.574  1.0608 -1.0895 -1.7420
  663TMC3    H1 9816   0.654   1.582   0.415 -0.8455 -0.5619  0.4556
  663TMC3    H2 9817   0.508   1.674   0.793  0.6706 -1.7530 -0.0045
  663TMC3    C7 9818   0.544   1.480   0.640  0.2309 -0.4333  0.4303
  663TMC3    C8 9819   0.484   1.945   0.715 -0.7246  0.2272  0.5741
  663TMC3    O1 9820   0.516   1.457   0.757  0.3551  0.1613  0.3047
  663TMC3    O2 9821   0.497   2.053   0.664 -0.0673 -0.0845 -0.0478
  664MPD2     C 9822   3.321   0.454   0.303 -0.0377 -0.1932  0.5661
  664MPD2    C1 9823   3.290   0.587   0.328 -0.2171 -0.4793  0.3826
  664MPD2    C2 9824   3.260   0.625   0.459 -0.5548  0.2312  0.0966
  664MPD2    C3 9825   3.265   0.535   0.561 -0.6123  0.1168  0.0332
  664MPD2    C4 9826   3.302   0.406   0.530  0.0666 -0.3267  0.4571
  664MPD2    C5 9827   3.324   0.364   0.402 -0.0305  0.4197 -0.1598
  664MPD2     H 9828   3.232   0.728   0.476  0.4801  1.0702 -3.1943
  664MPD2    H1 9829   3.309   0.335   0.612  4.3494  1.7830  1.9111
  664MPD2    H2 9830   3.341   0.415   0.203 -1.4472 -0.2055  0.2879
  664MPD2    H3 9831   3.350   0.263   0.374  0.6619  0.7343 -0.6434
  664MPD2     N 9832   3.253   0.580   0.693 -0.2795  0.6371 -0.2260
  664MPD2    H5 9833   3.245   0.679   0.712 -2.5985  0.5437 -0.7314
  664MPD2    N1 9834   3.281   0.679   0.220 -0.4953 -0.3396 -0.3033
  664MPD2    H7 9835   3.278   0.778   0.243  1.5473 -0.0840 -1.1927
  665TMC3    C1 9836   3.235   0.566   0.925  0.3926  0.4784 -0.0262
  665TMC3    C2 9837   3.173   0.492   1.032  0.1621 -0.1512  0.6409
  665TMC3    C3 9838   3.194   0.541   1.158  0.0361 -0.1872 -0.8323
  665TMC3    C4 9839   3.305   0.675   0.944  0.4094  0.4860 -0.1986
  665TMC3    C5 9840   3.312   0.726   1.073  0.3315 -0.3909  0.2675
  665TMC3    C6 9841   3.271   0.657   1.178 -0.1370  0.4825 -0.1343
  665TMC3     C 9842   3.248   0.494   0.803  0.5094 -0.0168 -0.2426
  665TMC3     O 9843   3.218   0.375   0.804  0.2597  0.4447 -0.4729
  665TMC3     H 9844   3.109   0.410   1.003  2.9195 -1.9360 -0.3892
  665TMC3    H1 9845   3.345   0.741   0.868  1.5193  0.9104  0.7486
  665TMC3    H2 9846   3.265   0.707   1.274 -0.3827  1.5257 -0.6955
  665TMC3    C7 9847   3.344   0.869   1.088  0.2760  0.7925 -0.3677
  665TMC3    C8 9848   3.176   0.461   1.280 -0.0404  0.2063  0.1221
  665TMC3    O1 9849   3.344   0.940   0.989  0.5011 -0.1142  0.2265
  665TMC3    O2 9850   3.259   0.484   1.367 -0.3355  0.0454  0.0265
  666TMC3    C1 9851   2.044   0.364  10.025  0.5004  0.3413 -0.1145
  666TMC3    C2 9852   2.089   0.287   9.917 -0.0187 -0.4456 -0.9210
  666TMC3    C3 9853   2.157   0.366   9.824 -0.6932 -0.5684 -0.1573
  666TMC3    C4 9854   2.062   0.498  10.041  0.2170  0.0607 -0.4107
  666TMC3    C5 9855   2.119   0.570   9.937 -0.0988 -0.1596  0.2153
  666TMC3    C6 9856   2.159   0.502   9.830 -0.4622 -0.4428 -0.7916
  666TMC3     C 9857   2.008   0.304  10.148  1.0968  0.6882 -0.3909
  666TMC3     O 9858   1.931   0.358  10.227  0.1288  0.2887 -0.2406
  666TMC3     H 9859   2.083   0.179   9.911  3.8846 -0.6609 -1.2051
  666TMC3    H1 9860   2.036   0.545  10.135  1.2501 -0.6279  0.2136
  666TMC3    H2 9861   2.208   0.552   9.748  1.3466 -0.2410  0.4297
  666TMC3    C7 9862   2.170   0.697   9.980  0.7828  0.0307 -0.1538
  666TMC3    C8 9863   2.229   0.306   9.711  0.5428  0.5324  0.1977
  666TMC3    O1 9864   2.170   0.714  10.100 -0.0462 -0.2895 -0.1243
  666TMC3    O2 9865   2.161   0.226   9.643 -0.1075 -0.6491  0.3076
  667MPD2     C 9866   3.920   0.924  14.505  0.3907  0.1746 -0.0520
  667MPD2    C1 9867   3.891   0.877  14.633  0.2223  0.6341  0.5155
  667MPD2    C2 9868   3.781   0.788  14.651 -0.2125  0.5079 -0.0438
  667MPD2    C3 9869   3.715   0.741  14.545  0.0183  0.1696  0.6923
  667MPD2    C4 9870   3.748   0.791  14.424  0.0838  0.1169 -0.7768
  667MPD2    C5 9871   3.851   0.880  14.404  0.2013  0.0576 -0.7204
  667MPD2     H 9872   3.747   0.764  14.751 -0.8245  2.0752  0.1339
  667MPD2    H1 9873   3.699   0.757  14.333 -0.0190 -2.5381  0.2699
  667MPD2    H2 9874   3.984   1.009  14.484  0.1807  0.0353 -1.2606
  667MPD2    H3 9875   3.861   0.926  14.306  0.5364 -0.5987 -0.9921
  667MPD2     N 9876   3.613   0.645  14.548 -0.1979  0.0504 -0.2742
  667MPD2    H5 9877   3.569   0.617  14.461 -1.3990 -1.0891  0.7060
  667MPD2    N1 9878   3.953   0.928  14.746 -0.1800  0.8089 -0.7147
  667MPD2    H7 9879   3.912   0.905  14.836  0.4884  0.0516 -0.5994
  668TMC3    C1 9880   4.126   1.025  14.889  0.2694 -0.2407  0.4249
  668TMC3    C2 9881   4.206   1.134  14.907 -0.0454 -0.2730 -0.3977
  668TMC3    C3 9882   4.238   1.163  15.037  0.7397 -0.1474 -0.3684
  668TMC3    C4 9883   4.095   0.938  14.988 -0.1083  0.0220  0.1012
  668TMC3    C5 9884   4.124   0.973  15.116  0.4952 -0.8636 -0.0458
  668TMC3    C6 9885   4.190   1.092  15.144  0.3682  0.1964 -0.5485
  668TMC3     C 9886   4.072   1.006  14.754  0.4326 -0.6110 -0.6430
  668TMC3     O 9887   4.134   1.049  14.658  0.7331 -0.5657  0.1458
  668TMC3     H 9888   4.215   1.206  14.827 -0.2693  2.2309  1.8020
  668TMC3    H1 9889   4.052   0.842  14.963  0.2134 -1.0336  3.5954
  668TMC3    H2 9890   4.197   1.140  15.241 -0.0702 -2.4282  0.7660
  668TMC3    C7 9891   4.111   0.880  15.228 -0.3128  0.3211  0.6610
  668TMC3    C8 9892   4.321   1.277  15.060 -0.0987  0.6348  0.0008
  668TMC3    O1 9893   4.176   0.903  15.326 -0.2417 -0.5404  0.5006
  668TMC3    O2 9894   4.347   1.310  15.175 -0.3643  0.1318  0.2572
  669TMC3    C1 9895   2.306   0.912  14.448 -0.3880 -0.1152  0.7606
  669TMC3    C2 9896   2.186   0.919  14.382 -0.2336  1.1311  0.4124
  669TMC3    C3 9897   2.177   1.004  14.274 -0.2780 -0.6946  0.4964
  669TMC3    C4 9898   2.419   0.943  14.379 -0.1732 -0.1697  0.2642
  669TMC3    C5 9899   2.409   1.035  14.277 -0.8282  0.4253 -0.4859
  669TMC3    C6 9900   2.289   1.082  14.230 -0.0845  0.1675 -0.1621
  669TMC3     C 9901   2.311   0.863  14.587 -0.4653  0.1629  0.3694
  669TMC3     O 9902   2.203   0.833  14.636 -0.6424 -0.4191  0.2753
  669TMC3     H 9903   2.093   0.901  14.434  0.5768 -1.5620  0.8858
  669TMC3    H1 9904   2.521   0.923  14.411  0.0313  0.5467  0.0546
  669TMC3    H2 9905   2.282   1.145  14.142  0.6026  1.3806  0.6466
  669TMC3    C7 9906   2.524   1.118  14.249  0.4308  0.0793 -0.8703
  669TMC3    C8 9907   2.045   1.051  14.239  0.7551 -0.1046 -0.0120
  669TMC3    O1 9908   2.605   1.128  14.337  0.0230 -0.3216 -0.3211
  669TMC3    O2 9909   2.029   1.172  14.213  0.1630  0.0139  0.6282
  670MPD2     C 9910   0.815   3.391  13.480  0.0583 -0.0173 -0.9911
  670MPD2    C1 9911   0.865   3.431  13.601  0.7650 -0.0621 -0.3065
  670MPD2    C2 9912   0.782   3.412  13.713 -0.0742  0.0836 -0.3584
  670MPD2    C3 9913   0.658   3.347  13.709 -0.2179 -0.1260  0.5114
  670MPD2    C4 9914   0.614   3.308  13.586 -0.0488 -0.0616  0.8032
  670MPD2    C5 9915   0.698   3.323  13.479  0.3580  0.8587 -0.4556
  670MPD2     H 9916   0.823   3.430  13.812 -0.4766 -0.1646 -0.1449
  670MPD2    H1 9917   0.527   3.248  13.561  0.1993  0.1609 -0.5646
  670MPD2    H2 9918   0.867   3.397  13.385  0.2615 -1.3996 -0.9697
  670MPD2    H3 9919   0.667   3.285  13.382 -0.1459 -0.5992  0.2681
  670MPD2     N 9920   0.589   3.326  13.829  0.2409 -0.4041 -0.9918
  670MPD2    H5 9921   0.634   3.349  13.917 -4.6139  2.2691  0.8132
  670MPD2    N1 9922   0.999   3.479  13.626 -0.0087  0.0520  0.6816
  670MPD2    H7 9923   1.035   3.498  13.719 -2.4154 -0.9741  1.8306
  671TMC3    C1 9924   0.447   3.230  13.987  0.2011 -0.3783  0.0948
  671TMC3    C2 9925   0.554   3.230  14.076  0.0930 -0.3200  0.1954
  671TMC3    C3 9926   0.533   3.170  14.197  0.1561  0.0405 -0.1198
  671TMC3    C4 9927   0.319   3.188  14.026 -0.1199  0.0822  0.1939
  671TMC3    C5 9928   0.306   3.133  14.152  0.5597 -0.0109 -0.1789
  671TMC3    C6 9929   0.413   3.124  14.246 -0.1403 -0.2214  0.2398
  671TMC3     C 9930   0.471   3.260  13.844  0.3396  0.1447 -0.7583
  671TMC3     O 9931   0.387   3.225  13.760 -0.0717  0.3365 -0.6730
  671TMC3     H 9932   0.656   3.221  14.039  0.0547 -0.4228  0.1135
  671TMC3    H1 9933   0.240   3.164  13.956 -0.3431  0.0816  0.4415
  671TMC3    H2 9934   0.398   3.077  14.342 -0.8232  0.0732  0.2817
  671TMC3    C7 9935   0.206   3.033  14.170 -0.4057  0.6346 -0.1419
  671TMC3    C8 9936   0.646   3.106  14.258 -0.5426  0.4512  0.3963
  671TMC3    O1 9937   0.190   2.962  14.072 -0.5181 -0.7531  0.7485
  671TMC3    O2 9938   0.735   3.059  14.188 -0.5174 -0.3004  0.0439
  672MPD2     C 9939   0.441   3.949   2.092  0.2722  0.1435 -0.7267
  672MPD2    C1 9940   0.435   4.020   1.976 -0.2363 -1.1664 -0.0718
  672MPD2    C2 9941   0.532   4.123   1.959  0.3594  0.6433 -0.6564
  672MPD2    C3 9942   0.634   4.143   2.053  0.5133  0.2523  0.2644
  672MPD2    C4 9943   0.633   4.066   2.171 -0.0904  0.3846 -0.6968
  672MPD2    C5 9944   0.533   3.973   2.190 -0.0776  0.0539 -0.8258
  672MPD2     H 9945   0.548   4.156   1.857  0.0639  3.0056  0.0681
  672MPD2    H1 9946   0.700   4.084   2.254  1.5960  0.3737 -2.0584
  672MPD2    H2 9947   0.366   3.875   2.118 -1.2123  2.0761  0.4487
  672MPD2    H3 9948   0.539   3.921   2.285 -0.1540  1.3524 -0.1123
  672MPD2     N 9949   0.737   4.240   2.042  0.5248 -0.0365 -0.6911
  672MPD2    H5 9950   0.820   4.235   2.100  0.3570  0.2332 -0.4247
  672MPD2    N1 9951   0.346   3.992   1.873 -0.1454 -0.0338 -0.6209
  672MPD2    H7 9952   0.359   4.052   1.791 -0.5567 -2.0572 -2.1659
  673TMC3    C1 9953   0.202   3.872   1.739 -0.6205 -0.1510 -0.2047
  673TMC3    C2 9954   0.120   3.759   1.730 -0.8204 -0.8147  1.2583
  673TMC3    C3 9955   0.096   3.707   1.604 -0.6749  0.4157  0.8017
  673TMC3    C4 9956   0.251   3.931   1.622  0.0985 -0.5057 -0.4633
  673TMC3    C5 9957   0.221   3.878   1.502 -0.0209 -0.4288 -0.0655
  673TMC3    C6 9958   0.150   3.759   1.490  0.4350  0.4595 -0.5230
  673TMC3     C 9959   0.263   3.885   1.864 -0.2110 -1.2096 -0.1298
  673TMC3     O 9960   0.259   3.780   1.938  0.1766 -0.1783 -0.1641
  673TMC3     H 9961   0.070   3.713   1.814 -1.0121 -0.5608  1.2848
  673TMC3    H1 9962   0.325   4.011   1.624  0.8511 -1.2728  3.1950
  673TMC3    H2 9963   0.117   3.727   1.392  2.0432 -2.1529 -0.2136
  673TMC3    C7 9964   0.331   3.875   1.408 -0.0212 -0.1046  0.2400
  673TMC3    C8 9965   0.112   3.565   1.606  0.0667  0.0245  0.2663
  673TMC3    O1 9966   0.350   3.771   1.348 -0.3906  0.1932 -0.2262
  673TMC3    O2 9967   0.023   3.497   1.544 -0.2021  0.0829  0.1000
  674MPD2     C 9968   0.036   2.854   1.510  0.2651  0.1502 -0.9760
  674MPD2    C1 9969   4.713   2.981   1.471 -0.0791  1.2111 -0.5777
  674MPD2    C2 9970   0.018   3.022   1.341  0.3197  0.1470  0.1777
  674MPD2    C3 9971   0.100   2.948   1.259 -0.0474 -0.0654 -0.3590
  674MPD2    C4 9972   0.144   2.820   1.294  1.0772  0.1695  0.2208
  674MPD2    C5 9973   0.097   2.776   1.417 -0.0920 -1.0868  0.1935
  674MPD2     H 9974   0.000   3.125   1.309  1.3906  0.6736  1.3016
  674MPD2    H1 9975   0.208   2.754   1.238  1.8334 -0.2067  1.5291
  674MPD2    H2 9976   0.027   2.813   1.610 -0.5944  0.8461 -0.7709
  674MPD2    H3 9977   0.127   2.676   1.448  1.1753 -1.5183 -2.3399
  674MPD2     N 9978   0.133   3.014   1.137 -0.1654 -0.2834  0.3852
  674MPD2    H5 9979   0.112   3.114   1.133  0.8219  0.0192  2.7946
  674MPD2    N1 9980   4.667   3.072   1.566 -0.1509 -1.1866 -0.2677
  674MPD2    H7 9981   4.646   3.043   1.661  1.7752 -2.5857 -0.2736
  675TMC3    C1 9982   4.578   3.268   1.658  0.2754 -0.0805 -0.2390
  675TMC3    C2 9983   4.668   3.268   1.759 -0.1004 -0.4762  0.6581
  675TMC3    C3 9984   4.657   3.373   1.841  0.3605 -0.3392  0.5038
  675TMC3    C4 9985   4.474   3.357   1.641 -1.5601  0.0726  0.1869
  675TMC3    C5 9986   4.472   3.462   1.731 -0.4332 -0.6388 -0.6632
  675TMC3    C6 9987   4.566   3.477   1.825  0.4300 -0.1065 -0.0677
  675TMC3     C 9988   4.615   3.196   1.540  0.6276  0.1885  0.2422
  675TMC3     O 9989   4.568   3.244   1.435 -0.0203 -0.1669  0.2411
  675TMC3     H 9990   0.032   3.201   1.749 -0.5913 -1.0724  0.4879
  675TMC3    H1 9991   4.406   3.363   1.557 -0.0974  1.5417 -0.8914
  675TMC3    H2 9992   4.565   3.558   1.898  0.5242 -0.4314  0.2923
  675TMC3    C7 9993   4.343   3.511   1.776  0.0293 -0.6997  0.3557
  675TMC3    C8 9994   0.047   3.414   1.922 -0.4695  0.6619 -0.1774
  675TMC3    O1 9995   4.351   3.607   1.848  0.0168 -0.2991  0.3641
  675TMC3    O2 9996   0.050   3.530   1.962  0.5248 -0.3498  0.7075
  676MPD2     C 9997   3.451   1.412  10.998  0.4055 -0.0021  0.0534
  676MPD2    C1 9998   3.403   1.327  11.098  0.3976 -1.1196  0.7013
  676MPD2    C2 9999   3.440   1.195  11.100 -0.8064 -0.5767 -0.0085
  676MPD2    C310000   3.545   1.148  11.020 -0.0390  0.9106  0.8781
  676MPD2    C410001   3.593   1.231  10.923 -0.7726 -0.8146 -0.1690
  676MPD2    C510002   3.547   1.359  10.909 -0.6667  0.8263 -0.2286
  676MPD2     H10003   3.393   1.134  11.176 -0.1609  1.2806  1.8999
  676MPD2    H110004   3.679   1.209  10.861  0.3775 -1.3040  1.6178
  676MPD2    H210005   3.422   1.516  10.990  0.9860  0.2629  1.3295
  676MPD2    H310006   3.598   1.422  10.836  2.3840 -0.3450  0.9229
  676MPD2     N10007   3.597   1.014  11.030 -0.6234  0.4120 -0.0441
  676MPD2    H510008   3.649   0.975  10.952  2.1672  1.4001  1.3003
  676MPD2    N110009   3.306   1.367  11.201 -0.4454 -0.3349 -0.4647
  676MPD2    H710010   3.264   1.291  11.252 -2.1246 -0.1086 -1.5217
  677TMC3    C110011   3.197   1.519  11.348 -0.2342 -0.1245  0.1380
  677TMC3    C210012   3.216   1.439  11.457  0.2491 -0.6719  0.2831
  677TMC3    C310013   3.186   1.493  11.577 -0.5204  0.4311 -0.5591
  677TMC3    C410014   3.160   1.646  11.354  0.7345 -0.7139  0.3318
  677TMC3    C510015   3.126   1.700  11.473  0.5828  0.3577  0.1033
  677TMC3    C610016   3.143   1.620  11.587 -0.1270  0.1634  0.1094
  677TMC3     C10017   3.272   1.500  11.228 -0.3000 -0.2579  0.2579
  677TMC3     O10018   3.286   1.600  11.160 -0.2304 -0.0143  0.8908
  677TMC3     H10019   3.261   1.340  11.455 -0.6678 -1.1073  1.7464
  677TMC3    H110020   3.134   1.704  11.267  2.0253 -1.1743 -0.3599
  677TMC3    H210021   3.135   1.659  11.687 -0.5962  1.9676 -0.6246
  677TMC3    C710022   3.153   1.840  11.491  0.6517  0.9345  0.1415
  677TMC3    C810023   3.164   1.398  11.688 -0.3601 -0.3956  0.5014
  677TMC3    O110024   3.111   1.899  11.589 -0.1193  0.0004  0.6934
  677TMC3    O210025   3.088   1.305  11.668  0.0057 -0.0437 -0.2555
  678MPD2     C10026   4.073   1.261   2.470  0.0721 -0.3813  0.3451
  678MPD2    C110027   4.104   1.310   2.352  0.4092 -0.2869 -0.2986
  678MPD2    C210028   4.010   1.371   2.280  0.9471 -0.8729  0.2237
  678MPD2    C310029   3.879   1.382   2.317  0.2127  0.4259  0.2840
  678MPD2    C410030   3.845   1.332   2.445 -0.1592 -0.0416 -0.2957
  678MPD2    C510031   3.941   1.269   2.518 -0.8772  0.0246  0.3476
  678MPD2     H10032   4.040   1.402   2.180 -2.2467 -0.3818 -0.5686
  678MPD2    H110033   3.747   1.341   2.491  0.4177 -2.3915  1.3805
  678MPD2    H210034   4.149   1.220   2.535  3.0026  1.0950 -2.1547
  678MPD2    H310035   3.915   1.229   2.616 -1.8276 -0.1897  0.0131
  678MPD2     N10036   3.775   1.441   2.229  1.0675 -0.4799 -0.0236
  678MPD2    H510037   3.805   1.489   2.145  0.5055  1.3937  0.8543
  678MPD2    N110038   4.232   1.311   2.300  0.5886  0.7320 -0.9341
  678MPD2    H710039   4.245   1.341   2.204 -0.7126 -2.6851 -2.1812
  679TMC3    C110040   4.669   1.162   2.215  0.0550 -0.6748  0.0646
  679TMC3    C210041   4.549   1.151   2.281  0.2504 -0.2171 -0.0931
  679TMC3    C310042   4.457   1.254   2.272  0.5073 -0.4397 -0.4278
  679TMC3    C410043   4.695   1.275   2.134  0.7220 -0.3260 -0.2641
  679TMC3    C510044   4.609   1.379   2.138 -0.3532 -0.0609 -1.1382
  679TMC3    C610045   4.490   1.374   2.207  0.0093 -0.0295 -0.2613
  679TMC3     C10046   0.054   1.079   2.242 -0.5523 -0.5004 -0.5412
  679TMC3     O10047   0.160   1.125   2.199 -0.1553  0.5755 -0.2099
  679TMC3     H10048   4.514   1.060   2.329  1.8830 -0.9406 -0.2625
  679TMC3    H110049   0.065   1.284   2.074  0.5310  0.1483 -0.4841
  679TMC3    H210050   4.418   1.456   2.205  1.1997  1.0484  0.6955
  679TMC3    C710051   4.654   1.506   2.096  0.0276 -0.8615  0.2955
  679TMC3    C810052   4.340   1.235   2.349 -0.1039 -0.3133  0.0526
  679TMC3    O110053   0.029   1.506   2.021 -0.1848  0.7943  0.3597
  679TMC3    O210054   4.350   1.172   2.457  0.1514  0.7587 -0.5266
  680MPD2     C10055   4.546   4.643  13.885 -0.5458  0.0100 -0.7698
  680MPD2    C110056   4.597   4.627  14.007  0.1262 -0.0192  0.0247
  680MPD2    C210057   4.603   0.015  14.100  0.2625  0.3672 -0.1152
  680MPD2    C310058   4.568   0.142  14.055  0.0179 -0.2526 -0.0688
  680MPD2    C410059   4.525   0.158  13.931  0.2704  0.0760  0.2062
  680MPD2    C510060   4.510   0.050  13.852 -0.5694 -0.2139 -0.0411
  680MPD2     H10061   4.653   0.005  14.196 -2.2686 -1.6898  0.9868
  680MPD2    H110062   4.501   0.254  13.887 -1.7934 -0.3978  0.2896
  680MPD2    H210063   4.544   4.563  13.813 -3.3184 -1.1335  0.5678
  680MPD2    H310064   4.470   0.065  13.753 -0.4948 -0.2874 -0.0820
  680MPD2     N10065   4.583   0.260  14.134  0.0139 -0.0875 -0.3176
  680MPD2    H510066   4.567   0.350  14.090  0.1655 -1.0108 -2.2670
  680MPD2    N110067   4.662   4.502  14.052 -0.5498 -0.2895  0.0883
  680MPD2    H710068   4.696   4.497  14.147  1.8724  1.1474 -0.6948
  681TMC3    C110069   0.090   4.324  14.033 -0.6179  0.1360 -0.1546
  681TMC3    C210070   0.066   4.303  14.160  0.8982 -0.2046  0.2928
  681TMC3    C310071   0.171   4.252  14.230  0.4191  0.4775  0.2634
  681TMC3    C410072   0.214   4.312  13.980 -0.0478 -0.2229  0.9816
  681TMC3    C510073   0.317   4.265  14.046  0.2360  0.3544 -0.1563
  681TMC3    C610074   0.299   4.238  14.180  0.1197  0.4410 -0.2405
  681TMC3     C10075   4.718   4.408  13.960 -0.5507  0.5328 -0.0513
  681TMC3     O10076   0.000   4.405  13.839  0.0592  0.0565 -0.2486
  681TMC3     H10077   4.685   4.303  14.196  0.1178 -0.3755 -1.8927
  681TMC3    H110078   0.229   4.344  13.878 -0.3619  1.9374  1.6075
  681TMC3    H210079   0.375   4.191  14.241 -1.9039 -2.5391 -0.0074
  681TMC3    C710080   0.453   4.276  13.988 -0.2280  0.2753  0.0809
  681TMC3    C810081   0.132   4.162  14.337  0.5416  0.0472  0.1313
  681TMC3    O110082   0.543   4.226  14.047 -0.1691  0.7544 -0.4845
  681TMC3    O210083   0.021   4.111  14.339  0.8971  0.5040 -0.5180
  682MPD2     C10084   2.262   1.701  10.799 -0.2719  0.5642 -0.1352
  682MPD2    C110085   2.320   1.578  10.819  0.2964  0.1338 -0.0326
  682MPD2    C210086   2.362   1.535  10.950 -0.2535 -0.1405  0.8471
  682MPD2    C310087   2.342   1.621  11.059  0.3468  0.7683 -0.6810
  682MPD2    C410088   2.289   1.744  11.026 -0.7010 -0.0470  0.0148
  682MPD2    C510089   2.250   1.784  10.902 -0.0981  0.3958 -0.4231
  682MPD2     H10090   2.401   1.435  10.962  1.6352  0.5760  0.7286
  682MPD2    H110091   2.282   1.816  11.107  1.8027  0.1821  0.0298
  682MPD2    H210092   2.237   1.736  10.700 -0.4029  0.6002 -0.0896
  682MPD2    H310093   2.205   1.881  10.885 -0.7495 -0.0311 -1.1492
  682MPD2     N10094   2.373   1.586  11.191  0.3653 -0.4810 -1.0583
  682MPD2    H510095   2.347   1.651  11.265  1.2969 -0.9286 -0.3372
  682MPD2    N110096   2.349   1.487  10.716 -0.2768 -0.1115  0.0005
  682MPD2    H710097   2.391   1.401  10.750 -0.6500 -0.1747  0.3000
  683TMC3    C110098   2.423   1.423  11.586  0.9471  0.1011 -0.0018
  683TMC3    C210099   2.491   1.304  11.609 -0.7859 -0.0772 -0.0210
  683TMC3    C310100   2.529   1.237  11.496  0.3700 -0.2205  0.0409
  683TMC3    C410101   2.403   1.485  11.465 -0.1282 -0.1441  0.5537
  683TMC3    C510102   2.453   1.418  11.354  0.0277 -0.1839  0.2738
  683TMC3    C610103   2.513   1.292  11.368 -0.2325 -0.2214  0.2595
  683TMC3     C10104   2.374   1.492  11.710 -0.1496  0.0631 -1.4181
  683TMC3     O10105   2.398   1.609  11.714  0.5773  0.0238 -0.0457
  683TMC3     H10106   2.500   1.257  11.707 -0.1415  2.0303  0.9410
  683TMC3    H110107   2.358   1.583  11.457 -2.0166 -1.2615 -2.6399
  683TMC3    H210108   2.524   1.227  11.283  1.5824 -2.2231  2.0149
  683TMC3    C710109   2.453   1.474  11.220  0.7001  0.0940 -0.1044
  683TMC3    C810110   2.598   1.109  11.512 -0.5939 -0.6615 -0.3312
  683TMC3    O110111   2.508   1.401  11.137 -0.5622 -0.1460  0.1241
  683TMC3    O210112   2.616   1.045  11.408 -0.2005  0.9909 -0.1743
  684MPD2     C10113   0.198   1.250  16.549 -0.2642 -0.1653 -0.2883
  684MPD2    C110114   0.303   1.326  16.496 -0.4604 -1.2365  0.0565
  684MPD2    C210115   0.329   1.453  16.554  0.1304 -0.4184 -0.0008
  684MPD2    C310116   0.257   1.507  16.654 -0.3212  0.7387 -0.0584
  684MPD2    C410117   0.152   1.431  16.708  0.4395 -0.3761 -0.0441
  684MPD2    C510118   0.126   1.304  16.654 -0.5046  0.1270 -0.1225
  684MPD2     H10119   0.396   1.522  16.505 -0.3967  0.3238  0.3280
  684MPD2    H110120   0.098   1.463  16.797 -0.0292  2.0346 -1.2147
  684MPD2    H210121   0.156   1.158  16.512 -0.6089  1.0492 -2.9429
  684MPD2    H310122   0.050   1.240  16.698 -0.2289  0.4969  0.9066
  684MPD2     N10123   0.304   1.629  16.711  0.0013 -0.0020  0.4495
  684MPD2    H510124   0.377   1.678  16.662 -2.0368  1.4154 -1.1405
  684MPD2    N110125   0.381   1.271  16.382  0.0909  0.4796  0.4629
  684MPD2    H710126   0.338   1.184  16.354  1.6767  0.6872 -2.7309
  685TMC3    C110127   0.552   1.261  16.218 -0.3299 -0.2403  0.1694
  685TMC3    C210128   0.480   1.183  16.130 -0.2799  0.4651 -0.3275
  685TMC3    C310129   0.544   1.104  16.034  0.6549  0.0160  0.1407
  685TMC3    C410130   0.682   1.242  16.227 -0.3622  0.2391 -0.6550
  685TMC3    C510131   0.750   1.160  16.136 -0.3877 -0.8653  0.0332
  685TMC3    C610132   0.684   1.091  16.033 -0.0784 -0.0092 -0.3710
  685TMC3     C10133   0.496   1.327  16.331  0.4458 -0.3053  0.2435
  685TMC3     O10134   0.555   1.419  16.377 -0.2255  0.1534  0.6301
  685TMC3     H10135   0.377   1.212  16.116 -0.2248  0.2606 -1.1827
  685TMC3    H110136   0.726   1.284  16.316  0.2279 -0.9507 -0.3716
  685TMC3    H210137   0.735   1.033  15.958 -0.7343 -0.7592 -0.2376
  685TMC3    C710138   0.890   1.128  16.157 -0.0418 -0.1326 -0.2927
  685TMC3    C810139   0.461   1.018  15.953  0.3918 -0.3598  0.1813
  685TMC3    O110140   0.951   1.085  16.060  0.3783 -0.1504 -0.2024
  685TMC3    O210141   0.522   0.926  15.902  0.2346 -0.1465  0.2860
  686MPD2     C10142   1.855   0.394  15.182  0.6129  0.0442 -0.0512
  686MPD2    C110143   1.864   0.358  15.317  0.2775  1.1201  0.7057
  686MPD2    C210144   1.908   0.230  15.347 -0.1275  0.3755 -0.5761
  686MPD2    C310145   1.931   0.142  15.244  0.5743 -0.9097 -0.6222
  686MPD2    C410146   1.937   0.183  15.111  0.0514  0.4332  0.3422
  686MPD2    C510147   1.896   0.310  15.085  0.3525 -0.5185 -0.1943
  686MPD2     H10148   1.920   0.193  15.448 -1.7492 -0.6464 -0.7683
  686MPD2    H110149   1.949   0.107  15.034  0.8745  0.0148  0.8836
  686MPD2    H210150   1.833   0.493  15.142 -2.7861 -0.3343  0.8800
  686MPD2    H310151   1.884   0.336  14.980 -2.2105  0.4883  0.3523
  686MPD2     N10152   1.953   0.012  15.275 -0.3558 -0.0865 -0.3230
  686MPD2    H510153   2.007   4.683  15.205  0.6894 -1.2997  1.3445
  686MPD2    N110154   1.824   0.453  15.412 -0.5205  0.1752 -0.0500
  686MPD2    H710155   1.815   0.547  15.374  0.7715  0.2894 -0.0558
  687TMC3    C110156   1.827   4.678  15.471  0.5691  0.5273 -0.9825
  687TMC3    C210157   1.716   4.714  15.404 -0.3838  0.0861  0.3782
  687TMC3    C310158   1.627   0.052  15.480 -0.0364 -0.1655 -0.6812
  687TMC3    C410159   1.842   4.692  15.601  0.0944  0.3703 -0.0280
  687TMC3    C510160   1.734   0.004  15.675  1.1293 -0.3157 -0.2640
  687TMC3    C610161   1.622   0.049  15.618  0.4260 -0.3358  0.0111
  687TMC3     C10162   1.950   4.661  15.393 -0.8651 -0.3173 -0.2949
  687TMC3     O10163   2.011   4.556  15.419 -0.3353 -0.2244  0.4778
  687TMC3     H10164   1.706   0.005  15.297 -0.2760 -0.2004  0.3373
  687TMC3    H110165   1.943   4.701  15.639 -0.2179  1.4204  0.5718
  687TMC3    H210166   1.539   0.082  15.680  2.0373  1.8682  0.9901
  687TMC3    C710167   1.763   0.046  15.812  0.7920  0.1216  0.0507
  687TMC3    C810168   1.518   0.119  15.417  0.1156  0.1466  0.4312
  687TMC3    O110169   1.687   0.131  15.851  0.2990  0.3139 -0.1775
  687TMC3    O210170   1.463   0.066  15.325  0.2160 -0.5315 -0.0822
  688MPD2     C10171   1.086   0.139  17.559 -0.1103  0.2395  0.3042
  688MPD2    C110172   1.124   0.025  17.621 -0.0177  0.7473 -0.5821
  688MPD2    C210173   1.214   4.661  17.556  0.1834 -0.3862  0.8836
  688MPD2    C310174   1.261   4.681  17.429 -1.2378 -0.6508 -0.4474
  688MPD2    C410175   1.226   0.077  17.376  0.2621 -0.2030 -0.3917
  688MPD2    C510176   1.135   0.159  17.432 -0.3792 -0.0695  0.3764
  688MPD2     H10177   1.241   4.568  17.605 -0.5363 -2.3715 -2.4837
  688MPD2    H110178   1.271   0.111  17.283 -1.0818  0.4616 -0.8092
  688MPD2    H210179   1.024   0.221  17.594 -0.3469 -1.3064  3.5124
  688MPD2    H310180   1.115   0.252  17.380  1.7845 -0.0382 -0.4181
  688MPD2     N10181   1.352   4.598  17.358  0.3695  0.2894 -0.0865
  688MPD2    H510182   1.385   4.631  17.268  0.6931  0.2562  0.0175
  688MPD2    N110183   1.065   4.707   0.061  0.0739  0.3880  0.0573
  688MPD2    H710184   1.111   4.622   0.091 -0.0261 -0.3812 -1.9813
  689TMC3    C110185   0.978   0.020   0.265  0.5027 -0.0307 -0.0404
  689TMC3    C210186   0.949   0.116   0.357 -0.1173  0.0970 -0.0682
  689TMC3    C310187   0.929   0.075   0.488  0.3951  0.1849  0.1337
  689TMC3    C410188   0.990   4.608   0.296 -0.8057  0.0898  0.0825
  689TMC3    C510189   0.970   4.575   0.426  0.1393  0.0288  0.1171
  689TMC3    C610190   0.947   4.667   0.524 -0.0986 -1.0737 -0.0853
  689TMC3     C10191   0.984   0.070   0.133  0.2171  0.8495 -0.1775
  689TMC3     O10192   0.927   0.172   0.099  0.1570  0.2129 -0.1645
  689TMC3     H10193   0.935   0.217   0.320  0.3024 -0.0063 -0.5077
  689TMC3    H110194   1.008   4.542   0.212 -0.0085  0.5020 -0.0786
  689TMC3    H210195   0.922   4.632   0.624 -1.4962 -1.8419 -0.7022
  689TMC3    C710196   0.923   4.442   0.459  0.8250 -0.0413  0.6086
  689TMC3    C810197   0.920   0.161   0.605 -0.1222  0.1879  0.0341
  689TMC3    O110198   0.929   4.399   0.572 -0.6860 -0.7182  0.3458
  689TMC3    O210199   0.919   0.109   0.717  0.1533 -0.1711  0.3216
  690MPD2     C10200   3.532   1.734  15.716  0.3649 -0.2987 -0.8064
  690MPD2    C110201   3.429   1.749  15.632 -0.9295 -0.5404 -0.3598
  690MPD2    C210202   3.390   1.875  15.590 -0.5607  0.4529 -0.0274
  690MPD2    C310203   3.461   1.985  15.617 -1.1499 -0.2238 -0.0643
  690MPD2    C410204   3.573   1.968  15.698  0.1827 -0.5647  0.5606
  690MPD2    C510205   3.600   1.844  15.748  0.0657 -0.2625 -0.0822
  690MPD2     H10206   3.297   1.871  15.533  0.3157 -1.8688 -1.2659
  690MPD2    H110207   3.648   2.043  15.717 -0.5376 -0.0134  1.2425
  690MPD2    H210208   3.565   1.634  15.740  1.5367  0.2883  0.0221
  690MPD2    H310209   3.690   1.841  15.810  0.3883 -1.8067 -0.6127
  690MPD2     N10210   3.421   2.111  15.574 -0.4249 -0.2171  0.7012
  690MPD2    H510211   3.345   2.116  15.507  1.1128 -2.0522 -1.1846
  690MPD2    N110212   3.354   1.635  15.585  0.1612  0.3583 -0.2195
  690MPD2    H710213   3.301   1.651  15.500  0.2214  0.7458 -0.1840
  691TMC3    C110214   3.306   1.401  15.585 -0.1654 -0.5514 -0.3240
  691TMC3    C210215   3.204   1.424  15.492  0.7421 -0.3149  0.1382
  691TMC3    C310216   3.136   1.314  15.443  0.2259 -0.1454  0.4870
  691TMC3    C410217   3.343   1.273  15.618  0.3718  0.2629 -1.1801
  691TMC3    C510218   3.269   1.162  15.573 -0.6925 -0.4446  0.5864
  691TMC3    C610219   3.164   1.188  15.486  0.5055 -0.1064  0.1450
  691TMC3     C10220   3.348   1.514  15.658  0.0942 -0.9869  0.2962
  691TMC3     O10221   3.397   1.484  15.768 -0.0059  0.4374 -0.0939
  691TMC3     H10222   3.187   1.523  15.454  0.6023 -0.6017 -0.5497
  691TMC3    H110223   3.411   1.259  15.701 -1.4024 -2.9124 -0.2646
  691TMC3    H210224   3.106   1.109  15.441  0.8821  0.2566 -0.9814
  691TMC3    C710225   3.276   1.031  15.647  0.0962 -0.0727  0.4984
  691TMC3    C810226   3.000   1.342  15.393 -0.4122 -0.7866  0.4879
  691TMC3    O110227   3.384   0.995  15.684 -0.2625 -0.1768  0.2744
  691TMC3    O210228   2.938   1.255  15.339 -0.0880  0.2702 -1.1962
  692TMC3    C110229   0.149   2.919  16.167  0.8945 -0.0691  1.0769
  692TMC3    C210230   0.250   2.963  16.246 -0.3835 -0.6145 -0.2664
  692TMC3    C310231   0.348   2.877  16.300  0.5821  0.3778 -0.3080
  692TMC3    C410232   0.134   2.782  16.159 -0.0604 -0.4357  0.3617
  692TMC3    C510233   0.225   2.698  16.213  0.1081 -0.1363  0.1902
  692TMC3    C610234   0.326   2.744  16.293  0.7399 -0.0930 -0.5570
  692TMC3     C10235   0.027   2.994  16.187 -0.1778 -0.0889  0.4288
  692TMC3     O10236   4.642   2.932  16.201 -0.0052 -0.3704  0.0827
  692TMC3     H10237   0.291   3.063  16.240 -0.8812 -0.4292 -0.6000
  692TMC3    H110238   0.053   2.750  16.095 -1.2928 -0.5587  1.9858
  692TMC3    H210239   0.416   2.686  16.309  0.9750  0.3643 -0.2338
  692TMC3    C710240   0.217   2.559  16.170 -0.4818  0.5267  0.5806
  692TMC3    C810241   0.384   2.928  16.437 -0.5213 -0.2910  0.0000
  692TMC3    O110242   0.163   2.538  16.068  0.5231  0.1461  0.4095
  692TMC3    O210243   0.378   3.051  16.445  0.8459  0.5375  0.4277
  693MPD2     C10244   4.585   0.605  11.090  0.0805  0.1005 -0.3158
  693MPD2    C110245   4.532   0.476  11.067  0.5614  0.6990  0.4689
  693MPD2    C210246   4.621   0.371  11.080 -0.3792 -0.4733  0.2695
  693MPD2    C310247   0.034   0.392  11.120 -0.4629 -0.7088  0.1034
  693MPD2    C410248   0.072   0.516  11.150  0.2407  0.2909  0.8497
  693MPD2    C510249   4.708   0.622  11.141  0.1191  0.1022  0.2430
  693MPD2     H10250   4.585   0.270  11.061  0.6233 -0.4362 -1.7478
  693MPD2    H110251   0.177   0.535  11.169  0.4098  0.6552 -0.4180
  693MPD2    H210252   4.521   0.692  11.092  0.9776  0.7349  1.4674
  693MPD2    H310253   0.032   0.719  11.161 -2.4972  1.1539  1.1294
  693MPD2     N10254   0.123   0.285  11.142 -0.0931  0.4211 -0.4780
  693MPD2    H510255   0.201   0.305  11.204  1.5084 -1.2374 -1.9433
  693MPD2    N110256   4.390   0.463  11.044 -0.3148 -0.7096  0.2581
  693MPD2    H710257   4.322   0.534  11.068  0.3185 -0.3872  1.0867
  694TMC3    C110258   4.192   0.332  11.044  0.8369  0.0835 -0.1146
  694TMC3    C210259   4.113   0.254  10.967 -1.5935 -0.4589  0.3498
  694TMC3    C310260   4.011   0.180  11.022 -0.1079  0.2262 -0.5039
  694TMC3    C410261   4.162   0.348  11.174 -0.4338 -1.0438  0.1545
  694TMC3    C510262   4.052   0.284  11.235 -0.1369 -0.0891 -0.0433
  694TMC3    C610263   3.975   0.193  11.155 -0.0416 -0.6906 -0.2568
  694TMC3     C10264   4.338   0.339  11.011 -0.7895 -0.0793  0.5830
  694TMC3     O10265   4.388   0.239  10.964  0.0944  0.4325  0.1541
  694TMC3     H10266   4.157   0.248  10.868  0.8687  0.1549  1.3969
  694TMC3    H110267   4.223   0.412  11.238 -2.2606  0.2764  0.5615
  694TMC3    H210268   3.887   0.146  11.199  0.9395 -2.1488  0.1485
  694TMC3    C710269   4.059   0.263  11.382  0.4383  0.4963  0.5947
  694TMC3    C810270   3.901   0.128  10.938  0.6537  0.8340 -0.5406
  694TMC3    O110271   4.074   0.366  11.446  0.2032 -0.4686 -0.5720
  694TMC3    O210272   3.791   0.115  10.988 -0.3472 -0.1313  0.0516
  695MPD2     C10273   0.580   2.461  13.729 -0.3720  0.2763  0.9173
  695MPD2    C110274   0.525   2.483  13.855  0.8747  0.0665 -0.0630
  695MPD2    C210275   0.392   2.524  13.870 -0.1078 -0.1331 -0.3499
  695MPD2    C310276   0.314   2.533  13.758 -0.1888 -0.9466  0.0677
  695MPD2    C410277   0.370   2.515  13.634 -0.2573  0.1671 -0.2693
  695MPD2    C510278   0.496   2.472  13.618 -0.3719  0.4408 -0.0778
  695MPD2     H10279   0.358   2.531  13.973  2.0830 -0.6504  0.3968
  695MPD2    H110280   0.317   2.523  13.540 -1.2481 -0.4855  0.2320
  695MPD2    H210281   0.685   2.440  13.718 -0.3377  1.9562 -1.9647
  695MPD2    H310282   0.544   2.450  13.524 -2.3050 -0.1773 -0.9274
  695MPD2     N10283   0.180   2.580  13.775 -0.1195 -0.4377 -0.0599
  695MPD2    H510284   0.138   2.570  13.866 -0.4273 -2.4954 -0.4261
  695MPD2    N110285   0.600   2.450  13.968  0.2866  0.0016 -0.6334
  695MPD2    H710286   0.552   2.469  14.055  3.6487 -2.3867  1.7286
  696TMC3    C110287   4.700   2.662  13.727  0.1173  0.3925 -0.1397
  696TMC3    C210288   4.656   2.592  13.838 -0.6149  0.1961  0.0533
  696TMC3    C310289   4.573   2.650  13.928 -0.2439  0.8001  0.3927
  696TMC3    C410290   4.690   2.800  13.723  0.5866 -0.8788 -0.2952
  696TMC3    C510291   4.607   2.850  13.821  0.6625  0.1341 -0.1762
  696TMC3    C610292   4.539   2.780  13.908 -0.0888  0.0815  0.1978
  696TMC3     C10293   0.106   2.617  13.671  0.7132 -0.2060 -0.4733
  696TMC3     O10294   0.133   2.638  13.553 -0.2730  0.0860 -0.5084
  696TMC3     H10295   4.685   2.487  13.842  0.5885  0.4111 -2.5316
  696TMC3    H110296   0.025   2.866  13.657 -2.7684  1.3842 -0.8759
  696TMC3    H210297   4.467   2.823  13.977  0.4483  3.2259 -1.2256
  696TMC3    C710298   4.637   2.990  13.858 -0.4673  0.2925  0.8439
  696TMC3    C810299   4.636   2.630  14.057 -0.0328 -0.2438 -0.0827
  696TMC3    O110300   0.010   3.043  13.790  0.0836  0.5282  0.1096
  696TMC3    O210301   0.039   2.603  14.050  0.0070 -0.0346 -0.1104
  697MPD2     C10302   4.297   4.113  16.059  0.4864 -0.0621 -0.8294
  697MPD2    C110303   4.354   4.053  15.945 -0.0871 -0.6109  0.2190
  697MPD2    C210304   4.405   4.142  15.852 -0.4387  0.4159 -0.4773
  697MPD2    C310305   4.421   4.276  15.886  0.1739 -0.4856 -0.5377
  697MPD2    C410306   4.370   4.331  16.005  0.3556  0.4723  0.0147
  697MPD2    C510307   4.297   4.248  16.083  0.4744  0.0007  0.1799
  697MPD2     H10308   4.446   4.118  15.754  1.5138  0.2703  0.3725
  697MPD2    H110309   4.367   4.436  16.031 -0.6295  0.3950  0.2267
  697MPD2    H210310   4.237   4.051  16.125  0.3009 -0.2403 -1.1676
  697MPD2    H310311   4.233   4.281  16.164 -0.8905  0.5086 -1.1064
  697MPD2     N10312   4.489   4.367  15.800 -0.0463  0.0573 -0.2849
  697MPD2    H510313   4.515   4.334  15.708  0.4950 -2.0942  0.6376
  697MPD2    N110314   4.349   3.911  15.908  0.3114  0.0076 -0.0661
  697MPD2    H710315   4.355   3.886  15.810  1.7519  0.6951 -0.1420
  698TMC3    C110316   4.604   4.549  15.717  0.5373  0.7692  0.0934
  698TMC3    C210317   0.002   4.609  15.740 -0.2512 -0.0344 -0.4736
  698TMC3    C310318   0.084   4.653  15.640 -0.3753 -0.7849  0.0596
  698TMC3    C410319   4.560   4.526  15.592  0.4352  0.5717 -0.7931
  698TMC3    C510320   4.633   4.584  15.495  0.2967  0.8166  0.3573
  698TMC3    C610321   0.036   4.643  15.513 -0.1444  0.2084  0.0676
  698TMC3     C10322   4.535   4.491  15.831  0.1111  0.6472 -0.2323
  698TMC3     O10323   4.563   4.538  15.945  0.4837  0.3582 -0.6863
  698TMC3     H10324   0.041   4.626  15.840 -0.9097 -0.4580 -0.1435
  698TMC3    H110325   4.461   4.484  15.579  0.7319 -0.0724 -0.9736
  698TMC3    H210326   0.092   4.683  15.430  1.6830 -1.0642  0.6870
  698TMC3    C710327   4.558   4.637  15.389  0.5608  0.0357  1.1429
  698TMC3    C810328   0.224   4.636  15.667  0.0437 -0.2341 -0.2484
  698TMC3    O110329   4.440   4.599  15.389  0.0399 -0.7048 -0.0081
  698TMC3    O210330   0.254   4.556  15.751 -0.7108  1.2313  0.6279
  699TMC3    C110331   0.168   2.705  13.150  0.6746  0.3838 -0.5495
  699TMC3    C210332   0.180   2.571  13.193 -0.3640  0.7698 -0.1250
  699TMC3    C310333   0.075   2.521  13.260 -0.2143 -0.2032 -0.1637
  699TMC3    C410334   0.049   2.782  13.177 -0.3094  0.8325  0.3491
  699TMC3    C510335   4.673   2.720  13.250 -0.0705  0.1902 -0.2625
  699TMC3    C610336   4.684   2.591  13.287  0.3307 -0.0011  0.1082
  699TMC3     C10337   0.240   2.747  13.034 -0.1536  0.5767 -0.5078
  699TMC3     O10338   0.181   2.825  12.963 -0.4661  0.3842  0.4200
  699TMC3     H10339   0.263   2.513  13.155 -1.2454  0.7393 -1.9843
  699TMC3    H110340   0.034   2.883  13.142  0.1284  0.0680 -2.0948
  699TMC3    H210341   4.622   2.551  13.368  1.3107 -0.0389  0.8436
  699TMC3    C710342   4.565   2.797  13.310 -0.0028  0.3518 -1.0857
  699TMC3    C810343   0.069   2.384  13.304  0.5024 -0.4526  0.0870
  699TMC3    O110344   4.466   2.740  13.352 -0.2389 -0.3878 -0.2231
  699TMC3    O210345   4.683   2.343  13.351  0.3019  0.2909 -0.2687
  700TMC3    C110346   3.397   0.166  17.558  0.4257 -1.1849  0.1846
  700TMC3    C210347   3.430   0.038  17.524  0.4179 -0.6218  0.5152
  700TMC3    C310348   3.503   4.683  17.610 -0.5593 -0.2032  0.3080
  700TMC3    C410349   3.432   0.214  17.681  0.3916 -0.1348 -0.3098
  700TMC3    C510350   3.509   0.141   0.080  0.5515 -0.4489 -0.6543
  700TMC3    C610351   3.546   0.013   0.047 -0.3642  0.3194 -0.9295
  700TMC3     C10352   3.357   0.254  17.447  0.6600 -0.0396 -0.3559
  700TMC3     O10353   3.267   0.218  17.376 -0.1609 -0.6476  0.1470
  700TMC3     H10354   3.390   4.718  17.432  0.3293  1.4261 -0.3599
  700TMC3    H110355   3.388   0.308   0.027 -0.3034 -0.2918 -0.8040
  700TMC3    H210356   3.611   4.676   0.110  0.0473  2.0174  0.1915
  700TMC3    C710357   3.596   0.216   0.176  0.4779 -0.1718 -0.0908
  700TMC3    C810358   3.560   4.562  17.573 -0.9162 -0.0605 -0.7297
  700TMC3    O110359   3.655   0.150   0.265  0.0040 -0.7328  0.3209
  700TMC3    O210360   3.671   4.538  17.614  0.3280 -0.5852 -0.1091
  701TMC3    C110361   4.090   3.157  15.768  0.0916  0.1512 -0.7246
  701TMC3    C210362   4.123   3.123  15.634 -0.0488  0.2236 -0.2079
  701TMC3    C310363   4.098   3.205  15.528  0.5074 -0.3230 -0.7849
  701TMC3    C410364   4.012   3.269  15.796 -0.6575  0.2294 -0.0033
  701TMC3    C510365   4.002   3.357  15.686  0.3042  1.3609 -0.1653
  701TMC3    C610366   4.045   3.333  15.555  0.0285 -0.6459  0.1124
  701TMC3     C10367   4.065   3.040  15.850  0.5954  0.5266  0.0409
  701TMC3     O10368   3.952   3.034  15.897 -0.1918  0.1488 -0.0915
  701TMC3     H10369   4.155   3.021  15.614 -1.9208 -0.3009 -0.5090
  701TMC3    H110370   3.972   3.281  15.896  0.1168  0.5223  0.2678
  701TMC3    H210371   4.032   3.407  15.478 -3.5348 -1.1157  0.2369
  701TMC3    C710372   3.969   3.497  15.712  0.0837  0.9649 -0.2935
  701TMC3    C810373   4.082   3.150  15.396 -0.2908 -0.3407  0.1181
  701TMC3    O110374   3.992   3.575  15.619 -0.4744  0.1072 -0.5984
  701TMC3    O210375   4.126   3.036  15.379 -0.1438  0.0548 -0.7657
  702MPD2     C10376   4.109   0.605  10.791 -0.6625 -0.0331  0.0770
  702MPD2    C110377   3.993   0.680  10.760 -0.4063 -0.8432 -0.7007
  702MPD2    C210378   3.989   0.763  10.660  0.3354 -0.3038 -0.2417
  702MPD2    C310379   4.106   0.769  10.582 -0.3409  0.1955 -0.3466
  702MPD2    C410380   4.222   0.695  10.625 -0.2431 -0.0852  0.6893
  702MPD2    C510381   4.223   0.609  10.728  0.3876  0.3133  0.1692
  702MPD2     H10382   3.897   0.820  10.651 -0.6747 -1.6542  1.5549
  702MPD2    H110383   4.315   0.699  10.570  0.0704  0.6554  1.2713
  702MPD2    H210384   4.108   0.544  10.881  3.4208  0.2123  0.3251
  702MPD2    H310385   4.314   0.556  10.753  0.0213  0.6224  2.1496
  702MPD2     N10386   4.125   0.861  10.479  0.0495 -0.2741 -0.0274
  702MPD2    H510387   4.224   0.883  10.472 -0.2456  0.9152 -0.3657
  702MPD2    N110388   3.870   0.673  10.830  0.1961  0.3719  0.0982
  702MPD2    H710389   3.803   0.747  10.814 -2.3021 -1.9158  0.0902
  703TMC3    C110390   4.085   1.066  10.377 -1.1142  0.0779 -0.1083
  703TMC3    C210391   3.973   1.140  10.343 -0.1559 -0.3854 -0.7740
  703TMC3    C310392   3.952   1.260  10.400  0.0553 -0.4368  0.2724
  703TMC3    C410393   4.181   1.109  10.461 -0.3857  0.4487 -0.1007
  703TMC3    C510394   4.157   1.232  10.515 -0.1464 -0.0710  1.1170
  703TMC3    C610395   4.046   1.311  10.490  0.1483  0.0600  0.0541
  703TMC3     C10396   4.033   0.935  10.412 -0.4823  0.1877 -0.0978
  703TMC3     O10397   3.912   0.930  10.416  0.0923  0.2587  0.0845
  703TMC3     H10398   3.908   1.104  10.265  0.1074 -1.4504 -0.4980
  703TMC3    H110399   4.277   1.062  10.481 -1.2938 -1.4956 -0.3819
  703TMC3    H210400   4.030   1.405  10.540  1.2974  0.4508 -0.3212
  703TMC3    C710401   4.271   1.314  10.559 -0.5025  0.4148  0.4626
  703TMC3    C810402   3.811   1.278  10.430  0.3394 -0.2882 -0.0004
  703TMC3    O110403   4.274   1.428  10.516  0.1005  0.0383  0.2896
  703TMC3    O210404   3.783   1.383  10.484 -0.0419 -0.1850  0.7399
  704TMC3    C110405   0.739   3.867  12.805 -0.1322 -1.2066 -0.9296
  704TMC3    C210406   0.850   3.945  12.827  0.5181 -0.5101 -0.0557
  704TMC3    C310407   0.970   3.888  12.856  0.1157 -0.9357 -0.0551
  704TMC3    C410408   0.740   3.742  12.850  0.6437 -0.4721  0.0193
  704TMC3    C510409   0.859   3.696  12.906  0.2222 -0.2412 -0.3089
  704TMC3    C610410   0.980   3.760  12.899  0.4384  0.4626  0.0460
  704TMC3     C10411   0.678   3.879  12.672 -0.0019  0.6324 -0.6731
  704TMC3     O10412   0.596   3.795  12.633 -0.2981  0.3135  0.4936
  704TMC3     H10413   0.842   4.052  12.809 -0.5537 -0.5015  0.4541
  704TMC3    H110414   0.656   3.675  12.832 -0.0348  0.6438 -0.9274
  704TMC3    H210415   1.075   3.718  12.930 -1.0024 -1.5987  1.6570
  704TMC3    C710416   0.873   3.558  12.887 -0.1682 -0.1587 -0.4862
  704TMC3    C810417   1.078   3.926  12.769  0.0252 -0.3122  0.1526
  704TMC3    O110418   0.981   3.522  12.842 -0.0309  0.0042  0.2095
  704TMC3    O210419   1.042   3.978  12.668  0.7083  0.2021 -0.4404
  705MPD2     C10420   0.603   2.254  17.339 -0.6336 -0.5429  0.3490
  705MPD2    C110421   0.598   2.374  17.262  1.0976 -0.4666  0.9986
  705MPD2    C210422   0.504   2.471  17.294  0.2136  0.0826 -0.0937
  705MPD2    C310423   0.401   2.432  17.373 -0.0220  0.8354 -0.2944
  705MPD2    C410424   0.394   2.314  17.440  0.0318 -0.1416  0.6178
  705MPD2    C510425   0.502   2.231  17.430 -0.2410 -0.4500  0.8345
  705MPD2     H10426   0.503   2.567  17.244 -0.7999  1.5119  2.6899
  705MPD2    H110427   0.312   2.281  17.503 -0.8686 -0.3289 -0.6594
  705MPD2    H210428   0.671   2.171  17.329  0.7504  0.5478  0.7512
  705MPD2    H310429   0.492   2.137  17.483 -1.3017  0.0040  1.4353
  705MPD2     N10430   0.290   2.519  17.383  0.3591 -0.8911 -0.0898
  705MPD2    H510431   0.206   2.484  17.426 -0.2486 -1.4906 -1.7705
  705MPD2    N110432   0.702   2.411  17.168  0.9076 -0.4970 -0.4657
  705MPD2    H710433   0.698   2.498  17.115  0.9683 -1.7238 -2.4801
  706TMC3    C110434   1.013   2.292  16.832  0.1479 -0.1432  0.5102
  706TMC3    C210435   0.947   2.367  16.739  0.1789  0.2625 -0.3861
  706TMC3    C310436   0.827   2.419  16.775 -0.7075 -0.1130  0.3175
  706TMC3    C410437   0.973   2.296  16.963 -0.1924  0.3770  0.2800
  706TMC3    C510438   0.859   2.357  17.000  0.7066  0.6148 -0.6434
  706TMC3    C610439   0.788   2.418  16.906 -0.1154  0.2922 -0.3091
  706TMC3     C10440   1.139   2.236  16.789 -0.5612  0.1638  0.0862
  706TMC3     O10441   1.219   2.214  16.873  0.8810 -0.1944 -0.0363
  706TMC3     H10442   0.973   2.390  16.636  1.9356  2.0286  0.4486
  706TMC3    H110443   1.029   2.232  17.030  1.1627  0.5812 -0.6488
  706TMC3    H210444   0.697   2.465  16.940  0.2379  2.6114 -2.4810
  706TMC3    C710445   0.805   2.327  17.140  0.2481 -0.4328  0.3112
  706TMC3    C810446   0.794   2.534  16.690 -0.1574 -0.6265 -0.0186
  706TMC3    O110447   0.860   2.240  17.211 -0.0655  0.4131  0.5568
  706TMC3    O210448   0.802   2.517  16.568 -0.2042  0.4865  0.1908
  707TMC3    C110449   2.286   0.762   2.352  0.3630  0.5062  0.4130
  707TMC3    C210450   2.297   0.635   2.396  0.2564  0.3285 -0.0344
  707TMC3    C310451   2.280   0.605   2.529 -0.2177  0.0547 -0.3393
  707TMC3    C410452   2.254   0.861   2.440  0.4319 -0.5601 -0.3514
  707TMC3    C510453   2.232   0.834   2.573  0.9227 -0.1389 -0.7433
  707TMC3    C610454   2.236   0.704   2.617  0.5664 -0.1952 -0.0359
  707TMC3     C10455   2.392   0.788   2.260  0.4127  1.1379 -0.2310
  707TMC3     O10456   2.491   0.711   2.270 -0.4592  0.0976  0.2144
  707TMC3     H10457   2.320   0.561   2.319  0.8087 -1.1355  1.5385
  707TMC3    H110458   2.244   0.965   2.410  0.4030 -0.7675 -1.0586
  707TMC3    H210459   2.216   0.680   2.721 -0.7423 -2.0111 -0.7128
  707TMC3    C710460   2.131   0.928   2.631  0.1647 -1.2118 -0.4659
  707TMC3    C810461   2.384   0.516   2.583  0.6127  0.0687  0.6833
  707TMC3    O110462   2.164   1.047   2.623 -0.3351  0.2157 -0.0558
  707TMC3    O210463   2.377   0.491   2.702  0.0112  0.5652  0.2995
  708MPD2     C10464   3.283   0.764  14.256 -0.1443 -0.2772  0.3005
  708MPD2    C110465   3.399   0.825  14.285  0.0282  0.6324  0.0924
  708MPD2    C210466   3.396   0.889  14.411  0.1293 -0.1371 -0.3400
  708MPD2    C310467   3.294   0.871  14.503 -0.0859 -0.4978  0.5574
  708MPD2    C410468   3.188   0.790  14.476 -0.0648 -0.4666  1.1459
  708MPD2    C510469   3.183   0.749  14.348 -0.1839  0.8971  0.1831
  708MPD2     H10470   3.479   0.956  14.433 -1.0530  0.9065  0.9400
  708MPD2    H110471   3.113   0.762  14.548 -1.2826 -0.2706 -0.0457
  708MPD2    H210472   3.267   0.711  14.162 -3.0992  1.5061 -0.2196
  708MPD2    H310473   3.098   0.688  14.317  0.0655  1.6701 -2.0329
  708MPD2     N10474   3.302   0.917  14.634 -0.7570  0.4843 -0.1527
  708MPD2    H510475   3.228   0.887  14.696  0.5203  1.5260  1.8752
  708MPD2    N110476   3.493   0.851  14.177 -0.1118 -0.2796 -0.2891
  708MPD2    H710477   3.474   0.800  14.092 -0.1399 -0.3981 -0.2127
  709TMC3    C110478   3.616   0.987  14.036 -0.3035 -0.4379 -0.2753
  709TMC3    C210479   3.639   0.889  13.944 -0.8679 -0.0642 -0.7046
  709TMC3    C310480   3.636   0.929  13.812 -0.0515 -0.4615 -0.7963
  709TMC3    C410481   3.617   1.118  13.999 -0.1064  0.8834 -0.0781
  709TMC3    C510482   3.611   1.149  13.870  0.4218  0.3180  0.5928
  709TMC3    C610483   3.613   1.056  13.773  0.3513  0.0971 -0.1812
  709TMC3     C10484   3.582   0.961  14.177  0.4911 -0.2738 -0.3597
  709TMC3     O10485   3.598   1.053  14.255  0.2020  0.0369 -0.5133
  709TMC3     H10486   3.669   0.791  13.978 -2.7037 -1.0138 -1.8246
  709TMC3    H110487   3.581   1.189  14.072 -0.3050 -1.1569  1.8017
  709TMC3    H210488   3.626   1.096  13.673 -2.6767  0.4011 -0.4522
  709TMC3    C710489   3.512   1.256  13.848  0.4079 -0.3958  0.0573
  709TMC3    C810490   3.681   0.829  13.729 -0.3001  0.6980  0.1558
  709TMC3    O110491   3.526   1.357  13.912 -0.3190 -0.3279  0.4627
  709TMC3    O210492   3.747   0.737  13.780  0.3755  0.3730  0.4882
  710TMC3    C110493   0.123   2.222   1.567  0.3235 -0.2493 -0.4964
  710TMC3    C210494   0.141   2.172   1.447  0.2808 -0.0633  0.1695
  710TMC3    C310495   0.125   2.037   1.428  0.3506 -0.0517 -0.9223
  710TMC3    C410496   0.086   2.147   1.681 -0.3392 -0.1944 -0.3755
  710TMC3    C510497   0.063   2.014   1.655 -0.0433  0.6135  0.7623
  710TMC3    C610498   0.084   1.956   1.531 -0.6390  0.3922 -0.3263
  710TMC3     C10499   0.193   2.355   1.589  0.3115 -0.9404  0.3101
  710TMC3     O10500   0.259   2.398   1.499 -1.0344 -0.1183  0.2715
  710TMC3     H10501   0.182   2.232   1.366 -0.9257  0.4324 -0.0641
  710TMC3    H110502   0.088   2.178   1.784 -2.1784 -1.3375  0.0073
  710TMC3    H210503   0.087   1.848   1.528  0.0642  0.4377 -1.1698
  710TMC3    C710504   0.037   1.923   1.772  0.7406  0.3608 -0.2074
  710TMC3    C810505   0.174   1.980   1.302  0.0544 -0.1863 -0.2925
  710TMC3    O110506   0.051   1.803   1.751 -0.9380  0.6602 -0.4058
  710TMC3    O210507   0.226   1.869   1.298 -0.0448  0.3061  0.3316
  711TMC3    C110508   4.564   2.767  15.190 -0.7492 -0.4997 -0.4284
  711TMC3    C210509   4.566   2.867  15.284  0.3490  0.3575 -0.2479
  711TMC3    C310510   4.645   2.845  15.394  0.0338  0.6439  0.1519
  711TMC3    C410511   4.607   2.630  15.208 -0.2754 -0.4663 -0.5189
  711TMC3    C510512   4.691   2.618  15.319  0.1972 -0.3786  0.8885
  711TMC3    C610513   4.702   2.718  15.410  0.2368  0.0139  0.8543
  711TMC3     C10514   4.483   2.785  15.067  0.0788 -0.7035  0.0683
  711TMC3     O10515   4.452   2.683  15.007  0.7827 -0.0741 -0.0131
  711TMC3     H10516   4.528   2.968  15.269 -3.9459 -1.4085 -1.2081
  711TMC3    H110517   4.595   2.554  15.132  2.6375 -1.1105 -0.3345
  711TMC3    H210518   0.050   2.690  15.489  0.3164 -0.5443  0.5815
  711TMC3    C710519   0.044   2.488  15.343 -0.4672  0.5778 -0.5227
  711TMC3    C810520   4.636   2.929  15.510  0.4884 -0.5968  0.1564
  711TMC3    O110521   0.143   2.489  15.417  0.4525 -0.2640 -0.0814
  711TMC3    O210522   4.550   3.020  15.506  0.4252  0.5481 -0.2938
  712MPD2     C10523   1.024   3.831  13.484 -0.6916 -0.8360  0.7368
  712MPD2    C110524   0.924   3.824  13.581 -0.0856 -0.7539  0.3678
  712MPD2    C210525   0.941   3.912  13.693  0.5298 -0.3565 -0.4119
  712MPD2    C310526   1.061   3.979  13.724 -0.7039  0.2847  0.1913
  712MPD2    C410527   1.162   3.965  13.633 -0.1206  0.2646  0.6383
  712MPD2    C510528   1.146   3.893  13.510 -0.3227 -0.1394 -0.7163
  712MPD2     H10529   0.855   3.928  13.756  0.9127 -0.8818  0.2374
  712MPD2    H110530   1.259   4.010  13.650  0.4429 -0.9878  0.8016
  712MPD2    H210531   1.016   3.786  13.386  0.5579 -1.1981  0.7946
  712MPD2    H310532   1.230   3.883  13.442  1.1398 -1.8892  1.3418
  712MPD2     N10533   1.077   4.063  13.833  0.4138 -0.9026 -0.2257
  712MPD2    H510534   1.165   4.114  13.831  0.8117 -1.5958 -0.4925
  712MPD2    N110535   0.803   3.760  13.550  0.5406  0.4747  0.1526
  712MPD2    H710536   0.800   3.708  13.463  0.4304  2.3765 -0.9916
  713TMC3    C110537   1.034   4.181  14.031 -0.1493  1.2691  0.4548
  713TMC3    C210538   1.157   4.175  14.078  0.0016  0.2072 -0.0273
  713TMC3    C310539   1.183   4.260  14.181 -0.3526  0.5927 -0.0923
  713TMC3    C410540   0.932   4.260  14.075  0.5901  0.0399 -0.3023
  713TMC3    C510541   0.969   4.344  14.177  0.2363  0.6086  0.3134
  713TMC3    C610542   1.091   4.345  14.232  0.4534  0.4963 -0.0529
  713TMC3     C10543   0.992   4.085  13.937  0.8663  0.1859  0.2273
  713TMC3     O10544   0.877   4.042  13.948 -0.1018  0.3425 -0.9149
  713TMC3     H10545   1.235   4.105  14.050 -0.4340  0.0543 -0.8465
  713TMC3    H110546   0.832   4.256  14.034  0.2560  2.8710  0.1840
  713TMC3    H210547   1.124   4.420  14.305  0.2136 -0.4122  0.9884
  713TMC3    C710548   0.870   4.416  14.253  0.5126 -0.4711  1.3196
  713TMC3    C810549   1.323   4.309  14.189  0.0955  0.0388 -0.3651
  713TMC3    O110550   0.902   4.427  14.370  0.0125  0.1764 -0.2039
  713TMC3    O210551   1.351   4.367  14.295 -0.3361  0.4736  0.0934
  714MPD2     C10552   3.138   3.597   1.940 -0.4849  0.0864 -0.3560
  714MPD2    C110553   3.051   3.491   1.946 -0.0265  0.6974 -0.5981
  714MPD2    C210554   2.944   3.473   1.865 -0.3955  0.1989 -0.0430
  714MPD2    C310555   2.912   3.576   1.780 -0.3811  0.5338 -0.0639
  714MPD2    C410556   2.999   3.683   1.764  0.2818  0.2297 -0.3089
  714MPD2    C510557   3.114   3.684   1.840  0.6603  0.0669  0.7392
  714MPD2     H10558   2.881   3.386   1.874  1.8741 -1.2282  1.9156
  714MPD2    H110559   2.990   3.764   1.693  3.3675  1.1966  0.4043
  714MPD2    H210560   3.235   3.611   1.987  0.1871 -1.6686 -1.2170
  714MPD2    H310561   3.182   3.764   1.815 -0.9204  1.4759  0.9854
  714MPD2     N10562   2.797   3.557   1.696 -0.0565 -0.2793  0.1705
  714MPD2    H510563   2.733   3.479   1.705  0.1708 -0.3498  1.2296
  714MPD2    N110564   3.100   3.389   2.031  0.4052 -0.0012  0.5095
  714MPD2    H710565   3.185   3.405   2.084  0.9335 -0.4578 -0.1885
  715TMC3    C110566   3.124   3.193   2.157 -0.4795 -0.6877  0.9033
  715TMC3    C210567   3.061   3.084   2.213  0.2287  0.1804 -0.2178
  715TMC3    C310568   3.134   3.007   2.298 -0.5518 -0.4859  0.4758
  715TMC3    C410569   3.255   3.241   2.190  0.1445  0.7761  0.3728
  715TMC3    C510570   3.326   3.153   2.273  0.4105 -0.0715  0.3272
  715TMC3    C610571   3.261   3.046   2.332  0.2727 -0.1633 -0.6216
  715TMC3     C10572   3.039   3.274   2.066 -0.7558 -0.2392  0.2332
  715TMC3     O10573   2.921   3.241   2.049 -0.2854  0.1569 -0.1061
  715TMC3     H10574   2.965   3.052   2.176  2.2580 -3.8391 -1.9667
  715TMC3    H110575   3.302   3.317   2.129  2.4671 -0.5256  0.5515
  715TMC3    H210576   3.323   2.974   2.384  1.3785  0.8349 -0.5436
  715TMC3    C710577   3.446   3.208   2.334 -0.2500  0.7552  0.3399
  715TMC3    C810578   3.095   2.868   2.300 -0.4995 -0.0977  0.5479
  715TMC3    O110579   3.493   3.144   2.423  0.3501  0.0594  0.0025
  715TMC3    O210580   3.040   2.829   2.198 -0.1263  0.2170 -0.0962
  716MPD2     C10581   3.229   0.703  10.344 -0.8553  0.9612  1.1165
  716MPD2    C110582   3.171   0.706  10.221 -0.3771 -0.5421 -0.5684
  716MPD2    C210583   3.214   0.604  10.136  0.1637 -0.1240  0.3866
  716MPD2    C310584   3.300   0.506  10.173  0.4310 -0.3350 -1.0681
  716MPD2    C410585   3.342   0.502  10.302  0.3587  0.2627  0.0730
  716MPD2    C510586   3.306   0.599  10.387  0.2938  0.7285  0.2603
  716MPD2     H10587   3.163   0.607  10.040 -0.7898 -1.2025  0.8667
  716MPD2    H110588   3.401   0.418  10.338  0.0060  0.9347  2.2165
  716MPD2    H210589   3.203   0.768  10.427 -0.8171  1.9939  0.3125
  716MPD2    H310590   3.336   0.598  10.491 -0.6481 -0.6108  0.5293
  716MPD2     N10591   3.329   0.409  10.072 -0.1976 -0.0142  0.2622
  716MPD2    H510592   3.285   0.427   9.983  0.8686  1.2981 -0.0087
  716MPD2    N110593   3.070   0.804  10.199  0.0486 -0.0604 -0.1142
  716MPD2    H710594   3.038   0.854  10.281  1.9194  0.7622  0.1081
  717TMC3    C110595   3.429   0.234   9.961  0.6759  0.7086  0.1135
  717TMC3    C210596   3.346   0.263   9.849  0.2036 -0.1549  0.7303
  717TMC3    C310597   3.373   0.192   9.731 -0.5393  0.1407 -0.0422
  717TMC3    C410598   3.535   0.152   9.953 -0.0670 -0.3567 -0.7904
  717TMC3    C510599   3.553   0.080   9.843  0.4659 -0.1233  0.3013
  717TMC3    C610600   3.471   0.099   9.728  0.4065  0.2020 -0.7872
  717TMC3     C10601   3.413   0.305  10.085  0.6413  0.2098  0.1878
  717TMC3     O10602   3.478   0.260  10.180  0.4694  0.6636 -0.4041
  717TMC3     H10603   3.253   0.317   9.859 -0.6324 -1.9765  2.9137
  717TMC3    H110604   3.596   0.134  10.041 -2.1008 -0.8769  0.5256
  717TMC3    H210605   3.481   0.032   9.643  1.4090 -0.5245 -0.0937
  717TMC3    C710606   3.659   4.705   9.849  0.3701 -0.0515 -0.2204
  717TMC3    C810607   3.279   0.200   9.616 -0.8122  0.3487  0.0493
  717TMC3    O110608   3.682   4.651   9.956  0.1390 -0.7284 -0.3766
  717TMC3    O210609   3.165   0.238   9.640  0.0533  0.0421  0.0874
  718MPD2     C10610   2.087   0.252  12.523 -0.5782  0.3856  0.4600
  718MPD2    C110611   2.184   0.155  12.544  0.1052 -0.5859 -0.0853
  718MPD2    C210612   2.177   0.082  12.659 -0.0194 -0.3045  0.2981
  718MPD2    C310613   2.085   0.097  12.757 -0.2127  0.2817 -0.1727
  718MPD2    C410614   1.993   0.205  12.743 -0.6368  0.2710 -0.1304
  718MPD2    C510615   2.000   0.271  12.625 -0.2835 -0.0710 -0.2166
  718MPD2     H10616   2.245   4.719  12.663  0.4204 -0.0527 -1.4913
  718MPD2    H110617   1.913   0.220  12.815  0.1215  1.2977  0.4901
  718MPD2    H210618   2.085   0.322  12.440 -0.1034  0.7386  0.7476
  718MPD2    H310619   1.929   0.350  12.601  0.1939  1.0538  2.1433
  718MPD2     N10620   2.075   4.715  12.859 -0.3028  0.4606  0.3011
  718MPD2    H510621   2.135   4.633  12.854 -1.4304 -0.4534  1.5753
  718MPD2    N110622   2.280   0.106  12.453  1.1463  0.6993  0.3147
  718MPD2    H710623   2.342   0.032  12.485 -0.5673 -0.9757 -0.2923
  719TMC3    C110624   2.357   0.049  12.245 -0.4790  1.3923 -1.2479
  719TMC3    C210625   2.287   4.705  12.149  0.4064  0.1912 -0.1501
  719TMC3    C310626   2.304   4.568  12.137 -0.2522  0.0363  0.1832
  719TMC3    C410627   2.461   4.701  12.305 -0.0963 -0.6061  0.1639
  719TMC3    C510628   2.485   4.565  12.286 -0.0513 -0.4793  0.8065
  719TMC3    C610629   2.403   4.500  12.196  0.2286 -0.4705  0.5168
  719TMC3     C10630   2.286   0.143  12.322  0.2436  0.2027  0.2955
  719TMC3     O10631   2.215   0.225  12.265 -0.0163  0.2201  0.0605
  719TMC3     H10632   2.193   0.023  12.113 -0.6985 -2.4629 -0.1066
  719TMC3    H110633   2.517   0.035  12.380  0.9175 -0.1154 -0.9417
  719TMC3    H210634   2.414   4.395  12.172  1.2202 -0.2766  0.1009
  719TMC3    C710635   2.610   4.503  12.325  0.3218 -0.4440  0.4755
  719TMC3    C810636   2.182   4.481  12.134  0.0861  0.5196 -0.5993
  719TMC3    O110637   2.670   4.439  12.238 -0.0384  0.2635  0.0660
  719TMC3    O210638   2.095   4.518  12.052 -0.0910  0.1586  0.3501
  720MPD2     C10639   1.092   1.102  14.089 -0.1805 -0.3334  0.3304
  720MPD2    C110640   1.072   1.239  14.094 -0.0158  0.4224  0.1391
  720MPD2    C210641   1.124   1.307  14.200  0.1018 -0.4595 -0.1459
  720MPD2    C310642   1.208   1.245  14.292  0.2471  0.2087 -0.3007
  720MPD2    C410643   1.218   1.105  14.289  0.2728 -0.3579 -0.1332
  720MPD2    C510644   1.160   1.034  14.187 -0.2362 -1.3742  0.5168
  720MPD2     H10645   1.113   1.415  14.205 -0.3071 -0.4839 -0.5019
  720MPD2    H110646   1.280   1.057  14.364  1.8799  0.6645 -0.7952
  720MPD2    H210647   1.062   1.055  13.996  1.6902 -1.6500  0.3845
  720MPD2    H310648   1.186   0.929  14.180  2.7054 -0.6750  0.7680
  720MPD2     N10649   1.267   1.326  14.392 -0.6694 -0.5275 -0.0840
  720MPD2    H510650   1.286   1.423  14.369 -0.0025 -0.7237 -0.3775
  720MPD2    N110651   0.993   1.304  13.995  0.5203 -0.0788  0.1195
  720MPD2    H710652   0.984   1.404  14.012  2.1786  0.3187 -1.3353
  721TMC3    C110653   1.419   1.367  14.571 -0.2519 -0.0774  0.3650
  721TMC3    C210654   1.422   1.358  14.704 -0.6436  0.1689  0.3784
  721TMC3    C310655   1.524   1.418  14.763  0.2463  0.4489 -0.0513
  721TMC3    C410656   1.521   1.407  14.490 -0.0923  0.1929  0.3626
  721TMC3    C510657   1.633   1.463  14.555  0.5821 -0.1089  0.1990
  721TMC3    C610658   1.632   1.465  14.692  0.2026  0.3950 -0.1250
  721TMC3     C10659   1.322   1.279  14.510  0.3652  0.9308  0.1682
  721TMC3     O10660   1.291   1.174  14.565  0.4944  0.3921  0.5743
  721TMC3     H10661   1.326   1.338  14.750 -0.0468 -1.8623  0.7838
  721TMC3    H110662   1.520   1.408  14.381  2.8415  1.0063  0.3551
  721TMC3    H210663   1.719   1.503  14.745 -0.5619  0.8336  0.8278
  721TMC3    C710664   1.762   1.435  14.496 -0.1121 -0.2560 -0.0550
  721TMC3    C810665   1.522   1.469  14.901 -0.0295  0.3689 -0.8020
  721TMC3    O110666   1.785   1.488  14.391 -0.3310  0.1455  0.3941
  721TMC3    O210667   1.610   1.535  14.937  0.4831 -0.2875 -0.4078
  722MPD2     C10668   0.235   4.603  13.372 -0.4686 -0.2275 -0.3083
  722MPD2    C110669   0.145   4.700  13.407  0.5039 -0.2567 -0.6604
  722MPD2    C210670   0.058   0.028  13.312 -0.0399  0.6864 -0.0548
  722MPD2    C310671   0.067   4.707  13.178 -0.2884 -0.2116 -1.2586
  722MPD2    C410672   0.172   4.618  13.141  0.1157 -0.1791  0.7618
  722MPD2    C510673   0.256   4.576  13.240  0.3554  0.2307 -0.4907
  722MPD2     H10674   4.699   0.095  13.341 -0.2741  1.0708 -1.6207
  722MPD2    H110675   0.199   4.598  13.038 -0.1151 -0.6884  0.8034
  722MPD2    H210676   0.307   4.561  13.440  2.6248  3.7615 -1.1421
  722MPD2    H310677   0.336   4.507  13.218 -1.5170 -2.2010  0.3772
  722MPD2     N10678   4.692   0.035  13.082  0.1665  0.2027  0.0810
  722MPD2    H510679   4.621   0.091  13.127 -1.5701 -0.4574 -1.8137
  722MPD2    N110680   0.132   0.039  13.539  0.1124 -0.0008  0.0524
  722MPD2    H710681   0.099   0.134  13.546 -1.6515 -0.5049 -1.3265
  723TMC3    C110682   4.529   0.033  12.915  0.0796  0.1941  0.3255
  723TMC3    C210683   4.426   4.667  12.898 -0.3651 -0.3277 -0.5834
  723TMC3    C310684   4.289   4.709  12.902 -0.2498  0.1858 -0.1185
  723TMC3    C410685   4.495   0.166  12.955  0.0403 -0.1244  0.0901
  723TMC3    C510686   4.361   0.202  12.958  0.0938  0.5745 -0.3078
  723TMC3    C610687   4.259   0.119  12.939  0.4504 -0.1134  1.1690
  723TMC3     C10688   4.667   4.712  12.957  0.0486  0.0005 -0.1780
  723TMC3     O10689   0.019   4.646  12.881 -0.2262 -0.1220 -0.5638
  723TMC3     H10690   4.438   4.562  12.876  1.8695 -0.1905  0.0336
  723TMC3    H110691   4.580   0.232  12.966 -0.1844 -0.3075  2.9726
  723TMC3    H210692   4.157   0.155  12.933  0.4560 -0.2164  0.5082
  723TMC3    C710693   4.327   0.329  12.901  0.1294 -0.0031  0.0265
  723TMC3    C810694   4.170   4.621  12.904  0.0858 -0.2484  0.1195
  723TMC3    O110695   4.346   0.344  12.780  0.1547 -0.6370 -0.3737
  723TMC3    O210696   4.060   4.673  12.926  0.1991 -0.0501  0.1948
  724TMC3    C110697   1.061   2.521  10.770  0.3536 -0.1320  0.1511
  724TMC3    C210698   0.939   2.519  10.710 -0.1094 -0.0310  0.3547
  724TMC3    C310699   0.931   2.483  10.582 -0.7841 -0.1348  0.7964
  724TMC3    C410700   1.172   2.469  10.703 -0.0364  0.1692  0.9577
  724TMC3    C510701   1.160   2.445  10.560  0.5070  0.8828  0.2253
  724TMC3    C610702   1.033   2.443  10.505  0.3982 -0.2495 -0.2607
  724TMC3     C10703   1.063   2.546  10.916  0.7597 -1.0548 -0.2145
  724TMC3     O10704   1.137   2.482  10.992 -0.1734  0.0451  0.0187
  724TMC3     H10705   0.853   2.565  10.756 -1.0190  0.1703 -1.5335
  724TMC3    H110706   1.266   2.480  10.755  1.6832 -0.0126 -2.1231
  724TMC3    H210707   1.036   2.405  10.403 -0.3758  0.0722 -0.4032
  724TMC3    C710708   1.272   2.418  10.469 -0.2989  0.2002 -0.1826
  724TMC3    C810709   0.814   2.531  10.510  0.6070  0.5251 -0.7893
  724TMC3    O110710   1.250   2.436  10.348  0.5981 -0.0064 -0.3754
  724TMC3    O210711   0.715   2.545  10.579 -0.2884  0.7540 -0.8278
  725TMC3    C110712   1.333   1.667  13.188 -0.3665 -0.3008 -0.4714
  725TMC3    C210713   1.286   1.680  13.063 -0.0091 -0.2261  0.2619
  725TMC3    C310714   1.183   1.596  13.034  0.8189 -0.2520 -0.0089
  725TMC3    C410715   1.289   1.573  13.275 -0.0516 -0.0627  0.3163
  725TMC3    C510716   1.211   1.472  13.231  0.5489 -0.3140  0.3025
  725TMC3    C610717   1.148   1.491  13.111 -0.8273 -0.8188 -0.3183
  725TMC3     C10718   1.444   1.754  13.231  0.3243 -0.0296  0.3040
  725TMC3     O10719   1.515   1.797  13.140  0.1487  0.0327 -0.2282
  725TMC3     H10720   1.330   1.759  13.003  2.7717 -0.7498  1.5993
  725TMC3    H110721   1.335   1.540  13.367  1.6616  0.2084 -0.4362
  725TMC3    H210722   1.078   1.419  13.069 -1.2513 -0.1645 -0.7330
  725TMC3    C710723   1.302   1.361  13.221 -0.2452 -0.0410  0.3633
  725TMC3    C810724   1.100   1.619  12.918 -0.0701  0.9857 -0.1795
  725TMC3    O110725   1.423   1.387  13.202  0.0683  0.3507 -0.0209
  725TMC3    O210726   0.984   1.584  12.942  0.2719  0.2167  0.8214
  726MPD2     C10727   0.104   3.088  10.338  0.6526 -0.1249  0.0572
  726MPD2    C110728   0.039   3.208  10.351 -0.2747  0.1457 -0.2202
  726MPD2    C210729   4.623   3.208  10.363 -0.2018 -0.5826 -0.2400
  726MPD2    C310730   4.562   3.081  10.375 -0.5236 -0.2237  0.6654
  726MPD2    C410731   4.628   2.962  10.352 -0.4514 -0.0696  0.3033
  726MPD2    C510732   0.043   2.965  10.337 -0.5937  0.6652 -0.2673
  726MPD2     H10733   4.570   3.303  10.362 -1.1458 -1.0714  1.6612
  726MPD2    H110734   4.585   2.865  10.371 -3.1620  1.2603  0.9328
  726MPD2    H210735   0.212   3.092  10.326  0.4969  0.4719 -1.1578
  726MPD2    H310736   0.100   2.873  10.341 -0.4585  0.6800 -1.9088
  726MPD2     N10737   4.420   3.077  10.373 -0.1126  0.4689  0.6712
  726MPD2    H510738   4.371   2.989  10.358  1.0381 -0.1644  0.6251
  726MPD2    N110739   0.105   3.334  10.343  0.5941 -0.0469 -0.1994
  726MPD2    H710740   0.048   3.417  10.346 -2.3791 -2.1021  0.1690
  727TMC3    C110741   0.277   3.495  10.360 -0.4043 -0.3729  0.5233
  727TMC3    C210742   0.410   3.525  10.375 -0.1397 -0.2577  0.4268
  727TMC3    C310743   0.454   3.654  10.385  0.1899  0.1950  0.0265
  727TMC3    C410744   0.189   3.598  10.346 -0.4848  0.1612 -0.8349
  727TMC3    C510745   0.241   3.723  10.362  0.4495 -0.1626 -0.2998
  727TMC3    C610746   0.369   3.753  10.402  0.9551 -0.8330 -0.1894
  727TMC3     C10747   0.239   3.354  10.339  0.0877  0.1325  0.4446
  727TMC3     O10748   0.334   3.278  10.354  0.0274 -0.1229  0.0298
  727TMC3     H10749   0.487   3.448  10.378 -0.8508 -0.9207  1.6747
  727TMC3    H110750   0.082   3.590  10.329 -0.9653  0.4370  2.1573
  727TMC3    H210751   0.392   3.856  10.430  1.2083 -0.7940 -0.5353
  727TMC3    C710752   0.146   3.829  10.389  0.3016 -0.2580  0.3817
  727TMC3    C810753   0.595   3.665  10.419  0.3228 -0.2398 -0.5615
  727TMC3    O110754   0.082   3.858  10.289 -0.8341 -0.1895 -0.2566
  727TMC3    O210755   0.662   3.580  10.363 -0.7413  0.3710  0.3679
  728TMC3    C110756   3.423   2.340  15.527 -0.4367 -0.9997  0.7362
  728TMC3    C210757   3.472   2.461  15.561  1.2491  0.0828 -0.2749
  728TMC3    C310758   3.479   2.561  15.469 -0.3887  0.8187 -0.2262
  728TMC3    C410759   3.371   2.319  15.403  0.8014 -0.2845 -0.8621
  728TMC3    C510760   3.369   2.427  15.310 -0.2019  0.0951 -0.2637
  728TMC3    C610761   3.427   2.543  15.341 -0.2943 -0.4956  0.1472
  728TMC3     C10762   3.468   2.230  15.614 -0.0921 -0.3210  0.4761
  728TMC3     O10763   3.538   2.261  15.710  1.1097 -0.0817 -0.0744
  728TMC3     H10764   3.510   2.468  15.662 -1.4495  1.8901  0.6248
  728TMC3    H110765   3.323   2.226  15.375 -0.2463  0.3245 -1.0910
  728TMC3    H210766   3.420   2.630  15.277 -1.5060  0.4743  1.5845
  728TMC3    C710767   3.335   2.391  15.174  0.0683 -0.7250  0.5056
  728TMC3    C810768   3.472   2.695  15.523 -0.1136 -0.2340 -0.3771
  728TMC3    O110769   3.240   2.317  15.163 -0.1703 -0.2258 -0.0577
  728TMC3    O210770   3.433   2.696  15.639 -0.5655 -1.0180 -0.3644
  729MPD2     C10771   1.038   3.034  17.033 -0.2152 -0.5860  0.5406
  729MPD2    C110772   1.164   2.996  17.060 -0.6156  0.5255  0.0544
  729MPD2    C210773   1.213   2.991  17.183 -0.3854 -0.3954  0.1064
  729MPD2    C310774   1.132   3.019  17.294  0.6576 -0.2648 -0.6576
  729MPD2    C410775   1.000   3.048  17.269 -0.1500 -0.4266 -0.0758
  729MPD2    C510776   0.952   3.050  17.142 -0.2553 -0.3105 -0.6221
  729MPD2     H10777   1.320   2.976  17.191 -0.3421 -0.4043 -0.5419
  729MPD2    H110778   0.939   3.067  17.356 -1.1137 -0.6169 -0.7043
  729MPD2    H210779   1.004   3.050  16.931  3.5512  0.3012 -0.5407
  729MPD2    H310780   0.846   3.072  17.138 -0.0592  0.8120  0.1668
  729MPD2     N10781   1.174   3.016  17.429  0.2707  0.2727 -0.6083
  729MPD2    H510782   1.131   3.071  17.503  0.4219 -0.1815 -0.1846
  729MPD2    N110783   1.252   2.998  16.943  0.3398 -0.0960  0.1867
  729MPD2    H710784   1.200   3.023  16.859  0.2769 -0.0109  0.2518
  730TMC3    C110785   1.359   2.992  17.586  0.5490  0.0380 -0.0686
  730TMC3    C210786   1.482   2.929  17.596  0.2287  0.5382 -0.7539
  730TMC3    C310787   1.590   3.012  17.623 -1.4450 -0.3875 -0.2457
  730TMC3    C410788   1.335   3.121  17.623  0.4440 -0.5659  0.1469
  730TMC3    C510789   1.445   3.191  17.661 -0.2353 -0.4741  0.2608
  730TMC3    C610790   1.572   3.134  17.659 -0.1649 -0.9295 -0.3961
  730TMC3     C10791   1.288   2.946  17.465 -0.1071 -0.1183  0.6600
  730TMC3     O10792   1.342   2.850  17.404 -0.2245  0.5360  0.5043
  730TMC3     H10793   1.498   2.830  17.555  0.6286  0.9222 -1.5228
  730TMC3    H110794   1.235   3.163  17.622  1.5561  2.0881  2.6496
  730TMC3    H210795   1.655   3.204  17.657 -0.4813 -0.4517  2.3781
  730TMC3    C710796   1.436   3.335  17.640  0.0970 -0.1505  0.0661
  730TMC3    C810797   1.699   2.983  17.538  0.0378 -0.1352  0.3354
  730TMC3    O110798   1.532   3.395  17.589  0.0629  0.2298  0.1578
  730TMC3    O210799   1.738   2.864  17.526  0.0310 -0.3680 -0.1289
  731MPD2     C10800   1.347   1.456  12.593 -0.0435 -1.0083  0.3833
  731MPD2    C110801   1.226   1.453  12.534  0.4772 -0.4898 -0.0603
  731MPD2    C210802   1.124   1.395  12.609 -0.6854  0.8133  0.1286
  731MPD2    C310803   1.148   1.319  12.718 -0.1885 -0.1644 -0.0240
  731MPD2    C410804   1.273   1.325  12.782  0.0682 -0.1783 -0.2394
  731MPD2    C510805   1.374   1.400  12.720  0.1124  0.1068 -0.5670
  731MPD2     H10806   1.032   1.391  12.552 -0.7722 -1.1512  0.3999
  731MPD2    H110807   1.295   1.260  12.866  0.7495 -0.1679 -0.4098
  731MPD2    H210808   1.430   1.509  12.547 -0.5891  0.9316  1.6549
  731MPD2    H310809   1.475   1.403  12.761 -0.1941 -1.0235  0.2814
  731MPD2     N10810   1.038   1.242  12.772 -0.1964  0.2417 -0.2511
  731MPD2    H510811   0.943   1.252  12.737 -0.8820 -2.1975  0.8655
  731MPD2    N110812   1.213   1.509  12.406  0.3664 -0.0347  0.4344
  731MPD2    H710813   1.300   1.547  12.371  0.2903  0.3495  0.6654
  732TMC3    C110814   1.148   1.527  12.182 -0.0190  0.0098  0.1224
  732TMC3    C210815   1.086   1.438  12.094  0.3093  0.1263 -0.2857
  732TMC3    C310816   1.163   1.383  11.993 -1.0351 -0.0990  0.1570
  732TMC3    C410817   1.274   1.580  12.170 -0.5108 -0.3159 -0.3137
  732TMC3    C510818   1.341   1.529  12.063  0.4165  0.6673 -0.6539
  732TMC3    C610819   1.293   1.428  11.982 -0.4307  0.5520 -0.2993
  732TMC3     C10820   1.103   1.499  12.322 -1.2620  0.2227  0.3024
  732TMC3     O10821   0.987   1.467  12.344 -0.1944 -0.1824  0.4490
  732TMC3     H10822   0.984   1.403  12.107  0.6783 -1.9140 -2.8401
  732TMC3    H110823   1.317   1.660  12.229  1.6687 -3.4006  2.3256
  732TMC3    H210824   1.366   1.391  11.911  0.0006 -0.1405  0.5125
  732TMC3    C710825   1.486   1.545  12.061 -0.2519 -0.3812  0.3705
  732TMC3    C810826   1.152   1.237  11.982 -0.8008  0.4251  0.4602
  732TMC3    O110827   1.542   1.625  11.988 -0.5139  0.0157 -0.8370
  732TMC3    O210828   1.249   1.174  11.940  0.6127  0.2714 -0.2699
  733TMC3    C110829   1.820   4.432  13.098 -0.1369 -0.8206  0.7781
  733TMC3    C210830   1.873   4.556  13.085  0.1923  0.0063 -0.3447
  733TMC3    C310831   1.985   4.568  13.012 -0.4210 -0.6585 -0.4809
  733TMC3    C410832   1.854   4.332  13.010 -0.4848 -0.0744  0.0708
  733TMC3    C510833   1.952   4.345  12.919 -0.8694 -0.1335  0.2522
  733TMC3    C610834   2.027   4.465  12.933 -0.3890  0.4296 -0.1395
  733TMC3     C10835   1.697   4.430  13.171 -0.0943  0.0246 -0.5334
  733TMC3     O10836   1.634   4.536  13.179 -0.3620 -0.2840  0.5694
  733TMC3     H10837   1.844   4.632  13.156  0.1726  0.8597 -1.2718
  733TMC3    H110838   1.799   4.238  13.012 -3.3293  1.5936 -0.5516
  733TMC3    H210839   2.112   4.469  12.865 -1.0891 -1.2716 -1.1159
  733TMC3    C710840   1.885   4.348  12.785 -0.2784 -0.5929 -0.4725
  733TMC3    C810841   1.980   4.702  12.954  0.3591  0.1700  0.2503
  733TMC3    O110842   1.766   4.377  12.778 -0.6456  0.6770 -0.2243
  733TMC3    O210843   1.876   0.041  12.975 -0.0188 -0.2044 -0.3957
  734MPD2     C10844   4.071   2.214  12.579 -0.1321  0.0963 -0.3427
  734MPD2    C110845   4.020   2.149  12.475  0.9164 -0.6821  0.2222
  734MPD2    C210846   4.061   2.185  12.353  0.1246  0.0080 -0.3249
  734MPD2    C310847   4.140   2.292  12.328 -0.5486  1.4730 -0.0031
  734MPD2    C410848   4.180   2.374  12.431  0.1340 -0.2271  0.6329
  734MPD2    C510849   4.148   2.331  12.558  0.4190  0.1598 -0.3015
  734MPD2     H10850   4.037   2.117  12.273 -2.1905  1.0284 -0.4862
  734MPD2    H110851   4.229   2.471  12.427  0.5883 -0.5293 -0.8976
  734MPD2    H210852   4.023   2.204  12.675 -0.1364  1.1751 -0.2372
  734MPD2    H310853   4.164   2.398  12.642 -1.3164  1.0831 -0.7072
  734MPD2     N10854   4.169   2.315  12.191 -0.1656  0.5482  0.0034
  734MPD2    H510855   4.159   2.234  12.132  2.1319  1.1293 -1.2042
  734MPD2    N110856   3.931   2.040  12.492 -0.1101 -0.1608  0.3453
  734MPD2    H710857   3.934   1.988  12.579 -0.7781  0.6179  0.8327
  735TMC3    C110858   3.807   1.845  12.424  0.0107 -0.1740  0.5429
  735TMC3    C210859   3.698   1.815  12.350  0.2611 -0.2709  0.2547
  735TMC3    C310860   3.703   1.691  12.287  0.2405  0.4174 -0.0628
  735TMC3    C410861   3.912   1.762  12.444 -0.5365  0.2819 -0.3416
  735TMC3    C510862   3.895   1.635  12.403 -0.4178 -0.2668 -0.0667
  735TMC3    C610863   3.790   1.595  12.323  0.6189 -0.0672  0.8988
  735TMC3     C10864   3.842   1.987  12.401  0.1644 -0.0533  0.3258
  735TMC3     O10865   3.819   2.035  12.291  0.0760 -0.0335  0.4291
  735TMC3     H10866   3.637   1.898  12.316  1.3922 -0.0521 -1.1866
  735TMC3    H110867   3.992   1.786  12.514  0.2424  0.2405 -1.2152
  735TMC3    H210868   3.790   1.507  12.261 -0.1503  1.0993 -0.7570
  735TMC3    C710869   4.002   1.544  12.436 -0.3853  0.0486 -0.5061
  735TMC3    C810870   3.700   1.700  12.141  0.4745 -0.2965 -0.2866
  735TMC3    O110871   4.099   1.594  12.490 -0.1754 -0.3835  0.2972
  735TMC3    O210872   3.701   1.591  12.082  0.5147 -0.5732  0.0098
  736MPD2     C10873   4.017   1.180  12.449 -0.2728 -0.0179 -0.0444
  736MPD2    C110874   4.068   1.306  12.430  0.5289 -0.0901 -0.1432
  736MPD2    C210875   4.209   1.326  12.431 -0.4598 -0.3392  0.7960
  736MPD2    C310876   4.294   1.221  12.455 -0.2445  0.1721 -0.1134
  736MPD2    C410877   4.238   1.098  12.462  0.0465  0.0318 -0.0299
  736MPD2    C510878   4.102   1.075  12.458 -0.2597 -0.2566 -0.7846
  736MPD2     H10879   4.248   1.425  12.412  1.3608 -1.5418 -1.8148
  736MPD2    H110880   4.299   1.015  12.495  2.1580  0.7733 -2.0902
  736MPD2    H210881   3.911   1.157  12.459 -0.4219  0.6056 -0.1359
  736MPD2    H310882   4.062   0.974  12.459 -1.2657  0.1600  0.8386
  736MPD2     N10883   4.437   1.222  12.449  0.5469  0.0520  0.5299
  736MPD2    H510884   4.479   1.130  12.458  0.8136 -0.0481 -1.6972
  736MPD2    N110885   3.974   1.412  12.407 -0.3140 -0.0636  0.7830
  736MPD2    H710886   3.881   1.389  12.372 -0.1810  1.9686 -0.9595
  737TMC3    C110887   4.650   1.320  12.404 -0.2916 -0.4129 -0.4465
  737TMC3    C210888   0.010   1.430  12.389  0.3694  0.6834 -0.2007
  737TMC3    C310889   0.133   1.417  12.343  0.4704  0.0035 -0.2726
  737TMC3    C410890   4.704   1.199  12.387 -0.3005  0.3626  0.4243
  737TMC3    C510891   0.112   1.186  12.354 -0.0779 -0.2937 -0.3751
  737TMC3    C610892   0.192   1.298  12.329 -0.5245  0.2349 -0.4410
  737TMC3     C10893   4.508   1.338  12.427 -0.2063 -0.5542 -0.6527
  737TMC3     O10894   4.469   1.452  12.455 -0.0069 -0.6248  0.4883
  737TMC3     H10895   4.681   1.522  12.416  0.5020  0.5368  0.5336
  737TMC3    H110896   4.649   1.109  12.410 -0.8549 -0.2234 -3.1567
  737TMC3    H210897   0.298   1.292  12.303  0.0329  0.1551  1.8760
  737TMC3    C710898   0.148   1.056  12.294  0.7483 -0.5779  0.0239
  737TMC3    C810899   0.213   1.534  12.315 -0.2757  0.1302 -0.3715
  737TMC3    O110900   0.080   0.961  12.325 -0.3212  0.5596 -0.1674
  737TMC3    O210901   0.173   1.636  12.368 -0.2157 -0.8159  0.5701
  738MPD2     C10902   0.525   4.597  15.658  0.4722  0.7279  0.1726
  738MPD2    C110903   0.442   4.652  15.559  0.3478 -0.2786 -0.7122
  738MPD2    C210904   0.502   4.684  15.446 -0.1833 -0.6781 -0.2086
  738MPD2    C310905   0.636   4.676  15.419  0.1319  0.0680  0.2078
  738MPD2    C410906   0.718   4.630  15.515 -0.3200  0.0428  0.3754
  738MPD2    C510907   0.663   4.591  15.630 -0.4082 -0.5102 -0.0078
  738MPD2     H10908   0.437   4.718  15.366 -0.4271 -1.8795 -0.5135
  738MPD2    H110909   0.826   4.632  15.506 -0.2693  0.0075  1.0137
  738MPD2    H210910   0.486   4.575  15.756 -1.6278 -0.0538 -0.8375
  738MPD2    H310911   0.730   4.566  15.711 -1.9832  0.7524  1.6983
  738MPD2     N10912   0.706   0.008  15.295 -0.4426  0.1885  0.3024
  738MPD2    H510913   0.805   4.708  15.289 -0.5890  0.1713 -2.0975
  738MPD2    N110914   0.302   4.675  15.565  0.0510  0.1228 -0.6387
  738MPD2    H710915   0.258   0.004  15.489  0.7416  0.7768 -0.6080
  739TMC3    C110916   0.729   0.129  15.100 -0.5302 -0.0600 -0.0870
  739TMC3    C210917   0.667   0.194  15.001  0.7094 -0.1365 -0.4693
  739TMC3    C310918   0.742   0.256  14.903  0.0415  0.1702 -0.2893
  739TMC3    C410919   0.864   0.130  15.096  0.4523 -0.5940 -0.2126
  739TMC3    C510920   0.939   0.191  15.002  0.3042  0.8969  0.6489
  739TMC3    C610921   0.879   0.260  14.902 -0.6605 -1.3505 -0.0938
  739TMC3     C10922   0.647   0.097  15.213 -0.0625  0.9403 -0.2818
  739TMC3     O10923   0.528   0.128  15.208  0.0936 -0.4485 -0.6635
  739TMC3     H10924   0.560   0.189  14.984  0.4932 -0.0918  0.8914
  739TMC3    H110925   0.922   0.071  15.167 -0.0156  1.0402  1.5344
  739TMC3    H210926   0.935   0.302  14.820 -1.8846  1.4874  0.5182
  739TMC3    C710927   1.086   0.183  15.003 -0.3963 -0.2289 -0.4277
  739TMC3    C810928   0.665   0.305  14.790  0.0510  0.2609  0.0069
  739TMC3    O110929   1.137   0.102  15.078 -0.1783  0.5122  0.5865
  739TMC3    O210930   0.556   0.258  14.762 -0.4532  0.2575 -0.0348
  740TMC3    C110931   0.908   1.779  14.527  0.1058  1.1099  0.0781
  740TMC3    C210932   0.956   1.748  14.651  0.2566  0.0997  0.2836
  740TMC3    C310933   1.079   1.686  14.651  0.2094  0.6126  0.5768
  740TMC3    C410934   0.984   1.769  14.411 -0.5614 -0.8154 -0.0877
  740TMC3    C510935   1.105   1.707  14.421  0.0956  0.1871  0.6446
  740TMC3    C610936   1.158   1.668  14.539 -0.5964  0.1022 -0.5515
  740TMC3     C10937   0.762   1.808  14.517  0.3213 -1.0829 -0.2697
  740TMC3     O10938   0.721   1.848  14.406 -0.9189  0.3904  0.0100
  740TMC3     H10939   0.905   1.778  14.742  0.0174 -0.0090  0.1871
  740TMC3    H110940   0.935   1.797  14.318 -0.5100 -0.8593 -0.1285
  740TMC3    H210941   1.255   1.622  14.550 -0.5234  0.2462 -0.5862
  740TMC3    C710942   1.177   1.660  14.308  0.5411 -0.3670  0.3186
  740TMC3    C810943   1.106   1.592  14.760  0.9367  0.8031  0.1337
  740TMC3    O110944   1.274   1.592  14.332 -0.2738  0.1751 -0.0236
  740TMC3    O210945   1.158   1.487  14.727 -0.0447 -0.3429 -0.1465
  741TMC3    C110946   0.410   0.919  14.715  0.3125  0.4173  0.1592
  741TMC3    C210947   0.298   0.875  14.644 -0.9676 -0.3206  0.3653
  741TMC3    C310948   0.192   0.824  14.717 -0.9063  0.4136  0.5914
  741TMC3    C410949   0.410   0.927  14.849  0.0409 -0.1123  0.7288
  741TMC3    C510950   0.304   0.885  14.920  0.5197  0.2001  0.4106
  741TMC3    C610951   0.195   0.828  14.860 -0.1621  0.1054  0.3142
  741TMC3     C10952   0.518   0.960  14.636  0.0737  0.0526  0.0678
  741TMC3     O10953   0.623   0.959  14.697 -0.2129  0.3903 -0.2457
  741TMC3     H10954   0.295   0.862  14.537  0.1516 -0.2367  0.3247
  741TMC3    H110955   0.491   0.978  14.900  0.1881 -0.0768  0.4549
  741TMC3    H210956   0.109   0.797  14.919 -1.5371 -0.2910 -1.8931
  741TMC3    C710957   0.298   0.927  15.060  0.3487 -0.0031 -0.8797
  741TMC3    C810958   0.071   0.789  14.650  0.0917  1.2267 -0.1565
  741TMC3    O110959   0.250   0.840  15.131  0.3533  0.1412  0.1382
  741TMC3    O210960   0.053   0.858  14.552 -0.0416 -0.0755  0.2317
  742TMC3    C110961   0.530   4.305  15.823  0.0401  0.2495 -0.7486
  742TMC3    C210962   0.429   4.307  15.731 -0.1614  0.6124  0.0215
  742TMC3    C310963   0.439   4.206  15.637 -1.0893 -0.5938  0.0817
  742TMC3    C410964   0.648   4.235  15.810  0.3986  0.1880  0.1133
  742TMC3    C510965   0.663   4.159  15.698 -0.4791  0.1243 -0.4776
  742TMC3    C610966   0.553   4.134  15.623 -0.0673 -0.0171  0.4502
  742TMC3     C10967   0.515   4.384  15.947  0.3146  0.1870 -0.9222
  742TMC3     O10968   0.606   4.384  16.026 -0.6188  0.5339 -0.4649
  742TMC3     H10969   0.334   4.358  15.742  0.3929  1.7668 -0.4887
  742TMC3    H110970   0.727   4.263  15.878 -1.4821  2.5580  1.3667
  742TMC3    H210971   0.565   4.071  15.535  3.3710  1.6786 -0.3269
  742TMC3    C710972   0.754   4.047  15.697 -0.3569  0.6415 -0.1932
  742TMC3    C810973   0.342   4.194  15.528  0.4374 -0.5893 -0.4887
  742TMC3    O110974   0.786   4.001  15.587  0.0391 -0.6996 -0.0510
  742TMC3    O210975   0.341   4.085  15.480 -0.1725  0.1960 -0.3618
  743MPD2     C10976   3.526   0.213   2.518  0.1991 -0.1552 -0.1638
  743MPD2    C110977   3.516   0.302   2.409  0.9753 -0.7312  0.1272
  743MPD2    C210978   3.618   0.390   2.383  0.4126  0.0283 -0.0608
  743MPD2    C310979   3.738   0.384   2.447  0.2742  0.0480  0.2735
  743MPD2    C410980   3.751   0.300   2.552 -0.4290  0.2532 -0.6929
  743MPD2    C510981   3.642   0.223   2.593  0.1060 -0.1651  0.7507
  743MPD2     H10982   3.605   0.465   2.306  0.5787 -0.3794 -0.4789
  743MPD2    H110983   3.844   0.283   2.606 -2.1901 -0.2368  2.2052
  743MPD2    H210984   3.459   0.131   2.541 -1.0769  0.6709 -0.9129
  743MPD2    H310985   3.655   0.158   2.678  0.6456  0.9739  1.5414
  743MPD2     N10986   3.839   0.466   2.400 -0.1125 -0.1721  0.1499
  743MPD2    H510987   3.823   0.526   2.320  1.7368 -0.7483 -0.6609
  743MPD2    N110988   3.404   0.299   2.322  0.0755 -0.6264 -0.6017
  743MPD2    H710989   3.326   0.249   2.362  0.1661 -0.1655  0.1576
  744TMC3    C110990   3.265   0.343   2.134  0.5198  0.5433  0.3836
  744TMC3    C210991   3.146   0.321   2.208  0.4633  0.4218  0.1850
  744TMC3    C310992   3.022   0.312   2.138 -0.4475 -0.2234  0.0690
  744TMC3    C410993   3.255   0.371   2.008  0.3924  0.3176  0.4654
  744TMC3    C510994   3.136   0.359   1.943 -0.4615 -0.4790  0.1110
  744TMC3    C610995   3.016   0.328   2.003  0.8289 -0.3253 -0.0993
  744TMC3     C10996   3.397   0.356   2.195 -1.1036  1.2606 -0.1435
  744TMC3     O10997   3.476   0.402   2.114  0.7654  0.2698 -0.8726
  744TMC3     H10998   3.150   0.298   2.314 -0.9380  1.2131  0.4065
  744TMC3    H110999   3.344   0.380   1.946 -0.6293 -1.9085 -1.3194
  744TMC3    H211000   2.927   0.345   1.943  0.6364  0.4169  0.4046
  744TMC3    C711001   3.145   0.351   1.805 -0.6090 -0.1991 -0.2170
  744TMC3    C811002   2.901   0.358   2.210  0.2585 -0.2830  0.4396
  744TMC3    O111003   3.221   0.431   1.755 -0.6190 -0.0350  0.3837
  744TMC3    O211004   2.823   0.431   2.151  0.1641  0.0829  0.2994
  745TMC3    C111005   0.580   3.694  13.589 -0.2962 -0.9411  0.0623
  745TMC3    C211006   0.488   3.653  13.678 -0.2299 -0.6630  0.1035
  745TMC3    C311007   0.360   3.689  13.661  0.3254 -0.3442 -0.8828
  745TMC3    C411008   0.541   3.753  13.468  0.6840 -0.1696 -0.2231
  745TMC3    C511009   0.409   3.768  13.445 -0.0952  0.1065 -0.6254
  745TMC3    C611010   0.317   3.749  13.545  0.5629 -0.8315  0.1325
  745TMC3     C11011   0.712   3.733  13.644 -0.1249 -0.5529 -0.5435
  745TMC3     O11012   0.722   3.748  13.764 -0.2855 -0.3313 -0.0847
  745TMC3     H11013   0.531   3.613  13.770  0.7610 -1.1103 -0.5541
  745TMC3    H111014   0.614   3.790  13.396  1.3737  0.9558  1.0590
  745TMC3    H211015   0.214   3.780  13.534 -0.4323 -3.6447  1.4446
  745TMC3    C711016   0.404   3.890  13.368 -0.1558 -0.0683 -0.1588
  745TMC3    C811017   0.285   3.712  13.779  0.1054 -0.1171  0.1370
  745TMC3    O111018   0.462   3.983  13.422  0.1196 -0.4315  0.5290
  745TMC3    O211019   0.177   3.657  13.788 -0.2342  0.6115  0.0465
  746TMC3    C111020   3.623   0.801  11.128  0.5893  0.0304 -0.1175
  746TMC3    C211021   3.715   0.761  11.036  0.8429 -0.0350 -0.1598
  746TMC3    C311022   3.730   0.625  11.018 -0.4119 -0.0892  0.3538
  746TMC3    C411023   3.550   0.713  11.207 -0.2620 -0.1129 -0.5967
  746TMC3    C511024   3.576   0.581  11.197 -0.6081  0.0511 -0.2871
  746TMC3    C611025   3.665   0.544  11.096  0.4387 -0.1053 -0.3729
  746TMC3     C11026   3.577   0.935  11.144 -0.0409  0.5734 -0.1869
  746TMC3     O11027   3.522   0.971  11.246 -0.5249  0.7334  0.5991
  746TMC3     H11028   3.783   0.829  10.987  0.9827 -0.1212 -0.0884
  746TMC3    H111029   3.467   0.754  11.264 -0.0948 -0.5128 -0.0610
  746TMC3    H211030   3.670   0.439  11.070 -0.6677  0.1252 -1.5356
  746TMC3    C711031   3.450   0.509  11.198 -0.4421  0.4522 -0.6218
  746TMC3    C811032   3.845   0.580  10.938  0.1278  0.2214  0.6964
  746TMC3    O111033   3.419   0.449  11.095 -0.4973  0.2791  0.5705
  746TMC3    O211034   3.872   0.463  10.926  0.0365  0.3981  0.0517
  747TMC3    C111035   0.741   0.815  11.434 -0.3396  0.2165 -0.3511
  747TMC3    C211036   0.671   0.763  11.548 -0.0870  0.1035  0.6037
  747TMC3    C311037   0.670   0.829  11.666 -0.5485 -0.2937 -0.0932
  747TMC3    C411038   0.821   0.927  11.450  0.1961  0.3018 -0.6292
  747TMC3    C511039   0.837   0.973  11.578  0.2695  0.0460 -0.6192
  747TMC3    C611040   0.752   0.938  11.685 -0.3694 -0.6413  0.4799
  747TMC3     C11041   0.707   0.770  11.303 -0.0051  0.4586 -0.7144
  747TMC3     O11042   0.674   0.655  11.282  0.1948 -0.1383 -0.2609
  747TMC3     H11043   0.603   0.680  11.541  1.6790 -1.4231  1.5571
  747TMC3    H111044   0.895   0.949  11.374  1.2926  0.5412  0.5078
  747TMC3    H211045   0.763   0.976  11.786 -2.8711 -1.0326  0.8997
  747TMC3    C711046   0.928   1.082  11.589  0.0633  0.1397 -0.2682
  747TMC3    C811047   0.582   0.771  11.762 -0.0244  0.1936 -0.2896
  747TMC3    O111048   0.901   1.161  11.675 -0.0403  0.1771 -0.0736
  747TMC3    O211049   0.539   0.659  11.742  0.3950  0.2553 -0.1137
  748MPD2     C11050   2.145   1.642   2.953 -0.2056 -0.1574 -0.0965
  748MPD2    C111051   2.176   1.516   2.899  0.6582 -0.3693  0.4371
  748MPD2    C211052   2.251   1.517   2.782 -0.7757 -0.2338  0.2302
  748MPD2    C311053   2.271   1.636   2.715 -0.2554 -0.0446 -0.4891
  748MPD2    C411054   2.222   1.758   2.760  0.0775  0.9719 -0.6510
  748MPD2    C511055   2.172   1.759   2.887 -0.3021  0.2041 -0.4480
  748MPD2     H11056   2.272   1.419   2.742  0.3801  0.1410 -0.0833
  748MPD2    H111057   2.240   1.855   2.716  0.5592  1.3805  0.4435
  748MPD2    H211058   2.092   1.649   3.048 -0.3312 -2.3053 -0.0062
  748MPD2    H311059   2.146   1.853   2.933  0.1096 -0.2274  0.6484
  748MPD2     N11060   2.343   1.623   2.588 -0.5434 -0.0157 -0.3040
  748MPD2    H511061   2.392   1.535   2.577 -2.2253 -0.8453 -1.1570
  748MPD2    N111062   2.129   1.401   2.970 -0.4288  0.1059 -0.4278
  748MPD2    H711063   2.069   1.421   3.050  1.6871  0.1177  1.1507
  749TMC3    C111064   2.444   1.677   2.383 -0.0428 -0.6546  0.0113
  749TMC3    C211065   2.552   1.598   2.409 -0.0652 -0.1918 -0.3555
  749TMC3    C311066   2.667   1.603   2.336 -0.5628 -0.0382 -0.1217
  749TMC3    C411067   2.449   1.761   2.279 -0.2502  0.3856 -0.3703
  749TMC3    C511068   2.564   1.771   2.206  0.1527  0.3678  0.0587
  749TMC3    C611069   2.679   1.704   2.241  0.2723  0.9867 -0.5543
  749TMC3     C11070   2.359   1.719   2.491 -0.6903 -0.3297  0.0010
  749TMC3     O11071   2.309   1.828   2.488  0.5433  0.2150  0.0964
  749TMC3     H11072   2.552   1.531   2.495 -0.0041  0.0599 -0.1596
  749TMC3    H111073   2.363   1.826   2.263  1.2574  3.0198  2.0552
  749TMC3    H211074   2.779   1.725   2.204  0.1502  2.0709 -0.2859
  749TMC3    C711075   2.578   1.875   2.114  1.2836 -0.9541 -0.4402
  749TMC3    C811076   2.786   1.554   2.407 -0.1057 -0.3118  0.1002
  749TMC3    O111077   2.495   1.967   2.139 -0.3308  0.5872  0.0884
  749TMC3    O211078   2.771   1.514   2.521 -0.1425  0.0593 -0.1440
  750MPD2     C11079   3.798   2.959  11.024  0.1233 -0.4956 -0.2250
  750MPD2    C111080   3.736   2.844  11.059  0.1634 -0.3972 -0.6724
  750MPD2    C211081   3.656   2.776  10.967 -0.5049 -0.0925  0.3820
  750MPD2    C311082   3.637   2.829  10.841 -0.7992 -0.4062  0.0077
  750MPD2    C411083   3.698   2.950  10.809  0.3141  0.1127  0.9738
  750MPD2    C511084   3.774   3.019  10.899  0.2721 -0.1486  0.8759
  750MPD2     H11085   3.614   2.681  10.995 -0.2064 -0.4970 -0.5691
  750MPD2    H111086   3.681   2.994  10.712 -0.3842 -0.1015  0.9990
  750MPD2    H211087   3.863   3.003  11.098  1.2322  0.7635 -1.9520
  750MPD2    H311088   3.820   3.114  10.874 -0.4016  0.6989  2.8004
  750MPD2     N11089   3.581   2.751  10.736  0.5578 -0.1834  0.4646
  750MPD2    H511090   3.588   2.780  10.639  1.0921 -0.1168  0.5256
  750MPD2    N111091   3.758   2.801  11.196  0.0158 -0.1312  0.1556
  750MPD2    H711092   3.811   2.867  11.251  1.4586 -1.4621  0.3889
  751TMC3    C111093   3.439   2.578  10.646  0.7305 -0.8664  0.2835
  751TMC3    C211094   3.320   2.509  10.657  0.4103  0.3939  0.0329
  751TMC3    C311095   3.279   2.430  10.552 -0.0127 -0.0817  0.2018
  751TMC3    C411096   3.524   2.555  10.544 -0.7831  0.2474  0.0246
  751TMC3    C511097   3.488   2.462  10.442  0.0386  0.2631 -0.6216
  751TMC3    C611098   3.362   2.412  10.445  0.0317  0.5935  0.0800
  751TMC3     C11099   3.491   2.645  10.761 -0.0056 -0.6659 -0.4225
  751TMC3     O11100   3.453   2.591  10.859  0.1189 -0.1869  0.5330
  751TMC3     H11101   3.266   2.512  10.750 -0.2483  1.9380 -0.4110
  751TMC3    H111102   3.621   2.601  10.556  0.1082 -1.6438 -0.0610
  751TMC3    H211103   3.334   2.346  10.364  2.7906 -0.4854  0.0137
  751TMC3    C711104   3.594   2.390  10.384 -0.0433 -0.2303 -0.3716
  751TMC3    C811105   3.195   2.313  10.585 -0.2662 -0.2610 -0.1445
  751TMC3    O111106   3.694   2.454  10.385 -0.3572 -0.3977 -0.4378
  751TMC3    O211107   3.193   2.220  10.504  0.3752  0.2950  0.0947
  752TMC3    C111108   2.222   2.262  17.002  0.0867 -0.1619  0.1903
  752TMC3    C211109   2.348   2.212  17.021  0.4051  0.3773  0.1469
  752TMC3    C311110   2.379   2.160  17.142  0.2439 -0.4917  0.3024
  752TMC3    C411111   2.130   2.269  17.107 -0.1191 -0.0994  0.8772
  752TMC3    C511112   2.162   2.207  17.225 -0.1463  0.3724 -0.7912
  752TMC3    C611113   2.288   2.161  17.245  0.2895 -0.4674  0.6267
  752TMC3     C11114   2.189   2.304  16.867 -0.5666 -0.4046  0.1467
  752TMC3     O11115   2.258   2.262  16.773  0.4462  0.0366 -0.5114
  752TMC3     H11116   2.417   2.224  16.937 -1.8679  0.0014 -1.7745
  752TMC3    H111117   2.031   2.310  17.091 -0.8006 -1.3994  1.8314
  752TMC3    H211118   2.305   2.107  17.338 -0.5492 -1.7282  0.0423
  752TMC3    C711119   2.074   2.221  17.337 -0.2112 -1.0333  0.3899
  752TMC3    C811120   2.488   2.077  17.142 -0.5100  0.1276  0.0603
  752TMC3    O111121   2.122   2.181  17.441 -0.8034  0.7873 -0.7707
  752TMC3    O211122   2.525   2.041  17.034 -0.1552 -0.0471  0.0062
  753TMC3    C111123   4.182   3.856  14.094  0.8635 -0.9550  0.4823
  753TMC3    C211124   4.231   3.888  14.219 -0.0338 -0.1980  0.1635
  753TMC3    C311125   4.143   3.919  14.323 -0.0201  0.2497  0.0991
  753TMC3    C411126   4.047   3.865  14.069 -0.3570  0.2771  0.1816
  753TMC3    C511127   3.961   3.908  14.171 -0.0554  0.5906 -0.2692
  753TMC3    C611128   4.002   3.927  14.302  0.3072 -0.1835 -0.3308
  753TMC3     C11129   4.261   3.916  13.994  0.7253 -0.0252 -0.2673
  753TMC3     O11130   4.283   3.857  13.888 -0.0036 -0.1229 -0.3693
  753TMC3     H11131   4.338   3.898  14.234 -0.1394 -0.0875  0.8698
  753TMC3    H111132   4.012   3.835  13.971 -1.5078  2.1465  0.0077
  753TMC3    H211133   3.931   3.929  14.384  3.4455 -1.6363  2.4825
  753TMC3    C711134   3.830   3.950  14.149  0.2581 -0.5420 -0.1530
  753TMC3    C811135   4.204   3.960  14.443 -0.2664  0.5350  0.2793
  753TMC3    O111136   3.795   4.037  14.226 -0.0373  0.0470 -0.1242
  753TMC3    O211137   4.327   3.953  14.451 -0.5221  0.3171  0.7299
  754MPD2     C11138   2.616   2.087  12.701 -0.8479 -0.1697 -0.0891
  754MPD2    C111139   2.509   2.014  12.749 -0.4249  0.1122  0.3230
  754MPD2    C211140   2.425   2.076  12.848 -0.0400  0.2664  0.4227
  754MPD2    C311141   2.449   2.199  12.899  0.0144  1.0645  0.1245
  754MPD2    C411142   2.563   2.264  12.857 -0.0257  0.1373  0.2733
  754MPD2    C511143   2.646   2.209  12.765 -0.1202  0.2944 -0.8618
  754MPD2     H11144   2.334   2.022  12.870 -0.2231 -0.5235 -2.2283
  754MPD2    H111145   2.596   2.356  12.904 -0.6824  0.8109 -0.5513
  754MPD2    H211146   2.683   2.050  12.625 -1.2008 -1.4788  0.2288
  754MPD2    H311147   2.738   2.261  12.742  0.7885 -0.4000  1.2404
  754MPD2     N11148   2.365   2.254  13.001  0.3984  0.1764  0.5494
  754MPD2    H511149   2.388   2.349  13.030  0.6329  0.3605 -0.2228
  754MPD2    N111150   2.491   1.877  12.703  0.3159  0.4875  0.4663
  754MPD2    H711151   2.566   1.834  12.649 -0.3166  0.8867 -0.7200
  755MPD2     C11152   2.055   2.972  13.420 -0.6569 -0.2154  1.4013
  755MPD2    C111153   2.023   2.880  13.513 -0.3691  0.2170  0.4129
  755MPD2    C211154   2.074   2.751  13.484  0.1013 -0.7854  0.3096
  755MPD2    C311155   2.141   2.718  13.374  0.0076 -0.0680  0.1207
  755MPD2    C411156   2.177   2.817  13.280 -0.6711  0.7965 -0.0883
  755MPD2    C511157   2.136   2.939  13.314 -0.5788 -0.5015 -0.4887
  755MPD2     H11158   2.052   2.683  13.566 -0.8440 -1.9073 -0.8799
  755MPD2    H111159   2.229   2.791  13.188 -1.9848 -1.6005 -0.1679
  755MPD2    H211160   2.028   3.075  13.442  1.3757  0.5895  0.1497
  755MPD2    H311161   2.162   3.023  13.250 -1.5981  0.4367  0.3196
  755MPD2     N11162   2.164   2.585  13.334  0.2327  0.0045  0.0971
  755MPD2    H511163   2.196   2.575  13.238 -3.9178 -0.1982 -1.2782
  755MPD2    N111164   1.957   2.902  13.639 -0.8099  0.1796  0.5870
  755MPD2    H711165   1.963   2.829  13.709 -1.3861 -0.9445 -0.5344
  756MPD2     C11166   3.567   2.808   9.670  0.2525 -0.2000  0.3277
  756MPD2    C111167   3.458   2.876   9.628  0.3998 -0.3725  0.0823
  756MPD2    C211168   3.342   2.809   9.597 -0.0007 -0.8295  0.2622
  756MPD2    C311169   3.339   2.671   9.602 -0.1725  0.2051  0.0427
  756MPD2    C411170   3.453   2.595   9.630  0.5708  0.7730 -0.3287
  756MPD2    C511171   3.562   2.669   9.674  0.5446  0.4863 -0.6283
  756MPD2     H11172   3.260   2.857   9.545 -1.9300 -2.1926  2.0626
  756MPD2    H111173   3.465   2.489   9.651 -1.2549  0.6392  0.1072
  756MPD2    H211174   3.664   2.853   9.684 -0.4075  0.7424  1.9869
  756MPD2    H311175   3.650   2.622   9.717  0.1889  0.7507  0.3843
  756MPD2     N11176   3.211   2.610   9.591  0.2305  0.0057  0.6374
  756MPD2    H511177   3.129   2.669   9.597 -0.1655 -0.5695  0.8694
  756MPD2    N111178   3.480   3.016   9.614 -0.2702  0.4398  0.0814
  756MPD2    H711179   3.573   3.052   9.634  0.0491 -0.6163  0.4823
  757MPD2     C11180   2.549   1.878   9.921 -0.0915  0.7759 -0.2021
  757MPD2    C111181   2.478   1.973   9.846 -0.0841 -0.2215  0.3332
  757MPD2    C211182   2.547   2.059   9.763  0.6127  0.1595  0.3879
  757MPD2    C311183   2.685   2.040   9.756  0.6706 -0.2129 -0.4075
  757MPD2    C411184   2.754   1.940   9.828 -0.4032  0.1626  0.6041
  757MPD2    C511185   2.690   1.869   9.921  0.2100 -0.1215 -0.0663
  757MPD2     H11186   2.511   2.154   9.724 -1.2389 -0.1574  1.3297
  757MPD2    H111187   2.862   1.932   9.826 -0.4798 -0.7806  0.2392
  757MPD2    H211188   2.495   1.813   9.989 -1.6259  0.1074 -2.0644
  757MPD2    H311189   2.749   1.806   9.986 -0.1736  0.0012  0.4046
  757MPD2     N11190   2.744   2.138   9.684  0.0332 -0.0060  0.3077
  757MPD2    H511191   2.678   2.209   9.658 -0.2759 -0.2033  0.5552
  757MPD2    N111192   2.342   1.988   9.883 -0.7776  0.0687  0.0951
  757MPD2    H711193   2.310   1.933   9.962 -0.4525 -0.5718 -0.2109
  758MPD2     C11194   2.883   1.708  16.483  0.6089 -0.1912  0.2699
  758MPD2    C111195   3.000   1.694  16.559  0.0519 -0.2190  0.1372
  758MPD2    C211196   3.014   1.781  16.664 -0.1779  0.2927 -0.2592
  758MPD2    C311197   2.946   1.903  16.664  0.0371  0.0307 -0.1587
  758MPD2    C411198   2.850   1.930  16.562  0.3867  0.5980 -0.2557
  758MPD2    C511199   2.819   1.833  16.473  0.0783  0.0152 -0.0656
  758MPD2     H11200   3.087   1.755  16.740 -0.3207  1.7350  0.3831
  758MPD2    H111201   2.800   2.026  16.572  1.5878  0.9902  2.2370
  758MPD2    H211202   2.851   1.628  16.418 -2.0617 -0.6719  2.1909
  758MPD2    H311203   2.731   1.830  16.409  0.2152  0.9861 -0.3120
  758MPD2     N11204   2.967   1.998  16.765  0.1319 -0.2093  0.2801
  758MPD2    H511205   2.899   2.074  16.764 -0.0845 -0.4003  0.3883
  758MPD2    N111206   3.091   1.585  16.550 -0.5855 -0.5139 -0.3505
  758MPD2    H711207   3.051   1.500  16.513  1.3105 -0.6619 -2.1033
  759MPD2     C11208   1.070   0.015  10.040 -0.1648 -0.2089  0.8741
  759MPD2    C111209   1.188   4.668  10.080 -0.0755 -0.6575  0.8380
  759MPD2    C211210   1.308   4.720  10.048  1.1175 -0.7608 -0.5897
  759MPD2    C311211   1.319   0.115   9.984 -0.2073 -1.0451  0.3920
  759MPD2    C411212   1.212   0.185   9.942 -0.3034 -0.9540  0.1470
  759MPD2    C511213   1.088   0.131   9.970  0.0121  0.3386 -0.2905
  759MPD2     H11214   1.399   4.677  10.088  0.6008 -0.9440  0.3932
  759MPD2    H111215   1.213   0.268   9.873 -0.6222 -0.6603  0.4938
  759MPD2    H211216   0.969   4.695  10.046 -0.6837  0.6239 -2.2893
  759MPD2    H311217   0.996   0.169   9.927  0.3132  0.7343 -0.5810
  759MPD2     N11218   1.447   0.160   9.958  0.4366  0.3117  0.1134
  759MPD2    H511219   1.517   0.113  10.014  0.1962  0.7407  0.7744
  759MPD2    N111220   1.185   4.546  10.153  0.2743  0.0113  0.4757
  759MPD2    H711221   1.276   4.507  10.175  1.3732  1.3814 -1.5814
  760MPD2     C11222   1.521   2.715  11.756 -1.4018  1.0063 -0.2511
  760MPD2    C111223   1.531   2.709  11.897 -0.2966  0.0233 -0.2177
  760MPD2    C211224   1.494   2.600  11.971 -0.4060 -0.1786  0.4783
  760MPD2    C311225   1.462   2.487  11.903  0.1316 -0.6197  0.1712
  760MPD2    C411226   1.464   2.487  11.765 -0.1821  0.2579  0.0590
  760MPD2    C511227   1.490   2.603  11.695 -0.3026  0.3063  0.0004
  760MPD2     H11228   1.497   2.602  12.079  1.0197  0.1724  0.4364
  760MPD2    H111229   1.436   2.402  11.705 -0.6293 -1.0896  2.1947
  760MPD2    H211230   1.554   2.796  11.691  0.7660 -0.7333 -1.3299
  760MPD2    H311231   1.488   2.597  11.587  0.7890  2.7119 -0.1459
  760MPD2     N11232   1.441   2.362  11.967 -0.4530  0.7471 -0.7573
  760MPD2    H511233   1.460   2.280  11.910  0.7186 -0.0954  0.8487
  760MPD2    N111234   1.579   2.828  11.951 -0.5979 -0.3013 -0.2467
  760MPD2    H711235   1.606   2.895  11.879  0.2342 -0.7102 -0.3163
  761MPD2     C11236   2.853   2.043  10.862  0.1219 -0.0651 -0.0279
  761MPD2    C111237   2.950   1.996  10.781  0.0774 -0.6377 -0.0356
  761MPD2    C211238   3.025   2.099  10.718 -0.1185  0.7764  0.0235
  761MPD2    C311239   3.013   2.231  10.742  0.0238 -0.2148  0.7453
  761MPD2    C411240   2.912   2.277  10.819  0.1797  1.0852 -0.1099
  761MPD2    C511241   2.835   2.176  10.880  0.0770 -0.4976 -0.1537
  761MPD2     H11242   3.101   2.060  10.652  0.1227  1.2175  0.0469
  761MPD2    H111243   2.892   2.383  10.834 -0.3674  1.0831 -0.8124
  761MPD2    H211244   2.785   1.975  10.912  0.9392  0.1842  1.4126
  761MPD2    H311245   2.756   2.204  10.949  1.0558  0.0075  0.7635
  761MPD2     N11246   3.107   2.331  10.693 -0.2395  0.1626  0.3810
  761MPD2    H511247   3.096   2.428  10.719  2.3112 -0.1035  2.3961
  761MPD2    N111248   2.950   1.860  10.749  0.4103 -0.1311 -0.3282
  761MPD2    H711249   2.902   1.803  10.818 -0.7933  0.3752 -0.7331
  762MPD2     C11250   3.387   1.063  10.624  0.2389 -0.1503  0.3240
  762MPD2    C111251   3.414   1.196  10.611 -0.0080  0.3460 -0.3890
  762MPD2    C211252   3.527   1.239  10.539 -0.1259 -0.3641 -0.0984
  762MPD2    C311253   3.616   1.137  10.498  0.8546 -0.1525 -0.3387
  762MPD2    C411254   3.582   1.000  10.511  0.3935  0.3186 -0.2115
  762MPD2    C511255   3.466   0.963  10.572 -0.4007 -0.6481 -0.5506
  762MPD2     H11256   3.561   1.342  10.540  2.0427 -1.0891  1.3447
  762MPD2    H111257   3.654   0.926  10.479  0.0160 -1.7060  3.4861
  762MPD2    H211258   3.300   1.037  10.683  0.2176 -0.6234  0.0811
  762MPD2    H311259   3.434   0.860  10.580 -0.1713 -0.5255  1.7866
  762MPD2     N11260   3.744   1.157  10.442 -0.3262 -0.0215 -0.8466
  762MPD2    H511261   3.799   1.073  10.426  0.9521  0.7604 -0.5814
  762MPD2    N111262   3.315   1.282  10.668  0.3235 -0.8638 -0.5723
  762MPD2    H711263   3.256   1.237  10.736 -1.2714 -0.2511 -1.5473
  763MPD2     C11264   4.665   1.847  16.629 -0.1826  0.5330  0.5523
  763MPD2    C111265   4.618   1.947  16.547 -0.2002 -0.0276  0.2725
  763MPD2    C211266   4.607   2.072  16.599  0.4280  0.7316 -0.3900
  763MPD2    C311267   4.653   2.097  16.729 -0.5010  0.4509 -0.1547
  763MPD2    C411268   4.702   1.999  16.803  0.4474  0.7883  0.6203
  763MPD2    C511269   4.719   1.873  16.753 -0.0611  0.2447 -0.6843
  763MPD2     H11270   4.552   2.145  16.539  1.7881  0.1711 -2.3172
  763MPD2    H111271   0.005   2.018  16.907  3.5763  2.5601 -0.4301
  763MPD2    H211272   4.663   1.745  16.593  2.6690  1.4347 -2.1525
  763MPD2    H311273   0.017   1.791  16.820 -1.6496 -0.4370 -1.0747
  763MPD2     N11274   4.663   2.231  16.780 -0.1356 -0.4017 -0.1154
  763MPD2    H511275   0.001   2.243  16.862  1.3095  1.5999 -1.4556
  763MPD2    N111276   4.559   1.929  16.418  0.3766 -0.0815  0.7784
  763MPD2    H711277   4.508   2.012  16.389  0.5641  0.0950  0.9565
  764MPD2     C11278   2.819   4.678   0.137  0.3153  0.0974  0.3022
  764MPD2    C111279   2.775   4.575   0.055  1.6311  0.1650  0.7483
  764MPD2    C211280   2.757   4.451   0.109 -0.2563 -0.0602  0.1682
  764MPD2    C311281   2.760   4.443   0.248  0.0678  0.1959 -0.4945
  764MPD2    C411282   2.812   4.540   0.325  0.1766 -0.3696  0.5077
  764MPD2    C511283   2.848   4.651   0.269  0.3638  0.3055  0.1475
  764MPD2     H11284   2.730   4.370   0.043 -0.7599  1.0132 -0.9398
  764MPD2    H111285   2.828   4.525   0.432  0.5448 -0.5053  0.4346
  764MPD2    H211286   2.841   0.056   0.098 -0.9414 -0.0885 -0.8923
  764MPD2    H311287   2.876   0.017   0.328 -2.4500  0.8223  0.7145
  764MPD2     N11288   2.710   4.320   0.289 -0.2660 -0.2135 -0.0070
  764MPD2    H511289   2.686   4.253   0.217  0.2062  1.0214 -1.3209
  764MPD2    N111290   2.741   4.592  17.605 -0.5357 -0.4709 -0.0228
  764MPD2    H711291   2.691   4.511  17.569 -0.2992 -0.5642 -0.1387
  765MPD2     C11292   2.550   1.559  15.418 -0.2533 -0.8448  0.5253
  765MPD2    C111293   2.613   1.591  15.534  0.1914 -0.3459  0.7053
  765MPD2    C211294   2.749   1.559  15.541  0.7428  0.2208  0.3595
  765MPD2    C311295   2.815   1.489  15.440  0.0575  0.2680 -0.6178
  765MPD2    C411296   2.741   1.453  15.322  0.6449 -0.2749 -0.0382
  765MPD2    C511297   2.613   1.495  15.313  0.4850  0.1589  0.1128
  765MPD2     H11298   2.803   1.577  15.634  1.6518 -1.1355  0.1027
  765MPD2    H111299   2.779   1.401  15.235  0.2066 -0.2631 -0.2357
  765MPD2    H211300   2.444   1.581  15.410 -0.3964 -1.4284  0.8129
  765MPD2    H311301   2.557   1.467  15.224 -0.2558  0.6572  0.4245
  765MPD2     N11302   2.945   1.449  15.459  0.0404 -0.1569 -0.4122
  765MPD2    H511303   2.994   1.489  15.539 -2.9220 -0.1993  1.4040
  765MPD2    N111304   2.542   1.653  15.635 -0.1220  0.5669 -0.1150
  765MPD2    H711305   2.443   1.668  15.617  0.1589  1.2196 -1.1245
  766MPD2     C11306   1.907   1.812  15.592  0.5669  0.2821  0.8478
  766MPD2    C111307   2.035   1.763  15.573 -0.4349 -0.9809 -1.1002
  766MPD2    C211308   2.077   1.715  15.454  0.4357 -0.6750 -0.4967
  766MPD2    C311309   2.000   1.720  15.341 -0.6925 -0.2526  0.0598
  766MPD2    C411310   1.869   1.763  15.363  0.3062  0.9522  0.1126
  766MPD2    C511311   1.827   1.819  15.480  0.1819  0.4477 -0.4409
  766MPD2     H11312   2.182   1.690  15.445  0.2658 -0.7981 -2.2110
  766MPD2    H111313   1.804   1.787  15.280  2.9950 -0.6472 -2.4772
  766MPD2    H211314   1.871   1.861  15.682 -1.6950  2.7829 -1.3969
  766MPD2    H311315   1.729   1.865  15.482  0.5724  1.3223 -1.0217
  766MPD2     N11316   2.045   1.701  15.212  0.0121 -0.0737 -0.3589
  766MPD2    H511317   1.982   1.725  15.135 -0.5275  3.1254  1.0666
  766MPD2    N111318   2.131   1.768  15.674  0.7684  0.4772  0.1608
  766MPD2    H711319   2.220   1.720  15.661 -0.4355 -1.4394 -1.0463
  767MPD2     C11320   1.621   1.997  15.257  0.5163  0.5378 -0.3663
  767MPD2    C111321   1.743   2.025  15.205 -0.1494  0.2333  0.2165
  767MPD2    C211322   1.761   1.987  15.072  0.3347  0.2165  0.3332
  767MPD2    C311323   1.666   1.933  14.991  0.5529 -0.1198  0.0360
  767MPD2    C411324   1.540   1.900  15.057 -0.3588  0.6706 -0.2776
  767MPD2    C511325   1.521   1.943  15.183 -0.1240 -1.3944 -0.2123
  767MPD2     H11326   1.857   1.996  15.022  0.6187  0.0214  0.8441
  767MPD2    H111327   1.453   1.861  15.005  1.2625  0.6567 -3.0140
  767MPD2    H211328   1.603   2.020  15.361  0.4105 -1.2589  0.0163
  767MPD2    H311329   1.428   1.919  15.234  0.7720 -1.2887  1.4869
  767MPD2     N11330   1.705   1.883  14.864 -0.6841  0.6724 -0.5035
  767MPD2    H511331   1.801   1.896  14.833  0.1096 -2.1267  0.7213
  767MPD2    N111332   1.838   2.082  15.289  0.7661  0.1869 -0.1043
  767MPD2    H711333   1.814   2.096  15.386 -2.3215 -0.2684 -0.8137
  768MPD2     C11334   3.234   0.237  10.714  0.5805  0.1077 -0.4261
  768MPD2    C111335   3.186   0.214  10.839 -0.1631 -0.3363 -0.4503
  768MPD2    C211336   3.272   0.182  10.941  0.4856  0.3130 -0.4806
  768MPD2    C311337   3.412   0.180  10.928  0.0469  0.1004 -0.4626
  768MPD2    C411338   3.455   0.224  10.808  0.3370  0.5045  0.2941
  768MPD2    C511339   3.373   0.249  10.699 -0.4407 -0.1851  0.1767
  768MPD2     H11340   3.225   0.152  11.034 -0.7462  0.1260 -1.1610
  768MPD2    H111341   3.560   0.234  10.783  0.1816 -1.8776 -1.3316
  768MPD2    H211342   3.167   0.254  10.630  1.0793  2.4036 -0.3660
  768MPD2    H311343   3.416   0.264  10.600 -0.6305  0.7385  0.2350
  768MPD2     N11344   3.501   0.142  11.025  0.4622 -0.3499  0.3317
  768MPD2    H511345   3.599   0.169  11.018 -0.1444  2.3473  2.3374
  768MPD2    N111346   3.049   0.214  10.875 -0.1512  0.6678  0.5461
  768MPD2    H711347   3.041   0.199  10.975 -0.1797 -1.8661  0.1707
  769MPD2     C11348   3.827   3.137  14.953 -0.3238  0.2311 -0.3140
  769MPD2    C111349   3.769   3.233  15.034 -0.1614  0.3838  0.5320
  769MPD2    C211350   3.825   3.269  15.159 -0.1687 -0.1604  0.3356
  769MPD2    C311351   3.932   3.191  15.197 -0.3139 -0.4418  0.3306
  769MPD2    C411352   3.990   3.098  15.114 -0.4880 -0.4251 -1.0975
  769MPD2    C511353   3.934   3.069  14.996 -0.4141 -0.1808  0.8642
  769MPD2     H11354   3.780   3.340  15.227 -2.2674  0.5020 -1.7275
  769MPD2    H111355   4.077   3.036  15.135 -0.0460  0.5291 -0.1639
  769MPD2    H211356   3.781   3.104  14.860 -1.8486 -0.1771  0.5769
  769MPD2    H311357   3.980   2.989  14.937 -0.6427  1.6331 -1.7816
  769MPD2     N11358   3.981   3.222  15.327 -0.6140 -0.3748  0.3412
  769MPD2    H511359   3.941   3.305  15.368  0.5766  0.2285  0.2974
  769MPD2    N111360   3.644   3.275  14.988 -0.5427 -0.1788  0.0349
  769MPD2    H711361   3.612   3.253  14.895 -2.3641  0.1831  0.5803
  770MPD2     C11362   3.014   3.046  15.716  0.2262 -0.0592  1.0533
  770MPD2    C111363   3.065   2.953  15.627  0.7075  0.1642  0.2255
  770MPD2    C211364   3.105   2.989  15.499 -0.4693 -0.0318  0.8943
  770MPD2    C311365   3.101   3.119  15.466 -0.4723  0.2747 -0.1648
  770MPD2    C411366   3.049   3.212  15.549 -0.5901 -0.0261  0.6715
  770MPD2    C511367   3.007   3.179  15.674  0.2496 -0.5824 -0.0693
  770MPD2     H11368   3.158   2.917  15.439 -0.7638  1.5742 -1.2888
  770MPD2    H111369   3.048   3.319  15.530  2.1790  0.1283  1.4129
  770MPD2    H211370   2.997   3.027  15.822 -1.8558  0.4769  0.8059
  770MPD2    H311371   2.972   3.259  15.739  1.6446 -0.5663  0.6480
  770MPD2     N11372   3.147   3.149  15.342  0.1933  0.2573 -0.0113
  770MPD2    H511373   3.168   3.064  15.289  1.5119  0.5390  0.0588
  770MPD2    N111374   3.079   2.825  15.685 -0.3134  0.1525  0.2239
  770MPD2    H711375   3.047   2.813  15.781 -1.8641 -0.5752 -0.3714
  771MPD2     C11376   4.534   1.199  13.932 -0.8104 -0.6848 -0.2210
  771MPD2    C111377   4.450   1.299  13.873  0.4721  0.6278  0.4810
  771MPD2    C211378   4.342   1.261  13.796 -0.2592  0.5371 -1.0082
  771MPD2    C311379   4.305   1.124  13.797  0.3765  0.0161 -0.5918
  771MPD2    C411380   4.387   1.032  13.865  0.4386 -0.4892  0.0631
  771MPD2    C511381   4.490   1.072  13.932  0.2968 -0.0099  0.0304
  771MPD2     H11382   4.282   1.340  13.751 -1.5619  0.5020  0.6773
  771MPD2    H111383   4.361   0.927  13.865  1.5526 -0.7669  1.4991
  771MPD2    H211384   4.621   1.226  13.991 -2.0220  1.5318  0.5204
  771MPD2    H311385   4.544   0.991  13.979  0.7452 -0.4159 -1.1736
  771MPD2     N11386   4.191   1.091  13.722 -0.1290 -0.6254  0.4364
  771MPD2    H511387   4.132   1.168  13.692  2.9407  1.2683 -0.7463
  771MPD2    N111388   4.473   1.439  13.890  0.3627  0.3407 -0.2743
  771MPD2    H711389   4.392   1.496  13.867  0.6287  0.5492 -0.6992
  772MPD2     C11390   4.212   2.103  14.019  0.3221  0.6971 -0.2224
  772MPD2    C111391   4.194   1.988  13.938 -0.2002  0.3189  0.4846
  772MPD2    C211392   4.065   1.951  13.902 -0.4712  0.3798 -0.1820
  772MPD2    C311393   3.955   2.025  13.942 -0.2391  0.6776 -0.4897
  772MPD2    C411394   3.981   2.135  14.027 -0.1156 -0.3510 -0.4944
  772MPD2    C511395   4.106   2.177  14.052 -0.1725 -0.1591  0.9445
  772MPD2     H11396   4.057   1.859  13.846  0.9643 -0.1781  0.5285
  772MPD2    H111397   3.906   2.195  14.076  1.8109  1.6269  0.0450
  772MPD2    H211398   4.312   2.142  14.034 -0.2501  1.1368  2.2887
  772MPD2    H311399   4.128   2.272  14.099  0.4830 -0.2066  0.7270
  772MPD2     N11400   3.822   1.983  13.930  0.4967  0.5233  0.4394
  772MPD2    H511401   3.752   2.034  13.984 -1.3603  0.3521 -1.7681
  772MPD2    N111402   4.305   1.902  13.905 -0.3432 -0.7006 -0.0353
  772MPD2    H711403   4.286   1.810  13.868  0.5335 -1.0325  0.3489
  773MPD2     C11404   3.126   2.939   0.759  0.6082 -0.0771 -0.1482
  773MPD2    C111405   3.150   2.828   0.681 -0.2340 -0.4258 -0.0645
  773MPD2    C211406   3.197   2.711   0.732 -0.6786 -0.4014  0.7510
  773MPD2    C311407   3.240   2.710   0.856 -0.9073 -0.6059  0.1001
  773MPD2    C411408   3.205   2.817   0.942 -0.2745 -0.6396 -0.5563
  773MPD2    C511409   3.143   2.924   0.890 -0.2283  0.2119 -0.2057
  773MPD2     H11410   3.197   2.622   0.671  1.8425 -1.8400  2.8323
  773MPD2    H111411   3.214   2.815   1.050 -0.8942  0.2648 -0.4908
  773MPD2    H211412   3.073   3.026   0.721 -1.6362 -0.9365  0.9716
  773MPD2    H311413   3.113   3.013   0.946  0.6965  1.0006 -0.9661
  773MPD2     N11414   3.322   2.606   0.902  0.7900  0.4283  0.2025
  773MPD2    H511415   3.335   2.525   0.842  0.2216  0.9863 -0.6536
  773MPD2    N111416   3.109   2.830   0.548 -0.1134  0.6418  0.3119
  773MPD2    H711417   3.096   2.742   0.499  0.6030  0.5593  0.2590
  774MPD2     C11418   2.182   1.377  13.566  0.0323  0.2295  0.4350
  774MPD2    C111419   2.298   1.444  13.573 -0.3679 -0.2701 -0.0443
  774MPD2    C211420   2.362   1.473  13.459  0.0091 -0.2395 -0.1336
  774MPD2    C311421   2.315   1.442  13.336  0.7319  0.8000 -0.3773
  774MPD2    C411422   2.195   1.370  13.333  0.0670 -0.5564  0.6941
  774MPD2    C511423   2.119   1.351  13.447  0.0235 -0.6802 -0.3074
  774MPD2     H11424   2.455   1.528  13.461 -1.6768  2.6098 -0.6453
  774MPD2    H111425   2.149   1.332  13.242  0.8410  0.6405 -0.1891
  774MPD2    H211426   2.125   1.348  13.653 -0.2425 -0.4123  0.0428
  774MPD2    H311427   2.027   1.294  13.448 -0.8481  0.7572  1.6943
  774MPD2     N11428   2.381   1.480  13.217 -0.2558  0.4782 -0.4116
  774MPD2    H511429   2.480   1.499  13.220  0.0883 -1.5185  0.8457
  774MPD2    N111430   2.366   1.461  13.692  0.2019  0.2881 -0.6152
  774MPD2    H711431   2.453   1.514  13.686  0.9679 -0.8775  0.2119
  775MPD2     C11432   3.960   3.007  16.308  0.1178  0.3166  0.4541
  775MPD2    C111433   3.922   3.143  16.293  0.1665  0.7666  0.3354
  775MPD2    C211434   4.011   3.216  16.229  0.3363 -0.9525  0.1740
  775MPD2    C311435   4.138   3.176  16.179 -0.0016 -0.8698 -0.3374
  775MPD2    C411436   4.166   3.042  16.197  0.5105  0.5365  0.2929
  775MPD2    C511437   4.080   2.960  16.258  0.5945 -0.8985 -0.3563
  775MPD2     H11438   3.986   3.321  16.223  1.0256 -0.8933 -1.7720
  775MPD2    H111439   4.258   3.004  16.155  0.3481 -0.4894  0.8865
  775MPD2    H211440   3.896   2.932  16.352  0.0320  0.5953  0.8064
  775MPD2    H311441   4.096   2.854  16.273  0.5207 -1.0472 -1.2839
  775MPD2     N11442   4.231   3.262  16.112 -0.5330  0.5576 -0.2890
  775MPD2    H511443   4.309   3.222  16.061 -0.0274  1.8775 -0.5636
  775MPD2    N111444   3.803   3.196  16.361 -0.0326  0.1305 -0.2348
  775MPD2    H711445   3.747   3.127  16.410  1.8226 -0.8712  0.4746
  776MPD2     C11446   4.025   3.172  11.612 -0.0978 -0.5900  0.3238
  776MPD2    C111447   3.891   3.148  11.627 -0.2315 -0.0872 -0.7412
  776MPD2    C211448   3.809   3.256  11.638 -0.3121 -0.0413 -0.1635
  776MPD2    C311449   3.858   3.389  11.627 -0.5447  0.5541 -0.2447
  776MPD2    C411450   3.995   3.409  11.605 -0.1904 -0.2238 -0.5096
  776MPD2    C511451   4.079   3.302  11.598  1.0762 -0.2133 -0.8536
  776MPD2     H11452   3.702   3.246  11.656 -0.0233  1.2365  2.2854
  776MPD2    H111453   4.047   3.503  11.599 -1.3698  0.4272 -0.4488
  776MPD2    H211454   4.096   3.098  11.578  0.5912 -0.0326  0.5495
  776MPD2    H311455   4.185   3.306  11.575  0.6857  2.4535 -2.1501
  776MPD2     N11456   3.768   3.501  11.637  0.0856  0.7425  0.6104
  776MPD2    H511457   3.813   3.592  11.628  0.2030  0.3665 -2.6117
  776MPD2    N111458   3.845   3.016  11.607 -0.5351 -0.1140  0.1000
  776MPD2    H711459   3.905   2.947  11.565  0.5942  0.0625  1.4231
  777MPD2     C11460   3.378   1.284   1.399 -0.2173 -0.3810 -0.8137
  777MPD2    C111461   3.401   1.171   1.470  0.1024  0.3784 -0.5427
  777MPD2    C211462   3.406   1.049   1.401 -0.3797 -0.0700  0.0337
  777MPD2    C311463   3.378   1.037   1.270 -0.0883 -0.0877 -0.3998
  777MPD2    C411464   3.365   1.155   1.201 -0.3896 -0.4645  0.3005
  777MPD2    C511465   3.366   1.279   1.263  0.2857  0.2412  0.6035
  777MPD2     H11466   3.421   0.953   1.451  1.7618 -0.0275 -0.5236
  777MPD2    H111467   3.344   1.157   1.095  0.0568 -0.3575  0.2141
  777MPD2    H211468   3.368   1.381   1.445 -3.5360 -0.0582 -2.1943
  777MPD2    H311469   3.370   1.371   1.206 -1.2113 -0.4518 -0.5914
  777MPD2     N11470   3.365   0.906   1.215 -0.3620 -0.2340 -0.3768
  777MPD2    H511471   3.370   0.834   1.286  1.3977  0.7252  0.4649
  777MPD2    N111472   3.422   1.183   1.613 -1.0939  0.4502  0.1136
  777MPD2    H711473   3.414   1.272   1.660  1.4936 -0.2737  1.9624
  778MPD2     C11474   4.457   1.528  15.011 -0.0397  0.3837 -0.2590
  778MPD2    C111475   4.459   1.427  14.916 -0.0980 -0.4753 -0.4732
  778MPD2    C211476   4.527   1.433  14.794 -0.2864  0.1667 -0.3407
  778MPD2    C311477   4.590   1.545  14.773 -0.3217 -0.2466 -0.1193
  778MPD2    C411478   4.586   1.645  14.863  0.4259 -0.2320 -0.1703
  778MPD2    C511479   4.522   1.645  14.983 -0.0247 -0.3908  0.2033
  778MPD2     H11480   4.527   1.353  14.721 -1.2600 -0.0511 -0.1078
  778MPD2    H111481   4.658   1.727  14.858 -0.2217  0.5189  3.0831
  778MPD2    H211482   4.401   1.517  15.103 -0.2753 -4.0483 -0.9739
  778MPD2    H311483   4.527   1.730  15.050  1.1595 -0.4051  0.1281
  778MPD2     N11484   4.677   1.551  14.664  0.1825  0.3703 -0.4568
  778MPD2    H511485   4.670   1.482  14.590 -1.7456 -1.5026  1.4696
  778MPD2    N111486   4.388   1.310  14.945 -0.3428 -0.2721  0.1220
  778MPD2    H711487   4.381   1.250  14.863 -0.9402 -0.0737  0.0268
  779MPD2     C11488   3.669   0.289  14.413  0.4805  0.4026  0.2695
  779MPD2    C111489   3.796   0.308  14.468  0.3186 -0.3666  0.3883
  779MPD2    C211490   3.883   0.393  14.405  0.2308 -0.9008 -0.3042
  779MPD2    C311491   3.854   0.463  14.295 -0.7756  0.9368  0.1779
  779MPD2    C411492   3.730   0.439  14.234  0.5024 -0.0067 -0.2711
  779MPD2    C511493   3.640   0.356  14.298  0.5341 -0.2897  0.4363
  779MPD2     H11494   3.979   0.402  14.454 -0.2647 -0.4191  0.5726
  779MPD2    H111495   3.701   0.473  14.135  2.1368 -1.0894 -1.1152
  779MPD2    H211496   3.605   0.213  14.456  0.2289  1.2144  1.3294
  779MPD2    H311497   3.545   0.324  14.256  0.8872  0.1926 -0.7265
  779MPD2     N11498   3.963   0.546  14.239 -0.2435 -0.4002  0.0751
  779MPD2    H511499   4.036   0.560  14.307  1.5248 -0.6198 -1.7589
  779MPD2    N111500   3.846   0.242  14.582  1.0458 -0.3641  0.8449
  779MPD2    H711501   3.945   0.255  14.600  0.2480  4.2384  1.8538
  780MPD2     C11502   2.793   4.321   0.897 -0.1601  0.4742 -0.2648
  780MPD2    C111503   2.872   4.244   0.810  0.5607 -0.2397  0.4525
  780MPD2    C211504   2.948   4.314   0.716  0.4646  0.6647 -0.2806
  780MPD2    C311505   2.934   4.448   0.701 -1.4025  0.8104  0.0930
  780MPD2    C411506   2.851   4.514   0.791 -0.1418 -0.4618  0.3875
  780MPD2    C511507   2.783   4.456   0.890 -0.1743  0.2163  0.1965
  780MPD2     H11508   3.032   4.266   0.668 -0.7273 -1.9062  0.2496
  780MPD2    H111509   2.841   4.622   0.780  2.7046 -0.0845  1.4009
  780MPD2    H211510   2.747   4.261   0.975  1.4095  0.4587  0.6380
  780MPD2    H311511   2.711   4.503   0.956 -0.5940 -2.6149  1.7118
  780MPD2     N11512   3.037   4.512   0.627 -0.1149 -0.1164 -0.1103
  780MPD2    H511513   3.092   4.454   0.564  1.3839  1.6690 -0.4825
  780MPD2    N111514   2.870   4.107   0.814 -0.4329  0.0334  0.4211
  780MPD2    H711515   2.853   4.069   0.906 -0.1101 -0.8861  0.1001
  781MPD2     C11516   0.708   2.140  12.140  0.5872 -0.2458 -0.2473
  781MPD2    C111517   0.729   2.003  12.157  0.2481  0.6807 -0.0518
  781MPD2    C211518   0.833   1.944  12.087 -0.4718  0.4571  0.1904
  781MPD2    C311519   0.911   2.021  12.004 -0.6241 -0.4339  0.5700
  781MPD2    C411520   0.889   2.153  11.989 -0.0128  0.8371 -0.2845
  781MPD2    C511521   0.790   2.217  12.060 -0.6353 -0.0715 -0.5307
  781MPD2     H11522   0.849   1.839  12.104  1.8182  0.6712 -0.7116
  781MPD2    H111523   0.945   2.214  11.920  0.0188  2.2774  1.0127
  781MPD2    H211524   0.621   2.192  12.180 -0.6624 -1.8965 -0.8322
  781MPD2    H311525   0.760   2.318  12.033 -2.7892 -0.6989 -0.5395
  781MPD2     N11526   1.024   1.971  11.933  0.5762  0.3018  0.1385
  781MPD2    H511527   1.077   2.044  11.886  1.1780 -0.9097 -1.0476
  781MPD2    N111528   0.656   1.923  12.247 -0.1100 -0.2725  0.3799
  781MPD2    H711529   0.682   1.825  12.254  1.5276  0.0438 -1.2283
  782MPD2     C11530   4.007   2.568   9.870  0.8004  0.0919 -0.3945
  782MPD2    C111531   4.116   2.563   9.957 -0.0627  0.2589  0.3485
  782MPD2    C211532   4.150   2.681  10.018 -0.2430 -0.7282 -0.3547
  782MPD2    C311533   4.066   2.796  10.013  0.4642 -0.1811 -0.3107
  782MPD2    C411534   3.965   2.795   9.925  0.4527 -0.1352 -1.7364
  782MPD2    C511535   3.936   2.683   9.853 -0.2287 -0.4325 -0.0074
  782MPD2     H11536   4.222   2.685  10.098 -0.4933 -2.2002 -0.0491
  782MPD2    H111537   3.898   2.879   9.912 -1.2340 -1.0294  1.0479
  782MPD2    H211538   3.985   2.487   9.801 -1.6093  1.3504 -1.1017
  782MPD2    H311539   3.858   2.693   9.778 -2.2289 -2.5462  1.8100
  782MPD2     N11540   4.091   2.894  10.112 -0.2179 -0.1280  0.2684
  782MPD2    H511541   4.176   2.888  10.167 -0.0617 -1.0759 -0.0873
  782MPD2    N111542   4.178   2.439   9.983  0.0031  0.0556 -0.0724
  782MPD2    H711543   4.134   2.355   9.946  1.5136 -1.4295  1.4786
  783MPD2     C11544   3.596   2.041  10.274 -0.1410  0.2500  0.1220
  783MPD2    C111545   3.647   2.165  10.296 -0.0683 -0.0381  0.7385
  783MPD2    C211546   3.777   2.192  10.270  0.3375 -1.0206 -0.1298
  783MPD2    C311547   3.863   2.090  10.224  0.3980  0.1180  0.1554
  783MPD2    C411548   3.811   1.965  10.216  0.2673 -0.5531  0.2078
  783MPD2    C511549   3.683   1.940  10.250 -0.8005 -0.2098  0.4496
  783MPD2     H11550   3.808   2.296  10.276 -2.5204 -0.0312 -2.1899
  783MPD2    H111551   3.880   1.883  10.202 -0.3706 -1.0937  0.2489
  783MPD2    H211552   3.494   2.020  10.306 -0.6590  0.7637 -1.1990
  783MPD2    H311553   3.641   1.840  10.249 -0.8743 -0.1795  0.6233
  783MPD2     N11554   4.005   2.122  10.212  0.2129  0.5326 -0.3784
  783MPD2    H511555   4.037   2.216  10.230  1.3389  0.1301 -0.3092
  783MPD2    N111556   3.563   2.265  10.337 -0.4791  0.7910 -0.2210
  783MPD2    H711557   3.467   2.233  10.337 -0.4009  0.5324 -2.1259
  784MPD2     C11558   0.444   3.169   1.668 -0.1991  0.3688  0.1908
  784MPD2    C111559   0.504   3.276   1.711 -0.0263  0.1031 -0.0113
  784MPD2    C211560   0.435   3.395   1.697 -0.2164  0.4465  0.1073
  784MPD2    C311561   0.305   3.407   1.649  0.0829 -0.2918 -0.0233
  784MPD2    C411562   0.246   3.293   1.601 -0.7860  0.2812  0.8523
  784MPD2    C511563   0.320   3.171   1.607 -0.1780 -0.9450  0.0333
  784MPD2     H11564   0.480   3.490   1.725 -2.2471  0.9755  1.6110
  784MPD2    H111565   0.149   3.288   1.553  0.0051 -1.3764 -0.5980
  784MPD2    H211566   0.488   3.074   1.696  0.6098 -0.1042 -2.7108
  784MPD2    H311567   0.273   3.084   1.563 -2.8877  0.8614 -0.6523
  784MPD2     N11568   0.239   3.531   1.641  0.5294  0.1638 -0.3224
  784MPD2    H511569   0.300   3.605   1.675  1.8018 -2.1300  2.3277
  784MPD2    N111570   0.639   3.283   1.760 -0.2589  0.1561  0.4965
  784MPD2    H711571   0.679   3.375   1.775 -1.9900  0.7525  1.6114
  785MPD2     C11572   0.934   0.440  10.027 -0.2661 -0.5281  0.0601
  785MPD2    C111573   0.922   0.529  10.130 -0.5539  0.3350  0.5475
  785MPD2    C211574   0.791   0.578  10.153  0.5374 -0.6615  0.0809
  785MPD2    C311575   0.681   0.538  10.082 -0.1552  0.1630  0.3936
  785MPD2    C411576   0.694   0.440   9.993  0.1103  0.4898  0.2053
  785MPD2    C511577   0.823   0.398   9.964  0.7959  0.3036 -0.0824
  785MPD2     H11578   0.774   0.641  10.240 -0.3155 -0.6322 -0.1050
  785MPD2    H111579   0.613   0.410   9.928  0.5840  0.9651 -0.6166
  785MPD2    H211580   1.032   0.393  10.017 -0.7564 -1.9148  1.8535
  785MPD2    H311581   0.829   0.328   9.881 -2.2160  2.4805 -2.1377
  785MPD2     N11582   0.561   0.602  10.123 -0.5883 -0.4022 -0.0030
  785MPD2    H511583   0.567   0.676  10.193 -1.7528 -0.3957  0.0805
  785MPD2    N111584   1.036   0.566  10.198 -0.5258  0.2535  0.3799
  785MPD2    H711585   1.125   0.529  10.169 -0.6363  0.8646 -0.7173
  786MPD2     C11586   0.092   4.350  15.122  0.2146  0.4672 -0.0664
  786MPD2    C111587   0.087   4.227  15.190  0.0516  0.4502  0.1505
  786MPD2    C211588   0.159   4.226  15.306  0.8728 -0.4289  0.1656
  786MPD2    C311589   0.225   4.332  15.363 -0.2790  0.2417 -0.1449
  786MPD2    C411590   0.217   4.449  15.305 -0.4971  0.4256  0.5934
  786MPD2    C511591   0.150   4.461  15.182  0.1542  0.0460  0.7461
  786MPD2     H11592   0.159   4.131  15.358 -0.4223 -0.3754  0.2790
  786MPD2    H111593   0.262   4.541  15.340 -0.8939 -0.0148  2.2631
  786MPD2    H211594   0.051   4.366  15.022 -1.1188 -0.5848  0.3077
  786MPD2    H311595   0.144   4.553  15.126 -0.6465 -0.2694  0.3108
  786MPD2     N11596   0.294   4.315  15.481 -0.2455 -0.1546  0.2112
  786MPD2    H511597   0.323   4.393  15.539 -0.4737 -0.3903  0.6462
  786MPD2    N111598   0.031   4.108  15.142  0.8854 -0.0719 -0.4723
  786MPD2    H711599   0.042   4.025  15.200  0.1180 -0.9981 -1.6684
  787MPD2     C11600   4.669   3.561  15.462 -1.1040 -0.4137 -0.2106
  787MPD2    C111601   4.719   3.549  15.332 -0.5771  0.2984  0.6968
  787MPD2    C211602   0.105   3.463  15.311  1.3247  0.8286  0.3999
  787MPD2    C311603   0.161   3.393  15.411 -0.1789 -0.1418 -0.7630
  787MPD2    C411604   0.110   3.413  15.535 -0.1034 -0.6678 -0.5153
  787MPD2    C511605   0.012   3.501  15.564  0.4168 -0.2846 -0.0234
  787MPD2     H11606   0.146   3.453  15.211 -1.3711 -0.1640 -0.6292
  787MPD2    H111607   0.148   3.349  15.614 -1.4336  0.6817  1.2103
  787MPD2    H211608   4.585   3.626  15.486 -0.0630  0.9410 -0.2552
  787MPD2    H311609   4.710   3.526  15.667 -0.6229  1.2003 -0.6184
  787MPD2     N11610   0.281   3.328  15.392 -0.2001 -0.2385 -0.3881
  787MPD2    H511611   0.307   3.321  15.294  1.1198  1.5866 -0.1608
  787MPD2    N111612   4.662   3.635  15.236  0.2457  0.3492 -0.0608
  787MPD2    H711613   4.609   3.706  15.286 -1.0022 -2.1534  2.2002
  788MPD2     C11614   2.207   2.827   0.938 -0.0703  0.2214  0.3094
  788MPD2    C111615   2.100   2.752   0.894  0.1214 -0.3528  0.0809
  788MPD2    C211616   2.000   2.814   0.817 -0.4366  0.3308 -0.3304
  788MPD2    C311617   2.008   2.948   0.777  0.4992  0.4048  0.3938
  788MPD2    C411618   2.115   3.018   0.826  0.1209  0.4451 -0.2019
  788MPD2    C511619   2.218   2.959   0.899  0.0988 -0.6130  0.0129
  788MPD2     H11620   1.933   2.758   0.754  0.1788 -2.2187  1.3001
  788MPD2    H111621   2.127   3.121   0.794  2.7577  0.2352  0.0770
  788MPD2    H211622   2.285   2.789   1.003 -0.8552 -0.1314  1.0512
  788MPD2    H311623   2.299   3.022   0.936  1.5711 -2.9134  0.6862
  788MPD2     N11624   1.914   3.010   0.699 -0.5106  0.1914  0.3076
  788MPD2    H511625   1.951   3.098   0.664  0.9332 -0.4208  0.3055
  788MPD2    N111626   2.101   2.614   0.904  0.5758 -0.6685  0.2690
  788MPD2    H711627   2.189   2.563   0.906  1.2589  0.5765  2.3339
  789MPD2     C11628   2.115   1.761  17.620  0.0762  0.2656 -0.7050
  789MPD2    C111629   2.109   1.818  17.491  0.4417  0.0572 -0.0074
  789MPD2    C211630   1.992   1.884  17.461 -0.6697  0.0626  0.0218
  789MPD2    C311631   1.883   1.904  17.548 -0.3117 -0.7434 -0.1328
  789MPD2    C411632   1.894   1.849  17.675 -0.4682 -0.4250 -0.5945
  789MPD2    C511633   2.014   1.784   0.021  0.5866  0.5316  0.0315
  789MPD2     H11634   1.980   1.931  17.364 -1.2495 -0.4374 -0.1446
  789MPD2    H111635   1.816   1.854   0.065 -1.2137  1.9700 -1.5324
  789MPD2    H211636   2.190   1.690  17.652 -2.0985 -1.5032  0.4792
  789MPD2    H311637   2.024   1.743   0.121  1.2589 -1.2449 -0.7586
  789MPD2     N11638   1.764   1.980  17.527  0.6561  0.0910  0.0500
  789MPD2    H511639   1.698   1.982  17.604 -2.1802  0.6762 -2.3948
  789MPD2    N111640   2.203   1.812  17.390 -0.1617  0.2320 -0.2368
  789MPD2    H711641   2.177   1.845  17.297  0.7059  0.5834 -0.3556
  790MPD2     C11642   3.130   4.103  13.656  0.2400 -0.3074  0.5035
  790MPD2    C111643   3.127   3.980  13.722 -0.3390  0.3452 -0.5135
  790MPD2    C211644   3.144   3.859  13.649 -0.8420  0.2234  0.5130
  790MPD2    C311645   3.180   3.867  13.514  0.6057  0.6278  0.3354
  790MPD2    C411646   3.197   3.995  13.457  0.0767  0.5501 -0.5706
  790MPD2    C511647   3.163   4.106  13.524  0.4501 -0.1076  0.7093
  790MPD2     H11648   3.140   3.756  13.684  0.3226 -0.5486 -1.6161
  790MPD2    H111649   3.220   4.014  13.353 -1.2487 -1.6261 -1.2513
  790MPD2    H211650   3.100   4.197  13.701 -0.0213 -0.2571  0.2195
  790MPD2    H311651   3.159   4.204  13.478  1.1801 -0.7040 -0.6120
  790MPD2     N11652   3.189   3.750  13.436  0.1386 -0.1793  0.0889
  790MPD2    H511653   3.131   3.672  13.464 -0.3652 -0.2177 -1.0486
  790MPD2    N111654   3.101   3.985  13.863  0.0702  0.3944  1.1839
  790MPD2    H711655   3.085   4.076  13.905 -0.7876  0.6000  0.4016
  791MPD2     C11656   2.657   3.583  13.086 -1.1150  0.4001  0.0660
  791MPD2    C111657   2.734   3.468  13.083  0.0918 -0.1638  0.2862
  791MPD2    C211658   2.674   3.344  13.057 -0.6395 -0.2038 -0.2639
  791MPD2    C311659   2.543   3.333  13.013  0.3660  0.7463  0.2905
  791MPD2    C411660   2.472   3.450  13.007 -0.1362  0.1239  0.4953
  791MPD2    C511661   2.531   3.573  13.036  0.2428  0.3933 -0.0020
  791MPD2     H11662   2.727   3.249  13.058  1.2759  0.8554 -0.5564
  791MPD2    H111663   2.369   3.446  12.975 -0.7022  1.1729  2.1906
  791MPD2    H211664   2.701   3.681  13.101 -0.1421  0.2488 -1.8699
  791MPD2    H311665   2.462   3.653  13.011  1.4695  1.1915 -0.8279
  791MPD2     N11666   2.485   3.210  12.983 -0.3252  0.1928 -0.0340
  791MPD2    H511667   2.546   3.129  12.986 -2.1238 -1.2371 -1.7251
  791MPD2    N111668   2.874   3.483  13.114 -0.1739 -0.9775  0.4222
  791MPD2    H711669   2.915   3.575  13.130  0.8481 -1.0145 -2.0302
  792MPD2     C11670   3.602   3.247  11.314 -1.0803 -0.1924 -0.5481
  792MPD2    C111671   3.558   3.350  11.230  0.7515  0.0690 -0.2646
  792MPD2    C211672   3.485   3.316  11.112 -0.1237 -0.5663  0.2524
  792MPD2    C311673   3.456   3.187  11.074  0.7874 -0.0665  0.0073
  792MPD2    C411674   3.496   3.091  11.169 -0.6514  0.3436 -0.2474
  792MPD2    C511675   3.561   3.119  11.287  0.3973  0.5238  0.5036
  792MPD2     H11676   3.446   3.395  11.050  3.5063  1.1658  0.1896
  792MPD2    H111677   3.480   2.989  11.137 -0.3225 -0.7682  3.0887
  792MPD2    H211678   3.644   3.271  11.411  1.9667  1.2382 -2.2037
  792MPD2    H311679   3.599   3.043  11.354  0.4440 -1.2533 -1.5692
  792MPD2     N11680   3.398   3.146  10.947 -0.3625  0.0763 -0.0637
  792MPD2    H511681   3.420   3.052  10.916 -1.3815 -0.6423  1.4030
  792MPD2    N111682   3.580   3.487  11.267  0.0311  0.3340 -0.2187
  792MPD2    H711683   3.650   3.509  11.337 -0.8058  0.2165  0.6571
  793MPD2     C11684   3.379   3.628  10.053  1.2052 -0.1861 -0.2619
  793MPD2    C111685   3.353   3.499  10.011  0.0046 -0.0032 -0.1199
  793MPD2    C211686   3.302   3.406  10.098  0.5332 -0.3435  0.4247
  793MPD2    C311687   3.259   3.440  10.228 -0.2706 -0.5668 -0.1519
  793MPD2    C411688   3.270   3.576  10.267 -0.1584  0.7046 -0.1519
  793MPD2    C511689   3.334   3.667  10.184  0.5968 -0.6357 -0.0621
  793MPD2     H11690   3.321   3.305  10.063 -0.7334 -0.0069 -1.2258
  793MPD2    H111691   3.238   3.609  10.365  0.8783 -2.3330  1.2172
  793MPD2    H211692   3.413   3.704   9.984 -0.2346  0.6124 -0.0954
  793MPD2    H311693   3.348   3.773  10.204  1.0430 -0.5714 -0.7034
  793MPD2     N11694   3.220   3.334  10.309 -0.3414  0.9565  0.0744
  793MPD2    H511695   3.241   3.238  10.281  0.9534  0.8278  1.4430
  793MPD2    N111696   3.396   3.449   9.888 -0.2234 -0.2957 -0.0843
  793MPD2    H711697   3.383   3.353   9.858  0.5718 -0.5870  0.5182
  794MPD2     C11698   2.867   3.446   0.112  1.0114  0.0820 -0.5334
  794MPD2    C111699   2.855   3.353   0.012 -0.3140  0.2721 -0.1888
  794MPD2    C211700   2.810   3.396  17.575  0.1085  0.1435 -0.1157
  794MPD2    C311701   2.784   3.529  17.549 -0.5841 -0.3656 -0.1471
  794MPD2    C411702   2.769   3.618  17.651  0.2990 -0.2479  0.6179
  794MPD2    C511703   2.818   3.579   0.086 -0.2248 -0.3220 -0.5082
  794MPD2     H11704   2.795   3.326  17.493  1.7798 -0.6140  0.2243
  794MPD2    H111705   2.735   3.719  17.632  0.0044 -0.4238  0.2098
  794MPD2    H211706   2.908   3.423   0.210  2.8949 -0.5209 -1.4757
  794MPD2    H311707   2.814   3.655   0.162  0.5885  0.1532 -0.9323
  794MPD2     N11708   2.741   3.579  17.421 -0.2337 -0.3205  0.1070
  794MPD2    H511709   2.694   3.669  17.425  2.2573  0.8090  3.8289
  794MPD2    N111710   2.882   3.220   0.035 -0.0970 -0.0061  0.5884
  794MPD2    H711711   2.869   3.160  17.639  1.4477  1.0450 -0.4297
  795MPD2     C11712   0.467   0.014  14.331 -0.1410 -0.0035 -0.9004
  795MPD2    C111713   0.479   4.702  14.201  0.4873 -0.2239  0.1432
  795MPD2    C211714   0.572   4.606  14.160 -0.3731  0.5557  0.3297
  795MPD2    C311715   0.666   4.560  14.244 -0.0737  0.2544 -0.4899
  795MPD2    C411716   0.664   4.601  14.374 -0.1564  0.3094  0.3585
  795MPD2    C511717   0.566   4.690  14.416  0.2473  0.4619  0.3735
  795MPD2     H11718   0.563   4.562  14.061 -0.1350  2.4777 -0.5325
  795MPD2    H111719   0.734   4.562  14.447  0.6704 -2.4524 -1.9101
  795MPD2    H211720   0.389   0.076  14.373  0.7069  0.9336 -0.6982
  795MPD2    H311721   0.565   0.011  14.516 -0.5827  3.5247 -0.9090
  795MPD2     N11722   0.770   4.479  14.190  0.0802 -0.3065  0.4755
  795MPD2    H511723   0.765   4.462  14.090  0.9358  1.6338  0.1142
  795MPD2    N111724   0.391   0.024  14.103  0.2332  0.1273 -0.7206
  795MPD2    H711725   0.416   0.002  14.008  0.1507  0.8199 -0.9006
  796MPD2     C11726   0.180   2.061  16.314 -0.9063  0.0207  0.1852
  796MPD2    C111727   0.273   2.127  16.399 -0.1691 -0.1180  0.3275
  796MPD2    C211728   0.306   2.262  16.373 -0.3822  0.1451  0.1126
  796MPD2    C311729   0.247   2.324  16.267 -0.1526 -0.2276 -0.6152
  796MPD2    C411730   0.141   2.269  16.196 -0.0169  0.0036 -0.2042
  796MPD2    C511731   0.118   2.133  16.215  0.6422  0.0120 -0.4586
  796MPD2     H11732   0.372   2.318  16.439 -0.8140 -0.8536  1.3919
  796MPD2    H111733   0.102   2.314  16.106  1.1617  1.8706  0.2063
  796MPD2    H211734   0.154   1.957  16.327  1.6753 -0.8741 -1.9747
  796MPD2    H311735   0.052   2.084  16.145 -2.6170 -1.0540  3.3361
  796MPD2     N11736   0.273   2.469  16.257  0.4224  0.1018  0.6019
  796MPD2    H511737   0.326   2.508  16.334 -0.4221  1.5295  0.4568
  796MPD2    N111738   0.316   2.043  16.508 -0.2827 -0.3083  0.8265
  796MPD2    H711739   0.272   1.952  16.508  1.9873 -1.4040  0.3862
  797MPD2     C11740   1.361   1.099  17.353  0.1550 -0.3461  0.3210
  797MPD2    C111741   1.396   1.179  17.452 -0.0175  0.3341  0.0519
  797MPD2    C211742   1.318   1.278  17.504 -1.1297  0.3277 -0.4544
  797MPD2    C311743   1.192   1.306  17.459  0.1218 -0.2241  0.2487
  797MPD2    C411744   1.154   1.222  17.355 -0.0434  0.3172 -0.4191
  797MPD2    C511745   1.235   1.121  17.303 -0.4124  0.3642 -0.2594
  797MPD2     H11746   1.364   1.352  17.568  1.1520 -1.9385  0.5619
  797MPD2    H111747   1.058   1.239  17.307  1.0334 -0.5606 -2.9118
  797MPD2    H211748   1.403   1.008  17.311 -1.5294 -0.0185 -2.0916
  797MPD2    H311749   1.197   1.051  17.230  1.7510 -2.1554  1.0259
  797MPD2     N11750   1.109   1.408  17.506  0.1358 -0.4863  0.1402
  797MPD2    H511751   1.023   1.435  17.458 -0.1140  0.0726  0.9001
  797MPD2    N111752   1.525   1.161  17.509 -0.3966 -0.1574  0.3136
  797MPD2    H711753   1.548   1.230  17.581 -0.4929 -0.4133  0.5891
  798MPD2     C11754   1.585   1.732   0.236 -0.2479 -0.2493  0.5719
  798MPD2    C111755   1.534   1.700   0.109  0.5066  0.1169  0.7032
  798MPD2    C211756   1.618   1.630   0.025 -0.2478  0.3594 -0.1960
  798MPD2    C311757   1.737   1.574   0.071 -0.2544 -0.4118  0.4087
  798MPD2    C411758   1.771   1.597   0.204  0.2111  0.4307  0.8989
  798MPD2    C511759   1.702   1.682   0.278  0.1926  0.5642  0.3053
  798MPD2     H11760   1.592   1.589  17.613  1.2173  1.0295 -0.8549
  798MPD2    H111761   1.858   1.555   0.253  0.2026 -1.9853 -1.1455
  798MPD2    H211762   1.525   1.793   0.303 -0.9430 -0.5313  0.2076
  798MPD2    H311763   1.733   1.707   0.378  0.6858 -2.8182  0.9983
  798MPD2     N11764   1.802   1.477  17.677  0.2506  0.5371 -0.4562
  798MPD2    H511765   1.759   1.446  17.591  2.0828 -1.1534 -0.7675
  798MPD2    N111766   1.412   1.724   0.053 -0.0392  0.0165 -0.6333
  798MPD2    H711767   1.402   1.699  17.641  0.3417 -2.5545 -0.0140
  799MPD2     C11768   0.257   2.808  15.253  0.1075 -0.0168  0.3074
  799MPD2    C111769   0.241   2.759  15.129 -0.0085  0.1682  0.7047
  799MPD2    C211770   0.174   2.837  15.031 -0.0301  0.0648 -0.2037
  799MPD2    C311771   0.118   2.960  15.072  0.0214  0.5772  0.6827
  799MPD2    C411772   0.150   3.010  15.203  0.7627  0.4500  0.7287
  799MPD2    C511773   0.216   2.932  15.290  0.6189 -0.0093  0.2995
  799MPD2     H11774   0.154   2.801  14.931 -0.0694 -1.4207  0.3376
  799MPD2    H111775   0.110   3.104  15.239 -2.1122 -0.1812 -0.7748
  799MPD2    H211776   0.314   2.758  15.330  1.2631 -0.4770 -0.8359
  799MPD2    H311777   0.219   2.965  15.393 -1.7965 -2.3951  1.1531
  799MPD2     N11778   0.045   3.046  14.983 -0.0823  0.0999  0.4030
  799MPD2    H511779   0.017   3.133  15.028 -1.3068  0.7913 -1.7216
  799MPD2    N111780   0.298   2.635  15.097 -0.3076 -0.3460 -0.5462
  799MPD2    H711781   0.291   2.604  15.001 -1.0096 -2.7282  0.2602
  800MPD2     C11782   0.321   3.814  14.288 -0.3572  0.1066 -0.1798
  800MPD2    C111783   0.428   3.872  14.224  0.2248 -1.2460  0.1063
  800MPD2    C211784   0.437   3.866  14.090  0.5178 -0.6529  0.5146
  800MPD2    C311785   0.339   3.794  14.012 -0.0855 -0.2599  0.1321
  800MPD2    C411786   0.230   3.742  14.075 -0.6028  0.4495  0.4459
  800MPD2    C511787   0.226   3.750  14.214  0.0568 -0.4059  0.3105
  800MPD2     H11788   0.523   3.911  14.042 -0.1247  0.3928  0.3337
  800MPD2    H111789   0.140   3.716  14.019  0.6983 -1.0473 -0.9375
  800MPD2    H211790   0.305   3.809  14.395 -3.4942  2.4501 -0.5310
  800MPD2    H311791   0.136   3.713  14.261 -2.3458  2.5404 -1.9818
  800MPD2     N11792   0.359   3.783  13.874 -0.6669  0.5024 -0.3322
  800MPD2    H511793   0.443   3.820  13.831 -0.5633 -1.0305 -1.4422
  800MPD2    N111794   0.532   3.919  14.299  0.1774 -0.2468  0.8112
  800MPD2    H711795   0.519   3.930  14.399  2.3461  0.5059  1.0284
  801MPD2     C11796   0.474   4.497  14.777 -0.2897  0.1875  0.0575
  801MPD2    C111797   0.565   4.400  14.817 -0.5903  0.0730  0.3549
  801MPD2    C211798   0.592   4.390  14.952 -0.0488 -0.1652 -0.2140
  801MPD2    C311799   0.533   4.467  15.046  0.1718  0.1719  0.1830
  801MPD2    C411800   0.458   4.570  15.007  0.4906  0.5065  0.6225
  801MPD2    C511801   0.437   4.586  14.876  0.3818 -0.2991 -0.1272
  801MPD2     H11802   0.677   4.331  14.985 -0.7539 -1.3183 -0.4757
  801MPD2    H111803   0.431   4.642  15.083 -1.0706  0.0334  0.5275
  801MPD2    H211804   0.443   4.534  14.680  0.7944  1.0270  0.0319
  801MPD2    H311805   0.394   4.681  14.846 -1.8513 -2.0269 -2.3400
  801MPD2     N11806   0.555   4.459  15.185 -0.1690  0.6323 -0.2924
  801MPD2    H511807   0.559   4.547  15.236 -0.5145  0.7955 -0.5423
  801MPD2    N111808   0.632   4.311  14.729 -0.5880  0.5191  0.4948
  801MPD2    H711809   0.715   4.265  14.765 -0.6767 -0.7695 -0.9797
  802MPD2     C11810   4.652   4.571   0.123  0.3536 -0.5883 -0.4866
  802MPD2    C111811   4.669   4.706   0.115 -0.3057 -0.7822 -0.0844
  802MPD2    C211812   0.052   0.043   0.047 -0.8345 -0.1271 -0.6593
  802MPD2    C311813   0.138   4.681  17.664 -0.3074  0.0756 -0.0574
  802MPD2    C411814   0.126   4.543  17.681  0.6759 -0.1794 -0.2444
  802MPD2    C511815   0.019   4.490   0.061  0.2418 -0.6329  0.1752
  802MPD2     H11816   0.050   0.151   0.051 -0.5058 -0.1620  0.4743
  802MPD2    H111817   0.200   4.477  17.638 -0.9312 -3.1855  1.6438
  802MPD2    H211818   4.581   4.531   0.195  1.5069 -2.2898 -0.2766
  802MPD2    H311819   0.001   4.383   0.056  0.7169 -0.7741  1.5247
  802MPD2     N11820   0.237   0.016  17.579  0.1633 -0.1979  0.0308
  802MPD2    H511821   0.225   0.114  17.553 -1.3273 -0.7390 -1.3127
  802MPD2    N111822   4.587   0.074   0.186 -0.0110 -0.5138  0.2530
  802MPD2    H711823   4.618   0.171   0.187  0.6225 -0.7229  1.1507
  803MPD2     C11824   1.251   3.105  12.064 -0.1137 -0.3333  0.6612
  803MPD2    C111825   1.236   3.204  12.164 -0.1494 -0.4814 -0.4223
  803MPD2    C211826   1.214   3.165  12.292 -0.1638  0.1056 -0.1644
  803MPD2    C311827   1.212   3.031  12.327 -0.0178  0.2292 -0.0343
  803MPD2    C411828   1.243   2.934  12.231 -0.4091  0.1772  0.9103
  803MPD2    C511829   1.257   2.968  12.103  0.9860 -0.1121 -0.3297
  803MPD2     H11830   1.206   3.232  12.376  0.2505  0.9931 -0.8337
  803MPD2    H111831   1.237   2.827  12.247 -0.4019  0.0770  0.2177
  803MPD2    H211832   1.270   3.126  11.959 -0.9027  0.1186  0.6180
  803MPD2    H311833   1.265   2.886  12.032 -0.0196  0.1225 -0.7106
  803MPD2     N11834   1.210   3.001  12.467 -0.3242  0.3320  0.3442
  803MPD2    H511835   1.190   3.080  12.527  0.3554 -1.4559  2.9307
  803MPD2    N111836   1.248   3.343  12.148 -0.4912  0.3371  0.1156
  803MPD2    H711837   1.266   3.398  12.231 -2.5148 -0.0230  0.7912
  804MPD2     C11838   0.840   0.226  17.202  0.2048 -0.9982 -0.2466
  804MPD2    C111839   0.828   0.232  17.338  0.1495  0.1179  0.6086
  804MPD2    C211840   0.849   0.349  17.411 -0.5582 -0.1187  0.0431
  804MPD2    C311841   0.877   0.463  17.334  0.1302  1.2421 -0.5359
  804MPD2    C411842   0.888   0.466  17.198 -0.4694  0.5287  0.2436
  804MPD2    C511843   0.874   0.347  17.132  0.2443 -0.2777 -0.4328
  804MPD2     H11844   0.846   0.349  17.519  2.1829  0.3188  0.1287
  804MPD2    H111845   0.909   0.553  17.136 -0.1023 -0.6752 -1.3068
  804MPD2    H211846   0.826   0.133  17.148  0.0814 -0.3049 -1.4108
  804MPD2    H311847   0.879   0.339  17.024  0.6313  3.8673 -0.7242
  804MPD2     N11848   0.912   0.584  17.405  0.2434  0.2544  0.1220
  804MPD2    H511849   0.929   0.668  17.350  1.1530 -0.5198 -0.7733
  804MPD2    N111850   0.797   0.122  17.414 -0.7881 -0.4870  0.6393
  804MPD2    H711851   0.784   0.139  17.513  1.1127  2.1250  0.4387
  805MPD2     C11852   4.695   3.134  15.727 -0.1185 -0.1345  0.0991
  805MPD2    C111853   0.046   3.015  15.700  0.2554  0.4778  0.4730
  805MPD2    C211854   0.158   2.989  15.772  0.3781  0.3373 -0.3796
  805MPD2    C311855   0.206   3.087  15.853  0.5426 -0.0655 -0.0770
  805MPD2    C411856   0.138   3.198  15.890  0.6772 -0.7899  0.2923
  805MPD2    C511857   0.024   3.222  15.825  0.0729  0.1817  0.4712
  805MPD2     H11858   0.217   2.898  15.767 -2.8434 -1.9043  2.5424
  805MPD2    H111859   0.168   3.281  15.953  0.7045 -0.3565 -0.2954
  805MPD2    H211860   4.608   3.161  15.669  2.1639  1.4974 -2.5527
  805MPD2    H311861   4.701   3.321  15.835  2.1046  1.2569 -1.3232
  805MPD2     N11862   0.341   3.055  15.897 -0.4660  0.4024 -0.0234
  805MPD2    H511863   0.383   2.970  15.861 -2.9153 -1.1466  0.7814
  805MPD2    N111864   0.015   2.919  15.601 -0.8085 -0.4832 -0.2495
  805MPD2    H711865   0.082   2.843  15.595  1.0711  1.1715  0.0883
  806MPD2     C11866   0.542   3.331   2.082  0.2653  0.6010  0.0178
  806MPD2    C111867   0.477   3.211   2.066 -0.3196 -0.4795 -0.3148
  806MPD2    C211868   0.344   3.209   2.027 -0.2839  0.1860  0.7561
  806MPD2    C311869   0.278   3.326   1.997  0.1245 -0.2473  1.1669
  806MPD2    C411870   0.341   3.443   2.008 -0.4715 -0.7673 -0.3475
  806MPD2    C511871   0.474   3.446   2.044 -0.1152 -0.0906  0.0202
  806MPD2     H11872   0.303   3.109   2.013 -4.6086  2.0105  0.3970
  806MPD2    H111873   0.291   3.534   1.978  0.3838 -0.5284 -1.0608
  806MPD2    H211874   0.646   3.342   2.108  0.4977  0.9595 -1.0713
  806MPD2    H311875   0.524   3.542   2.038 -1.3610  0.5487 -0.1831
  806MPD2     N11876   0.145   3.317   1.953 -0.9422  0.2139 -0.0092
  806MPD2    H511877   0.118   3.221   1.935 -0.2761  0.1573 -0.6782
  806MPD2    N111878   0.552   3.103   2.107  1.1140 -0.0667 -0.0509
  806MPD2    H711879   0.648   3.119   2.133  1.0433  0.0152  0.1578
  807MPD2     C11880   0.471   2.266   1.882 -0.0876  0.1909 -0.6596
  807MPD2    C111881   0.472   2.307   2.013  0.3093 -0.0976  0.2837
  807MPD2    C211882   0.397   2.230   2.101  0.0253  0.5325  0.1401
  807MPD2    C311883   0.339   2.109   2.065  0.4025 -0.1109  0.2181
  807MPD2    C411884   0.344   2.068   1.936  0.1517 -0.3435  0.3334
  807MPD2    C511885   0.415   2.146   1.842 -0.2083  0.0802 -0.0957
  807MPD2     H11886   0.382   2.273   2.199 -0.3656  0.5882  0.0540
  807MPD2    H111887   0.303   1.977   1.895 -0.5912 -0.5731  1.6009
  807MPD2    H211888   0.533   2.309   1.804  0.5993 -0.0700 -0.2618
  807MPD2    H311889   0.449   2.105   1.747  1.7224  3.9952 -1.1177
  807MPD2     N11890   0.271   2.038   2.163 -0.0425 -0.5463  0.1787
  807MPD2    H511891   0.244   2.085   2.249  0.5879  1.0265 -0.4891
  807MPD2    N111892   0.522   2.432   2.061 -0.3618  0.0511 -0.1337
  807MPD2    H711893   0.506   2.455   2.159  1.9219 -0.1413  0.2923
  808MPD2     C11894   1.228   2.772   9.347 -0.5701 -0.0846  0.4630
  808MPD2    C111895   1.154   2.849   9.425  0.0091  0.5110  0.1883
  808MPD2    C211896   1.208   2.966   9.479  0.0588  0.1741 -0.4619
  808MPD2    C311897   1.332   3.013   9.454  0.4497  1.0186  0.5756
  808MPD2    C411898   1.411   2.938   9.370 -0.0945 -0.3064  0.3528
  808MPD2    C511899   1.361   2.818   9.325  0.2747 -0.4131 -0.5218
  808MPD2     H11900   1.149   3.012   9.557  0.1225  0.8936 -0.8376
  808MPD2    H111901   1.512   2.968   9.346 -0.2089  0.8660  1.3422
  808MPD2    H211902   1.196   2.677   9.308 -0.2996  1.1277 -2.7494
  808MPD2    H311903   1.429   2.750   9.274  2.6834  2.0284 -0.5612
  808MPD2     N11904   1.387   3.121   9.523 -0.7092 -0.0766  0.0358
  808MPD2    H511905   1.487   3.124   9.508 -0.4419 -0.9457  1.6589
  808MPD2    N111906   1.023   2.821   9.472  0.3205  0.6543  0.3025
  808MPD2    H711907   0.982   2.879   9.545 -1.5472 -1.0637  0.5981
  809MPD2     C11908   1.861   3.688   9.165 -0.0935  0.5305  0.5841
  809MPD2    C111909   1.920   3.708   9.295  0.2081  0.0672  0.4257
  809MPD2    C211910   1.868   3.644   9.405 -0.2329 -0.9642 -0.0774
  809MPD2    C311911   1.749   3.567   9.380  0.1065  0.6623 -0.3480
  809MPD2    C411912   1.707   3.549   9.245 -0.1896  0.2023  1.0204
  809MPD2    C511913   1.758   3.603   9.139 -0.5253 -0.2072  0.0827
  809MPD2     H11914   1.918   3.662   9.499  1.1862  3.1732 -1.5956
  809MPD2    H111915   1.624   3.483   9.225 -0.1356  0.7284 -0.9837
  809MPD2    H211916   1.917   3.714   9.076  1.1401  0.1949  1.2613
  809MPD2    H311917   1.728   3.581   9.037 -1.8753  1.6404  0.0825
  809MPD2     N11918   1.675   3.492   9.475 -0.6068 -0.2154 -0.2231
  809MPD2    H511919   1.596   3.437   9.443 -0.1449 -0.7405 -0.4507
  809MPD2    N111920   2.043   3.775   9.312 -0.0281 -0.0616  0.3429
  809MPD2    H711921   2.085   3.765   9.404  0.2315  3.1336  0.5622
  810MPD2     C11922   1.129   2.963  10.019 -0.0778 -0.7483  0.5536
  810MPD2    C111923   1.063   3.010  10.125  0.2010 -0.3979  0.2837
  810MPD2    C211924   1.121   3.100  10.207  0.3868  0.1329 -0.7795
  810MPD2    C311925   1.241   3.153  10.177 -0.0787  0.3434 -0.5327
  810MPD2    C411926   1.303   3.123  10.059 -0.3160  0.6062  1.0753
  810MPD2    C511927   1.242   3.025   9.982 -0.2017 -0.0581 -0.3313
  810MPD2     H11928   1.084   3.126  10.305  1.8111  1.9771 -0.7224
  810MPD2    H111929   1.395   3.172  10.029 -1.5276  2.4538  0.4209
  810MPD2    H211930   1.089   2.891   9.948  2.2485 -1.6470  0.1512
  810MPD2    H311931   1.278   3.004   9.882 -0.3810  2.8567 -1.0097
  810MPD2     N11932   1.305   3.247  10.262 -0.5051 -0.1760  0.2797
  810MPD2    H511933   1.404   3.254  10.243 -0.7410  1.2407 -0.3935
  810MPD2    N111934   0.927   2.993  10.151  0.1826  0.3102  0.2954
  810MPD2    H711935   0.900   3.032  10.241 -0.6568  0.4953 -0.0402
  811MPD2     C11936   0.034   3.191  10.003 -0.5810  0.3161 -0.3047
  811MPD2    C111937   0.167   3.234   9.995 -0.2285 -0.0183  0.3807
  811MPD2    C211938   0.195   3.369   9.991  0.3496 -0.3078 -0.1545
  811MPD2    C311939   0.098   3.466  10.010 -0.4819  0.6228  0.0682
  811MPD2    C411940   4.687   3.421  10.012  0.4841 -0.5269  0.3247
  811MPD2    C511941   4.658   3.287  10.003  0.0588 -0.6959  0.1384
  811MPD2     H11942   0.298   3.402   9.980  0.6424 -1.3881 -0.6325
  811MPD2    H111943   4.604   3.490  10.004  0.4103 -0.6929 -0.2735
  811MPD2    H211944   0.007   3.086  10.010  1.2609 -0.0231  1.5173
  811MPD2    H311945   4.554   3.257  10.001 -0.5710  1.2879  2.3210
  811MPD2     N11946   0.139   3.605  10.010  0.1039 -0.0731  0.0093
  811MPD2    H511947   0.239   3.618  10.001  0.0066  0.9159  0.3977
  811MPD2    N111948   0.263   3.136  10.010 -0.1660  0.0797 -0.4280
  811MPD2    H711949   0.234   3.039  10.021  1.0685 -0.0530  1.6879
  812MPD2     C11950   4.365   3.293  12.435 -0.1482 -0.5395 -0.9228
  812MPD2    C111951   4.283   3.366  12.520 -0.0528  0.2741 -0.1326
  812MPD2    C211952   4.286   3.338  12.657 -0.4836  0.0081 -0.6630
  812MPD2    C311953   4.359   3.233  12.707 -0.0690  0.7157 -0.7717
  812MPD2    C411954   4.438   3.162  12.621  0.4484  0.2540  0.8543
  812MPD2    C511955   4.442   3.198  12.487  0.1166  0.2040  0.7192
  812MPD2     H11956   4.216   3.396  12.716 -2.6359 -2.0005 -1.2453
  812MPD2    H111957   4.496   3.079  12.659  2.2062  1.0846 -0.0099
  812MPD2    H211958   4.364   3.305  12.327  0.7103 -2.1624 -1.1185
  812MPD2    H311959   4.501   3.155  12.406 -1.6504 -0.8795  0.0208
  812MPD2     N11960   4.343   3.198  12.840  0.2192  0.5153  0.2891
  812MPD2    H511961   4.307   3.262  12.910  1.1813  0.1880  1.0877
  812MPD2    N111962   4.200   3.463  12.458 -0.0037 -0.7069  0.6646
  812MPD2    H711963   4.217   3.480  12.359 -1.0141 -0.5340  0.5209
  813MPD2     C11964   3.197   0.375  12.918  0.1137 -0.9390 -0.1818
  813MPD2    C111965   3.163   0.513  12.923 -0.3740 -0.1982 -0.8120
  813MPD2    C211966   3.051   0.552  12.996 -0.8162 -0.2157  0.1933
  813MPD2    C311967   2.978   0.457  13.066 -0.1960  0.4549  0.4330
  813MPD2    C411968   3.000   0.324  13.052 -0.1509  0.0627  0.2882
  813MPD2    C511969   3.115   0.288  12.986  0.4338  0.4610  0.1565
  813MPD2     H11970   3.023   0.656  12.988 -1.1426 -0.2876  0.4016
  813MPD2    H111971   2.937   0.246  13.094 -1.3060  0.8386 -0.0352
  813MPD2    H211972   3.284   0.334  12.867  1.1391  0.2715  0.5728
  813MPD2    H311973   3.141   0.184  12.978  0.6940  0.4581  1.1272
  813MPD2     N11974   2.868   0.492  13.152 -0.2642  0.9058 -0.1342
  813MPD2    H511975   2.839   0.588  13.136 -0.2789  0.6460 -1.6887
  813MPD2    N111976   3.253   0.604  12.865  0.2976  0.6184  0.2300
  813MPD2    H711977   3.225   0.700  12.878  0.7129  0.6425  0.9661
  814MPD2     C11978   3.601   2.496  11.895  0.2030 -0.1529 -0.2630
  814MPD2    C111979   3.704   2.464  11.815 -0.0063 -0.0011 -0.2435
  814MPD2    C211980   3.821   2.537  11.830 -0.3498 -0.1429 -0.0472
  814MPD2    C311981   3.820   2.660  11.904  0.1563 -0.4650 -1.0532
  814MPD2    C411982   3.703   2.699  11.967 -0.1817 -0.3613  0.5751
  814MPD2    C511983   3.599   2.610  11.965 -0.5786 -0.7620 -0.3018
  814MPD2     H11984   3.911   2.515  11.773 -1.7427  1.3288 -2.8244
  814MPD2    H111985   3.693   2.794  12.017 -2.4367  0.6531 -1.7750
  814MPD2    H211986   3.510   2.438  11.898  0.2854 -0.2220  0.9720
  814MPD2    H311987   3.512   2.638  12.023 -0.9145 -0.4793 -0.9474
  814MPD2     N11988   3.942   2.735  11.923  0.1891  0.2244 -0.8286
  814MPD2    H511989   3.934   2.810  11.991 -0.4607  0.7048 -1.4351
  814MPD2    N111990   3.698   2.361  11.722  0.8710  0.5566  0.8570
  814MPD2    H711991   3.787   2.350  11.673  0.2514 -0.2546 -0.0685
  815MPD2     C11992   4.174   4.276  12.391  0.8168 -0.3336  0.2738
  815MPD2    C111993   4.126   4.350  12.281 -0.1934  0.6981 -0.5620
  815MPD2    C211994   3.999   4.401  12.284  0.3733  0.4489 -0.0867
  815MPD2    C311995   3.913   4.373  12.390 -0.2921  0.1600  0.3196
  815MPD2    C411996   3.968   4.308  12.501  0.2710 -0.0170 -0.1028
  815MPD2    C511997   4.098   4.265  12.497 -0.0599  0.5633 -0.0691
  815MPD2     H11998   3.956   4.458  12.202 -2.0393 -0.3018  0.6533
  815MPD2    H111999   3.905   4.289  12.588 -0.0936 -0.3462 -0.4421
  815MPD2    H212000   4.277   4.243  12.389  0.6161 -0.9179 -0.5921
  815MPD2    H312001   4.156   4.218  12.576 -1.6764  0.6137  1.1561
  815MPD2     N12002   3.781   4.425  12.382  0.3655 -0.6230 -0.5550
  815MPD2    H512003   3.756   4.460  12.290 -0.1122  0.5803  0.0232
  815MPD2    N112004   4.212   4.375  12.175  0.0511 -0.1325  0.2705
  815MPD2    H712005   4.308   4.347  12.190  0.5818  1.4858 -0.1146
  816MPD2     C12006   3.419   4.310  17.339  0.1580  0.4346  0.0511
  816MPD2    C112007   3.517   4.381  17.401 -0.2154 -1.0330  0.2821
  816MPD2    C212008   3.647   4.352  17.373  0.9638 -0.3413 -0.2555
  816MPD2    C312009   3.681   4.245  17.282 -0.0581  0.0576 -0.1856
  816MPD2    C412010   3.579   4.177  17.223  0.3554 -0.3211 -0.2808
  816MPD2    C512011   3.450   4.211  17.250  1.1269 -0.4208  0.4100
  816MPD2     H12012   3.730   4.406  17.417 -0.1985  1.8110 -0.7472
  816MPD2    H112013   3.594   4.102  17.146  1.2946  0.2112 -0.6197
  816MPD2    H212014   3.313   4.322  17.359  0.2183  0.9410  0.0677
  816MPD2    H312015   3.369   4.165  17.195 -0.4262  2.9599 -0.1247
  816MPD2     N12016   3.813   4.219  17.256  0.1048  0.4752 -0.1594
  816MPD2    H512017   3.885   4.277  17.297 -1.6366  1.9591  0.8040
  816MPD2    N112018   3.484   4.487  17.490  0.1814 -0.4358  0.2560
  816MPD2    H712019   3.383   4.501  17.490  0.2089 -0.2675  2.0645
  817MPD2     C12020   3.469   0.930  10.137 -0.2985  0.3080  0.0115
  817MPD2    C112021   3.453   0.849  10.027  0.4498  0.0589 -0.0098
  817MPD2    C212022   3.368   0.891   9.931  0.0116 -0.8987 -0.0252
  817MPD2    C312023   3.299   1.012   9.941  0.0453  0.4224  0.4253
  817MPD2    C412024   3.319   1.091  10.049  0.1806  0.5172  0.1516
  817MPD2    C512025   3.408   1.046  10.144 -0.7128  0.0773 -0.1777
  817MPD2     H12026   3.380   0.832   9.841 -0.3152  1.3012 -1.4868
  817MPD2    H112027   3.259   1.177  10.074 -2.0608 -0.9379 -0.1732
  817MPD2    H212028   3.529   0.905  10.224  0.3259  0.2482 -0.4365
  817MPD2    H312029   3.420   1.110  10.231 -0.9022 -0.3993  0.2011
  817MPD2     N12030   3.217   1.050   9.833 -0.8293 -0.3824 -0.0164
  817MPD2    H512031   3.202   0.985   9.757 -1.3782  0.7054 -0.8316
  817MPD2    N112032   3.521   0.729  10.003 -0.2009 -0.9634  0.3808
  817MPD2    H712033   3.483   0.672   9.929 -0.2262 -0.7796  0.2502
  818MPD2     C12034   2.403   1.156   9.913 -0.3766 -0.4667 -0.8289
  818MPD2    C112035   2.363   1.087  10.028  0.4026 -0.1971  0.4736
  818MPD2    C212036   2.304   0.963  10.016  0.0635  0.2089 -0.1140
  818MPD2    C312037   2.282   0.902   9.893 -0.2949  0.3656  0.2205
  818MPD2    C412038   2.325   0.975   9.783  0.0139  0.3651 -0.5142
  818MPD2    C512039   2.389   1.092   9.797  0.3386  0.9950  0.1769
  818MPD2     H12040   2.278   0.919  10.111  2.6473  0.6028  0.7695
  818MPD2    H112041   2.322   0.931   9.684 -0.2494  1.8156 -1.1344
  818MPD2    H212042   2.437   1.259   9.911  1.0406 -0.8548  3.2260
  818MPD2    H312043   2.420   1.144   9.707  1.3702 -0.0471 -0.0688
  818MPD2     N12044   2.211   0.781   9.874  0.4451  0.1476  0.1872
  818MPD2    H512045   2.189   0.757   9.778  0.2118 -0.1991  0.3260
  818MPD2    N112046   2.385   1.135  10.157 -0.4848  0.6114  0.4609
  818MPD2    H712047   2.366   1.077  10.238  0.0818 -0.4019 -0.1235
  819MPD2     C12048   0.561   2.504  16.044 -0.0718 -0.7261 -0.3490
  819MPD2    C112049   0.635   2.387  16.045 -0.5105 -0.8348 -0.5254
  819MPD2    C212050   0.756   2.379  16.122 -0.6030  0.1041 -1.0122
  819MPD2    C312051   0.805   2.489  16.183  0.8966  0.3879 -0.3727
  819MPD2    C412052   0.725   2.603  16.192 -0.4077  0.1302 -0.4082
  819MPD2    C512053   0.605   2.606  16.128  0.0681 -0.5501  0.0601
  819MPD2     H12054   0.827   2.298  16.116 -0.3410  0.3673 -1.4568
  819MPD2    H112055   0.749   2.701  16.232 -0.4530 -0.4289  0.9969
  819MPD2    H212056   0.463   2.510  15.999  0.0817  0.4606 -0.5315
  819MPD2    H312057   0.543   2.694  16.137 -0.0919 -0.6687  0.1179
  819MPD2     N12058   0.931   2.474  16.239 -0.6784 -0.0919 -0.8764
  819MPD2    H512059   0.981   2.386  16.238  0.1330  0.3435  0.9551
  819MPD2    N112060   0.576   2.277  15.970 -0.3166  0.5609  0.2677
  819MPD2    H712061   0.490   2.296  15.920  0.3927  2.5031 -0.2203
  820MPD2     C12062   4.667   2.146  15.262  0.8675  0.4815 -0.4479
  820MPD2    C112063   0.029   2.241  15.312  0.4507  0.5948  0.5740
  820MPD2    C212064   0.146   2.207  15.381 -0.0161  0.0392  0.8804
  820MPD2    C312065   0.174   2.078  15.417  0.8252  0.0629 -0.0154
  820MPD2    C412066   0.094   1.981  15.354  0.5246  0.6916  0.1629
  820MPD2    C512067   4.705   2.016  15.275 -0.3972  0.2650  0.0711
  820MPD2     H12068   0.210   2.291  15.406 -0.8438  0.8240  0.3585
  820MPD2    H112069   0.109   1.875  15.366 -0.6037  0.4899 -0.2061
  820MPD2    H212070   4.576   2.175  15.211 -0.0347  0.9628  1.4048
  820MPD2    H312071   4.632   1.940  15.247 -1.9005  1.1671  1.5114
  820MPD2     N12072   0.283   2.038  15.500  0.8002 -0.1898 -0.4950
  820MPD2    H512073   0.294   1.939  15.523 -0.9298 -0.1044  0.6506
  820MPD2    N112074   4.706   2.377  15.290  0.3105  0.0288 -0.4815
  820MPD2    H712075   4.613   2.389  15.251 -0.2068  0.8107  0.9979
  821MPD2     C12076   0.405   3.903  13.007 -0.2830 -0.1106 -0.7961
  821MPD2    C112077   0.430   3.943  13.127  0.7310  0.7558 -0.2758
  821MPD2    C212078   0.519   4.051  13.138  0.2864  0.0873 -0.3199
  821MPD2    C312079   0.571   4.112  13.025 -0.8964  0.1105  0.1428
  821MPD2    C412080   0.524   4.080  12.898 -0.2315 -0.1273  0.3010
  821MPD2    C512081   0.444   3.968  12.888  0.8939  0.2246  0.0775
  821MPD2     H12082   0.554   4.093  13.232  0.9563 -0.5881 -0.2714
  821MPD2    H112083   0.548   4.130  12.804 -0.8630 -0.0051  0.2035
  821MPD2    H212084   0.341   3.815  13.003 -2.3755  1.4471 -1.6495
  821MPD2    H312085   0.416   3.927  12.792  0.1356  1.1860 -0.1185
  821MPD2     N12086   0.663   4.219  13.022 -0.3840  0.8282  0.5674
  821MPD2    H512087   0.687   4.260  12.932  1.2756  2.1486  1.6071
  821MPD2    N112088   0.384   3.861  13.234  0.2819 -0.1910  0.6087
  821MPD2    H712089   0.334   3.776  13.209 -1.3628  0.7839  0.5684
  822MPD2     C12090   1.485   4.041  16.031 -0.6277 -0.1601  0.3085
  822MPD2    C112091   1.506   4.038  16.169 -0.4651  0.0861  0.3318
  822MPD2    C212092   1.438   4.131  16.231 -0.4478  0.1049 -0.8041
  822MPD2    C312093   1.339   4.210  16.177  0.1933 -0.0051  0.3333
  822MPD2    C412094   1.310   4.194  16.045 -0.4964 -0.3982  0.6995
  822MPD2    C512095   1.386   4.105  15.974  0.1863  0.3414  0.3354
  822MPD2     H12096   1.465   4.148  16.335 -1.3409  1.8963 -0.8652
  822MPD2    H112097   1.233   4.247  15.990  1.1992  2.7245  1.3457
  822MPD2    H212098   1.551   3.984  15.966  1.5145  1.8260  0.7618
  822MPD2    H312099   1.373   4.094  15.867  0.4120  0.4916  0.2913
  822MPD2     N12100   1.288   4.311  16.256 -0.1596  0.2316 -0.4785
  822MPD2    H512101   1.316   4.307  16.354 -0.4215 -1.8592 -0.4926
  822MPD2    N112102   1.608   3.962  16.236  0.3749 -0.1787 -0.3698
  822MPD2    H712103   1.633   3.995  16.329 -2.6202 -1.3497  0.8625
  823MPD2     C12104   1.051   4.676  16.958  0.2273  0.2380  0.2607
  823MPD2    C112105   1.084   4.570  16.872  0.0026  0.3733  0.4316
  823MPD2    C212106   1.147   4.456  16.921 -0.0727  0.3696 -0.1409
  823MPD2    C312107   1.159   4.419  17.051 -0.2718 -0.6946 -0.0965
  823MPD2    C412108   1.113   4.517  17.139  0.3017 -0.1645 -0.1387
  823MPD2    C512109   1.069   4.644  17.091 -0.5461  0.1440 -0.0411
  823MPD2     H12110   1.185   4.388  16.846  0.8541 -1.2439  1.7746
  823MPD2    H112111   1.141   4.499  17.242  1.6776 -1.4389 -0.7373
  823MPD2    H212112   0.996   0.038  16.916 -0.8135 -0.1271  0.9041
  823MPD2    H312113   1.050   0.000  17.165 -2.0777 -0.4513  0.1739
  823MPD2     N12114   1.224   4.306  17.096  0.5865  0.9443  0.1018
  823MPD2    H512115   1.203   4.284  17.193 -1.9986  0.7739 -0.5094
  823MPD2    N112116   1.067   4.592  16.733 -0.1577 -0.1026  0.5996
  823MPD2    H712117   1.029   4.683  16.708 -2.8298 -1.4577 -0.2280
  824MPD2     C12118   1.911   3.216  16.246 -0.0822  0.2839  0.3543
  824MPD2    C112119   2.003   3.313  16.204 -0.0428  0.4354  0.2119
  824MPD2    C212120   2.106   3.272  16.120  0.6904  0.3269  0.4037
  824MPD2    C312121   2.125   3.137  16.079 -0.3801 -0.2877  0.3291
  824MPD2    C412122   2.035   3.045  16.122  0.0128  0.4762  0.2016
  824MPD2    C512123   1.929   3.089  16.194 -0.4912  0.8266 -0.0053
  824MPD2     H12124   2.186   3.341  16.094  0.6924  1.0105  2.2740
  824MPD2    H112125   2.035   2.939  16.098 -2.7165  0.4320  0.4010
  824MPD2    H212126   1.819   3.237  16.298 -0.8792 -0.2879 -0.8364
  824MPD2    H312127   1.843   3.024  16.212  1.3413 -1.2948  1.0848
  824MPD2     N12128   2.239   3.113  15.992 -0.2369 -0.2210  0.3389
  824MPD2    H512129   2.301   3.186  15.957 -0.6275 -1.1342 -2.2683
  824MPD2    N112130   1.991   3.445  16.247  0.5313  0.0336  0.4902
  824MPD2    H712131   2.038   3.515  16.190 -0.2940  0.2799  0.1087
  825MPD2     C12132   2.777   3.250  15.341  0.6349 -0.3136 -0.3470
  825MPD2    C112133   2.697   3.293  15.448 -0.9085 -0.5470  0.5808
  825MPD2    C212134   2.668   3.427  15.457 -0.8022  0.0270 -0.2444
  825MPD2    C312135   2.719   3.516  15.363  0.7578  0.0414 -0.7302
  825MPD2    C412136   2.798   3.466  15.261 -1.1232 -0.6047  0.7223
  825MPD2    C512137   2.825   3.337  15.252  0.3856  0.3393  0.8813
  825MPD2     H12138   2.606   3.469  15.536 -0.5029  0.6029 -0.3162
  825MPD2    H112139   2.840   3.524  15.180  0.9646  0.1465  2.3564
  825MPD2    H212140   2.789   3.144  15.325  1.1809 -0.5902  1.8992
  825MPD2    H312141   2.861   3.297  15.158 -0.8239  0.3501  0.4134
  825MPD2     N12142   2.692   3.655  15.361  0.3158  0.0505 -0.1442
  825MPD2    H512143   2.717   3.712  15.281  0.4238  0.2867  0.0603
  825MPD2    N112144   2.639   3.187  15.524 -1.0123  0.1260 -0.1302
  825MPD2    H712145   2.645   3.099  15.475 -1.3591 -0.0026  0.0590
  826MPD2     C12146   2.533   2.529  13.650  0.3489 -0.2576 -0.9215
  826MPD2    C112147   2.534   2.620  13.545 -0.3339 -0.0412  0.4284
  826MPD2    C212148   2.470   2.742  13.563  0.5698  0.0580 -0.3957
  826MPD2    C312149   2.417   2.777  13.690 -0.4669 -1.3337 -0.1959
  826MPD2    C412150   2.416   2.685  13.795  0.3948  0.3536 -0.4313
  826MPD2    C512151   2.477   2.564  13.773  0.7225 -0.0609 -0.4693
  826MPD2     H12152   2.451   2.804  13.476  2.6908 -2.2983 -2.5382
  826MPD2    H112153   2.373   2.697  13.893  1.4843 -3.9605  0.5894
  826MPD2    H212154   2.582   2.434  13.631  0.3136 -0.4279 -0.1599
  826MPD2    H312155   2.493   2.491  13.852 -0.1444  1.0310  0.7090
  826MPD2     N12156   2.351   2.903  13.713 -0.7386  0.8483 -0.0779
  826MPD2    H512157   2.300   2.915  13.799  0.4664  0.3209  0.6986
  826MPD2    N112158   2.590   2.576  13.421 -0.5630  1.0084 -0.1176
  826MPD2    H712159   2.647   2.493  13.419  1.8868  2.6914 -0.1392
  827MPD2     C12160   2.705   0.102  10.452 -0.0425 -0.2674 -0.0367
  827MPD2    C112161   2.805   0.014  10.421  0.3949 -0.1097  0.1633
  827MPD2    C212162   2.795   4.644  10.314  0.2897  0.1569 -0.3584
  827MPD2    C312163   2.670   4.625  10.264 -0.5814 -0.0132  0.2288
  827MPD2    C412164   2.572   4.720  10.292  0.0875 -0.4657 -0.2711
  827MPD2    C512165   2.586   0.093  10.381 -0.5378 -1.0280  0.3379
  827MPD2     H12166   2.873   4.572  10.289  0.7551 -0.3399  2.5277
  827MPD2    H112167   2.476   0.004  10.241  0.1285 -2.5037 -0.5399
  827MPD2    H212168   2.714   0.182  10.524  2.3338  0.9790 -1.7175
  827MPD2    H312169   2.508   0.166  10.404 -0.2781 -0.4178 -0.7311
  827MPD2     N12170   2.646   4.539  10.154  0.3247 -0.4057 -0.9792
  827MPD2    H512171   2.723   4.488  10.112  2.9819  0.1459  3.2140
  827MPD2    N112172   2.920   0.022  10.506  0.7595  0.3170  0.3026
  827MPD2    H712173   2.912   0.099  10.572 -1.2602  2.4178 -2.3620
  828MPD2     C12174   1.405   4.112  13.021 -0.3785 -0.5119 -0.6774
  828MPD2    C112175   1.446   4.173  12.902 -0.4575 -0.2393 -1.1306
  828MPD2    C212176   1.567   4.145  12.841  0.2237  0.2439 -0.7950
  828MPD2    C312177   1.654   4.052  12.896 -0.2315  0.5335  1.1574
  828MPD2    C412178   1.620   4.013  13.024  0.4170 -0.7362 -0.1135
  828MPD2    C512179   1.499   4.038  13.090  0.1414 -0.3237  0.7830
  828MPD2     H12180   1.596   4.196  12.750 -2.2320 -0.0726 -1.7563
  828MPD2    H112181   1.688   3.950  13.080  1.9148  2.0121  1.1394
  828MPD2    H212182   1.305   4.110  13.064 -0.0035  1.0836  0.2631
  828MPD2    H312183   1.471   3.999  13.187  0.1767 -2.4264 -0.0535
  828MPD2     N12184   1.772   4.010  12.834 -0.8291 -0.2798 -0.5193
  828MPD2    H512185   1.842   3.963  12.890 -1.1787 -1.6085 -1.2207
  828MPD2    N112186   1.351   4.245  12.818 -0.3751  0.1564 -0.1313
  828MPD2    H712187   1.386   4.270  12.726  0.2882  1.2348  0.4185
  829MPD2     C12188   1.634   4.716  12.195  0.2472  0.0273  0.5039
  829MPD2    C112189   1.513   4.673  12.137  0.2630  0.0184  0.7044
  829MPD2    C212190   1.420   4.602  12.215  0.0417  0.4076 -0.3302
  829MPD2    C312191   1.441   4.581  12.350  0.2093 -0.5547  0.8134
  829MPD2    C412192   1.562   4.624  12.409  0.0405  0.5080  0.6331
  829MPD2    C512193   1.646   4.697  12.329 -0.3950 -0.1005  0.8433
  829MPD2     H12194   1.331   4.561  12.168  2.2482 -2.3544 -2.0608
  829MPD2    H112195   1.590   4.622  12.514  1.0499  1.8258  0.3955
  829MPD2    H212196   1.718   0.029  12.136 -2.1486  1.3960 -2.1043
  829MPD2    H312197   1.729   0.021  12.382 -1.5460  0.2616  2.3409
  829MPD2     N12198   1.346   4.521  12.434  0.2056  0.1623 -0.3541
  829MPD2    H512199   1.373   4.517  12.532 -1.1409 -1.7936 -0.0709
  829MPD2    N112200   1.502   4.682  11.994 -0.0642  0.2691  0.0774
  829MPD2    H712201   1.579   0.004  11.944 -0.3124  2.0350  1.1772
  830MPD2     C12202   1.746   2.244  16.299 -0.3705  0.0328  0.0958
  830MPD2    C112203   1.659   2.326  16.227 -0.4383  0.1388  0.1537
  830MPD2    C212204   1.690   2.372  16.098 -0.1507  0.1540 -0.0175
  830MPD2    C312205   1.805   2.328  16.034 -0.5424  0.2497 -0.3848
  830MPD2    C412206   1.879   2.230  16.101 -0.1394  0.0155 -0.4524
  830MPD2    C512207   1.849   2.196  16.232  0.1105 -0.1422  0.0099
  830MPD2     H12208   1.627   2.444  16.048 -2.5697 -0.8679  1.5563
  830MPD2    H112209   1.960   2.182  16.047  0.5881  1.2940 -0.5145
  830MPD2    H212210   1.731   2.218  16.404 -2.6933 -1.9755 -0.7518
  830MPD2    H312211   1.910   2.122  16.283 -0.2455 -0.6336 -0.2786
  830MPD2     N12212   1.840   2.372  15.905 -0.2282 -0.4113 -0.6375
  830MPD2    H512213   1.936   2.348  15.883 -0.2922  0.2752 -1.6906
  830MPD2    N112214   1.538   2.357  16.292  0.1823  0.2235  0.0069
  830MPD2    H712215   1.536   2.339  16.392  3.4280  1.4166  0.2732
  831MPD2     C12216   1.587   4.551  16.453  0.1911 -0.0357  0.3864
  831MPD2    C112217   1.619   4.421  16.430 -1.2435  0.3788  0.0748
  831MPD2    C212218   1.562   4.322  16.515 -0.6501 -0.3677  0.1771
  831MPD2    C312219   1.457   4.354  16.602  0.5163  0.1997  0.4287
  831MPD2    C412220   1.430   4.484  16.626  0.5184 -0.2985  0.0610
  831MPD2    C512221   1.499   4.582  16.559  0.3891 -0.2923 -0.3403
  831MPD2     H12222   1.598   4.221  16.500  4.4075  1.7946 -2.4292
  831MPD2    H112223   1.360   4.516  16.702  1.6579  0.8526  0.6408
  831MPD2    H212224   1.620   4.629  16.386 -1.9222 -0.0011 -0.6070
  831MPD2    H312225   1.478   4.686  16.579  0.2450 -0.0702 -1.6393
  831MPD2     N12226   1.362   4.256  16.637  0.0159 -0.5472 -0.2673
  831MPD2    H512227   1.278   4.299  16.673 -0.0988 -0.9586 -0.0453
  831MPD2    N112228   1.710   4.394  16.328 -1.1529  0.2402  0.1328
  831MPD2    H712229   1.741   4.463  16.260  0.6068  0.5601  1.2604
  832MPD2     C12230   4.577   1.247  17.525 -0.5997 -0.2476 -0.1152
  832MPD2    C112231   4.564   1.111  17.554  0.7366  0.2311 -0.1769
  832MPD2    C212232   4.464   1.046  17.482 -0.3372 -0.2300 -0.7283
  832MPD2    C312233   4.391   1.103  17.379  0.3654  0.3060  0.4421
  832MPD2    C412234   4.405   1.234  17.359  0.1899  0.0298  0.8753
  832MPD2    C512235   4.494   1.308  17.434 -0.1641  0.4596 -0.1605
  832MPD2     H12236   4.455   0.939  17.497  0.4119 -0.1727  0.1118
  832MPD2    H112237   4.345   1.282  17.282  0.1533 -0.3370  0.6747
  832MPD2    H212238   4.651   1.308  17.575  0.0685 -1.2043  0.0715
  832MPD2    H312239   4.504   1.414  17.417 -1.1390  1.2081  4.0789
  832MPD2     N12240   4.281   1.044  17.306  0.0672  0.6621 -0.0169
  832MPD2    H512241   4.230   1.101  17.239  1.2746 -1.4319 -2.7164
  832MPD2    N112242   4.654   1.045  17.642  0.1619  0.4913 -0.1260
  832MPD2    H712243   0.004   1.101   0.003  0.9748 -0.7020  0.0630
  833MPD2     C12244   1.773   2.110  12.875  0.5735  0.0557  0.2343
  833MPD2    C112245   1.814   2.209  12.782  0.5806  0.2814 -0.2427
  833MPD2    C212246   1.925   2.191  12.704  0.0102 -0.1092  0.4011
  833MPD2    C312247   2.006   2.080  12.725 -0.2418  0.9360 -0.3519
  833MPD2    C412248   1.966   1.978  12.808  0.5639  0.7064 -1.1024
  833MPD2    C512249   1.853   2.000  12.883 -0.0546 -0.1642  0.3193
  833MPD2     H12250   1.961   2.260  12.629 -0.0943 -0.4768  0.0100
  833MPD2    H112251   2.033   1.894  12.821 -0.6748 -0.2668 -1.0248
  833MPD2    H212252   1.692   2.122  12.947  1.1963  1.0070  0.7798
  833MPD2    H312253   1.821   1.927  12.957  0.5719 -1.7950 -1.0047
  833MPD2     N12254   2.131   2.060  12.659  0.2578 -0.4595 -0.5481
  833MPD2    H512255   2.177   1.971  12.672 -4.5691 -3.0882 -1.3555
  833MPD2    N112256   1.732   2.324  12.772  1.1264 -0.0739  0.1977
  833MPD2    H712257   1.647   2.322  12.828  1.0068  0.0443  0.0191
  834MPD2     C12258   2.279   1.355  12.030  0.4586 -0.4092  0.1768
  834MPD2    C112259   2.327   1.448  11.943  0.6440  0.4898  0.0194
  834MPD2    C212260   2.351   1.578  11.994 -0.2887  0.3292 -0.0988
  834MPD2    C312261   2.316   1.608  12.130  1.0457 -0.6263  0.4094
  834MPD2    C412262   2.261   1.508  12.205  0.1797 -0.1179  0.1744
  834MPD2    C512263   2.248   1.378  12.160  0.1193 -0.0357 -0.2133
  834MPD2     H12264   2.395   1.659  11.936 -2.0971 -0.0242 -1.9740
  834MPD2    H112265   2.220   1.524  12.304  0.9090  2.2776  0.0809
  834MPD2    H212266   2.260   1.257  11.987  1.4768 -0.6969  0.3687
  834MPD2    H312267   2.191   1.310  12.222  1.0497 -0.6005  0.0274
  834MPD2     N12268   2.331   1.742  12.172  0.0665 -0.0007 -0.0130
  834MPD2    H512269   2.362   1.812  12.104 -1.8980 -0.5510 -1.4765
  834MPD2    N112270   2.339   1.405  11.809  0.3041  0.3148  0.7739
  834MPD2    H712271   2.315   1.309  11.787  1.3737  0.4024 -0.7852
  835MPD2     C12272   1.844   0.205  10.806  0.6407  0.2198 -0.6334
  835MPD2    C112273   1.702   0.206  10.836  0.0947 -0.5461  0.8521
  835MPD2    C212274   1.656   0.209  10.970 -0.2216 -0.1212 -0.7621
  835MPD2    C312275   1.747   0.245  11.066  0.2710  0.4262  0.5880
  835MPD2    C412276   1.884   0.264  11.026  0.2126 -0.1609  0.2644
  835MPD2    C512277   1.930   0.236  10.903 -0.4928 -0.2412 -0.5001
  835MPD2     H12278   1.553   0.199  11.002 -0.0864 -1.2042 -0.6819
  835MPD2    H112279   1.946   0.299  11.108  0.6718  0.1107 -0.2047
  835MPD2    H212280   1.884   0.185  10.707  0.1250 -1.2973 -0.5263
  835MPD2    H312281   2.036   0.234  10.880 -0.1169 -2.0479  1.3637
  835MPD2     N12282   1.704   0.275  11.198  0.1547  0.0868  0.2927
  835MPD2    H512283   1.777   0.304  11.262  0.0560  1.2815 -0.1400
  835MPD2    N112284   1.604   0.205  10.734  0.0066 -0.1769  0.0065
  835MPD2    H712285   1.509   0.180  10.760  0.3162 -0.5772  0.7342
  836MPD2     C12286   1.020   0.424  11.451 -0.3965 -0.3728 -0.0936
  836MPD2    C112287   1.090   0.395  11.563  0.8414 -0.1037 -0.0038
  836MPD2    C212288   1.031   0.369  11.685 -0.0995 -0.0618 -0.0759
  836MPD2    C312289   0.894   0.362  11.690 -0.5063  0.6650 -0.4810
  836MPD2    C412290   0.820   0.407  11.585  0.0720 -0.1741  0.3707
  836MPD2    C512291   0.885   0.436  11.466  0.1978 -0.2788 -0.2193
  836MPD2     H12292   1.088   0.359  11.777  0.3948 -2.2424 -0.6179
  836MPD2    H112293   0.712   0.397  11.585  0.1446 -0.9010 -1.9624
  836MPD2    H212294   1.067   0.438  11.355  0.3855 -1.9897  0.0404
  836MPD2    H312295   0.836   0.456  11.371  0.4090 -0.2478 -0.3220
  836MPD2     N12296   0.821   0.334  11.806 -0.4161 -0.2366  0.3626
  836MPD2    H512297   0.720   0.340  11.803 -0.3128  1.7691  1.0181
  836MPD2    N112298   1.227   0.388  11.539  0.5262  0.3290  0.8690
  836MPD2    H712299   1.255   0.386  11.442 -0.0277  0.4401  0.7045
  837MPD2     C12300   0.599   4.175  10.284 -0.1812  0.1198  0.1782
  837MPD2    C112301   0.461   4.187  10.269  0.0849  1.1563  0.0818
  837MPD2    C212302   0.407   4.305  10.315  0.4020  0.0846  1.1617
  837MPD2    C312303   0.480   4.405  10.377  0.6973  0.4484  0.5037
  837MPD2    C412304   0.615   4.391  10.384 -0.2844  0.2659 -0.1423
  837MPD2    C512305   0.670   4.267  10.356 -0.4452  0.6385  0.1518
  837MPD2     H12306   0.306   4.332  10.288  0.0460 -0.9004  1.5115
  837MPD2    H112307   0.682   4.459  10.435  0.2249  1.2184 -2.0644
  837MPD2    H212308   0.643   4.082  10.249 -1.3321  0.0129 -0.9632
  837MPD2    H312309   0.771   4.249  10.391  0.3776  4.9541  0.0112
  837MPD2     N12310   0.409   4.523  10.404 -0.0074  0.0689 -0.7294
  837MPD2    H512311   0.309   4.514  10.392  0.2654 -1.9854 -1.4571
  837MPD2    N112312   0.384   4.106  10.181  0.3290  0.4257  0.0932
  837MPD2    H712313   0.290   4.141  10.171  1.2395  3.1646  1.1761
  838MPD2     C12314   3.379   1.885  10.818 -0.2507 -0.6488 -0.1505
  838MPD2    C112315   3.357   2.018  10.828  0.4329 -0.4723 -0.1608
  838MPD2    C212316   3.263   2.060  10.920  0.3188  0.2393 -0.2274
  838MPD2    C312317   3.190   1.972  10.991 -0.3944 -0.4495  0.1726
  838MPD2    C412318   3.200   1.836  10.972  0.0014  0.5612  0.6547
  838MPD2    C512319   3.306   1.796  10.894 -0.2858  0.1099  0.1855
  838MPD2     H12320   3.253   2.168  10.926 -0.7807  0.1695 -0.7909
  838MPD2    H112321   3.146   1.767  11.036 -1.9041  2.8201  1.4569
  838MPD2    H212322   3.461   1.833  10.772  0.3443  1.0072 -0.9719
  838MPD2    H312323   3.333   1.690  10.894  1.9421  0.6750  1.4327
  838MPD2     N12324   3.094   2.035  11.077 -0.0262 -1.1607 -0.2335
  838MPD2    H512325   3.103   2.135  11.068  2.2320 -1.2851  0.5815
  838MPD2    N112326   3.439   2.117  10.773  0.2573 -0.5840  0.1961
  838MPD2    H712327   3.440   2.203  10.827  0.0825 -0.3566 -0.1667
  839MPD2     C12328   3.261   2.113  11.460 -0.1617  0.2324  0.2942
  839MPD2    C112329   3.296   2.006  11.384  0.1475 -0.7174 -1.1149
  839MPD2    C212330   3.394   2.020  11.288  0.2643  0.4973 -0.1894
  839MPD2    C312331   3.452   2.148  11.264  0.4503  0.5280  0.0246
  839MPD2    C412332   3.404   2.257  11.332 -0.7726  0.2781  0.0007
  839MPD2    C512333   3.311   2.238  11.433  0.0080 -0.1606  0.3802
  839MPD2     H12334   3.423   1.927  11.240  2.4325 -0.1993  2.4620
  839MPD2    H112335   3.450   2.354  11.321 -1.0977  0.6342  1.7613
  839MPD2    H212336   3.178   2.110  11.529 -0.1735 -1.1613  0.2228
  839MPD2    H312337   3.284   2.327  11.490  0.8230 -0.0175  0.5500
  839MPD2     N12338   3.551   2.175  11.169 -0.8890 -0.2419  0.2126
  839MPD2    H512339   3.570   2.274  11.153  0.8684 -0.3583  1.6939
  839MPD2    N112340   3.254   1.875  11.407 -0.7826  0.5270 -1.0239
  839MPD2    H712341   3.283   1.801  11.344  0.5473  0.1651  0.0234
  840MPD2     C12342   3.700   0.017  10.461 -0.0261  1.0205 -0.1496
  840MPD2    C112343   3.646   4.720  10.592 -0.1093  0.1488 -0.4177
  840MPD2    C212344   3.722   0.023  10.712  0.1487  0.1406 -0.1240
  840MPD2    C312345   3.855   0.055  10.708  0.2563 -0.4333  0.1623
  840MPD2    C412346   3.905   0.066  10.579 -0.1840 -0.4018  0.8838
  840MPD2    C512347   3.834   0.053  10.458 -0.4697 -0.2420 -0.1732
  840MPD2     H12348   3.675   0.012  10.809 -3.0402  1.9494 -1.4660
  840MPD2    H112349   4.008   0.095  10.558 -0.8111 -1.2754 -3.3676
  840MPD2    H212350   3.643   4.720  10.371 -1.0087  2.9848  0.0725
  840MPD2    H312351   3.881   0.068  10.362 -0.2677  0.0681 -0.0239
  840MPD2     N12352   3.940   0.098  10.812  0.6580  0.4188  0.3293
  840MPD2    H512353   4.037   0.114  10.787  0.6157  2.4714  1.4695
  840MPD2    N112354   3.512   4.688  10.595  0.5366  0.6045  0.7095
  840MPD2    H712355   3.461   4.708  10.509  0.2344  2.3310  1.2898
  841MPD2     C12356   2.791   0.358  14.126  0.2860 -0.1157 -0.1260
  841MPD2    C112357   2.793   0.271  14.229  0.5508 -0.7522  0.1890
  841MPD2    C212358   2.899   0.263  14.309 -0.4243 -0.1618  0.0130
  841MPD2    C312359   3.009   0.338  14.282 -0.1650 -0.2765  0.5896
  841MPD2    C412360   3.012   0.420  14.172 -0.1286  0.7705  0.1122
  841MPD2    C512361   2.899   0.436  14.104  0.6378 -0.0411 -0.6636
  841MPD2     H12362   2.916   0.185  14.382 -2.1893 -1.8119 -1.3420
  841MPD2    H112363   3.095   0.482  14.142  0.2908  0.6337  0.9960
  841MPD2    H212364   2.701   0.366  14.066 -0.8150 -0.8816  1.4048
  841MPD2    H312365   2.885   0.508  14.024 -0.6180  0.5387  0.0722
  841MPD2     N12366   3.122   0.320  14.368  0.4149  0.0199 -0.3868
  841MPD2    H512367   3.102   0.258  14.446  0.7007  0.4680  0.0430
  841MPD2    N112368   2.685   0.188  14.260  0.6223  0.3238  0.0018
  841MPD2    H712369   2.692   0.136  14.348 -0.0783 -1.9983 -1.3139
  842MPD2     C12370   2.772   0.711  17.024  0.0464  0.1263  0.0043
  842MPD2    C112371   2.909   0.736  16.998  0.3297 -0.6981  0.2213
  842MPD2    C212372   2.996   0.749  17.108  0.5575 -0.1848  0.1742
  842MPD2    C312373   2.945   0.741  17.235  0.0386 -0.2157 -0.2804
  842MPD2    C412374   2.811   0.713  17.258 -0.4070  0.0947  0.1847
  842MPD2    C512375   2.729   0.692  17.153  0.3587  0.2019  0.2073
  842MPD2     H12376   3.097   0.783  17.086  0.4259 -0.2696 -0.5611
  842MPD2    H112377   2.767   0.703  17.356 -0.2434 -1.1787  0.1275
  842MPD2    H212378   2.700   0.710  16.943 -0.2631 -1.9243  0.3061
  842MPD2    H312379   2.626   0.660  17.166 -0.6652  3.1733 -0.4681
  842MPD2     N12380   3.020   0.765  17.348  0.1100 -0.1242  0.3612
  842MPD2    H512381   2.983   0.746  17.441 -0.6416 -1.7775 -0.2910
  842MPD2    N112382   2.950   0.751  16.865 -0.0496  0.1672 -0.0364
  842MPD2    H712383   2.880   0.734  16.794 -1.0860  1.4959  0.6812
  843MPD2     C12384   0.951   1.408   0.565  0.4793  0.0087 -0.9788
  843MPD2    C112385   0.907   1.508   0.651  0.3002  0.5009 -0.1629
  843MPD2    C212386   0.947   1.639   0.626 -0.2161 -0.4597 -0.2162
  843MPD2    C312387   1.037   1.670   0.522 -0.0537 -0.9777 -0.6002
  843MPD2    C412388   1.079   1.569   0.446  0.3017 -0.4392  0.0447
  843MPD2    C512389   1.034   1.439   0.466  0.0977  0.1235  0.0934
  843MPD2     H12390   0.910   1.724   0.681 -1.6108 -0.2798 -1.4281
  843MPD2    H112391   1.151   1.586   0.367 -2.0424  0.4232 -1.9188
  843MPD2    H212392   0.919   1.305   0.576  0.7018  0.1167  0.7163
  843MPD2    H312393   1.059   1.360   0.396 -2.3605 -1.5935  1.1402
  843MPD2     N12394   1.097   1.794   0.484  0.1214 -0.0948 -0.0166
  843MPD2    H512395   1.167   1.800   0.411 -0.2738 -0.8304 -0.4460
  843MPD2    N112396   0.847   1.473   0.772  0.5358 -0.3202 -0.5324
  843MPD2    H712397   0.814   1.378   0.789 -1.8617  0.9281  1.7974
  844MPD2     C12398   4.395   0.768  16.845  0.3167  0.1807  0.1904
  844MPD2    C112399   4.497   0.691  16.893  0.6451 -0.4701 -0.1797
  844MPD2    C212400   4.578   0.750  16.993  0.0826  0.7046  0.6510
  844MPD2    C312401   4.575   0.880  17.029 -0.2251  1.2194  0.2073
  844MPD2    C412402   4.488   0.961  16.966 -0.0319 -0.3085 -0.3050
  844MPD2    C512403   4.396   0.901  16.880  0.6163 -0.1778 -0.2023
  844MPD2     H12404   4.645   0.686  17.049 -0.3940 -3.0314 -3.0052
  844MPD2    H112405   4.477   1.063  17.001  2.5599 -0.8685  2.1911
  844MPD2    H212406   4.322   0.727  16.778 -0.6651 -1.1920  2.0990
  844MPD2    H312407   4.314   0.964  16.849 -0.1542 -1.7035 -1.2688
  844MPD2     N12408   4.669   0.921  17.124 -0.1288  0.3893  0.4395
  844MPD2    H512409   0.011   0.850  17.162  0.6567  0.1566 -1.3417
  844MPD2    N112410   4.504   0.558  16.853 -0.3189  0.0257  0.2308
  844MPD2    H712411   4.439   0.526  16.782 -0.7671 -2.9427  1.9816
  845MPD2     C12412   0.026   1.787  17.647  0.6123  0.0430  0.3113
  845MPD2    C112413   4.690   1.757  17.522  0.1633  0.7102 -0.5302
  845MPD2    C212414   0.013   1.648  17.450  0.3077 -0.9373 -0.5278
  845MPD2    C312415   0.110   1.565  17.501 -0.0893 -0.9400  0.0878
  845MPD2    C412416   0.161   1.597  17.625  0.6001  0.9722  0.6424
  845MPD2    C512417   0.124   1.707   0.002  1.0469  0.4867  0.9872
  845MPD2     H12418   4.679   1.612  17.364 -0.6937 -0.4407 -0.0874
  845MPD2    H112419   0.232   1.537  17.681 -1.0916 -1.2363  0.4030
  845MPD2    H212420   4.712   1.865   0.028 -0.9429 -0.4634  0.0896
  845MPD2    H312421   0.162   1.723   0.102  1.2694  1.0804  0.8083
  845MPD2     N12422   0.130   1.446  17.427  0.3909 -0.2691  0.1372
  845MPD2    H512423   0.086   1.445  17.335 -1.1185  0.2025  0.8626
  845MPD2    N112424   4.582   1.851  17.484 -0.3645 -0.2779 -0.3232
  845MPD2    H712425   4.573   1.942  17.528 -0.9032  0.3892 -1.8097
  846MPD2     C12426   1.288   1.639  13.802 -0.0263 -0.2358 -0.6143
  846MPD2    C112427   1.204   1.743  13.825  1.3423  0.5692 -0.2218
  846MPD2    C212428   1.154   1.770  13.955  0.0291  0.1718  0.0687
  846MPD2    C312429   1.190   1.683  14.059 -0.0044  0.9949 -1.1791
  846MPD2    C412430   1.289   1.587  14.044  0.1872  0.7656 -0.1040
  846MPD2    C512431   1.337   1.566  13.914  0.4210 -0.0545 -0.3253
  846MPD2     H12432   1.081   1.849  13.965 -1.9351 -1.5820 -0.3003
  846MPD2    H112433   1.319   1.524  14.126  0.1620 -0.1793 -0.8158
  846MPD2    H212434   1.323   1.611  13.703 -0.6825 -2.4727 -0.2101
  846MPD2    H312435   1.401   1.481  13.895  1.5298  0.4198  1.3115
  846MPD2     N12436   1.132   1.708  14.186  0.4288 -0.2919 -0.2925
  846MPD2    H512437   1.062   1.782  14.193 -0.0624 -0.7115 -0.8161
  846MPD2    N112438   1.173   1.837  13.720 -0.2207 -0.1606  0.1578
  846MPD2    H712439   1.123   1.921  13.750  1.3001 -0.1546  2.6743
  847MPD2     C12440   1.181   2.628  14.612 -0.1105 -0.3239  0.2453
  847MPD2    C112441   1.301   2.688  14.577 -0.0195  0.2981  0.0393
  847MPD2    C212442   1.415   2.610  14.581 -0.5120 -0.0042 -0.5523
  847MPD2    C312443   1.413   2.479  14.621 -0.3836  0.6355  0.6145
  847MPD2    C412444   1.294   2.411  14.631 -0.6918  0.4240  0.0007
  847MPD2    C512445   1.178   2.491  14.626 -0.0457 -0.3784 -0.2427
  847MPD2     H12446   1.511   2.657  14.564 -1.6976  2.5064 -0.3445
  847MPD2    H112447   1.287   2.304  14.647 -0.7345 -0.0108 -3.0270
  847MPD2    H212448   1.085   2.679  14.620 -0.3099 -0.9772  2.0530
  847MPD2    H312449   1.080   2.448  14.641  1.3355 -3.6560 -0.6016
  847MPD2     N12450   1.533   2.422  14.663  0.3547 -0.2632  0.3590
  847MPD2    H512451   1.611   2.487  14.660  0.7006 -0.6171  1.9764
  847MPD2    N112452   1.323   2.822  14.543 -1.0379 -0.1542  0.2389
  847MPD2    H712453   1.419   2.854  14.529 -1.2367  0.6344  0.6824
  848MPD2     C12454   4.064   0.974  16.616  0.1837  0.5339 -0.0938
  848MPD2    C112455   4.046   1.060  16.723  0.4304  0.2134  0.8794
  848MPD2    C212456   4.000   1.183  16.689  0.5159  0.0982 -0.1071
  848MPD2    C312457   3.977   1.220  16.562 -0.2270  0.2672  0.2174
  848MPD2    C412458   4.006   1.135  16.454 -0.1932  0.1597  0.1028
  848MPD2    C512459   4.049   1.011  16.484 -0.1392  0.9708  0.4197
  848MPD2     H12460   3.989   1.252  16.773  0.2930  1.9177 -1.6224
  848MPD2    H112461   3.974   1.155  16.353  0.2054  1.1144  0.1590
  848MPD2    H212462   4.087   0.868  16.620  0.7143  0.6299 -0.5428
  848MPD2    H312463   4.068   0.928  16.417 -2.8178 -0.0694  0.9414
  848MPD2     N12464   3.924   1.340  16.525  0.4976 -0.3467 -0.2558
  848MPD2    H512465   3.912   1.353  16.425 -0.9276  3.6399  0.4373
  848MPD2    N112466   4.051   1.015  16.861 -0.3281 -0.2743  0.2710
  848MPD2    H712467   4.030   1.082  16.934  1.1868  1.1998 -0.6468
  849MPD2     C12468   3.201   1.081  13.935  0.4079  0.9689 -1.2675
  849MPD2    C112469   3.306   1.171  13.951  0.7858  0.4581 -0.1697
  849MPD2    C212470   3.321   1.233  14.076 -0.4692  0.4214 -0.2931
  849MPD2    C312471   3.255   1.191  14.187  0.0521 -0.1647  0.4221
  849MPD2    C412472   3.160   1.094  14.167 -0.1817  0.4162  0.6756
  849MPD2    C512473   3.129   1.043  14.044  0.6609 -0.5464 -0.2082
  849MPD2     H12474   3.399   1.305  14.097  0.4894  0.1391 -2.9376
  849MPD2    H112475   3.109   1.054  14.254 -2.8585 -1.8345 -1.9068
  849MPD2    H212476   3.183   1.024  13.845  2.1910 -2.9609  0.8615
  849MPD2    H312477   3.052   0.969  14.028 -0.2718  0.3962 -0.1112
  849MPD2     N12478   3.295   1.229  14.318  0.5633  0.6527 -0.0425
  849MPD2    H512479   3.266   1.170  14.396  0.7749 -1.0060 -1.2084
  849MPD2    N112480   3.392   1.188  13.843  0.0630 -0.0754 -0.7537
  849MPD2    H712481   3.373   1.134  13.759  0.0049 -0.9094 -0.2077
  850MPD2     C12482   1.213   3.103  15.082  0.1811  0.1627 -0.3027
  850MPD2    C112483   1.208   3.203  15.178 -0.0901  0.3694  0.6255
  850MPD2    C212484   1.314   3.287  15.199 -0.5003  0.2563 -0.9092
  850MPD2    C312485   1.436   3.253  15.133  0.8149 -0.9537 -0.0664
  850MPD2    C412486   1.440   3.156  15.041  0.1747  0.7627  0.2902
  850MPD2    C512487   1.334   3.075  15.020  0.4646 -0.5543 -0.0338
  850MPD2     H12488   1.302   3.372  15.266  1.5574 -1.1843  1.2761
  850MPD2    H112489   1.534   3.124  14.999 -0.7362 -1.0578 -0.3510
  850MPD2    H212490   1.130   3.039  15.056 -0.3849  0.4443  0.8407
  850MPD2    H312491   1.344   2.995  14.947 -0.3949 -0.3266 -0.4048
  850MPD2     N12492   1.554   3.303  15.181  0.0341  0.1587  0.1289
  850MPD2    H512493   1.635   3.266  15.130  0.6957  0.4263  0.9977
  850MPD2    N112494   1.085   3.212  15.254  0.2903 -0.2937  0.3663
  850MPD2    H712495   1.013   3.158  15.208 -0.0796  0.5907 -0.0801
  851MPD2     C12496   1.775   3.268  15.811  0.2045  0.1153  0.6813
  851MPD2    C112497   1.693   3.204  15.724  0.0534  0.4210  0.2084
  851MPD2    C212498   1.733   3.072  15.680 -0.8624 -0.4904 -0.5828
  851MPD2    C312499   1.854   3.016  15.720  0.0104  0.4311  0.2294
  851MPD2    C412500   1.939   3.089  15.795 -0.4368 -0.3507 -0.6387
  851MPD2    C512501   1.889   3.205  15.852 -1.0382  0.0269  0.7612
  851MPD2     H12502   1.670   3.016  15.612 -0.7015 -1.0434 -0.2720
  851MPD2    H112503   2.036   3.050  15.824  1.0135  2.8264 -1.1645
  851MPD2    H212504   1.757   3.368  15.849 -2.0753  0.3200 -0.9339
  851MPD2    H312505   1.964   3.263  15.905 -1.4559  1.6826 -0.4574
  851MPD2     N12506   1.876   2.879  15.679 -0.3352  0.7467 -0.1254
  851MPD2    H512507   1.805   2.836  15.622 -0.8183 -1.8819  2.5201
  851MPD2    N112508   1.563   3.258  15.692  0.4947  0.5215 -0.8162
  851MPD2    H712509   1.550   3.353  15.726 -0.3332 -0.0154  0.3945
  852MPD2     C12510   0.379   1.172   9.746  0.0917  0.1376  0.6061
  852MPD2    C112511   0.473   1.138   9.840 -0.2601  0.0532  0.0455
  852MPD2    C212512   0.607   1.188   9.834  0.1831  0.1401  0.0103
  852MPD2    C312513   0.637   1.283   9.736  0.4454 -0.3510  0.9236
  852MPD2    C412514   0.543   1.307   9.635 -0.0274 -0.2297 -0.1119
  852MPD2    C512515   0.415   1.253   9.647  0.1758 -0.4159 -0.9196
  852MPD2     H12516   0.685   1.149   9.899  1.4153 -0.2886 -1.7216
  852MPD2    H112517   0.560   1.372   9.550 -1.2894  0.3790  0.0917
  852MPD2    H212518   0.275   1.141   9.753 -0.4756  1.9451  0.2408
  852MPD2    H312519   0.338   1.272   9.573 -0.2027 -1.3832 -0.7838
  852MPD2     N12520   0.760   1.351   9.742 -0.6026 -0.0017 -0.2383
  852MPD2    H512521   0.813   1.326   9.825  0.4526  3.9809  0.2982
  852MPD2    N112522   0.439   1.060   9.945 -0.1754  0.6134  0.4282
  852MPD2    H712523   0.496   1.048  10.028 -0.1809 -0.1677  0.3233
  853MPD2     C12524   3.160   0.808  12.374 -0.1155 -0.0171  0.2601
  853MPD2    C112525   3.109   0.921  12.317 -0.5064  0.3937 -0.1025
  853MPD2    C212526   3.096   0.919  12.177 -0.5790  0.0900  0.4088
  853MPD2    C312527   3.163   0.828  12.097 -0.3473 -0.1037  0.9650
  853MPD2    C412528   3.211   0.718  12.162 -0.4464 -0.6869  0.0307
  853MPD2    C512529   3.203   0.708  12.297  0.2679 -0.4885  0.2102
  853MPD2     H12530   3.050   1.005  12.129  0.5729 -0.4519 -1.6615
  853MPD2    H112531   3.257   0.634  12.112  0.3161 -0.8406  0.9764
  853MPD2    H212532   3.181   0.808  12.480 -0.0488 -1.5316  0.2483
  853MPD2    H312533   3.238   0.621  12.350 -3.2817 -2.4142 -0.6571
  853MPD2     N12534   3.194   0.841  11.958 -0.5299 -0.2390  0.4916
  853MPD2    H512535   3.246   0.764  11.918  1.8668  1.3964  0.4021
  853MPD2    N112536   3.060   1.024  12.408 -0.2164  1.0333 -0.1340
  853MPD2    H712537   3.085   1.012  12.506  0.5755 -1.9771 -0.6903
  854MPD2     C12538   4.308   1.265  13.312 -0.3617 -1.0494 -0.1257
  854MPD2    C112539   4.398   1.235  13.211  0.1472  0.3754  0.6369
  854MPD2    C212540   4.517   1.168  13.241  0.4052 -0.2555  0.1908
  854MPD2    C312541   4.564   1.157  13.369  0.3196 -0.4354  0.9183
  854MPD2    C412542   4.483   1.216  13.465 -0.5815 -0.5978 -0.3079
  854MPD2    C512543   4.354   1.264  13.443  0.6551 -0.1008 -0.3804
  854MPD2     H12544   4.572   1.127  13.157  0.6051 -3.1098  1.7325
  854MPD2    H112545   4.520   1.206  13.566  2.2013  0.5748 -1.2071
  854MPD2    H212546   4.215   1.318  13.292  0.0317 -0.1641  0.3614
  854MPD2    H312547   4.301   1.303  13.529 -1.7383 -1.2127 -1.3677
  854MPD2     N12548   4.683   1.104  13.404  0.2800 -0.5211  0.6412
  854MPD2    H512549   4.701   1.097  13.503  0.1914 -1.1720  0.6159
  854MPD2    N112550   4.355   1.267  13.075  0.4620  0.6617  0.5053
  854MPD2    H712551   4.266   1.315  13.069 -0.1449 -0.7962 -2.1245
  855MPD2     C12552   0.116   1.083  14.213  0.2897  0.1428 -0.0436
  855MPD2    C112553   0.077   0.963  14.153 -0.2111 -0.1780  0.2020
  855MPD2    C212554   0.095   0.945  14.020 -0.4986  0.0347  0.2581
  855MPD2    C312555   0.149   1.043  13.941  0.0650  0.3523  0.1343
  855MPD2    C412556   0.169   1.172  13.996 -0.1790 -0.4060 -0.0463
  855MPD2    C512557   0.158   1.187  14.133  0.2657 -0.1075  0.3152
  855MPD2     H12558   0.079   0.846  13.978 -0.9321 -0.3237  1.2785
  855MPD2    H112559   0.196   1.264  13.946  0.5424  0.0898  1.2542
  855MPD2    H212560   0.098   1.103  14.318  0.3698 -1.0626  0.2067
  855MPD2    H312561   0.180   1.285  14.173 -0.3325 -0.5365  1.7002
  855MPD2     N12562   0.195   1.021  13.811 -0.2604  0.2024 -0.0961
  855MPD2    H512563   0.219   1.101  13.752 -0.1788 -0.9034 -1.5587
  855MPD2    N112564   0.034   0.852  14.231  0.9688  0.1903  0.8556
  855MPD2    H712565   0.064   0.849  14.328  1.5082 -0.9172  0.6513
  856MPD2     C12566   2.385   1.908  13.359  0.0438 -0.1178 -0.1881
  856MPD2    C112567   2.466   1.992  13.427  0.3075  0.3608 -0.5003
  856MPD2    C212568   2.409   2.088  13.513 -0.0636  1.1062 -0.6392
  856MPD2    C312569   2.272   2.077  13.553  0.4482  0.6018  1.0235
  856MPD2    C412570   2.192   1.983  13.487  0.4944 -0.0775  0.0500
  856MPD2    C512571   2.254   1.906  13.389 -0.2985 -0.8602  1.0239
  856MPD2     H12572   2.474   2.164  13.554  0.6572  0.9070 -1.4248
  856MPD2    H112573   2.089   1.961  13.516  0.2102 -0.3146 -1.1291
  856MPD2    H212574   2.413   1.829  13.290 -1.6575 -1.2044  0.3543
  856MPD2    H312575   2.184   1.844  13.333  0.2308 -0.8536  0.3538
  856MPD2     N12576   2.227   2.154  13.657 -0.6329  0.0867  0.4927
  856MPD2    H512577   2.130   2.145  13.687 -1.6299  3.1928 -1.7471
  856MPD2    N112578   2.606   1.998  13.409  0.0286  0.1023 -0.3537
  856MPD2    H712579   2.652   2.070  13.463 -0.0595 -0.5986  0.6539
  857MPD2     C12580   3.903   4.188  12.918  0.6459  0.4798  0.5355
  857MPD2    C112581   4.028   4.154  12.868 -0.8754 -0.3801  0.5547
  857MPD2    C212582   4.114   4.260  12.856  0.1839 -0.0402  0.7102
  857MPD2    C312583   4.084   4.385  12.903 -0.3617  0.1334  0.1922
  857MPD2    C412584   3.955   4.407  12.962 -0.8606  0.0254  0.3284
  857MPD2    C512585   3.865   4.307  12.970 -0.2432  0.1303 -0.2563
  857MPD2     H12586   4.210   4.242  12.809  0.4466  2.9448  0.1262
  857MPD2    H112587   3.917   4.505  12.988  2.5085  1.6311 -0.7644
  857MPD2    H212588   3.827   4.111  12.923  0.7770  0.5094  3.3221
  857MPD2    H312589   3.763   4.316  13.005 -0.1189  0.0798  0.1099
  857MPD2     N12590   4.189   4.485  12.887 -0.3101  0.3300  0.2043
  857MPD2    H512591   4.280   4.449  12.862 -0.6322 -1.3935  1.5086
  857MPD2    N112592   4.060   4.022  12.831  0.1538 -0.2867  0.6621
  857MPD2    H712593   3.987   3.953  12.842  0.0678 -0.1842  0.7328
  858MPD2     C12594   4.233   2.844  16.987  0.4311 -0.3909  0.1870
  858MPD2    C112595   4.367   2.878  16.966  0.2031  0.5950 -0.3149
  858MPD2    C212596   4.419   2.994  17.023 -0.0599 -0.2919 -0.1770
  858MPD2    C312597   4.345   3.069  17.112  0.1387 -0.1425  0.2362
  858MPD2    C412598   4.218   3.032  17.127 -0.2893 -0.1185 -0.4157
  858MPD2    C512599   4.162   2.929  17.066  0.4171  0.3133 -0.3367
  858MPD2     H12600   4.525   3.013  17.011  0.0361 -0.3239  0.6223
  858MPD2    H112601   4.159   3.092  17.196 -2.5898 -1.4963 -1.2097
  858MPD2    H212602   4.191   2.761  16.931  0.4447  1.5262 -2.6529
  858MPD2    H312603   4.059   2.908  17.089  0.4851 -1.9191 -1.9823
  858MPD2     N12604   4.394   3.175  17.192 -0.0654  0.3104 -0.7507
  858MPD2    H512605   4.329   3.225  17.253 -0.2663 -0.5808 -0.2386
  858MPD2    N112606   4.448   2.788  16.888  0.1662 -1.0567 -0.3628
  858MPD2    H712607   4.409   2.697  16.865 -1.3129 -0.1543 -1.3346
  859MPD2     C12608   3.668   0.677  15.666  0.3912 -0.5177 -0.5706
  859MPD2    C112609   3.576   0.688  15.563 -0.2950  0.1224 -0.6586
  859MPD2    C212610   3.477   0.598  15.535 -0.1020 -0.7799 -0.5928
  859MPD2    C312611   3.476   0.484  15.615  1.3244  0.0492  0.1998
  859MPD2    C412612   3.569   0.469  15.717 -0.4727 -0.1796  0.2542
  859MPD2    C512613   3.658   0.564  15.740 -0.0821  0.1962 -0.1051
  859MPD2     H12614   3.403   0.607  15.456  1.3216 -0.0745 -1.8465
  859MPD2    H112615   3.563   0.386  15.786 -0.1892 -0.7168 -0.3699
  859MPD2    H212616   3.749   0.745  15.690 -0.0910  0.5520 -1.9804
  859MPD2    H312617   3.740   0.553  15.810  1.1358 -1.3579 -1.7669
  859MPD2     N12618   3.379   0.381  15.605  0.2975  0.0054 -0.0081
  859MPD2    H512619   3.383   0.313  15.680  1.2390 -0.8476 -0.8489
  859MPD2    N112620   3.588   0.812  15.495 -0.7340 -0.6772 -1.0537
  859MPD2    H712621   3.643   0.887  15.536 -0.2645 -0.3345 -2.2873
  860MPD2     C12622   1.042   0.952  11.903  0.4194  0.2756  0.3211
  860MPD2    C112623   0.992   1.049  11.995  0.7518 -0.2030  0.4917
  860MPD2    C212624   0.888   1.002  12.078 -0.3807  0.0598 -0.6529
  860MPD2    C312625   0.847   0.873  12.078  0.2097 -0.4790 -0.4985
  860MPD2    C412626   0.902   0.785  11.984  0.5459 -0.6488  0.1031
  860MPD2    C512627   0.996   0.823  11.894 -0.1132  0.2398  0.3176
  860MPD2     H12628   0.843   1.077  12.142 -0.6473 -1.6094  1.1237
  860MPD2    H112629   0.857   0.687  11.976 -0.8808  0.1730 -2.2229
  860MPD2    H212630   1.108   0.980  11.822 -0.9736  1.5680 -0.3802
  860MPD2    H312631   1.021   0.754  11.815  0.2187  0.0193  0.6131
  860MPD2     N12632   0.740   0.841  12.168 -0.3388  0.6280 -0.2190
  860MPD2    H512633   0.709   0.914  12.232  0.7724  2.7681 -2.1459
  860MPD2    N112634   1.028   1.184  12.011  0.1886 -0.2254 -0.5675
  860MPD2    H712635   0.962   1.250  12.052  0.8826 -0.2176  0.5513
  861MPD2     C12636   4.544   3.769  11.427 -0.3148  0.3904 -0.2305
  861MPD2    C112637   4.613   3.875  11.376  0.9099  0.5861  0.3596
  861MPD2    C212638   4.551   3.955  11.281 -0.7032 -0.1489  0.1650
  861MPD2    C312639   4.417   3.931  11.249  0.2909  0.7234 -0.1136
  861MPD2    C412640   4.345   3.832  11.318  0.2093 -0.6417 -0.4185
  861MPD2    C512641   4.408   3.750  11.408  0.0375 -1.1111 -0.2862
  861MPD2     H12642   4.603   4.045  11.250 -0.3552 -0.2224  0.5489
  861MPD2    H112643   4.240   3.814  11.298 -0.0366  0.9715 -0.5848
  861MPD2    H212644   4.587   3.708  11.506  2.2609  1.8575 -0.5192
  861MPD2    H312645   4.362   3.679  11.475 -0.3584 -1.0388 -0.4783
  861MPD2     N12646   4.339   4.001  11.146  0.0930 -0.1492 -0.0474
  861MPD2    H512647   4.243   3.970  11.138 -0.4548  1.4985  0.1482
  861MPD2    N112648   0.027   3.903  11.409 -0.0636  0.1240  0.5238
  861MPD2    H712649   0.071   3.987  11.371 -0.4425  0.3759  0.6470
  862MPD2     C12650   4.130   4.370  10.454 -0.3490  0.4899  0.3055
  862MPD2    C112651   4.165   4.265  10.537 -0.3185 -0.1219  0.4885
  862MPD2    C212652   4.182   4.143  10.480  0.4393 -0.2605 -0.6583
  862MPD2    C312653   4.181   4.117  10.346  0.3041 -0.1362  0.5654
  862MPD2    C412654   4.144   4.222  10.257  0.0910 -0.6806  0.5702
  862MPD2    C512655   4.123   4.343  10.316  0.8036 -0.4588 -0.0591
  862MPD2     H12656   4.215   4.064  10.546  2.3052  0.6434 -0.5237
  862MPD2    H112657   4.132   4.196  10.153 -0.3419 -1.6808  0.8618
  862MPD2    H212658   4.128   4.473  10.488 -0.7568  0.3739  0.6265
  862MPD2    H312659   4.092   4.423  10.250  0.9883  0.4999  1.0166
  862MPD2     N12660   4.219   3.988  10.314 -0.2532  0.3464 -0.3352
  862MPD2    H512661   4.249   3.939  10.398 -0.9789  1.9758  0.8757
  862MPD2    N112662   4.186   4.280  10.674 -0.7613 -1.0892  0.2180
  862MPD2    H712663   4.191   4.193  10.727 -1.1780 -0.7889  0.7481
  863MPD2     C12664   3.236   1.764  17.402  0.2412  0.7042 -0.3244
  863MPD2    C112665   3.264   1.898  17.412 -0.2331 -0.3209 -0.1648
  863MPD2    C212666   3.292   1.954  17.540 -0.2349 -0.3492  0.1871
  863MPD2    C312667   3.297   1.868  17.651  0.1528  0.6167  0.1338
  863MPD2    C412668   3.254   1.737  17.636 -0.3274  0.0723  0.2628
  863MPD2    C512669   3.225   1.682  17.513  0.2126  0.9251 -0.5504
  863MPD2     H12670   3.299   2.062  17.550  0.6847 -0.2959 -0.9962
  863MPD2    H112671   3.243   1.675   0.038 -1.8994  0.1800  0.1453
  863MPD2    H212672   3.212   1.721  17.306  0.4704  0.5372 -0.3067
  863MPD2    H312673   3.191   1.580  17.501  2.3144  0.5007 -2.7898
  863MPD2     N12674   3.330   1.909   0.091 -0.2034  0.1984 -0.3847
  863MPD2    H512675   3.312   1.846   0.169  2.1592 -1.2028 -1.0088
  863MPD2    N112676   3.243   1.983  17.295  0.4845 -0.3962  0.7991
  863MPD2    H712677   3.239   1.939  17.204  4.1229  1.3872 -0.2103
  864MPD2     C12678   2.901   3.961  17.316 -0.7934 -0.5283 -0.8052
  864MPD2    C112679   3.000   3.868  17.290  0.4390 -0.1787  0.2329
  864MPD2    C212680   3.096   3.896  17.196  0.0198 -0.9918 -0.1571
  864MPD2    C312681   3.105   4.020  17.128 -0.2176  0.3751  0.1204
  864MPD2    C412682   3.010   4.112  17.156  0.1684 -0.4247 -0.2515
  864MPD2    C512683   2.905   4.080  17.250  0.0370 -0.3923 -0.4539
  864MPD2     H12684   3.179   3.831  17.171 -0.4133 -1.1309 -1.2249
  864MPD2    H112685   3.013   4.213  17.117  0.5362  0.0254  0.9501
  864MPD2    H212686   2.822   3.942  17.388 -0.1589 -0.2554 -0.0480
  864MPD2    H312687   2.825   4.152  17.264  2.3012  2.5353 -2.3462
  864MPD2     N12688   3.204   4.053  17.031  0.8352 -0.4632 -0.1795
  864MPD2    H512689   3.205   4.142  16.983  1.5841 -0.3181  0.1066
  864MPD2    N112690   3.011   3.761  17.373 -0.0475  0.1630  0.6113
  864MPD2    H712691   2.959   3.762  17.460 -1.4929 -1.8284 -0.2376
  865MPD2     C12692   3.372   3.819  16.257 -0.0837  0.2327 -0.1627
  865MPD2    C112693   3.401   3.819  16.389 -0.5015 -0.2620  0.2785
  865MPD2    C212694   3.382   3.938  16.462 -0.2990  0.3261  1.1047
  865MPD2    C312695   3.332   4.048  16.395 -0.0421  0.3989 -0.2415
  865MPD2    C412696   3.296   4.041  16.267 -0.7381 -0.0659  0.6801
  865MPD2    C512697   3.312   3.927  16.190 -0.3031 -0.4000 -0.1644
  865MPD2     H12698   3.402   3.931  16.568  0.6877 -2.1345  0.7627
  865MPD2    H112699   3.259   4.132  16.219 -0.2889  0.8660  2.1145
  865MPD2    H212700   3.391   3.731  16.197  0.5960 -0.6551  1.3674
  865MPD2    H312701   3.284   3.920  16.086 -1.9838 -0.1152  0.2696
  865MPD2     N12702   3.301   4.175  16.465 -0.2314 -0.1354 -0.1005
  865MPD2    H512703   3.257   4.243  16.404 -0.0097  0.8359  0.8285
  865MPD2    N112704   3.450   3.695  16.444 -0.1300 -0.3201 -0.1605
  865MPD2    H712705   3.450   3.619  16.377  0.5759  0.3545 -0.9216
  866MPD2     C12706   0.649   4.362  11.464 -0.2976 -0.9401 -0.0219
  866MPD2    C112707   0.564   4.329  11.354  0.3707 -0.2776  0.0400
  866MPD2    C212708   0.431   4.367  11.340  0.4329 -0.0434 -0.5801
  866MPD2    C312709   0.373   4.428  11.452  0.3769 -1.0670 -0.1506
  866MPD2    C412710   0.452   4.440  11.569 -0.0163 -0.9723 -0.5230
  866MPD2    C512711   0.583   4.416  11.568  0.4454  0.0352 -0.3748
  866MPD2     H12712   0.379   4.338  11.249 -1.4464 -1.7360  1.0264
  866MPD2    H112713   0.414   4.491  11.657  1.6087 -2.2004  0.9005
  866MPD2    H212714   0.753   4.331  11.476  0.7535  2.1427 -1.2567
  866MPD2    H312715   0.639   4.427  11.660 -0.4322 -0.7571  0.2577
  866MPD2     N12716   0.235   4.465  11.463 -0.6524 -0.5376 -0.5091
  866MPD2    H512717   0.204   4.490  11.556  0.3517  0.7255 -0.5140
  866MPD2    N112718   0.636   4.272  11.245  0.4100  0.6757  0.3914
  866MPD2    H712719   0.732   4.241  11.257 -0.0716 -1.2086 -0.5620
  867MPD2     C12720   2.487   4.116  16.787  0.3540  0.5840 -0.1287
  867MPD2    C112721   2.530   4.090  16.916 -0.3579  0.0483  0.6347
  867MPD2    C212722   2.545   4.195  17.000 -0.3051 -0.5070  0.8396
  867MPD2    C312723   2.526   4.325  16.963 -0.1590  0.2504  0.0266
  867MPD2    C412724   2.497   4.347  16.831 -0.0277 -0.2183 -0.6119
  867MPD2    C512725   2.466   4.245  16.747 -0.9538  0.4523 -0.5841
  867MPD2     H12726   2.565   4.158  17.100  0.2302 -0.3267  0.7978
  867MPD2    H112727   2.480   4.450  16.806 -1.4123 -0.2738  0.1056
  867MPD2    H212728   2.450   4.042  16.717  0.5004  0.9850 -0.6220
  867MPD2    H312729   2.447   4.267  16.642 -0.5069  0.6960 -0.6109
  867MPD2     N12730   2.536   4.442  17.046 -0.1954  0.1866 -0.4279
  867MPD2    H512731   2.489   4.527  17.016 -0.7651  0.2087  0.5221
  867MPD2    N112732   2.562   3.955  16.949 -0.3040  0.4115 -0.6829
  867MPD2    H712733   2.553   3.894  16.868 -0.4696  0.8596 -1.0084
  868MPD2     C12734   4.628   3.118  13.473  0.3010  0.7177  0.4819
  868MPD2    C112735   4.564   3.003  13.444 -0.2090  0.2131  0.5614
  868MPD2    C212736   4.446   2.991  13.511 -0.5516 -0.2898 -0.2830
  868MPD2    C312737   4.398   3.073  13.606  0.3622  0.4107  0.0566
  868MPD2    C412738   4.460   3.193  13.621  0.0802 -0.0046  0.5169
  868MPD2    C512739   4.574   3.214  13.549 -0.1768 -0.2237 -0.9413
  868MPD2     H12740   4.393   2.898  13.501 -0.0993 -0.4381 -1.4146
  868MPD2    H112741   4.431   3.268  13.694  0.4751  0.0543  0.6141
  868MPD2    H212742   4.719   3.139  13.418  0.0138 -1.1430 -0.7409
  868MPD2    H312743   4.615   3.314  13.557 -0.1918 -0.1905 -1.2804
  868MPD2     N12744   4.278   3.029  13.680  0.4391 -0.0803  0.1624
  868MPD2    H512745   4.239   2.938  13.659 -0.4125  0.3717 -0.2177
  868MPD2    N112746   4.627   2.911  13.356 -0.4662 -0.1457 -0.0081
  868MPD2    H712747   0.007   2.923  13.353 -0.4830  0.2495  1.1576
  869MPD2     C12748   1.321   0.292   2.175 -0.8478  0.0260  0.2247
  869MPD2    C112749   1.198   0.302   2.226 -0.6863 -0.2963 -0.0966
  869MPD2    C212750   1.117   0.409   2.196  0.4681  0.8849  0.2408
  869MPD2    C312751   1.146   0.490   2.089 -0.5413  0.2235 -0.2040
  869MPD2    C412752   1.268   0.471   2.026 -0.0737  0.5178  0.8819
  869MPD2    C512753   1.356   0.382   2.081  0.3285  1.0069  0.4044
  869MPD2     H12754   1.024   0.419   2.250  0.7525  0.5706  0.7806
  869MPD2    H112755   1.290   0.538   1.944  1.8187 -1.6124 -0.3739
  869MPD2    H212756   1.397   0.219   2.201  1.0251  2.1292  0.6792
  869MPD2    H312757   1.454   0.367   2.036  1.1957  1.2467  2.2060
  869MPD2     N12758   1.054   0.592   2.048  0.2428  0.3394 -0.1512
  869MPD2    H512759   1.077   0.637   1.960 -2.9775  0.8770 -0.6959
  869MPD2    N112760   1.161   0.204   2.326 -0.2869  0.5874 -0.0117
  869MPD2    H712761   1.216   0.121   2.342 -0.4300 -0.3045 -3.9403
  870MPD2     C12762   4.591   4.706   1.948  0.2276 -0.1946  0.6813
  870MPD2    C112763   0.005   0.009   1.935 -0.3131  0.3572 -0.1186
  870MPD2    C212764   0.047   0.111   1.852  0.3373 -0.2877  0.5775
  870MPD2    C312765   4.678   0.195   1.792  0.7644  0.4792  0.3356
  870MPD2    C412766   4.540   0.173   1.810  0.0275 -0.0130  0.1326
  870MPD2    C512767   4.499   0.066   1.885  0.3506 -0.3065 -0.4443
  870MPD2     H12768   0.152   0.134   1.863  0.2830  0.6869 -0.8876
  870MPD2    H112769   4.468   0.244   1.772 -1.3648 -1.8849 -0.6814
  870MPD2    H212770   4.558   4.629   2.017 -3.4725 -0.0340 -0.8895
  870MPD2    H312771   4.392   0.048   1.892  0.3547 -0.6829 -1.3369
  870MPD2     N12772   0.014   0.308   1.728 -0.2057  0.0524 -0.1322
  870MPD2    H512773   0.110   0.300   1.696 -0.0518 -2.0805  0.8925
  870MPD2    N112774   0.091   4.640   2.000 -0.6126 -0.1739 -0.4820
  870MPD2    H712775   0.049   4.564   2.052  2.8547 -0.5454  1.7656
  871MPD2     C12776   1.550   3.750  16.647 -0.3156  0.3044 -0.0300
  871MPD2    C112777   1.508   3.697  16.762  0.5613 -0.6418 -0.3283
  871MPD2    C212778   1.484   3.565  16.773  0.4618  0.1037  0.6184
  871MPD2    C312779   1.516   3.481  16.669 -0.1852  0.2495 -0.2566
  871MPD2    C412780   1.563   3.537  16.551  0.1805  0.4382  0.3895
  871MPD2    C512781   1.555   3.669  16.538 -0.8551  0.0284 -0.1979
  871MPD2     H12782   1.438   3.522  16.862  1.3783 -0.0023  1.0343
  871MPD2    H112783   1.591   3.485  16.460 -1.1170 -0.2510  0.3861
  871MPD2    H212784   1.569   3.856  16.637 -2.9830  0.6541 -1.5247
  871MPD2    H312785   1.583   3.715  16.444 -0.2579  0.8688  0.3873
  871MPD2     N12786   1.503   3.341  16.686 -0.0911  0.1627  0.4448
  871MPD2    H512787   1.479   3.316  16.781  1.1464  0.4802  0.8463
  871MPD2    N112788   1.483   3.794  16.865 -0.9484 -0.1520 -0.0696
  871MPD2    H712789   1.498   3.890  16.835 -0.2743 -0.1109  0.4049
  872MPD2     C12790   2.255   1.301  14.514  0.3932  0.0108  0.2986
  872MPD2    C112791   2.193   1.392  14.431 -0.0696 -0.1270 -0.3718
  872MPD2    C212792   2.062   1.416  14.459  0.4100 -0.2178  0.5757
  872MPD2    C312793   1.987   1.343  14.550  0.7713 -0.2642 -0.6767
  872MPD2    C412794   2.051   1.250  14.627  0.9971  0.1026 -0.8270
  872MPD2    C512795   2.180   1.220  14.597 -0.8269 -0.2393 -0.1341
  872MPD2     H12796   2.015   1.494  14.401 -1.5823 -1.5601  0.3767
  872MPD2    H112797   1.989   1.195  14.697  1.9394 -0.0926 -0.1479
  872MPD2    H212798   2.361   1.283  14.497  0.7035  0.3937  1.8216
  872MPD2    H312799   2.222   1.152  14.672  0.6928 -0.3766 -1.1028
  872MPD2     N12800   1.849   1.363  14.574  0.0320  0.0732  0.1689
  872MPD2    H512801   1.809   1.295  14.638  1.1786 -2.4157 -1.7586
  872MPD2    N112802   2.254   1.449  14.317 -0.3685  0.2290 -0.0572
  872MPD2    H712803   2.189   1.485  14.248  1.8463 -1.2084 -2.8968
  873MPD2     C12804   3.543   1.695   1.477  0.4364  1.1303  0.8404
  873MPD2    C112805   3.597   1.605   1.564  0.2894  0.5022  0.4885
  873MPD2    C212806   3.648   1.495   1.507  0.3820  0.7706 -0.1362
  873MPD2    C312807   3.653   1.467   1.372  0.3153 -0.1014  0.8141
  873MPD2    C412808   3.592   1.556   1.288  0.2851 -0.2954 -0.2242
  873MPD2    C512809   3.547   1.672   1.342 -0.2029  0.0262  0.1442
  873MPD2     H12810   3.682   1.419   1.576  0.1181 -0.4142 -1.3195
  873MPD2    H112811   3.600   1.552   1.180  0.0019 -0.3688 -0.2433
  873MPD2    H212812   3.499   1.785   1.518  0.5845  2.0608 -1.0357
  873MPD2    H312813   3.505   1.748   1.277 -0.8943 -0.3357  0.1618
  873MPD2     N12814   3.699   1.342   1.321  0.7143  0.1219 -0.4575
  873MPD2    H512815   3.702   1.330   1.220  2.8717  1.4230 -0.5495
  873MPD2    N112816   3.586   1.630   1.698  0.1926  0.2765  0.9182
  873MPD2    H712817   3.521   1.702   1.725 -1.0378 -0.7283  0.6471
  874MPD2     C12818   3.097   1.340  16.239  0.0036 -0.6591 -0.5564
  874MPD2    C112819   3.184   1.254  16.311  0.8152  0.2753 -0.4094
  874MPD2    C212820   3.311   1.303  16.352  0.6013  0.4976 -0.3736
  874MPD2    C312821   3.348   1.429  16.309 -0.2610 -0.6657  0.8838
  874MPD2    C412822   3.260   1.506  16.240  0.1750 -0.0911 -0.5438
  874MPD2    C512823   3.137   1.461  16.204 -0.0077 -0.4598 -0.4463
  874MPD2     H12824   3.396   1.251  16.394 -0.7895  0.4019  2.3491
  874MPD2    H112825   3.283   1.607  16.206 -0.7063  0.9810  2.0162
  874MPD2    H212826   2.997   1.313  16.208 -0.3707 -0.0393  0.0889
  874MPD2    H312827   3.074   1.516  16.135 -0.5638 -1.3746 -0.6622
  874MPD2     N12828   3.477   1.476  16.357  0.0303 -0.6013 -0.5505
  874MPD2    H512829   3.536   1.422  16.419  0.6810  1.3441  0.5312
  874MPD2    N112830   3.123   1.137  16.364  0.1917  0.1407 -0.3325
  874MPD2    H712831   3.023   1.126  16.346 -0.3568 -0.3630  3.0281
  875MPD2     C12832   4.449   0.240  15.009 -0.2766 -0.8854  0.3219
  875MPD2    C112833   4.381   0.131  15.051  0.1686  0.1100  0.0373
  875MPD2    C212834   4.436   0.049  15.141 -0.2527  0.0322 -0.2390
  875MPD2    C312835   4.550   0.087  15.208 -0.0793 -0.3714 -0.5574
  875MPD2    C412836   4.613   0.197  15.169 -0.0942  0.1035  0.3524
  875MPD2    C512837   4.570   0.273  15.060  1.0149 -0.1164  0.4417
  875MPD2     H12838   4.391   4.674  15.165 -1.7034  0.0565 -2.8499
  875MPD2    H112839   4.715   0.219  15.201 -0.4812  2.8617 -0.2769
  875MPD2    H212840   4.420   0.307  14.929  0.3033 -1.8493 -0.6950
  875MPD2    H312841   4.611   0.372  15.050  1.7525 -0.3986  0.6747
  875MPD2     N12842   4.611   0.011  15.314 -0.7947 -0.1526  0.1110
  875MPD2    H512843   4.700   0.048  15.346 -0.3118 -1.2700  0.0441
  875MPD2    N112844   4.264   0.083  14.990  0.4212 -0.4422 -0.2029
  875MPD2    H712845   4.232   4.719  15.036 -1.1170  1.0121  1.3680
  876MPD2     C12846   3.570   0.824  15.936 -0.4852  0.7329  0.0527
  876MPD2    C112847   3.693   0.865  15.984  0.3067  0.1274  0.1581
  876MPD2    C212848   3.759   0.789  16.079 -0.2221 -0.3708  0.0893
  876MPD2    C312849   3.694   0.680  16.134 -0.0838  0.4790  0.7039
  876MPD2    C412850   3.572   0.643  16.081 -0.2625  0.1738  0.1711
  876MPD2    C512851   3.508   0.716  15.993  0.4214  0.0347  0.0415
  876MPD2     H12852   3.854   0.814  16.124 -0.9126  0.2318  1.2215
  876MPD2    H112853   3.512   0.559  16.114 -2.3022  0.1899 -3.5011
  876MPD2    H212854   3.517   0.890  15.869  0.9890  0.5313 -1.3180
  876MPD2    H312855   3.417   0.668  15.957  2.1680 -2.6893 -0.7441
  876MPD2     N12856   3.751   0.615  16.246 -0.3482 -0.2054  0.0547
  876MPD2    H512857   3.845   0.639  16.274  0.4704 -3.1934 -0.2116
  876MPD2    N112858   3.749   0.981  15.929 -0.2670 -0.9342 -0.2614
  876MPD2    H712859   3.684   1.016  15.860 -0.6017  2.7260  1.9000
  877MPD2     C12860   3.602   1.508  15.403  0.3973 -0.4708 -0.3476
  877MPD2    C112861   3.725   1.546  15.456  0.0518  0.5893 -0.1299
  877MPD2    C212862   3.797   1.640  15.387 -0.8422  0.2997 -0.1940
  877MPD2    C312863   3.755   1.692  15.261  0.2729 -0.3156  0.4354
  877MPD2    C412864   3.632   1.655  15.216 -0.1702  0.6761  0.1232
  877MPD2    C512865   3.564   1.562  15.285  0.2311 -0.4422  0.0797
  877MPD2     H12866   3.887   1.668  15.440 -0.5032  0.0225 -0.6301
  877MPD2    H112867   3.578   1.690  15.128  1.8362  1.9730 -0.6015
  877MPD2    H212868   3.535   1.435  15.448  1.0941  1.6297  4.0451
  877MPD2    H312869   3.466   1.543  15.243  1.4948 -0.6493 -2.7462
  877MPD2     N12870   3.833   1.788  15.205  0.2371  0.5666  0.2470
  877MPD2    H512871   3.928   1.802  15.239  1.0547 -0.3994 -1.6530
  877MPD2    N112872   3.783   1.500  15.579 -0.6111  0.5485  0.1655
  877MPD2    H712873   3.865   1.548  15.614 -0.2212 -0.1549  0.2164
  878MPD2     C12874   3.771   0.615  13.273 -0.1609 -0.0300 -0.6319
  878MPD2    C112875   3.685   0.722  13.255 -0.4866 -0.2402  0.9671
  878MPD2    C212876   3.641   0.789  13.362 -0.9889  0.0392 -0.1914
  878MPD2    C312877   3.689   0.767  13.484  0.0389  0.5701 -0.9637
  878MPD2    C412878   3.786   0.670  13.500 -0.3020  0.0720 -0.5247
  878MPD2    C512879   3.828   0.595  13.393 -0.4685 -0.2510 -0.0915
  878MPD2     H12880   3.567   0.868  13.351 -1.4602 -0.5597 -1.2653
  878MPD2    H112881   3.840   0.652  13.592 -0.7221  0.3301 -0.2245
  878MPD2    H212882   3.811   0.554  13.193  0.3741  0.1914 -0.5329
  878MPD2    H312883   3.891   0.509  13.415  0.1426  0.3257  0.3750
  878MPD2     N12884   3.642   0.839  13.592 -0.3693 -0.4568 -0.0615
  878MPD2    H512885   3.566   0.903  13.569  0.6676  1.0744  0.7345
  878MPD2    N112886   3.671   0.754  13.118 -0.3215  0.3393 -0.5337
  878MPD2    H712887   3.726   0.702  13.050 -1.4819 -1.1033 -0.3629
  879MPD2     C12888   3.895   2.652   0.009  0.0115  0.6552  1.0419
  879MPD2    C112889   3.942   2.569   0.109 -0.5224 -1.1313  0.1385
  879MPD2    C212890   3.894   2.436   0.104 -0.1515 -0.8583  0.4118
  879MPD2    C312891   3.807   2.391   0.002 -0.2223  0.1444 -0.6825
  879MPD2    C412892   3.749   2.480  17.595 -0.0461  0.2407 -0.4274
  879MPD2    C512893   3.797   2.611  17.604  0.0690 -0.6607 -0.6366
  879MPD2     H12894   3.937   2.375   0.182  0.7220  0.5437  1.0246
  879MPD2    H112895   3.676   2.453  17.519 -0.0119  0.8322 -0.6674
  879MPD2    H212896   3.918   2.757  17.676  1.9052  0.6981  3.6961
  879MPD2    H312897   3.756   2.687  17.537  0.9124 -0.1670 -0.5937
  879MPD2     N12898   3.767   2.262  17.677 -0.1078 -0.0336 -0.3862
  879MPD2    H512899   3.710   2.243  17.596  0.0270 -2.8912  0.1787
  879MPD2    N112900   4.026   2.609   0.213  0.1552 -0.2197 -0.1058
  879MPD2    H712901   4.045   2.549   0.292 -0.2117 -0.8048 -0.4625
  880MPD2     C12902   0.655   4.067   1.069  0.0936  0.2136  0.3488
  880MPD2    C112903   0.582   4.173   1.116 -1.4612  0.0031  0.7576
  880MPD2    C212904   0.489   4.144   1.221 -0.0211 -0.1452 -0.1350
  880MPD2    C312905   0.477   4.019   1.266  0.3346 -0.2110  0.4607
  880MPD2    C412906   0.566   3.920   1.232 -0.0927  0.1744  0.4460
  880MPD2    C512907   0.644   3.942   1.123  0.0495 -0.0424  0.1538
  880MPD2     H12908   0.431   4.225   1.264 -0.3516  0.2999 -1.4179
  880MPD2    H112909   0.571   3.818   1.267 -1.4002 -0.7699 -2.1227
  880MPD2    H212910   0.723   4.068   0.984  1.2885  0.1587  1.3049
  880MPD2    H312911   0.703   3.862   1.080 -1.6129 -0.7912 -0.7245
  880MPD2     N12912   0.375   3.998   1.365 -0.3149 -0.0392 -0.5740
  880MPD2    H512913   0.322   4.079   1.396  0.1756  0.0937 -0.0902
  880MPD2    N112914   0.601   4.294   1.051 -0.0584  0.5422  0.5349
  880MPD2    H712915   0.649   4.290   0.962  1.0866  1.1962  1.1306
  881MPD2     C12916   0.329   4.347   0.254 -0.4590 -0.0109 -0.3883
  881MPD2    C112917   0.429   4.445   0.251  0.6261  0.0804  0.3271
  881MPD2    C212918   0.485   4.489   0.369 -0.3561 -0.2498 -0.0859
  881MPD2    C312919   0.420   4.452   0.491 -0.8513  0.5148  0.0801
  881MPD2    C412920   0.307   4.373   0.490  0.0825 -0.7278 -0.4574
  881MPD2    C512921   0.270   4.311   0.374 -0.2217  0.1634 -0.2081
  881MPD2     H12922   0.575   4.547   0.354 -0.7006 -0.1627 -1.7753
  881MPD2    H112923   0.258   4.342   0.582  3.1681 -1.1018  1.0686
  881MPD2    H212924   0.323   4.272   0.176  0.9288 -0.5900  0.0576
  881MPD2    H312925   0.192   4.236   0.374 -0.1375  0.0760 -1.6306
  881MPD2     N12926   0.469   4.500   0.617 -0.4316  0.0611  0.4854
  881MPD2    H512927   0.430   4.450   0.697 -0.1408  0.6795  1.0177
  881MPD2    N112928   0.509   4.459   0.131 -0.4359 -0.3462  0.3281
  881MPD2    H712929   0.488   4.399   0.052  1.2499 -1.9428  1.0797
  882MPD2     C12930   3.919   1.630  14.420 -0.1703 -0.6764  0.4944
  882MPD2    C112931   3.847   1.728  14.488  0.6696  0.3348  0.0345
  882MPD2    C212932   3.709   1.736  14.471 -0.2315 -0.0916 -0.4420
  882MPD2    C312933   3.650   1.659  14.368 -0.2328 -0.8781 -0.0213
  882MPD2    C412934   3.735   1.594  14.284 -0.5156  0.5632 -0.1340
  882MPD2    C512935   3.863   1.570  14.317  0.6829 -0.1837  0.4204
  882MPD2     H12936   3.650   1.803  14.532  0.0865 -0.5040  0.3127
  882MPD2    H112937   3.698   1.536  14.200 -0.6090  2.9144 -1.7280
  882MPD2    H212938   4.026   1.617  14.418 -0.1438 -0.3823 -0.0386
  882MPD2    H312939   3.923   1.505  14.254 -1.4455 -0.8352 -0.9326
  882MPD2     N12940   3.507   1.651  14.342  1.1591  0.0570  0.0671
  882MPD2    H512941   3.471   1.584  14.275  1.2334  0.0364  0.0468
  882MPD2    N112942   3.917   1.791  14.594  0.1849  0.8632  0.1720
  882MPD2    H712943   4.012   1.759  14.613  0.2640  0.7968 -0.3258
  883MPD2     C12944   0.677   1.636  16.818  0.5342  0.2951 -0.7362
  883MPD2    C112945   0.779   1.665  16.731 -0.8839  0.6701 -0.2789
  883MPD2    C212946   0.912   1.655  16.761 -0.3276  0.1319  0.3581
  883MPD2    C312947   0.945   1.615  16.882 -0.1306 -0.0390  0.3897
  883MPD2    C412948   0.846   1.593  16.976 -0.4275  0.5802  0.0264
  883MPD2    C512949   0.716   1.611  16.944  0.0690  0.7630 -1.0530
  883MPD2     H12950   0.984   1.677  16.682  0.1268 -1.6360  0.2916
  883MPD2    H112951   0.866   1.577  17.081  1.3347  2.2219 -0.0690
  883MPD2    H212952   0.573   1.665  16.805  0.1835 -1.0729 -0.9241
  883MPD2    H312953   0.647   1.601  17.027  0.2843  0.9959 -0.8482
  883MPD2     N12954   1.079   1.586  16.913 -0.0234 -0.4796  0.1983
  883MPD2    H512955   1.146   1.619  16.843 -0.2418 -1.5415 -0.5053
  883MPD2    N112956   0.753   1.709  16.601  0.5150  0.0562 -0.2502
  883MPD2    H712957   0.835   1.737  16.548 -0.2413  0.4055 -1.2394
  884MPD2     C12958   2.864   2.015  15.568 -0.2649  0.1721  0.5232
  884MPD2    C112959   2.832   2.144  15.551  0.1152 -0.4238 -1.2540
  884MPD2    C212960   2.702   2.177  15.524 -0.5536 -0.2307  0.1771
  884MPD2    C312961   2.598   2.083  15.524  0.0446 -0.7357 -0.6800
  884MPD2    C412962   2.632   1.948  15.526 -0.2904 -0.3224  0.0700
  884MPD2    C512963   2.765   1.921  15.550  0.4297 -0.7275 -0.6118
  884MPD2     H12964   2.693   2.284  15.511 -0.1902 -0.3367 -0.9274
  884MPD2    H112965   2.558   1.870  15.508 -3.4643  2.4211  1.1660
  884MPD2    H212966   2.963   1.978  15.589 -0.9891 -1.7613  0.4910
  884MPD2    H312967   2.793   1.816  15.555  1.7538 -0.3326  0.3821
  884MPD2     N12968   2.469   2.134  15.491  0.2754  0.5913  0.0147
  884MPD2    H512969   2.458   2.234  15.479 -0.1225  0.5647  0.1759
  884MPD2    N112970   2.922   2.251  15.576  0.2607  0.4600  0.3666
  884MPD2    H712971   2.874   2.341  15.572  0.5210  0.5931  0.2258
  885MPD2     C12972   0.636   2.965   0.918 -0.6147  0.4556 -0.0907
  885MPD2    C112973   0.683   2.852   0.863  0.6679 -0.0850  0.0332
  885MPD2    C212974   0.730   2.854   0.737  0.0158 -0.4389 -0.3909
  885MPD2    C312975   0.724   2.966   0.660  0.5478 -0.9093 -0.6373
  885MPD2    C412976   0.674   3.080   0.719  0.2813 -0.5615 -0.4232
  885MPD2    C512977   0.621   3.074   0.843 -0.0559 -0.4022  0.3070
  885MPD2     H12978   0.787   2.772   0.694 -0.6968 -0.9578 -0.3402
  885MPD2    H112979   0.667   3.175   0.667 -1.5802 -0.4773 -0.0178
  885MPD2    H212980   0.612   2.967   1.024  0.0417  2.6618  0.0096
  885MPD2    H312981   0.574   3.151   0.902 -1.1095 -1.6319  1.0783
  885MPD2     N12982   0.791   2.965   0.533  0.5016 -0.2478  0.6058
  885MPD2    H512983   0.817   2.874   0.498  3.0831  1.5805 -2.2156
  885MPD2    N112984   0.706   2.745   0.952 -0.4425  0.8448  0.5410
  885MPD2    H712985   0.669   2.761   1.045  1.2566 -1.8380  1.6893
  886MPD2     C12986   2.265   0.589  15.332 -0.1106 -0.1840 -0.4550
  886MPD2    C112987   2.356   0.672  15.396  0.8133 -0.3385 -0.2523
  886MPD2    C212988   2.386   0.790  15.332  0.2642 -0.2001 -0.9313
  886MPD2    C312989   2.337   0.826  15.207  0.8771 -0.1637 -0.4000
  886MPD2    C412990   2.243   0.748  15.147 -0.7762  0.0298 -0.1702
  886MPD2    C512991   2.207   0.626  15.212  0.1904 -0.5106 -0.2502
  886MPD2     H12992   2.452   0.857  15.385  0.2924  0.0269 -1.2523
  886MPD2    H112993   2.198   0.778  15.053 -1.8706  0.8880  0.6092
  886MPD2    H212994   2.236   0.494  15.375  3.4454  0.6120  3.6638
  886MPD2    H312995   2.128   0.564  15.170 -0.9714  1.3681 -0.8182
  886MPD2     N12996   2.380   0.939  15.133 -0.4056  0.0146 -0.0444
  886MPD2    H512997   2.358   0.942  15.034  1.0054  0.7071 -0.3389
  886MPD2    N112998   2.401   0.646  15.526  0.3848 -0.0566 -0.1839
  886MPD2    H712999   2.483   0.697  15.557  1.2274 -0.2378 -2.1179
  887MPD2     C13000   3.063   0.583  15.815 -0.0193  0.1744  0.0745
  887MPD2    C113001   2.966   0.670  15.773  0.8372  0.3074 -0.1894
  887MPD2    C213002   2.996   0.787  15.706 -0.3950  0.6746 -0.2063
  887MPD2    C313003   3.128   0.836  15.706 -0.4344  0.7430 -0.1850
  887MPD2    C413004   3.228   0.751  15.756 -0.2432  0.1510  0.2286
  887MPD2    C513005   3.195   0.621  15.800  0.4757 -0.2731  0.4703
  887MPD2     H13006   2.909   0.843  15.673 -1.4181  0.9113  2.8985
  887MPD2    H113007   3.333   0.774  15.765 -0.1397 -0.4830  0.6449
  887MPD2    H213008   3.044   0.487  15.861  1.4939  1.3394  3.1568
  887MPD2    H313009   3.277   0.564  15.840  1.6580  0.4607 -0.8891
  887MPD2     N13010   3.152   0.969  15.657  0.2986  0.6029 -0.4670
  887MPD2    H513011   3.071   1.027  15.638  0.0905  0.6059  0.3917
  887MPD2    N113012   2.825   0.641  15.785  0.8297  0.3716  0.7048
  887MPD2    H713013   2.760   0.698  15.732 -1.2675 -2.1301  0.5837
  888MPD2     C13014   4.387   0.819  14.848 -0.1452 -0.4223 -0.2289
  888MPD2    C113015   4.420   0.821  14.980  0.4219 -0.2560 -0.1401
  888MPD2    C213016   4.501   0.928  15.027 -0.1279 -0.4699  0.2919
  888MPD2    C313017   4.563   1.003  14.940  0.2261 -0.2249 -0.0544
  888MPD2    C413018   4.544   0.988  14.803 -0.3098  0.2527 -0.3165
  888MPD2    C513019   4.442   0.910  14.760  0.0600  0.5841 -0.0660
  888MPD2     H13020   4.516   0.930  15.134 -0.7169 -1.7543  0.3889
  888MPD2    H113021   4.595   1.051  14.730  0.7956  0.1596  0.3715
  888MPD2    H213022   4.331   0.734  14.811 -3.5588  2.1486 -0.9319
  888MPD2    H313023   4.424   0.900  14.654  1.0237 -1.3365 -0.0538
  888MPD2     N13024   4.654   1.102  14.993 -0.4457  0.6138  0.7011
  888MPD2    H513025   4.659   1.116  15.094  0.4481  1.3492  0.5535
  888MPD2    N113026   4.369   0.718  15.074  0.2214 -0.2104 -0.3054
  888MPD2    H713027   4.407   0.732  15.167 -1.7729 -2.9888  0.9122
  889MPD2     C13028   4.199   0.585  12.852  0.0733  0.0351 -0.2483
  889MPD2    C113029   4.232   0.546  12.976 -0.4969  0.9921 -0.2072
  889MPD2    C213030   4.179   0.613  13.093 -0.1644  0.4966 -0.4117
  889MPD2    C313031   4.116   0.738  13.076 -0.0698 -0.4617  0.1213
  889MPD2    C413032   4.090   0.788  12.948 -1.1901 -1.2525 -0.6917
  889MPD2    C513033   4.141   0.714  12.842  0.3400 -0.0501 -0.3608
  889MPD2     H13034   4.205   0.570  13.189 -1.2953  0.6025 -0.0589
  889MPD2    H113035   4.052   0.889  12.934 -1.7503 -0.7991  3.9042
  889MPD2    H213036   4.249   0.553  12.761  0.5164 -2.2999  0.8073
  889MPD2    H313037   4.128   0.762  12.745 -0.4161  1.2956  0.4062
  889MPD2     N13038   4.089   0.808  13.199 -0.4350 -0.1723 -0.0380
  889MPD2    H513039   4.129   0.764  13.281 -3.1660 -1.4647  0.6052
  889MPD2    N113040   4.270   0.414  12.999 -0.1084 -0.0845 -0.7373
  889MPD2    H713041   4.273   0.377  13.093  0.9345 -1.8150 -1.4628
  890MPD2     C13042   3.381   2.423  14.654 -0.7716  0.0523 -0.4306
  890MPD2    C113043   3.496   2.465  14.711 -0.2250  0.1021  1.0897
  890MPD2    C213044   3.512   2.477  14.849 -0.2351 -0.0469 -0.1921
  890MPD2    C313045   3.409   2.421  14.932  0.6488 -0.2016 -0.1550
  890MPD2    C413046   3.299   2.370  14.866 -0.8789  0.1031 -0.2741
  890MPD2    C513047   3.281   2.374  14.733  0.5596  0.2528  0.1598
  890MPD2     H13048   3.600   2.512  14.903 -0.4831  0.3669 -0.0594
  890MPD2    H113049   3.216   2.335  14.927  0.0898 -1.2986  0.2426
  890MPD2    H213050   3.373   2.412  14.546 -1.0255 -1.5524 -0.2458
  890MPD2    H313051   3.191   2.342  14.680 -0.0310  1.5218  0.3858
  890MPD2     N13052   3.423   2.434  15.071 -0.2341 -0.7754 -0.1200
  890MPD2    H513053   3.510   2.479  15.097 -0.7280  0.7696 -1.1665
  890MPD2    N113054   3.590   2.512  14.613 -0.0316  0.1893 -0.3120
  890MPD2    H713055   3.571   2.507  14.514  0.2398 -0.1910 -0.3445
  891MPD2     C13056   1.711   0.545  16.943  0.0502 -0.3115  0.3533
  891MPD2    C113057   1.637   0.562  17.056  0.2960  0.4355  0.1624
  891MPD2    C213058   1.700   0.565  17.180 -0.2299 -0.0099 -0.4296
  891MPD2    C313059   1.838   0.553  17.194  0.0692 -0.7241 -0.0093
  891MPD2    C413060   1.910   0.532  17.075 -0.1308  1.1349  0.1597
  891MPD2    C513061   1.851   0.529  16.956  0.0484  0.6387 -0.1375
  891MPD2     H13062   1.638   0.568  17.269  0.1705  1.2076 -0.2048
  891MPD2    H113063   2.016   0.513  17.079 -0.4559 -0.6122  0.2955
  891MPD2    H213064   1.667   0.553  16.844 -0.7236  0.2473  0.7419
  891MPD2    H313065   1.910   0.510  16.867 -0.4201  1.9444 -0.7342
  891MPD2     N13066   1.889   0.556  17.325 -0.4011  0.5623 -0.6637
  891MPD2    H513067   1.830   0.576  17.405  1.2898  0.3466  0.6395
  891MPD2    N113068   1.500   0.583  17.023 -0.7343  0.7022 -0.5473
  891MPD2    H713069   1.469   0.580  16.927  0.4002 -3.0208 -0.7793
  892MPD2     C13070   2.724   2.112  14.837  0.0832 -0.0409  0.1222
  892MPD2    C113071   2.703   1.979  14.843 -0.5432  0.3974 -0.1700
  892MPD2    C213072   2.793   1.893  14.781 -0.1825  0.4627  1.1201
  892MPD2    C313073   2.904   1.937  14.711  0.2058  0.0308  0.2627
  892MPD2    C413074   2.933   2.075  14.721 -0.2896  0.0645 -0.2623
  892MPD2    C513075   2.842   2.159  14.779  0.5327  0.3293 -0.9508
  892MPD2     H13076   2.771   1.787  14.780  1.1776  0.2318 -1.6873
  892MPD2    H113077   3.025   2.119  14.683 -0.4025 -0.2885 -0.9313
  892MPD2    H213078   2.656   2.189  14.874  0.8354  0.2619  0.8607
  892MPD2    H313079   2.865   2.263  14.802  0.1314 -0.3053  2.4113
  892MPD2     N13080   2.977   1.865  14.609 -0.4244  0.1110  0.9902
  892MPD2    H513081   3.050   1.920  14.565  0.1509 -1.0684  0.4861
  892MPD2    N113082   2.579   1.943  14.906  0.0454 -0.3801  0.0667
  892MPD2    H713083   2.511   2.015  14.928  1.1602  0.3262  1.1601
  893MPD2     C13084   4.264   0.364   1.944  0.5534  0.1948  1.3499
  893MPD2    C113085   4.295   0.302   2.060 -0.3006 -0.1660  0.3357
  893MPD2    C213086   4.205   0.233   2.136 -0.1305 -0.6742  0.4728
  893MPD2    C313087   4.065   0.238   2.096  0.4657  0.9447  0.1078
  893MPD2    C413088   4.030   0.292   1.978  1.0585  0.3798  0.1773
  893MPD2    C513089   4.132   0.365   1.906  0.6075 -0.2118 -0.5852
  893MPD2     H13090   4.229   0.183   2.229  2.1649  2.1383  1.3805
  893MPD2    H113091   3.931   0.299   1.934  1.2112 -0.1971 -0.2500
  893MPD2    H213092   4.330   0.413   1.874  0.0908  0.4691  1.1082
  893MPD2    H313093   4.101   0.412   1.814 -0.2362 -3.3532 -1.8917
  893MPD2     N13094   3.961   0.175   2.170  0.0192 -0.3006  0.1561
  893MPD2    H513095   3.873   0.177   2.120  0.6311 -0.6581 -0.9193
  893MPD2    N113096   4.429   0.307   2.099 -0.0820 -0.0170 -0.4235
  893MPD2    H713097   4.483   0.368   2.037  2.3092  0.2725  1.9178
  894MPD2     C13098   2.109   2.980   1.275  0.3534  0.3487  0.1794
  894MPD2    C113099   2.081   3.101   1.211 -0.0860  0.4173  0.0528
  894MPD2    C213100   2.168   3.203   1.239  0.0194 -0.0520 -0.5839
  894MPD2    C313101   2.277   3.189   1.326  0.5805  0.3676  0.0485
  894MPD2    C413102   2.299   3.066   1.384 -0.3133  0.0200  0.5575
  894MPD2    C513103   2.213   2.972   1.361 -0.4288 -0.1209  0.0839
  894MPD2     H13104   2.153   3.297   1.187  1.2998  1.0710  1.0772
  894MPD2    H113105   2.387   3.045   1.444 -1.0587  0.5828  1.8510
  894MPD2    H213106   2.038   2.900   1.263  0.6029  0.0794  0.5052
  894MPD2    H313107   2.222   2.873   1.405 -0.9437 -0.2456 -0.0939
  894MPD2     N13108   2.361   3.303   1.334  0.4100 -0.3930  0.6667
  894MPD2    H513109   2.327   3.390   1.294 -0.7969 -1.0867  0.1853
  894MPD2    N113110   1.976   3.137   1.122 -0.1892 -0.0975 -0.5624
  894MPD2    H713111   1.974   3.227   1.075  0.4600 -0.1207 -0.6446
  895MPD2     C13112   1.916   0.680  13.652  0.3274  0.4597 -0.6611
  895MPD2    C113113   1.787   0.632  13.653  0.2410 -0.2036 -0.2478
  895MPD2    C213114   1.766   0.504  13.605  0.9081  0.4412  0.1640
  895MPD2    C313115   1.879   0.422  13.578  0.6109  0.8573  0.0555
  895MPD2    C413116   2.004   0.476  13.583 -0.5172  0.6557  1.5757
  895MPD2    C513117   2.026   0.605  13.609 -0.7716 -0.1342 -0.3684
  895MPD2     H13118   1.671   0.453  13.594  0.7090  1.0290 -0.9034
  895MPD2    H113119   2.095   0.424  13.558 -1.0497  0.4185  0.1665
  895MPD2    H213120   1.928   0.783  13.683  1.9223  0.2562 -0.5828
  895MPD2    H313121   2.127   0.641  13.622  0.0729 -2.6849  0.2219
  895MPD2     N13122   1.868   0.290  13.544 -0.5847  0.7914  0.1457
  895MPD2    H513123   1.941   0.230  13.580 -0.3780  1.0800  0.2123
  895MPD2    N113124   1.668   0.691  13.690  0.1450  0.3883  1.2647
  895MPD2    H713125   1.589   0.644  13.648  0.6701  2.2503 -1.7528
  896MPD2     C13126   3.900   4.063   1.671  0.1037 -0.7965 -0.0745
  896MPD2    C113127   3.933   3.933   1.630 -0.6374 -0.0674  0.1204
  896MPD2    C213128   3.833   3.846   1.619  0.0822  0.2453 -0.1596
  896MPD2    C313129   3.701   3.885   1.635  0.0955 -0.3147 -0.5404
  896MPD2    C413130   3.670   4.015   1.675  0.0897 -0.1685 -0.4533
  896MPD2    C513131   3.769   4.101   1.690  0.0144 -0.4179  0.1079
  896MPD2     H13132   3.854   3.748   1.577  3.2533  1.4856 -1.4100
  896MPD2    H113133   3.570   4.049   1.697 -0.0362 -1.2540  0.6158
  896MPD2    H213134   3.976   4.139   1.681  0.1642 -0.7561 -0.8872
  896MPD2    H313135   3.739   4.204   1.711 -1.9660 -0.3707 -2.9495
  896MPD2     N13136   3.597   3.783   1.622  0.4649 -0.7698  0.7751
  896MPD2    H513137   3.613   3.684   1.604 -1.9135 -0.9489 -0.4057
  896MPD2    N113138   4.068   3.907   1.604 -0.8081 -0.5397  0.2681
  896MPD2    H713139   4.131   3.984   1.621  1.6276 -2.3680 -0.4496
  897MPD2     C13140   0.996   0.069  10.790 -0.1070  0.1352 -0.6663
  897MPD2    C113141   0.876   0.102  10.740  0.6115  0.2003 -0.2520
  897MPD2    C213142   0.757   0.056  10.795  0.1692 -0.2661 -0.5011
  897MPD2    C313143   0.765   4.720  10.923  0.3961 -0.5373 -0.3099
  897MPD2    C413144   0.887   4.699  10.981  0.2664 -0.8982  0.6250
  897MPD2    C513145   0.995   0.005  10.908  0.3071 -0.6355  0.1949
  897MPD2     H13146   0.666   0.078  10.742 -0.0409 -1.0070 -0.4518
  897MPD2    H113147   0.897   4.658  11.081 -0.4486  1.8228  1.8172
  897MPD2    H213148   1.091   0.099  10.748  1.3327 -1.8341  1.1881
  897MPD2    H313149   1.089   4.689  10.947 -0.2066 -1.2865  0.8110
  897MPD2     N13150   0.656   4.690  11.005 -0.1299 -0.3578 -0.3908
  897MPD2    H513151   0.676   4.654  11.098  2.3626  1.5665 -0.1786
  897MPD2    N113152   0.857   0.181  10.625 -0.1972  0.5492  0.3050
  897MPD2    H713153   0.765   0.183  10.583  0.5999  1.3097 -1.4028
  898MPD2     C13154   2.919   0.685   0.365 -0.5372 -0.8489 -0.2252
  898MPD2    C113155   2.931   0.817   0.387  0.3592  0.1717 -0.7375
  898MPD2    C213156   2.918   0.899   0.277  0.1387  0.2489 -0.6415
  898MPD2    C313157   2.900   0.855   0.151 -0.2028  0.0609 -0.0209
  898MPD2    C413158   2.890   0.716   0.131 -0.3702  0.8726 -0.3805
  898MPD2    C513159   2.905   0.632   0.240 -0.9239 -0.2250  0.3625
  898MPD2     H13160   2.940   1.001   0.303  0.1790  0.0872 -0.0428
  898MPD2    H113161   2.875   0.676   0.031 -0.2611 -2.3495  0.8735
  898MPD2    H213162   2.919   0.612   0.445 -0.2434  0.7439  1.2271
  898MPD2    H313163   2.898   0.525   0.229  2.7042 -0.3584 -0.6772
  898MPD2     N13164   2.875   0.957   0.058 -0.3365  0.3405 -0.2008
  898MPD2    H513165   2.864   1.051   0.095  2.5462  1.0856 -1.3149
  898MPD2    N113166   2.939   0.884   0.514 -0.6439  0.0705 -0.4292
  898MPD2    H713167   2.960   0.983   0.517 -4.0273  0.8148 -1.5420
  899MPD2     C13168   2.910   1.875   0.521  0.3136  0.1177  0.1397
  899MPD2    C113169   2.991   1.966   0.580  0.2178  0.2439 -0.3724
  899MPD2    C213170   2.937   2.038   0.684  0.1262  0.3479  0.5155
  899MPD2    C313171   2.807   2.018   0.732  0.0672  0.3086  0.4705
  899MPD2    C413172   2.732   1.924   0.671  0.0334 -0.3130 -0.0312
  899MPD2    C513173   2.786   1.847   0.565 -0.6678 -0.0586 -1.1015
  899MPD2     H13174   2.998   2.110   0.738  0.0385 -0.0920  1.2112
  899MPD2    H113175   2.631   1.898   0.700 -0.1226  1.0431  0.6007
  899MPD2    H213176   2.949   1.811   0.442 -3.0703 -0.0939 -1.3513
  899MPD2    H313177   2.730   1.772   0.510  0.7139 -0.8450 -1.4374
  899MPD2     N13178   2.753   2.100   0.826  0.4704 -0.3914 -0.1435
  899MPD2    H513179   2.652   2.103   0.834  0.4406  0.3497 -0.8367
  899MPD2    N113180   3.114   1.991   0.524  0.5424  0.9975  0.1944
  899MPD2    H713181   3.151   1.918   0.464  0.8776  0.6939  0.7740
  900MPD2     C13182   3.346   3.400  12.744 -0.1821  0.2203 -0.7136
  900MPD2    C113183   3.260   3.308  12.697  0.0774  0.4357 -0.5587
  900MPD2    C213184   3.122   3.321  12.716 -0.4585  0.0902  0.4451
  900MPD2    C313185   3.079   3.450  12.747  0.0369  0.6964  0.3613
  900MPD2    C413186   3.166   3.553  12.789  0.6180 -0.1302  0.1347
  900MPD2    C513187   3.298   3.519  12.791 -0.1062  0.1290  0.3628
  900MPD2     H13188   3.063   3.241  12.675 -0.7149  2.0497 -2.9898
  900MPD2    H113189   3.131   3.652  12.815 -0.4070 -1.0680  2.2922
  900MPD2    H213190   3.451   3.391  12.719  0.0176  0.2576  0.1066
  900MPD2    H313191   3.376   3.589  12.819  0.1780  0.5736 -1.5721
  900MPD2     N13192   2.937   3.475  12.735 -0.3600 -0.1425 -0.1647
  900MPD2    H513193   2.879   3.396  12.711 -0.2295 -0.1064 -0.6031
  900MPD2    N113194   3.324   3.193  12.639 -0.3808  0.0343  0.0862
  900MPD2    H713195   3.423   3.179  12.657 -0.6461 -0.9123  0.8240
  901MPD2     C13196   3.188   2.285  12.006  0.4354  0.2122 -0.5000
  901MPD2    C113197   3.216   2.250  12.138  0.0519 -0.1001  0.6053
  901MPD2    C213198   3.247   2.351  12.227 -0.2952 -0.7713  0.1130
  901MPD2    C313199   3.249   2.481  12.191 -0.4254  0.5001 -0.1155
  901MPD2    C413200   3.221   2.519  12.062  0.0641 -0.6850 -0.8416
  901MPD2    C513201   3.192   2.415  11.972  0.2259  0.4817 -0.4692
  901MPD2     H13202   3.274   2.319  12.328  0.0349 -0.3928  0.1411
  901MPD2    H113203   3.228   2.622  12.029 -1.5997  0.6566  2.8850
  901MPD2    H213204   3.171   2.210  11.930  1.4800  1.0569 -1.5708
  901MPD2    H313205   3.176   2.439  11.868  2.3271  0.6293 -0.7521
  901MPD2     N13206   3.292   2.576  12.287 -0.2028  0.9317 -0.5128
  901MPD2    H513207   3.320   2.539  12.378  2.5494  0.2492 -1.6512
  901MPD2    N113208   3.197   2.113  12.173  0.3964 -0.1242  0.7233
  901MPD2    H713209   3.162   2.057  12.095  2.0215  0.0699 -0.1412
  902MPD2     C13210   1.243   1.011  13.233  0.3064 -0.6429  0.1008
  902MPD2    C113211   1.297   1.128  13.184  0.5430 -0.9285 -0.0247
  902MPD2    C213212   1.407   1.123  13.101 -0.8803  0.0036 -0.3936
  902MPD2    C313213   1.472   1.010  13.072  0.4028  0.1457 -0.0213
  902MPD2    C413214   1.415   0.886  13.117 -0.2666 -0.3586 -0.0219
  902MPD2    C513215   1.305   0.892  13.195 -0.4734  0.0497  0.1534
  902MPD2     H13216   1.456   1.215  13.070  2.0197 -1.4003  0.0551
  902MPD2    H113217   1.471   0.794  13.108  2.1733  1.2255 -1.0548
  902MPD2    H213218   1.155   1.013  13.295 -0.2456 -0.9328 -0.6769
  902MPD2    H313219   1.269   0.799  13.238 -3.0503 -0.1388 -2.4185
  902MPD2     N13220   1.582   0.985  12.988 -0.0798  0.3176 -0.1852
  902MPD2    H513221   1.613   0.890  12.972  3.0133  1.3367 -0.3818
  902MPD2    N113222   1.241   1.248  13.219 -0.2760  0.0396  0.1683
  902MPD2    H713223   1.145   1.252  13.253 -0.9211 -1.3620 -1.5014
  903MPD2     C13224   1.908   1.378  12.308 -0.0989  0.7622 -0.2012
  903MPD2    C113225   1.793   1.322  12.364 -1.1068 -0.4609 -0.3886
  903MPD2    C213226   1.673   1.368  12.328  0.3960  0.1839  0.2001
  903MPD2    C313227   1.662   1.448  12.220 -0.4081 -0.5666 -0.0341
  903MPD2    C413228   1.774   1.512  12.168  0.9472  0.9848 -0.2278
  903MPD2    C513229   1.902   1.469  12.204 -0.6924 -0.4113  0.1863
  903MPD2     H13230   1.586   1.327  12.376 -0.3876 -0.9553 -2.1705
  903MPD2    H113231   1.776   1.594  12.098  0.1841  1.1908 -0.0085
  903MPD2    H213232   2.009   1.362  12.344  0.4440  0.2017 -1.9757
  903MPD2    H313233   1.988   1.523  12.168 -0.3849 -0.7909  0.3470
  903MPD2     N13234   1.529   1.465  12.163 -0.1191 -0.3340  0.7025
  903MPD2    H513235   1.453   1.408  12.200  0.3052 -0.2898  1.6530
  903MPD2    N113236   1.791   1.237  12.478 -0.2428  0.1144  0.0368
  903MPD2    H713237   1.708   1.184  12.500 -1.2307  1.4150 -0.5510
  904MPD2     C13238   1.798   0.079  14.254 -0.2923 -0.5624 -0.1162
  904MPD2    C113239   1.804   0.221  14.257  0.2224  1.2160 -0.4363
  904MPD2    C213240   1.914   0.296  14.300  0.2790 -0.2500 -0.4173
  904MPD2    C313241   2.033   0.224  14.330 -0.0092  0.0179 -0.0436
  904MPD2    C413242   2.032   0.090  14.318 -0.0373  0.3543  0.5246
  904MPD2    C513243   1.921   0.016  14.289 -0.7050 -0.2939 -0.4219
  904MPD2     H13244   1.916   0.405  14.303 -0.1945 -0.2609  0.3255
  904MPD2    H113245   2.116   0.024  14.334  0.4144  0.7925 -0.0271
  904MPD2    H213246   1.714   0.020  14.220 -0.8073 -0.3109  0.7092
  904MPD2    H313247   1.927   4.629  14.287  1.5129 -0.2174  1.4949
  904MPD2     N13248   2.145   0.282  14.384 -0.4373  0.6653 -0.0623
  904MPD2    H513249   2.204   0.216  14.434 -0.6488  2.0959  2.0662
  904MPD2    N113250   1.690   0.302  14.219 -0.0451  0.2687  0.0456
  904MPD2    H713251   1.708   0.399  14.197  1.3640 -0.4089 -1.7575
  905MPD2     C13252   1.148   0.210  13.609  0.4435  0.6906 -0.2162
  905MPD2    C113253   1.245   0.167  13.698  0.1191  0.0975 -0.5132
  905MPD2    C213254   1.330   0.064  13.653  0.6362  0.6785 -0.2297
  905MPD2    C313255   1.327   0.020  13.519 -0.0852  0.1317  0.2123
  905MPD2    C413256   1.238   0.079  13.432 -0.8213  0.2280 -0.5667
  905MPD2    C513257   1.150   0.167  13.480  0.5236  0.3840 -0.3206
  905MPD2     H13258   1.407   0.038  13.724 -1.4182 -0.9411  1.4088
  905MPD2    H113259   1.247   0.064  13.325 -0.8328  4.0203 -1.1292
  905MPD2    H213260   1.077   0.287  13.636 -0.9971 -0.3518 -1.0515
  905MPD2    H313261   1.083   0.216  13.412  0.3586  2.0950  1.0865
  905MPD2     N13262   1.429   4.663  13.468  0.7044 -0.5297 -0.4920
  905MPD2    H513263   1.465   4.685  13.376  2.1964 -0.6505  0.0640
  905MPD2    N113264   1.269   0.225  13.825 -0.2184 -0.1425  0.7702
  905MPD2    H713265   1.341   0.180  13.881  1.3339 -0.2626 -1.3037
  906MPD2     C13266   4.050   0.160  11.665 -0.4326 -0.4233 -0.8257
  906MPD2    C113267   4.020   0.090  11.553 -0.0033  0.2438 -0.1352
  906MPD2    C213268   3.977   4.682  11.574  0.1200 -0.5180  0.2554
  906MPD2    C313269   3.936   4.629  11.693  0.1468 -0.2165 -0.2299
  906MPD2    C413270   3.944   4.708  11.806  0.6590  0.3362 -0.3783
  906MPD2    C513271   4.019   0.105  11.791 -0.4081 -0.4016  0.0655
  906MPD2     H13272   3.960   4.627  11.481  0.1442 -2.5945  1.4827
  906MPD2    H113273   3.920   4.661  11.901  1.0460  3.0797  1.0538
  906MPD2    H213274   4.095   0.258  11.667  0.0973 -0.6591 -1.5903
  906MPD2    H313275   4.044   0.161  11.881 -0.6762  0.2249 -0.2489
  906MPD2     N13276   3.870   4.505  11.695 -0.3218 -0.1292 -0.3777
  906MPD2    H513277   3.835   4.471  11.784 -0.3244  1.0093  0.0536
  906MPD2    N113278   4.050   0.134  11.421  0.1394 -0.3667  0.2985
  906MPD2    H713279   4.030   0.068  11.347  1.6062 -3.2333  2.4984
  907MPD2     C13280   2.619   4.326  15.852 -0.0275  0.0187 -0.2491
  907MPD2    C113281   2.622   4.189  15.854  0.6042  0.3789 -0.4341
  907MPD2    C213282   2.660   4.124  15.970 -0.5248  0.2292 -0.5860
  907MPD2    C313283   2.693   4.197  16.087  0.1038  0.5883  0.0792
  907MPD2    C413284   2.689   4.337  16.083 -0.1796  0.2696  0.2689
  907MPD2    C513285   2.648   4.395  15.968  0.1272 -0.1781 -0.0566
  907MPD2     H13286   2.659   4.015  15.965  2.8273  0.1711 -0.1634
  907MPD2    H113287   2.725   4.410  16.154 -0.7744  1.6802 -0.8783
  907MPD2    H213288   2.605   4.385  15.762 -0.4572  2.2082  1.2493
  907MPD2    H313289   2.663   4.502  15.959 -2.1636 -0.0543 -2.3161
  907MPD2     N13290   2.734   4.136  16.203  0.8014  0.1803  0.3709
  907MPD2    H513291   2.757   4.037  16.202 -0.2956 -0.0546 -1.1642
  907MPD2    N113292   2.584   4.107  15.746 -0.0103 -0.5067  0.4222
  907MPD2    H713293   2.585   4.006  15.757  0.0146 -0.6016 -0.4513
  908MPD2     C13294   0.448   4.657   9.976 -0.3573  0.2275  0.1223
  908MPD2    C113295   0.541   4.601  10.057 -0.0808  0.1550 -0.4277
  908MPD2    C213296   0.601   4.678  10.145 -0.2221  0.1696  0.0703
  908MPD2    C313297   0.555   0.089  10.162 -0.6549  0.5164  0.1545
  908MPD2    C413298   0.466   0.144  10.080 -0.0019 -0.2970 -0.3356
  908MPD2    C513299   0.401   0.064   9.998  0.0532 -0.7285  0.1272
  908MPD2     H13300   0.687   4.637  10.198 -1.3808 -0.6954  1.2788
  908MPD2    H113301   0.451   0.251  10.074  0.7787 -0.2797 -1.8943
  908MPD2    H213302   0.394   4.598   9.904  0.3546  1.2866 -1.2889
  908MPD2    H313303   0.329   0.099   9.925  1.5801  0.4159 -0.8336
  908MPD2     N13304   0.609   0.164  10.269  0.1495  0.6949  0.6168
  908MPD2    H513305   0.685   0.117  10.318 -0.7627 -2.7668 -1.2944
  908MPD2    N113306   0.590   4.468  10.032  0.1375  0.5685  0.4125
  908MPD2    H713307   0.684   4.452  10.069  0.2922  0.1452 -0.1812
  909MPD2     C13308   1.178   2.731  11.729  0.0982  0.3365  0.0850
  909MPD2    C113309   1.139   2.855  11.683 -0.1978  0.6325  0.1309
  909MPD2    C213310   1.039   2.917  11.755 -0.1285  0.4342 -0.4563
  909MPD2    C313311   0.998   2.868  11.882 -0.9083  0.5087  0.3748
  909MPD2    C413312   1.049   2.753  11.927  0.1689  0.2344 -0.9135
  909MPD2    C513313   1.138   2.694  11.854  0.8775 -0.4944  0.1077
  909MPD2     H13314   1.008   3.013  11.717 -0.7662  1.1114  1.7216
  909MPD2    H113315   1.033   2.702  12.021  1.8650 -0.3043 -0.9090
  909MPD2    H213316   1.244   2.669  11.670 -0.2387  0.7350 -0.7044
  909MPD2    H313317   1.184   2.606  11.896  1.3470 -0.5908 -0.6091
  909MPD2     N13318   0.908   2.949  11.962  0.7488 -0.5111 -0.2532
  909MPD2    H513319   0.877   3.036  11.922  0.2410 -1.1821 -1.3206
  909MPD2    N113320   1.166   2.903  11.547  0.5025 -0.1486 -0.1248
  909MPD2    H713321   1.134   2.997  11.525 -0.7690 -0.5662 -0.0525
  910MPD2     C13322   2.720   0.209  15.753  0.3232 -0.3333  0.1839
  910MPD2    C113323   2.588   0.175  15.751  0.2311 -0.6469  0.4961
  910MPD2    C213324   2.517   0.188  15.637 -0.1011  0.1647  0.3234
  910MPD2    C313325   2.574   0.241  15.520  0.2997  0.3326  0.1075
  910MPD2    C413326   2.701   0.284  15.520  0.0345 -0.2336 -0.2361
  910MPD2    C513327   2.774   0.268  15.640  0.1588 -0.1817 -0.1909
  910MPD2     H13328   2.415   0.153  15.629 -0.0938  0.4286 -0.9718
  910MPD2    H113329   2.748   0.333  15.436 -2.2425  0.3264 -1.1752
  910MPD2    H213330   2.771   0.212  15.849 -0.0606 -0.0824  0.3802
  910MPD2    H313331   2.874   0.310  15.641 -0.3387  0.9789  1.3614
  910MPD2     N13332   2.502   0.247  15.400 -0.6826  0.0329 -0.8426
  910MPD2    H513333   2.547   0.303  15.328 -0.3293  1.7905  0.7320
  910MPD2    N113334   2.518   0.124  15.859 -0.1222 -0.2438  0.1592
  910MPD2    H713335   2.422   0.097  15.838 -0.2453  0.5667 -0.3230
  911MPD2     C13336   4.626   1.040  16.658  0.5098 -0.3221 -0.2870
  911MPD2    C113337   4.626   0.921  16.592 -0.5910  0.4594  0.7511
  911MPD2    C213338   4.523   0.902  16.497  0.0478 -1.0803 -0.0194
  911MPD2    C313339   4.438   1.000  16.460 -0.4533 -0.7558  0.1770
  911MPD2    C413340   4.445   1.123  16.527  0.1452  0.7526  0.0045
  911MPD2    C513341   4.535   1.141  16.629  0.1363 -0.5583 -0.7463
  911MPD2     H13342   4.526   0.815  16.432  1.8066 -2.0610  1.3480
  911MPD2    H113343   4.376   1.198  16.490  0.3848 -0.0439 -2.0336
  911MPD2    H213344   4.711   1.060  16.723 -0.5073  0.4188  0.8122
  911MPD2    H313345   4.529   1.237  16.679  1.1115 -0.7791 -0.1883
  911MPD2     N13346   4.354   0.974  16.351  0.2321  0.5956 -0.3185
  911MPD2    H513347   4.353   0.884  16.304 -0.3404  0.5741 -0.2654
  911MPD2    N113348   0.004   0.822  16.625 -0.3648  0.4066  0.6272
  911MPD2    H713349   0.078   0.841  16.692 -2.3960  0.5635  2.8031
  912MPD2     C13350   4.631   0.473  16.028 -0.8719  0.4675  0.2229
  912MPD2    C113351   4.541   0.529  16.113 -0.5960  0.4030  0.2175
  912MPD2    C213352   4.529   0.476  16.245  0.9368 -0.4993  0.0770
  912MPD2    C313353   4.608   0.367  16.283 -0.3337 -0.6082 -0.4196
  912MPD2    C413354   4.697   0.304  16.195 -0.2869 -0.3107  0.2955
  912MPD2    C513355   4.701   0.363  16.068 -0.0261  0.5723 -0.2162
  912MPD2     H13356   4.464   0.522  16.319 -0.2153  0.1223 -1.3141
  912MPD2    H113357   0.039   0.220  16.220 -0.4527 -0.5809 -0.1945
  912MPD2    H213358   4.645   0.499  15.924  2.1605  1.4644  0.8821
  912MPD2    H313359   0.051   0.313  16.002 -0.8501 -1.8544  0.7233
  912MPD2     N13360   4.594   0.325  16.415 -0.5409 -0.2146 -0.9449
  912MPD2    H513361   4.520   0.369  16.470  0.7782  0.4049  0.3250
  912MPD2    N113362   4.458   0.625  16.066  0.6259 -0.3386  0.5911
  912MPD2    H713363   4.448   0.621  15.965  0.9215  2.1010  0.4678
  913MPD2     C13364   0.766   1.439  11.078  0.0090  0.4720 -0.7133
  913MPD2    C113365   0.814   1.557  11.029  0.8083  0.2362 -0.7243
  913MPD2    C213366   0.768   1.612  10.906 -0.2335 -0.3452  0.4324
  913MPD2    C313367   0.665   1.544  10.836  0.6786  0.0891  0.1816
  913MPD2    C413368   0.624   1.421  10.886  0.0004  0.1843  0.8187
  913MPD2    C513369   0.678   1.368  11.004  0.2822 -0.6720 -0.2562
  913MPD2     H13370   0.808   1.707  10.873  1.3153 -1.0042  0.4332
  913MPD2    H113371   0.540   1.364  10.848  0.0432  1.5221 -1.2364
  913MPD2    H213372   0.791   1.398  11.175 -0.2377 -0.0258 -0.8578
  913MPD2    H313373   0.636   1.275  11.041 -0.7547 -0.3521 -0.6430
  913MPD2     N13374   0.602   1.586  10.719  0.3986 -0.4109  0.2658
  913MPD2    H513375   0.512   1.547  10.694  0.8023 -2.3375  1.8474
  913MPD2    N113376   0.898   1.627  11.114 -0.1219  0.9012  0.0021
  913MPD2    H713377   0.917   1.592  11.207 -0.2270  0.6191 -0.0790
  914MPD2     C13378   2.720   1.640  11.678 -0.0894 -0.2787 -0.1621
  914MPD2    C113379   2.778   1.764  11.687  0.7591 -0.4822 -0.0709
  914MPD2    C213380   2.858   1.794  11.796 -0.2673  0.1065 -0.5339
  914MPD2    C313381   2.878   1.700  11.894  0.9568 -0.6479 -0.2820
  914MPD2    C413382   2.800   1.590  11.893 -0.0354 -0.1532  0.3785
  914MPD2    C513383   2.731   1.553  11.784 -0.9360 -0.1830  0.2891
  914MPD2     H13384   2.919   1.884  11.791 -2.4806  1.5777 -0.9606
  914MPD2    H113385   2.783   1.531  11.982 -0.4815 -1.7760 -0.7755
  914MPD2    H213386   2.661   1.612  11.591 -0.1225 -1.8331  0.3650
  914MPD2    H313387   2.706   1.448  11.778 -0.7929 -0.0850 -1.8583
  914MPD2     N13388   2.974   1.733  12.007 -0.1895  0.0155  0.2495
  914MPD2    H513389   3.017   1.825  11.999  0.1537 -0.2257 -0.7903
  914MPD2    N113390   2.771   1.852  11.572  0.4235  0.3269 -0.1706
  914MPD2    H713391   2.722   1.822  11.488 -1.1477 -0.1699  0.9334
  915MPD2     C13392   1.434   2.063  16.418  0.4007 -0.4467  0.2033
  915MPD2    C113393   1.318   2.103  16.364  0.9398 -0.4759 -0.4480
  915MPD2    C213394   1.223   2.157  16.447  1.1034 -0.7708  0.8237
  915MPD2    C313395   1.241   2.161  16.580 -0.1023  0.1093 -0.2526
  915MPD2    C413396   1.356   2.117  16.642  0.7219 -0.2417  0.0848
  915MPD2    C513397   1.451   2.074  16.553  0.1882 -0.1586  0.6912
  915MPD2     H13398   1.131   2.203  16.413  0.2016 -1.9551  1.6374
  915MPD2    H113399   1.382   2.121  16.748 -1.0840  0.3383  0.4989
  915MPD2    H213400   1.516   2.029  16.356  0.9103 -0.4475  0.8778
  915MPD2    H313401   1.543   2.037  16.598  0.9143  0.5542 -0.1973
  915MPD2     N13402   1.140   2.219  16.653  0.1315  0.3276  0.1905
  915MPD2    H513403   1.054   2.247  16.607  0.1470  0.3409  0.1697
  915MPD2    N113404   1.291   2.083  16.226 -0.2568 -0.2666 -0.0972
  915MPD2    H713405   1.374   2.058  16.173 -0.2917 -0.7368  0.0692
  916MPD2     C13406   4.266   0.254  16.090 -0.1816 -0.0008  0.2312
  916MPD2    C113407   4.167   0.177  16.152  0.7645 -0.0616 -0.4048
  916MPD2    C213408   4.138   0.053  16.116  0.7426  0.1489 -0.2310
  916MPD2    C313409   4.200   0.002  16.002 -0.5535 -0.1425 -0.0699
  916MPD2    C413410   4.311   0.069  15.948 -0.2084 -0.4541 -1.0506
  916MPD2    C513411   4.338   0.195  15.991 -0.2294  0.3087  0.3666
  916MPD2     H13412   4.061   4.715  16.165 -1.4096  2.1126 -1.2472
  916MPD2    H113413   4.374   0.033  15.867  0.3817  1.9196 -1.6648
  916MPD2    H213414   4.285   0.358  16.114 -0.6171  0.4953 -1.6245
  916MPD2    H313415   4.400   0.264  15.936  3.2563 -1.9170  1.5605
  916MPD2     N13416   4.155   4.597  15.950 -0.1063  0.1509 -0.2445
  916MPD2    H513417   4.090   4.546  16.008 -0.9880 -0.7419 -2.0439
  916MPD2    N113418   4.100   0.252  16.244  0.0903  0.1107  0.1715
  916MPD2    H713419   4.110   0.353  16.240 -0.8311  0.1841 -0.3474
  917MPD2     C13420   4.637   2.792  10.850  0.2085 -0.1735  0.1608
  917MPD2    C113421   4.694   2.825  10.975 -0.6106  0.0059 -0.3703
  917MPD2    C213422   0.085   2.905  10.974 -0.8678 -0.5564  0.1935
  917MPD2    C313423   0.141   2.954  10.853  0.5572  0.0286  0.4991
  917MPD2    C413424   0.078   2.918  10.732  0.2118  0.0205 -0.9715
  917MPD2    C513425   4.693   2.833  10.732 -0.3064  0.1146  0.5234
  917MPD2     H13426   0.137   2.931  11.066  1.3285 -0.2890 -1.1395
  917MPD2    H113427   0.109   2.951  10.634 -0.2389  2.1482 -0.3958
  917MPD2    H213428   4.555   2.721  10.846  0.1237 -0.0101 -0.9427
  917MPD2    H313429   4.636   2.810  10.643 -0.1580  2.4110 -0.1655
  917MPD2     N13430   0.255   3.047  10.846 -0.6497 -0.1812  0.2215
  917MPD2    H513431   0.273   3.090  10.756 -2.7517 -1.8200 -0.9792
  917MPD2    N113432   4.630   2.776  11.089  0.0006 -0.0137 -0.5902
  917MPD2    H713433   4.549   2.718  11.072 -0.2768 -0.0551  0.8451
  918MPD2     C13434   4.542   3.158  12.044 -0.3672  0.0517  0.0104
  918MPD2    C113435   4.650   3.096  11.987 -0.2306  0.1757 -1.1650
  918MPD2    C213436   4.640   3.048  11.856 -0.1641  0.2568 -0.7257
  918MPD2    C313437   4.524   3.067  11.782 -0.2837 -0.0939 -0.7546
  918MPD2    C413438   4.413   3.126  11.837  0.0000 -0.2405  0.1648
  918MPD2    C513439   4.424   3.174  11.969 -0.0297  0.4527 -0.5118
  918MPD2     H13440   0.001   2.990  11.815 -0.4819  1.5234 -3.1503
  918MPD2    H113441   4.319   3.130  11.783  0.4507  5.0430 -0.2096
  918MPD2    H213442   4.529   3.206  12.140 -0.7471 -0.1289  0.0502
  918MPD2    H313443   4.333   3.211  12.014  0.8416  1.9575  0.0299
  918MPD2     N13444   4.515   2.995  11.657 -0.2325 -0.1198  0.6376
  918MPD2    H513445   4.601   2.949  11.630  0.2532  0.3380  1.4333
  918MPD2    N113446   0.049   3.067  12.053 -0.1929  0.4084  0.2651
  918MPD2    H713447   0.125   3.030  11.997 -0.7084  0.9087 -0.7833
  919MPD2     C13448   0.363   1.745  12.140 -0.1903  0.4683 -0.5271
  919MPD2    C113449   0.338   1.607  12.105  0.4221  0.2524  0.3474
  919MPD2    C213450   0.376   1.555  11.979  0.5573  0.0868 -0.5303
  919MPD2    C313451   0.452   1.631  11.891 -0.0894  0.5188  0.3758
  919MPD2    C413452   0.461   1.769  11.912  0.4020  0.2230 -0.0650
  919MPD2    C513453   0.409   1.817  12.031  0.5016 -0.2141  0.8266
  919MPD2     H13454   0.358   1.448  11.965 -0.8845 -0.0097  2.0720
  919MPD2    H113455   0.500   1.837  11.838 -0.0537 -0.0597 -0.5686
  919MPD2    H213456   0.331   1.778  12.239  1.3850  0.9220 -0.1585
  919MPD2    H313457   0.424   1.923  12.047  0.0227  0.1547 -1.2169
  919MPD2     N13458   0.516   1.587  11.774  0.2148 -0.0017  0.9509
  919MPD2    H513459   0.566   1.652  11.714  0.9665 -1.1252  0.3622
  919MPD2    N113460   0.282   1.517  12.196  0.4052 -0.1253 -0.0887
  919MPD2    H713461   0.269   1.425  12.156 -1.1939  0.3209 -0.5925
  920MPD2     C13462   0.510   1.962  10.908  0.2634 -0.4085 -0.2376
  920MPD2    C113463   0.424   1.855  10.892 -0.2131 -0.9957  0.2020
  920MPD2    C213464   0.414   1.763  10.999 -0.1453  0.0409 -0.2144
  920MPD2    C313465   0.492   1.781  11.112 -0.2125 -0.7925  0.4077
  920MPD2    C413466   0.581   1.886  11.119  0.7043 -0.3041  0.3002
  920MPD2    C513467   0.586   1.978  11.018 -0.4729  0.0108  0.0773
  920MPD2     H13468   0.351   1.675  11.000  0.9109 -0.7168  0.1386
  920MPD2    H113469   0.642   1.904  11.207 -1.5623  1.3157  1.5694
  920MPD2    H213470   0.533   2.032  10.828 -0.5050  0.4805  0.3152
  920MPD2    H313471   0.666   2.051  11.012 -0.8566  0.4083 -0.1284
  920MPD2     N13472   0.496   1.674  11.205  0.4482 -0.2296  0.5700
  920MPD2    H513473   0.430   1.599  11.182  0.1530 -0.3089  1.6935
  920MPD2    N113474   0.345   1.837  10.773 -0.8760 -0.1901  0.1831
  920MPD2    H713475   0.293   1.750  10.770 -0.9796 -0.1207 -0.0801
  921MPD2     C13476   0.694   0.853  17.184 -0.0422  0.3181  0.2237
  921MPD2    C113477   0.743   0.810  17.064  0.0318 -0.0304  0.5395
  921MPD2    C213478   0.652   0.764  16.966 -0.2481 -0.1118  0.7071
  921MPD2    C313479   0.519   0.765  16.988  0.6396  0.8227 -0.5540
  921MPD2    C413480   0.477   0.818  17.110 -0.5309  0.2839  0.0383
  921MPD2    C513481   0.563   0.871  17.200  0.6698  0.0630  0.4061
  921MPD2     H13482   0.690   0.729  16.870  0.8230  1.2587  0.6244
  921MPD2    H113483   0.372   0.835  17.133 -0.5295  1.9418 -1.1740
  921MPD2    H213484   0.753   0.887  17.268 -0.0398 -0.0389  0.3668
  921MPD2    H313485   0.529   0.902  17.298  0.1801  0.7087  0.0367
  921MPD2     N13486   0.420   0.717  16.898  0.0388 -0.1909 -0.8890
  921MPD2    H513487   0.324   0.716  16.932  0.0204 -2.3993 -1.0328
  921MPD2    N113488   0.879   0.810  17.029 -0.5901  0.2709 -0.1225
  921MPD2    H713489   0.900   0.813  16.929  0.7246  0.0390  0.1459
  922MPD2     C13490   2.015   3.128  17.172  0.7893 -0.2263 -0.2288
  922MPD2    C113491   1.978   3.241  17.240 -0.6821  0.2784  0.3985
  922MPD2    C213492   1.884   3.222  17.337 -0.6453 -0.4504  0.5375
  922MPD2    C313493   1.830   3.102  17.366  0.7033 -0.3296  0.3236
  922MPD2    C413494   1.877   2.992  17.309 -0.3384 -0.0262 -0.2789
  922MPD2    C513495   1.969   3.003  17.207 -0.3232  0.9515 -0.1120
  922MPD2     H13496   1.865   3.302  17.408  3.4928  0.2015  0.8779
  922MPD2    H113497   1.840   2.891  17.325  0.8053 -0.6342 -1.4003
  922MPD2    H213498   2.091   3.136  17.094 -0.9458  0.0531 -1.8820
  922MPD2    H313499   2.001   2.915  17.152 -0.7219  1.0406 -0.4872
  922MPD2     N13500   1.738   3.095  17.469 -0.2437  0.0998  0.3049
  922MPD2    H513501   1.695   3.179  17.505 -0.0992  0.0364  0.6210
  922MPD2    N113502   2.034   3.367  17.232 -0.0601 -0.5606  0.4552
  922MPD2    H713503   2.001   3.440  17.294 -1.0142  0.4776 -1.2703
  923MPD2     C13504   3.214   0.271   9.108  0.2631 -0.0209 -0.6602
  923MPD2    C113505   3.121   0.265   9.211 -0.2706 -0.2737 -0.0225
  923MPD2    C213506   3.158   0.240   9.342 -0.2395 -0.1233  0.6554
  923MPD2    C313507   3.292   0.209   9.365 -0.8630  0.9459 -0.1498
  923MPD2    C413508   3.387   0.222   9.262  0.5270 -0.2094 -0.0212
  923MPD2    C513509   3.347   0.262   9.138  0.7388 -0.3065 -0.1216
  923MPD2     H13510   3.084   0.238   9.421  1.5987 -0.2922  2.3799
  923MPD2    H113511   3.492   0.213   9.286  0.8855  0.5258 -1.2941
  923MPD2    H213512   3.169   0.302   9.015 -1.3870  3.4390  1.2642
  923MPD2    H313513   3.424   0.296   9.069  0.2398  0.5784 -0.2355
  923MPD2     N13514   3.342   0.185   9.495 -0.1675 -0.5531 -0.0685
  923MPD2    H513515   3.443   0.176   9.495 -0.2071 -0.9650  0.6710
  923MPD2    N113516   2.990   0.298   9.159  0.1931  0.2898 -0.3589
  923MPD2    H713517   2.973   0.303   9.059 -1.0788  3.9547  0.0415
  924MPD2     C13518   2.974   3.304  16.472  0.7814  0.2407 -0.0283
  924MPD2    C113519   2.921   3.389  16.372  0.5384  0.4618  0.5259
  924MPD2    C213520   2.951   3.529  16.375  0.6555  0.0828 -0.2067
  924MPD2    C313521   3.032   3.580  16.472  0.3589  0.4314  0.2983
  924MPD2    C413522   3.077   3.497  16.572  0.0495  0.2398  0.0678
  924MPD2    C513523   3.046   3.364  16.572 -0.7370 -0.7807  0.0858
  924MPD2     H13524   2.902   3.591  16.301 -1.3761 -0.5819  0.5560
  924MPD2    H113525   3.155   3.524  16.642 -0.3471 -1.4974  1.1767
  924MPD2    H213526   2.964   3.196  16.479 -2.7499  0.6480  1.4934
  924MPD2    H313527   3.087   3.310  16.657  0.5633  0.0625 -0.0044
  924MPD2     N13528   3.053   3.722  16.487  0.1729 -0.0729 -0.4297
  924MPD2    H513529   3.091   3.752  16.576 -0.3532 -1.5977  0.3176
  924MPD2    N113530   2.839   3.321  16.276 -0.2313  0.4409  0.2041
  924MPD2    H713531   2.849   3.220  16.283 -3.4431  0.2226  1.6298
  925MPD2     C13532   1.467   1.566  15.170  0.2326 -1.2927  0.2749
  925MPD2    C113533   1.430   1.439  15.127  0.3087 -0.0132  0.2050
  925MPD2    C213534   1.395   1.345  15.220  0.5184 -0.6517  0.2043
  925MPD2    C313535   1.392   1.366  15.355  0.2234 -0.8895  0.5901
  925MPD2    C413536   1.431   1.489  15.406  0.1229 -0.3556 -0.2245
  925MPD2    C513537   1.468   1.588  15.308  0.2213  0.7179 -0.2352
  925MPD2     H13538   1.375   1.250  15.170 -0.0938  0.3511 -1.4597
  925MPD2    H113539   1.460   1.508  15.509 -2.5905 -0.7566  0.6129
  925MPD2    H213540   1.480   1.641  15.093 -0.4186 -1.2171  0.2358
  925MPD2    H313541   1.517   1.681  15.336  0.9496  0.4359 -0.5857
  925MPD2     N13542   1.355   1.259  15.443 -0.1847 -0.4397 -0.3688
  925MPD2    H513543   1.385   1.271  15.539 -2.1192  1.0128  0.0445
  925MPD2    N113544   1.432   1.403  14.987 -0.0649 -0.2197  0.0428
  925MPD2    H713545   1.394   1.313  14.961  2.7074 -0.9110 -1.6153
  926MPD2     C13546   0.673   4.276  13.792  0.1055 -0.5728 -0.1185
  926MPD2    C113547   0.577   4.373  13.800 -0.5817 -0.2887 -0.9377
  926MPD2    C213548   0.576   4.473  13.708 -1.0099  0.1957 -0.1437
  926MPD2    C313549   0.667   4.473  13.607  0.0015 -0.6134  0.0699
  926MPD2    C413550   0.764   4.376  13.596  0.2408 -0.2135 -0.2927
  926MPD2    C513551   0.767   4.280  13.693 -0.1524 -0.1216  0.2984
  926MPD2     H13552   0.494   4.542  13.719  0.2870  1.4904  1.2911
  926MPD2    H113553   0.840   4.390  13.521 -0.2496  1.9810 -0.3886
  926MPD2    H213554   0.669   4.187  13.854 -1.4288  0.1392  0.8039
  926MPD2    H313555   0.841   4.202  13.683  0.8409  0.9296 -0.4215
  926MPD2     N13556   0.660   4.567  13.503 -0.1520  0.4662 -0.5280
  926MPD2    H513557   0.715   4.562  13.418  0.5134 -2.1232  0.0369
  926MPD2    N113558   0.463   4.368  13.888  0.3762  0.2490 -0.0837
  926MPD2    H713559   0.382   4.418  13.853 -1.4290 -3.8803 -1.7730
  927MPD2     C13560   0.115   2.164   0.981  0.1387 -0.3529  0.2564
  927MPD2    C113561   0.170   2.066   1.063 -0.1143  0.2645 -0.1632
  927MPD2    C213562   0.264   1.985   1.003  0.0998 -0.6874 -0.5846
  927MPD2    C313563   0.299   1.992   0.869 -0.3356 -0.2627  0.2409
  927MPD2    C413564   0.244   2.101   0.796 -0.3110  0.5131 -0.3441
  927MPD2    C513565   0.154   2.183   0.852  0.0059 -0.3106  0.2608
  927MPD2     H13566   0.318   1.919   1.070  0.7302  0.5746  0.1433
  927MPD2    H113567   0.271   2.125   0.693  0.0931 -1.1275 -0.6268
  927MPD2    H213568   0.043   2.233   1.024 -1.4600 -3.2219  2.1925
  927MPD2    H313569   0.111   2.269   0.803  1.6371  0.6582  0.5460
  927MPD2     N13570   0.400   1.909   0.820 -0.7015 -0.2471 -0.4824
  927MPD2    H513571   0.422   1.827   0.875 -2.7231 -0.3837  0.1194
  927MPD2    N113572   0.133   2.061   1.200  0.6470 -0.7444 -0.1466
  927MPD2    H713573   0.086   2.143   1.237  0.1895 -2.0740  2.1945
  928MPD2     C13574   2.890   0.188   1.587  0.2788  0.2406 -0.5726
  928MPD2    C113575   3.008   0.258   1.611  0.9500  0.9043  0.1656
  928MPD2    C213576   3.079   0.311   1.499 -0.3742 -0.2924  0.2532
  928MPD2    C313577   3.024   0.297   1.378 -0.1185 -0.4604 -0.3073
  928MPD2    C413578   2.918   0.217   1.357  0.3487  0.0681  0.2690
  928MPD2    C513579   2.843   0.166   1.461 -0.1696 -0.1859 -0.1184
  928MPD2     H13580   3.160   0.378   1.527  0.9046 -1.8111  0.1606
  928MPD2    H113581   2.882   0.210   1.256  0.4597  1.8809  0.1055
  928MPD2    H213582   2.824   0.161   1.670  0.9681  1.7813  0.4775
  928MPD2    H313583   2.747   0.117   1.450  0.1893 -0.5780 -1.4474
  928MPD2     N13584   3.073   0.373   1.271 -0.7003 -0.3187  0.2476
  928MPD2    H513585   3.014   0.378   1.188 -1.4962  2.5717  0.9651
  928MPD2    N113586   3.042   0.277   1.747  0.4368  0.6050  0.0125
  928MPD2    H713587   2.975   0.230   1.807 -0.2022  0.3382 -0.9139
  929MPD2     C13588   2.612   0.579   9.911 -0.3579 -0.1622  0.0167
  929MPD2    C113589   2.527   0.492   9.979 -0.6544  1.0355 -0.5595
  929MPD2    C213590   2.442   0.416   9.898  0.3383 -0.0989 -0.0554
  929MPD2    C313591   2.450   0.422   9.764  0.6199  0.6000  0.0227
  929MPD2    C413592   2.545   0.501   9.697 -0.0279  0.2137 -0.4519
  929MPD2    C513593   2.620   0.579   9.776  0.7959 -0.4313  0.3826
  929MPD2     H13594   2.366   0.347   9.934 -1.5402  2.1196  0.2037
  929MPD2    H113595   2.546   0.498   9.589  0.0944 -1.0242 -0.4156
  929MPD2    H213596   2.667   0.658   9.962 -1.8425  0.5106  0.5627
  929MPD2    H313597   2.670   0.661   9.726  1.0649 -0.5035  0.5358
  929MPD2     N13598   2.354   0.356   9.675  0.1529 -0.2997 -0.6626
  929MPD2    H513599   2.376   0.359   9.576 -2.1887 -1.9453 -1.2228
  929MPD2    N113600   2.506   0.514  10.116 -0.3790 -0.3756 -0.2827
  929MPD2    H713601   2.541   0.594  10.167  1.5736 -0.4928 -1.4336
  930MPD2     C13602   0.012   2.914  14.457 -0.5622 -0.2356  0.2062
  930MPD2    C113603   0.071   2.906  14.329  0.4132 -0.3078 -0.0001
  930MPD2    C213604   0.018   2.816  14.240  0.4176  0.1502  0.0959
  930MPD2    C313605   4.624   2.740  14.269  0.0048 -0.3385 -0.4292
  930MPD2    C413606   4.563   2.753  14.389  0.2681 -0.2565 -0.0902
  930MPD2    C513607   4.620   2.844  14.481  0.4291  0.3645  0.1829
  930MPD2     H13608   0.046   2.816  14.136 -0.2374 -1.1533 -0.0718
  930MPD2    H113609   4.474   2.695  14.412  0.0162  0.3506  0.4465
  930MPD2    H213610   0.048   2.985  14.530 -2.6949 -0.7536  1.7210
  930MPD2    H313611   4.566   2.847  14.575 -0.2695  0.3734 -0.2125
  930MPD2     N13612   4.559   2.674  14.163  1.1310  0.0397  0.3517
  930MPD2    H513613   4.459   2.678  14.147  1.0942 -0.1657  0.5332
  930MPD2    N113614   0.167   3.004  14.299 -0.2686  0.3211  0.0745
  930MPD2    H713615   0.197   3.070  14.370 -1.2618  0.7184  0.1303
  931MPD2     C13616   4.555   2.003   2.061 -0.2058  0.1121  0.0872
  931MPD2    C113617   4.634   1.921   1.986  0.4067  0.2444 -0.0702
  931MPD2    C213618   4.663   1.792   2.032  0.0995 -0.5025 -0.5250
  931MPD2    C313619   4.579   1.736   2.123 -0.7393 -0.0191 -1.0468
  931MPD2    C413620   4.491   1.818   2.193  0.3812 -0.0183  0.0112
  931MPD2    C513621   4.475   1.950   2.158 -0.4145  0.0197  0.0536
  931MPD2     H13622   0.016   1.731   1.981  2.4571  1.6507  0.2752
  931MPD2    H113623   4.430   1.779   2.274  0.6184 -2.5300 -0.9996
  931MPD2    H213624   4.559   2.108   2.036  0.2734  0.5625  2.0834
  931MPD2    H313625   4.402   2.016   2.205 -1.0348  0.2296 -1.1945
  931MPD2     N13626   4.582   1.600   2.162  0.3615  0.2951  0.5416
  931MPD2    H513627   4.515   1.579   2.235 -0.4104  2.2924  0.4209
  931MPD2    N113628   4.688   1.983   1.872  0.0955 -0.1420 -0.0548
  931MPD2    H713629   4.659   2.079   1.856  0.5586  0.1962  1.1138
  932MPD2     C13630   2.802   0.894  11.573 -0.0186  1.1837  0.5760
  932MPD2    C113631   2.737   0.964  11.672  0.3063 -1.1059  0.1784
  932MPD2    C213632   2.763   0.933  11.808 -0.3866 -0.0349  0.8861
  932MPD2    C313633   2.834   0.821  11.836  0.0342 -0.2377  0.2951
  932MPD2    C413634   2.895   0.746  11.738  0.1294 -0.7111 -0.4274
  932MPD2    C513635   2.885   0.787  11.611 -0.1345  0.7210  0.0086
  932MPD2     H13636   2.694   0.972  11.882  1.5458 -1.0257  3.1925
  932MPD2    H113637   2.957   0.659  11.757  0.4264 -0.4550 -0.2209
  932MPD2    H213638   2.805   0.919  11.467 -0.4789 -0.8697  0.0682
  932MPD2    H313639   2.938   0.730  11.536  0.6216 -0.6570  1.5863
  932MPD2     N13640   2.853   0.773  11.965 -0.0192  0.2707 -0.5999
  932MPD2    H513641   2.902   0.684  11.968 -2.8410 -1.1791  1.8647
  932MPD2    N113642   2.643   1.071  11.644  0.2713 -0.0330 -0.0520
  932MPD2    H713643   2.605   1.125  11.721  0.1900  0.6294 -0.5671
  933MPD2     C13644   2.766   0.193   2.516 -0.2480  0.1509 -0.2759
  933MPD2    C113645   2.773   0.284   2.414 -0.2310 -0.3519 -0.1981
  933MPD2    C213646   2.680   0.387   2.411 -1.4512  0.4918 -0.3419
  933MPD2    C313647   2.577   0.390   2.501 -0.7137 -0.0231  0.3264
  933MPD2    C413648   2.574   0.303   2.606 -0.9225 -0.0899 -0.3608
  933MPD2    C513649   2.666   0.202   2.610  0.2313 -0.1492 -0.7334
  933MPD2     H13650   2.677   0.477   2.352  0.1826 -0.5497 -2.0366
  933MPD2    H113651   2.509   0.311   2.693 -0.9256  0.3808 -0.4060
  933MPD2    H213652   2.842   0.116   2.531  0.6994  0.6446 -2.5949
  933MPD2    H313653   2.657   0.131   2.691 -2.2323  0.0877 -0.7787
  933MPD2     N13654   2.481   0.489   2.489 -0.0970 -0.1911 -0.7518
  933MPD2    H513655   2.468   0.542   2.403 -1.6839  0.3765 -0.1684
  933MPD2    N113656   2.886   0.281   2.323  0.5452 -0.2800  0.0983
  933MPD2    H713657   2.960   0.213   2.334 -0.1997 -1.2118 -0.6477
  934MPD2     C13658   3.717   3.644   2.444  0.5985 -0.5608  0.2816
  934MPD2    C113659   3.731   3.514   2.494 -1.0262  0.2330  0.0794
  934MPD2    C213660   3.653   3.413   2.445  0.1329 -0.4233  0.1560
  934MPD2    C313661   3.573   3.432   2.335 -0.0065 -1.0209  0.0818
  934MPD2    C413662   3.558   3.558   2.285  0.0934 -0.1098  0.8777
  934MPD2    C513663   3.634   3.665   2.338  0.2140 -0.4863 -0.2226
  934MPD2     H13664   3.659   3.311   2.482 -1.8419 -1.1889 -1.6529
  934MPD2    H113665   3.503   3.578   2.194  1.6273  1.2280  0.2464
  934MPD2    H213666   3.769   3.734   2.476 -3.0824  1.3418  0.9147
  934MPD2    H313667   3.618   3.763   2.294  3.0456 -0.0504 -0.2696
  934MPD2     N13668   3.484   3.333   2.284 -0.0064  0.3845  0.4277
  934MPD2    H513669   3.432   3.364   2.203  0.4932  1.7966  0.6348
  934MPD2    N113670   3.823   3.472   2.592  0.4921 -0.7510  0.8586
  934MPD2    H713671   3.824   3.372   2.609 -1.0508 -1.0911 -1.0046
  935MPD2     C13672   3.215   2.394   2.435 -0.5453 -0.2483 -0.1644
  935MPD2    C113673   3.185   2.446   2.311  0.2801 -0.3604 -0.5217
  935MPD2    C213674   3.150   2.577   2.304 -0.1532 -0.0842  0.0866
  935MPD2    C313675   3.149   2.657   2.421 -0.5145  0.0114  0.5076
  935MPD2    C413676   3.176   2.600   2.545  0.3445 -0.3578  0.4093
  935MPD2    C513677   3.203   2.467   2.557 -0.6449  0.0865  0.4188
  935MPD2     H13678   3.130   2.610   2.203  2.6943  2.4428  0.3490
  935MPD2    H113679   3.169   2.663   2.634 -1.1494 -0.2366  0.2082
  935MPD2    H213680   3.250   2.292   2.440  0.8293  0.2071 -0.3904
  935MPD2    H313681   3.223   2.437   2.659 -1.6889  0.8788  0.8575
  935MPD2     N13682   3.140   2.798   2.411  0.3698  0.0009 -0.1994
  935MPD2    H513683   3.158   2.854   2.493 -1.0092  0.7291 -0.3912
  935MPD2    N113684   3.198   2.374   2.186 -0.1815  0.0792  0.5378
  935MPD2    H713685   3.155   2.410   2.102 -1.8275  0.5734  1.6064
  936MPD2     C13686   1.834   4.346  12.484  0.0190 -0.2335 -0.1074
  936MPD2    C113687   1.961   4.360  12.548  0.4664  0.3431  0.0523
  936MPD2    C213688   2.070   4.366  12.464  0.7347  1.2678  0.2872
  936MPD2    C313689   2.046   4.396  12.325  0.6057  0.0124 -0.4865
  936MPD2    C413690   1.921   4.402  12.270  0.2045 -0.6697  0.2242
  936MPD2    C513691   1.819   4.366  12.350  0.3581  0.4587  0.0726
  936MPD2     H13692   2.173   4.363  12.498  0.9507 -1.1778 -0.5684
  936MPD2    H113693   1.899   4.430  12.167 -2.2852  2.8673  1.7215
  936MPD2    H213694   1.755   4.307  12.548 -0.0172 -0.2936 -0.1894
  936MPD2    H313695   1.722   4.347  12.305 -0.3997  1.9517  1.0535
  936MPD2     N13696   2.166   4.422  12.255  0.0665  1.2935  0.0469
  936MPD2    H513697   2.253   4.413  12.307 -0.8422 -0.7813  1.2252
  936MPD2    N113698   1.982   4.349  12.685 -0.1753 -0.4117  0.9020
  936MPD2    H713699   2.077   4.327  12.714  0.0612 -0.9052 -0.2505
  937MPD2     C13700   0.208   0.836  12.109  0.6305  0.9311  0.6071
  937MPD2    C113701   0.293   0.943  12.126 -0.1335 -0.0475  0.0862
  937MPD2    C213702   0.393   0.945  12.026  0.5937 -0.2440  0.4408
  937MPD2    C313703   0.421   0.840  11.937  1.0313 -0.0548  0.0545
  937MPD2    C413704   0.337   0.736  11.933  0.5349 -0.1577  0.5335
  937MPD2    C513705   0.223   0.741  12.013 -0.3503 -0.1274 -0.3122
  937MPD2     H13706   0.456   1.033  12.022 -0.5828  0.6302  1.3894
  937MPD2    H113707   0.348   0.652  11.866  4.7047 -1.0078  2.2630
  937MPD2    H213708   0.125   0.814  12.175 -0.7264  1.5626 -0.9151
  937MPD2    H313709   0.159   0.654  12.018  0.4903 -0.5216  3.4672
  937MPD2     N13710   0.535   0.859  11.855  0.6697  0.5340 -0.2942
  937MPD2    H513711   0.573   0.953  11.864  1.4747  0.2329 -0.5119
  937MPD2    N113712   0.256   1.058  12.206  0.9883  0.2641 -0.0530
  937MPD2    H713713   0.308   1.144  12.194  1.2532 -0.0010 -0.8014
  938MPD2     C13714   2.895   2.181   1.862 -1.1049  0.9104 -0.0336
  938MPD2    C113715   2.780   2.209   1.929  0.0511 -0.2799 -0.0262
  938MPD2    C213716   2.705   2.103   1.980 -0.1365 -0.3283 -0.5180
  938MPD2    C313717   2.749   1.975   1.972  0.4918  1.1360 -0.3141
  938MPD2    C413718   2.861   1.943   1.891  0.2207 -0.1312 -0.2727
  938MPD2    C513719   2.930   2.049   1.837  0.0212  0.0201 -0.1090
  938MPD2     H13720   2.615   2.137   2.029 -0.3962  0.8513 -1.8106
  938MPD2    H113721   2.899   1.842   1.881  1.7496  0.3346  0.8537
  938MPD2    H213722   2.947   2.263   1.813  0.8945 -0.4978 -0.2601
  938MPD2    H313723   3.014   2.023   1.774 -0.8428  0.4855 -1.4428
  938MPD2     N13724   2.691   1.864   2.039 -0.2068  0.0822  0.2110
  938MPD2    H513725   2.748   1.781   2.043 -1.3928 -0.8164 -1.4901
  938MPD2    N113726   2.742   2.342   1.963  0.3274  0.2766 -0.0334
  938MPD2    H713727   2.647   2.356   1.996  0.8864 -0.4435  1.8622
  939MPD2     C13728   4.186   3.595   1.037  0.5933  0.3238  0.5926
  939MPD2    C113729   4.207   3.729   1.060 -0.4853 -0.0126 -0.1873
  939MPD2    C213730   4.323   3.785   0.999 -0.1362 -0.2115  0.5817
  939MPD2    C313731   4.399   3.723   0.900 -0.1842 -0.3229 -0.3716
  939MPD2    C413732   4.359   3.592   0.875  0.1505 -0.0982  0.5311
  939MPD2    C513733   4.266   3.524   0.952 -0.3092  0.6575 -0.3928
  939MPD2     H13734   4.343   3.890   1.014 -0.0490 -0.0093 -0.9529
  939MPD2    H113735   4.406   3.541   0.791  3.9666  0.4243  2.3616
  939MPD2    H213736   4.108   3.537   1.086  2.0566 -1.4797  0.7856
  939MPD2    H313737   4.250   3.418   0.941  0.9893  0.0221  3.9357
  939MPD2     N13738   4.507   3.789   0.834 -0.4712 -1.1638 -0.7933
  939MPD2    H513739   4.523   3.887   0.853 -0.8680 -0.8310 -2.1919
  939MPD2    N113740   4.120   3.791   1.151  0.2112 -0.3850 -0.1561
  939MPD2    H713741   4.047   3.730   1.187 -0.5403 -0.0484 -1.1131
  940MPD2     C13742   2.428   3.856  13.206  0.0962  0.1995  0.7296
  940MPD2    C113743   2.559   3.898  13.216 -0.4767  0.5732 -0.3117
  940MPD2    C213744   2.617   3.948  13.102 -0.7340 -1.2937  0.4438
  940MPD2    C313745   2.554   3.951  12.981 -0.1635  0.3975 -1.0426
  940MPD2    C413746   2.424   3.909  12.975  0.5751 -0.4594 -0.6495
  940MPD2    C513747   2.360   3.869  13.091  0.5765  0.1519  0.0473
  940MPD2     H13748   2.718   3.986  13.117 -0.2651 -2.7614  1.0493
  940MPD2    H113749   2.373   3.905  12.879 -0.7009  1.4204 -0.0508
  940MPD2    H213750   2.371   3.814  13.288  1.2220 -0.9195  0.9556
  940MPD2    H313751   2.258   3.833  13.082  0.2813  0.7931  0.8132
  940MPD2     N13752   2.621   3.988  12.863  0.5548  0.2244  0.2309
  940MPD2    H513753   2.569   3.977  12.776 -0.7373  3.2005  0.6260
  940MPD2    N113754   2.625   3.896  13.336  0.4813  1.1501 -0.3430
  940MPD2    H713755   2.722   3.924  13.339  0.6186  0.7235 -0.7193
  941MPD2     C13756   3.331   3.781   9.526 -0.1273 -0.2687  0.0214
  941MPD2    C113757   3.321   3.842   9.655 -0.6804 -0.2411 -0.4504
  941MPD2    C213758   3.245   3.786   9.751 -0.0332 -0.4570  0.0917
  941MPD2    C313759   3.165   3.676   9.722 -0.3921  0.0355  0.4284
  941MPD2    C413760   3.166   3.617   9.598 -0.1153  0.2121 -0.6243
  941MPD2    C513761   3.255   3.672   9.507 -0.2080  0.4899 -0.2624
  941MPD2     H13762   3.237   3.822   9.853  0.6747 -0.2064  0.0594
  941MPD2    H113763   3.107   3.531   9.571  0.4616 -0.2915 -0.2972
  941MPD2    H213764   3.391   3.823   9.446  0.1635  0.3517  0.5635
  941MPD2    H313765   3.261   3.629   9.408 -1.2222  1.0668 -0.5720
  941MPD2     N13766   3.086   3.620   9.828 -0.0284  0.3702  0.0208
  941MPD2    H513767   3.082   3.663   9.919 -3.0160  0.5101 -0.1611
  941MPD2    N113768   3.393   3.958   9.685  0.3375 -0.2490 -0.1098
  941MPD2    H713769   3.382   3.987   9.782 -1.7407  0.1216 -0.4692
  942MPD2     C13770   0.840   0.415   9.594 -0.0424  0.9875  0.2262
  942MPD2    C113771   0.835   0.281   9.566  0.1336  0.6888 -0.3053
  942MPD2    C213772   0.949   0.210   9.537 -0.4953  0.6285 -0.2364
  942MPD2    C313773   1.072   0.270   9.558 -0.1629  0.0041 -0.0659
  942MPD2    C413774   1.080   0.400   9.592 -0.2274  0.2145  0.0719
  942MPD2    C513775   0.963   0.474   9.605  1.0225 -0.2448  0.5922
  942MPD2     H13776   0.933   0.105   9.513 -0.6191  0.9242 -1.4554
  942MPD2    H113777   1.174   0.452   9.593  0.2464 -0.6273 -0.7241
  942MPD2    H213778   0.748   0.471   9.609 -1.0187 -0.6031  0.1245
  942MPD2    H313779   0.963   0.580   9.630 -0.2281 -0.3519  1.0731
  942MPD2     N13780   1.195   0.198   9.567 -0.2344 -0.5637  0.0466
  942MPD2    H513781   1.278   0.256   9.562 -0.8419  0.2676 -0.3362
  942MPD2    N113782   0.717   0.204   9.572  0.0553  0.6964 -0.3690
  942MPD2    H713783   0.722   0.106   9.544 -0.1008  0.9065 -1.1082
  943MPD2     C13784   1.294   2.395   9.228 -0.0126  1.1686 -0.0411
  943MPD2    C113785   1.250   2.392   9.357 -0.1350 -0.7950 -0.4925
  943MPD2    C213786   1.344   2.410   9.459  0.6119  0.2583  0.8712
  943MPD2    C313787   1.472   2.431   9.432 -0.6589  0.2749  0.7325
  943MPD2    C413788   1.516   2.431   9.299  0.1225  0.1714  0.0354
  943MPD2    C513789   1.426   2.416   9.200 -0.4595  0.5707 -0.4634
  943MPD2     H13790   1.313   2.397   9.562  0.9630  0.6919  1.0264
  943MPD2    H113791   1.617   2.453   9.268 -0.0331  0.2203 -0.4356
  943MPD2    H213792   1.234   2.387   9.138 -1.0780  2.7383  0.5311
  943MPD2    H313793   1.461   2.441   9.101 -0.6569  1.5026 -0.2988
  943MPD2     N13794   1.569   2.449   9.527 -0.3152  0.1597  0.7495
  943MPD2    H513795   1.667   2.452   9.501  0.3395 -0.2183  3.1657
  943MPD2    N113796   1.112   2.370   9.380 -0.0544 -0.1588  0.2112
  943MPD2    H713797   1.059   2.336   9.301 -2.0283 -0.1362  1.5234
  944MPD2     C13798   0.847   2.240  10.838 -0.4201 -0.8197  0.0895
  944MPD2    C113799   0.958   2.188  10.899 -0.9429  1.2395 -0.6587
  944MPD2    C213800   0.966   2.198  11.034  0.0866 -0.2779  0.1716
  944MPD2    C313801   0.870   2.269  11.112  0.5002  0.1456 -0.2758
  944MPD2    C413802   0.762   2.329  11.051  0.1239 -1.0739 -0.4700
  944MPD2    C513803   0.754   2.300  10.918 -0.5963 -0.4097  0.1859
  944MPD2     H13804   1.047   2.151  11.088 -0.1960  0.8722  1.5938
  944MPD2    H113805   0.682   2.386  11.098  1.9520  2.2918 -1.4308
  944MPD2    H213806   0.835   2.234  10.730 -2.2476 -1.7005  0.3410
  944MPD2    H313807   0.661   2.321  10.866 -0.2281  1.7194  0.3857
  944MPD2     N13808   0.888   2.281  11.251  0.1100 -0.3273 -0.0472
  944MPD2    H513809   0.973   2.235  11.282  0.3591  0.4646  0.4598
  944MPD2    N113810   1.042   2.105  10.825 -0.3677  0.0844  0.2672
  944MPD2    H713811   1.015   2.087  10.729  0.2822  0.5558 -0.0093
    1TCq1    O113812   3.374   2.819  14.406  0.2087  0.4412 -0.0976
    1TCq1    C113813   3.472   2.888  14.468  0.5728 -0.7022 -0.8549
    1TCq1    O213814   3.546   2.850  14.557 -0.4498 -0.2918 -0.1671
    1TCq1    C213815   3.440   3.029  14.440  0.8415 -0.7043 -0.6897
    1TCq1    C313816   3.380   3.073  14.321  0.3713  0.0529 -0.3664
    1TCq1    C413817   3.352   3.208  14.312 -0.2951 -0.2324  0.3516
    1TCq1    C513818   3.406   3.295  14.409 -0.1382 -0.3572 -0.1271
    1TCq1    C613819   3.476   3.249  14.518  0.5262  0.0981 -0.6480
    1TCq1    C713820   3.493   3.113  14.534 -0.1058 -0.8869  0.6863
    1TCq1    C813821   3.532   3.331  14.621  0.3003 -0.3218 -0.2751
    1TCq1    O413822   3.612   3.291  14.705  0.3173 -0.4282  0.1437
    1TCq1    C913823   3.270   3.254  14.201 -0.1844 -0.1080 -0.3391
    1TCq1    O513824   3.229   3.375  14.210 -0.5449 -0.0206  0.1839
    1TCq1    O613825   3.201   3.168  14.143 -0.2021 -0.2213 -0.2420
    1TCq1    H113826   3.303   2.870  14.361  0.3811  1.6097  0.9722
    1TCq1    H213827   3.359   3.011  14.234 -2.3989 -0.0016  0.3551
    1TCq1    H313828   3.404   3.401  14.384  0.9001 -0.4244 -0.4815
    1TCq1    H413829   3.542   3.068  14.619  0.0274 -0.4469  0.8407
    2MPD2     C13830   3.551   3.800  14.837  0.0350  0.1031 -0.6811
    2MPD2    C113831   3.430   3.780  14.773  0.1085 -0.2470  0.2641
    2MPD2    C213832   3.397   3.664  14.711 -0.8502 -0.4218 -0.1125
    2MPD2    C313833   3.488   3.557  14.717 -0.3665 -0.2144 -0.3639
    2MPD2    C413834   3.608   3.573  14.786 -0.3115 -0.3155  0.2242
    2MPD2    C513835   3.629   3.687  14.851 -0.2880  0.4798 -0.6085
    2MPD2     H13836   3.311   3.654  14.646 -2.0069 -0.1422  1.3500
    2MPD2    H113837   3.683   3.496  14.799  0.8093  1.4240  3.9412
    2MPD2    H213838   3.575   3.891  14.891  1.6535 -0.6782 -0.1066
    2MPD2    H313839   3.724   3.692  14.903 -1.0823  0.0904  0.8935
    2MPD2     N13840   3.459   3.441  14.638 -0.0990  0.1252  0.5737
    2MPD2    H513841   3.377   3.444  14.578  1.2474 -0.0253 -1.2583
    2MPD2    N113842   3.345   3.896  14.768 -0.2187  0.4495 -0.2227
    2MPD2    H713843   3.383   3.977  14.815  0.5919  0.7255 -1.3651
    3TMC2    C113844   3.151   4.035  14.714 -0.0722 -0.3729  0.3142
    3TMC2    C213845   3.013   4.044  14.716  0.1738  0.2391  0.1237
    3TMC2    C313846   2.966   4.167  14.694 -0.3662 -0.2189  0.1979
    3TMC2    C413847   3.231   4.145  14.701 -0.6924 -0.2542 -0.5500
    3TMC2    C513848   3.177   4.266  14.671 -0.5536 -0.3034  0.0847
    3TMC2    C613849   3.037   4.275  14.660  0.4959 -1.0507 -0.0445
    3TMC2     C13850   3.211   3.899  14.736  0.4253  0.3356 -0.1509
    3TMC2     O13851   3.137   3.800  14.730  0.0023  0.0375  0.2329
    3TMC2     H13852   2.951   3.955  14.711 -1.0721  1.1033  0.2059
    3TMC2    H113853   3.339   4.132  14.696 -0.8689 -0.8289 -3.1071
    3TMC2    H213854   2.984   4.367  14.639  0.3459 -0.9872  0.6131
    3TMC2    C713855   3.260   4.371  14.631  0.2437 -0.3901 -0.4118
    3TMC2    C813856   2.824   4.171  14.669 -0.5538 -0.0282  0.0906
    3TMC2    O113857   3.363   4.384  14.686 -0.2411 -0.1814 -0.5079
    3TMC2    O213858   2.744   4.090  14.715  0.1628 -0.0567 -0.1732
    3TMC2    O513859   2.814   4.222  14.541 -0.2414  0.6387  0.1924
    3TMC2    H513860   2.895   4.249  14.494  0.4055 -1.7597 -0.1119
    4MPD2     C13861   2.386   0.013  13.431 -0.4466 -0.2730 -0.1527
    4MPD2    C113862   2.418   0.148  13.449 -0.2931 -0.1597  0.2276
    4MPD2    C213863   2.517   0.187  13.536 -0.1820 -0.3281 -0.3990
    4MPD2    C313864   2.595   0.089  13.595  0.3790 -0.4707  0.1274
    4MPD2    C413865   2.572   4.680  13.566 -0.7459 -0.1301 -0.5304
    4MPD2    C513866   2.471   4.638  13.480  1.2230  0.6195  0.2331
    4MPD2     H13867   2.537   0.290  13.563 -1.2874  0.6751 -3.4541
    4MPD2    H113868   2.626   4.594  13.605 -0.9373  0.6092  1.3458
    4MPD2    H213869   2.311   4.696  13.363  1.5004 -1.5245 -1.6130
    4MPD2    H313870   2.458   4.535  13.451 -1.3339  1.0194 -0.1108
    4MPD2     N13871   2.702   0.137  13.677 -0.1903 -0.0530 -0.0289
    4MPD2    H513872   2.726   0.234  13.692 -0.1068  0.4410 -3.3849
    4MPD2    N113873   2.344   0.238  13.374  0.2014 -0.8235 -0.7540
    4MPD2    H713874   2.276   0.202  13.308 -0.9691  0.5225 -0.2664
    5TCq2    C113875   2.758   0.054  13.768 -0.4405 -0.9216  0.4785
    5TCq2    O213876   2.734   4.656  13.793 -0.0117  0.1849 -0.5000
    5TCq2    C213877   2.852   0.125  13.846 -0.1747 -0.3394 -0.0895
    5TCq2    C313878   2.937   0.219  13.788  0.1916 -0.7244  0.1843
    5TCq2    C413879   3.056   0.246  13.849  0.0071 -0.1965  0.1423
    5TCq2    C513880   3.086   0.180  13.966 -0.1786 -0.3207 -0.3560
    5TCq2    C613881   3.001   0.082  14.015  0.0585 -0.2318  0.1638
    5TCq2    C713882   2.878   0.055  13.962 -0.9838  0.0070  0.3446
    5TCq2    C813883   3.039   0.011  14.135 -0.0007 -1.4752 -0.2172
    5TCq2    O413884   2.959   4.653  14.180 -0.4553  0.2381 -0.1245
    5TCq2    C913885   3.153   0.336  13.797  0.2445  0.6553  0.0366
    5TCq2    O513886   3.269   0.334  13.849 -0.0334 -0.1948 -0.7110
    5TCq2    O613887   3.133   0.387  13.680 -0.2953  0.1473  0.3817
    5TCq2    H213888   2.909   0.279  13.701 -0.4637 -0.3004  0.6840
    5TCq2    H313889   3.186   0.202  13.999 -0.1060 -3.1365  1.2820
    5TCq2    H413890   2.822   4.692  14.000 -0.0405 -1.3115 -1.2125
    6MPD1     C13891   1.674   1.575  14.087  0.4879  0.4592  0.1172
    6MPD1    C113892   1.711   1.647  13.978 -0.1973 -0.1513 -0.3757
    6MPD1    C213893   1.708   1.588  13.852  0.0741 -0.1709  0.0585
    6MPD1    C313894   1.655   1.460  13.835  0.0110 -0.4003  0.9655
    6MPD1    C413895   1.617   1.393  13.948 -0.2096 -0.1239  0.6395
    6MPD1    C513896   1.612   1.454  14.066 -0.4392 -0.7574 -0.5541
    6MPD1     H13897   1.741   1.645  13.766  0.7093 -0.1887  0.2914
    6MPD1    H113898   1.573   1.294  13.942 -0.9617  0.3295 -1.0784
    6MPD1    H213899   1.688   1.621  14.185  2.3900  0.1021  0.0157
    6MPD1    H313900   1.593   1.388  14.150  0.8681 -1.4434 -0.8011
    6MPD1     N13901   1.629   1.406  13.704  0.7663  0.2127  0.7746
    6MPD1    H513902   1.585   1.315  13.697  0.8692  0.2325 -0.1781
    6MPD1    N113903   1.786   1.765  14.001 -0.5152  0.9821  0.1011
    6MPD1    H613904   1.754   1.824  14.079 -2.0601  0.0901  0.1359
    6MPD1    H713905   1.801   1.818  13.916  1.6254  1.7858  0.9667
    7MPD2     C13906   1.558   0.710  13.337  0.2863  0.0754 -0.7344
    7MPD2    C113907   1.671   0.795  13.338  0.0727  0.3508  0.3775
    7MPD2    C213908   1.786   0.740  13.289  0.3553  0.1646  0.4582
    7MPD2    C313909   1.795   0.607  13.248 -0.6387 -0.2162 -0.5743
    7MPD2    C413910   1.685   0.528  13.255 -0.0409 -0.0483  0.3351
    7MPD2    C513911   1.565   0.579  13.302 -0.1842  0.4572 -0.2223
    7MPD2     H13912   1.874   0.803  13.286 -0.5280  1.4235  0.5056
    7MPD2    H113913   1.695   0.420  13.241 -2.0670 -0.6073  3.2239
    7MPD2    H213914   1.463   0.742  13.378  0.5107 -0.9252  0.5938
    7MPD2    H313915   1.481   0.511  13.296 -2.5617  3.5234 -1.6239
    7MPD2     N13916   1.923   0.569  13.196  0.1884 -0.1540 -0.1319
    7MPD2    H513917   1.995   0.636  13.223  0.6128 -0.7706  0.2494
    7MPD2    N113918   1.673   0.933  13.363  0.6353  0.5800  0.4363
    7MPD2    H713919   1.763   0.975  13.339 -1.0923  4.5282  0.8245
    8TMC3    C113920   2.096   0.429  13.135  0.6502  0.2681 -0.9371
    8TMC3    C213921   2.151   0.376  13.250  0.2293  0.2790 -0.2713
    8TMC3    C313922   2.265   0.440  13.292 -1.4298 -0.7137  0.6153
    8TMC3    C413923   2.148   0.538  13.070 -0.2068 -0.1171  0.2445
    8TMC3    C513924   2.256   0.608  13.121  0.2121  0.3907  0.3846
    8TMC3    C613925   2.307   0.558  13.236  1.4455 -0.9670 -0.1701
    8TMC3     C13926   1.954   0.443  13.152 -0.2594  0.2832  0.0201
    8TMC3     O13927   1.889   0.343  13.126 -0.0625 -0.2955 -0.1412
    8TMC3     H13928   2.111   0.286  13.294  0.4398  1.1252  1.6388
    8TMC3    H113929   2.082   0.594  13.004 -1.2972 -0.2777  1.2011
    8TMC3    H213930   2.385   0.613  13.289  1.2087  1.1075 -1.9839
    8TMC3    C713931   2.234   0.750  13.144 -0.6253  0.1641  0.2101
    8TMC3    C813932   2.340   0.371  13.390  0.5274  1.4863 -0.2402
    8TMC3    O113933   2.152   0.775  13.234  0.0503 -0.9427  0.3220
    8TMC3    O213934   2.385   0.440  13.480  0.1896 -0.6413  0.1055
    9TMC3    C113935   1.657   1.371  13.473  0.0445  0.2357  0.1797
    9TMC3    C213936   1.749   1.389  13.374  0.1011 -0.3286 -0.0390
    9TMC3    C313937   1.764   1.284  13.285  0.3186 -0.3645 -0.0167
    9TMC3    C413938   1.584   1.252  13.476 -0.0236 -0.2499 -0.0704
    9TMC3    C513939   1.615   1.147  13.388 -0.5951 -0.3171  0.5743
    9TMC3    C613940   1.697   1.163  13.280 -0.8622  0.3437  0.1899
    9TMC3     C13941   1.677   1.457  13.591 -0.0373 -0.4438 -0.0761
    9TMC3     O13942   1.744   1.561  13.565  0.0742  0.2173 -0.7563
    9TMC3     H13943   1.818   1.473  13.369 -0.7297  0.3163 -0.6603
    9TMC3    H113944   1.525   1.226  13.563 -1.2111  0.2226 -0.7272
    9TMC3    H213945   1.695   1.093  13.198 -1.9954  1.7763 -0.9887
    9TMC3    C713946   1.569   1.013  13.410  0.2617  0.8991 -0.6000
    9TMC3    C813947   1.859   1.294  13.178  0.2710 -0.2595 -0.1096
    9TMC3    O113948   1.470   0.978  13.472  0.5999  0.0542  0.6548
    9TMC3    O213949   1.886   1.406  13.135 -0.5452 -0.1225 -0.2875
   10MPD2     C13950   2.211   1.027  12.892  0.0294  0.3917  0.5957
   10MPD2    C113951   2.181   0.956  13.012  0.0754 -0.2096  0.9441
   10MPD2    C213952   2.085   1.013  13.095  0.3990 -0.0368  0.6003
   10MPD2    C313953   2.021   1.131  13.063 -0.5104 -0.0707  0.2730
   10MPD2    C413954   2.056   1.202  12.949 -0.2339 -0.1669  0.2066
   10MPD2    C513955   2.156   1.149  12.871 -0.5987  0.4545 -0.5125
   10MPD2     H13956   2.054   0.970  13.190 -1.2338 -3.0691 -1.3191
   10MPD2    H113957   2.009   1.299  12.933  0.5584  0.3229  0.8750
   10MPD2    H213958   2.290   0.999  12.823 -0.5038 -0.7561  0.4408
   10MPD2    H313959   2.185   1.198  12.778 -1.6364  1.3136 -0.3850
   10MPD2     N13960   1.923   1.173  13.159 -0.0311  0.2196 -0.5305
   10MPD2    H513961   1.928   1.109  13.238 -2.4143  1.4217  0.5922
   10MPD2    N113962   2.250   0.830  13.031  0.0878 -0.1761  0.0114
   10MPD2    H713963   2.308   0.793  12.957  0.8196  1.7337 -0.3785
   11MPD2     C13964   3.384   4.593  14.488  0.5220  0.5385  0.2406
   11MPD2    C113965   3.262   4.553  14.466  0.9214  0.1856 -0.1254
   11MPD2    C213966   3.191   4.613  14.366 -0.6239  0.1949  0.2123
   11MPD2    C313967   3.242   4.707  14.283 -1.3253  0.0400  0.0756
   11MPD2    C413968   3.372   0.025  14.302  0.4898  0.2199 -0.5510
   11MPD2    C513969   3.434   4.690  14.411 -0.7183 -0.5056 -0.2707
   11MPD2     H13970   3.088   4.578  14.356 -1.2964  2.7791 -2.1016
   11MPD2    H113971   3.408   0.113  14.250 -1.6708  1.6864  0.4698
   11MPD2    H213972   3.459   4.550  14.554  1.0108 -1.3161 -1.5280
   11MPD2    H313973   3.537   4.720  14.428 -0.9046 -0.2309  0.3607
   11MPD2     N13974   3.165   0.049  14.179 -0.2984 -0.0334  0.3056
   11MPD2    H513975   3.200   0.114  14.109 -1.2870 -0.1768 -0.3164
   11MPD2    N113976   3.200   4.444  14.532  0.1876  0.0869 -0.0027
   11MPD2    H713977   3.120   4.405  14.483 -0.9849  1.0535  1.1059
    1MPD1     C13978   0.961   1.359  16.571  0.5254 -0.4474  0.1807
    1MPD1    C113979   0.959   1.293  16.701  0.7796 -0.7048  0.1732
    1MPD1    C213980   1.082   1.267  16.759 -0.1477 -0.5665  0.7441
    1MPD1    C313981   1.205   1.304  16.698  0.2567  0.4643 -0.6077
    1MPD1    C413982   1.201   1.373  16.580  0.0237 -0.1051 -0.4206
    1MPD1    C513983   1.079   1.405  16.518  0.0210 -0.3533  0.4166
    1MPD1     H13984   1.093   1.207  16.849  1.2563 -0.1869  0.8254
    1MPD1    H113985   1.292   1.405  16.532  0.0854 -0.3464 -0.4632
    1MPD1    H213986   0.867   1.375  16.519  0.7336  0.6785  0.1585
    1MPD1    H313987   1.079   1.444  16.417 -0.6438 -2.6985 -0.4938
    1MPD1     N13988   1.330   1.270  16.745  0.1157 -0.6999 -0.6971
    1MPD1    H513989   1.405   1.285  16.678  0.8564  1.2179  0.5518
    1MPD1    N113990   0.838   1.234  16.748  0.0244  0.2283  0.0943
    1MPD1    H613991   0.755   1.274  16.703  1.3247  1.2155 -1.4559
    1MPD1    H713992   0.832   1.244  16.849 -0.1086 -1.4348  0.2449
    2MPD1     C13993   2.157   1.481  17.367  1.6386 -0.1310  0.4676
    2MPD1    C113994   2.196   1.361  17.309 -0.3017  0.5322  0.6130
    2MPD1    C213995   2.102   1.285  17.242 -0.4807  0.0048  0.4389
    2MPD1    C313996   1.966   1.318  17.234  0.5820 -0.0711  0.7419
    2MPD1    C413997   1.934   1.430  17.302  0.0032  0.0245 -0.0292
    2MPD1    C513998   2.025   1.501  17.369 -0.2234 -0.4480 -0.2606
    2MPD1     H13999   2.124   1.190  17.197 -1.0766  0.1519 -0.1540
    2MPD1    H114000   1.832   1.465  17.311  0.9196  2.1908  1.8394
    2MPD1    H214001   2.212   1.562  17.414  0.6920 -0.0718  1.4785
    2MPD1    H314002   1.997   1.576  17.442 -0.7292  0.5318 -1.4669
    2MPD1     N14003   1.880   1.237  17.156  0.1315  0.4563 -0.2795
    2MPD1    H514004   1.922   1.157  17.110 -0.7062  0.4805 -1.0683
    2MPD1    N114005   2.327   1.324  17.327 -0.4606 -1.1276  0.2079
    2MPD1    H614006   2.352   1.226  17.336 -0.2391 -1.2487 -1.7284
    2MPD1    H714007   2.370   1.372  17.406  0.4343  1.4850 -1.9085
    3TMC3    C114008   1.689   1.194  17.018  0.1932  0.2302 -0.0761
    3TMC3    C214009   1.776   1.141  16.922  0.0310 -0.1702  0.5631
    3TMC3    C314010   1.718   1.110  16.802 -0.1226  0.4922  0.2928
    3TMC3    C414011   1.553   1.206  17.000 -0.1305  0.0459 -0.4014
    3TMC3    C514012   1.505   1.188  16.872 -0.9429  0.9303 -0.2730
    3TMC3    C614013   1.582   1.135  16.778 -1.0079  0.1313  0.0471
    3TMC3     C14014   1.750   1.264  17.126  0.4532  0.6337  0.1652
    3TMC3     O14015   1.679   1.341  17.185 -0.3474 -0.3767  0.4040
    3TMC3     H14016   1.879   1.113  16.942  0.5380  1.1142 -0.1839
    3TMC3    H114017   1.505   1.262  17.080 -0.9585 -0.0062 -0.8682
    3TMC3    H214018   1.527   1.120  16.685 -0.2388  2.7500 -0.8373
    3TMC3    C714019   1.362   1.211  16.862  0.0623 -0.7088 -0.8441
    3TMC3    C814020   1.793   1.057  16.689 -0.1678 -0.3823  0.5216
    3TMC3    O114021   1.286   1.198  16.961  0.1093  0.5254 -0.4499
    3TMC3    O214022   1.721   0.998  16.600 -0.5135  0.2199 -0.1151
    4MPD1     C14023   2.218   1.045  16.385 -0.2958 -0.3234  0.1832
    4MPD1    C114024   2.252   1.080  16.517 -0.7885  0.6001  0.6819
    4MPD1    C214025   2.155   1.080  16.615  0.4081  0.1759  0.6866
    4MPD1    C314026   2.020   1.072  16.590  0.6372 -0.1538  0.3314
    4MPD1    C414027   1.986   1.029  16.457 -0.5090  0.1116 -0.4512
    4MPD1    C514028   2.085   1.015  16.359  0.6639  0.1802 -0.2675
    4MPD1     H14029   2.186   1.104  16.716  0.5659  0.2271  0.6260
    4MPD1    H114030   1.889   1.005  16.414 -0.6710 -1.0021  0.5430
    4MPD1    H214031   2.283   1.042  16.298 -0.9032  1.0744 -0.3276
    4MPD1    H314032   2.043   1.008  16.259 -1.5818  0.6938  0.6337
    4MPD1     N14033   1.929   1.083  16.699 -0.3182 -0.3378  0.3648
    4MPD1    H514034   1.969   1.112  16.787  0.4529  1.5032 -0.5925
    4MPD1    N114035   2.390   1.093  16.541 -0.3495 -0.2107 -0.1112
    4MPD1    H614036   2.440   1.126  16.459  0.5891 -1.3796  0.0004
    4MPD1    H714037   2.412   1.146  16.626 -0.8051  0.5493 -0.4681
    1TCq1    O114038   2.359   4.632  13.112 -0.1275  0.0925 -0.2084
    1TCq1    C114039   2.323   0.039  13.079 -1.0634 -0.3466  0.4838
    1TCq1    O214040   2.241   0.104  13.141 -0.2147  0.3994  0.2556
    1TCq1    C214041   2.416   0.095  12.983  0.0282 -0.5391 -0.6343
    1TCq1    C314042   2.457   0.025  12.877  0.7788  0.6424  0.5874
    1TCq1    C414043   2.554   0.079  12.794  0.0238  0.2382 -0.2285
    1TCq1    C514044   2.603   0.208  12.817  0.1945  0.1921  0.3141
    1TCq1    C614045   2.560   0.275  12.929  0.8121 -0.0151  0.3286
    1TCq1    C714046   2.473   0.209  13.011 -0.5156 -0.0594 -0.2833
    1TCq1    C814047   2.574   0.418  12.945  0.0754  0.5474 -0.1614
    1TCq1    O414048   2.524   0.463  13.048 -0.0833 -0.4890 -0.1684
    1TCq1    C914049   2.584   0.024  12.666 -0.6290 -1.1283 -0.0361
    1TCq1    O514050   2.684   0.071  12.611  0.2937  0.3242  0.2868
    1TCq1    O614051   2.494   4.676  12.612  0.1065  0.7183 -0.0258
    1TCq1    H114052   2.446   4.604  13.076  0.6177  0.1493  1.5077
    1TCq1    H214053   2.398   4.661  12.847 -1.2313  2.7970 -1.5870
    1TCq1    H314054   2.678   0.244  12.747  0.1700 -1.9608 -0.8007
    1TCq1    H414055   2.443   0.257  13.103  0.1214  1.4246 -0.8573
    2MPD1     C14056   2.686   0.874  12.733 -0.1070 -0.2435 -0.7413
    2MPD1    C114057   2.778   0.778  12.690 -0.4792  0.2156 -0.6432
    2MPD1    C214058   2.760   0.652  12.732  0.5712 -0.4093 -0.6031
    2MPD1    C314059   2.662   0.611  12.822  0.2062  0.2671  0.2342
    2MPD1    C414060   2.572   0.704  12.872 -0.7268 -0.1169 -0.2839
    2MPD1    C514061   2.585   0.829  12.825 -0.0562 -0.3795  0.3094
    2MPD1     H14062   2.825   0.579  12.685 -1.6318 -2.5313 -0.3541
    2MPD1    H114063   2.494   0.683  12.944 -1.6017 -0.7037 -1.4010
    2MPD1    H214064   2.692   0.975  12.697 -0.7848 -0.0323 -0.2696
    2MPD1    H314065   2.518   0.907  12.862 -1.1685 -1.5905  0.8642
    2MPD1     N14066   2.650   0.476  12.844  0.0628 -0.0353 -0.4042
    2MPD1    H514067   2.717   0.424  12.788  0.5749  1.0714 -0.8189
    2MPD1    N114068   2.881   0.816  12.603  0.0778  0.0343  0.3143
    2MPD1    H614069   2.846   0.858  12.517  0.8438  0.2846  0.1256
    2MPD1    H714070   2.932   0.734  12.570 -0.0044  0.0599  0.1213
    1TCq1    O114071   3.054   1.053   2.507  0.0045  0.2093  0.0511
    1TCq1    C114072   3.031   1.059   2.373  0.2239  0.3378  0.0493
    1TCq1    O214073   3.108   1.045   2.280  0.3136 -0.4566 -0.2710
    1TCq1    C214074   2.887   1.092   2.362  1.0924 -0.4035 -0.0422
    1TCq1    C314075   2.792   1.051   2.448  0.0312 -0.0066 -0.0717
    1TCq1    C414076   2.660   1.063   2.412 -0.0844 -0.0453  0.0607
    1TCq1    C514077   2.626   1.161   2.331  0.3287  0.8210 -0.0088
    1TCq1    C614078   2.724   1.206   2.241  0.0148 -0.4079  0.1643
    1TCq1    C714079   2.851   1.162   2.254 -0.5422  0.1934 -0.8446
    1TCq1    C814080   2.698   1.305   2.140  0.8537 -0.4879  0.6332
    1TCq1    O414081   2.792   1.344   2.076 -0.4682 -0.4028  0.2774
    1TCq1    C914082   2.565   1.016   2.513 -0.6943  0.2929  0.1454
    1TCq1    O514083   2.465   1.085   2.546 -0.0357 -0.2219 -0.1340
    1TCq1    O614084   2.604   0.916   2.578 -0.5556  0.1417 -0.2850
    1TCq1    H114085   2.976   1.091   2.553  0.9795  0.6244  1.3427
    1TCq1    H214086   2.814   0.972   2.520 -0.1974  0.5106  0.5691
    1TCq1    H314087   2.522   1.193   2.330  0.5452  1.5948  2.2327
    1TCq1    H414088   2.930   1.193   2.186  0.3055 -0.9515 -0.3923
    2MPD1     C14089   2.386   1.631   1.887 -0.0207 -0.1621  0.4965
    2MPD1    C114090   2.317   1.566   1.988  0.8975  0.4220 -0.7254
    2MPD1    C214091   2.373   1.457   2.058 -0.2764  0.0690 -0.0059
    2MPD1    C314092   2.513   1.441   2.046 -0.2602 -0.1800 -0.8703
    2MPD1    C414093   2.584   1.518   1.962  0.0162 -0.2211 -0.1870
    2MPD1    C514094   2.524   1.612   1.885  0.2286  0.7120  0.5661
    2MPD1     H14095   2.319   1.403   2.134 -0.1450  1.2539  0.9369
    2MPD1    H114096   2.692   1.518   1.956 -0.0304  0.0189 -1.1620
    2MPD1    H214097   2.345   1.717   1.835  0.8471  0.8137  1.4374
    2MPD1    H314098   2.587   1.672   1.820  1.5680  2.0456  3.1039
    2MPD1     N14099   2.567   1.349   2.139 -0.1735 -0.3073 -0.3829
    2MPD1    H514100   2.500   1.310   2.204 -1.6661  1.2961 -0.9775
    2MPD1    N114101   2.176   1.583   2.004  0.2796  0.2204 -0.1002
    2MPD1    H614102   2.146   1.674   1.971 -1.5033 -0.1416  0.5339
    2MPD1    H714103   2.144   1.570   2.100 -0.9937 -1.7536 -0.7804
    1MPD1     C14104   4.205   1.824  11.308  0.3615 -0.0821  0.7078
    1MPD1    C114105   4.323   1.897  11.284 -0.0618  0.4882  0.2905
    1MPD1    C214106   4.375   1.967  11.389  0.0592 -0.4609 -0.1598
    1MPD1    C314107   4.327   1.949  11.520  0.2977 -0.0562  0.4415
    1MPD1    C414108   4.214   1.874  11.544  0.2834  0.2239 -0.1085
    1MPD1    C514109   4.152   1.813  11.438 -0.6838  0.3336 -0.5464
    1MPD1     H14110   4.473   2.013  11.381 -0.3316  0.4304  0.0991
    1MPD1    H114111   4.180   1.858  11.646  0.9114 -1.5604 -0.1843
    1MPD1    H214112   4.155   1.768  11.230  0.8558 -0.7504  0.8666
    1MPD1    H314113   4.066   1.751  11.462 -0.7629  0.3271 -0.8551
    1MPD1     N14114   4.398   2.026  11.610  0.1254 -0.5115  0.1813
    1MPD1    H514115   4.481   2.073  11.577 -1.6343  1.0586 -2.0645
    1MPD1    N114116   4.382   1.896  11.154  0.5531 -0.2851 -0.1123
    1MPD1    H614117   4.307   1.912  11.088 -1.1556  0.0449  1.9052
    1MPD1    H714118   4.455   1.968  11.147 -0.9869  1.3825  0.9417
    2MPD1     C14119   3.885   1.215  12.079  0.0755 -0.5928  0.1711
    2MPD1    C114120   3.770   1.212  11.996 -0.4410 -0.8918 -0.2950
    2MPD1    C214121   3.763   1.105  11.908 -0.0736 -0.7698 -0.1088
    2MPD1    C314122   3.868   1.018  11.895 -0.4878  0.2569 -0.0017
    2MPD1    C414123   3.985   1.030  11.966 -0.1957 -0.3622  0.7109
    2MPD1    C514124   3.990   1.125  12.066 -0.3714  0.4971 -0.1505
    2MPD1     H14125   3.682   1.090  11.838 -0.3201  0.3472 -0.0592
    2MPD1    H114126   4.060   0.954  11.951 -1.2608 -0.9000 -1.7979
    2MPD1    H214127   3.888   1.293  12.155 -2.4172 -0.5212  0.1956
    2MPD1    H314128   4.084   1.143  12.117  0.5834  0.9550 -2.0774
    2MPD1     N14129   3.877   0.922  11.787  0.5488 -0.0002  0.2552
    2MPD1    H514130   3.959   0.862  11.788  0.6558  0.1361 -0.3785
    2MPD1    N114131   3.689   1.326  11.983  0.0955  0.2133  0.0917
    2MPD1    H614132   3.693   1.402  12.050 -0.7105  0.4552 -0.1370
    2MPD1    H714133   3.589   1.314  11.968  0.1098  0.8486 -0.5048
    3MPD1     C14134   3.969   1.173  10.872 -0.0426  0.3027  0.5511
    3MPD1    C114135   3.921   1.235  10.988 -0.5353 -0.7592 -0.9444
    3MPD1    C214136   3.908   1.153  11.095  0.3183 -0.5309 -0.3736
    3MPD1    C314137   3.947   1.017  11.096  0.2717  0.4557 -0.4309
    3MPD1    C414138   3.980   0.960  10.976 -0.1460  0.7494  0.7020
    3MPD1    C514139   4.002   1.038  10.869  0.0689 -0.2134  0.9668
    3MPD1     H14140   3.868   1.195  11.187 -1.9863  0.1383 -1.7029
    3MPD1    H114141   4.017   0.858  10.969  0.0369  0.8599  0.0082
    3MPD1    H214142   3.974   1.232  10.780 -1.1999  1.6733  1.3724
    3MPD1    H314143   4.027   0.992  10.774 -0.2284 -1.0926  1.3181
    3MPD1     N14144   3.937   0.952  11.216 -0.0647  0.2324 -0.6169
    3MPD1    H514145   3.911   1.010  11.295 -1.3244  0.5622 -1.2701
    3MPD1    N114146   3.903   1.373  10.990 -0.2003 -0.3348 -0.0396
    3MPD1    H614147   3.839   1.413  11.059 -2.8035 -0.7175 -2.2439
    3MPD1    H714148   3.885   1.412  10.898  1.6095  0.6787  0.0199
    4MPD2     C14149   0.208   1.763  11.513  0.1169 -0.1460 -0.7836
    4MPD2    C114150   0.174   1.735  11.646 -0.2689 -0.9181  0.2119
    4MPD2    C214151   0.177   1.606  11.694  0.0902  1.0927 -0.9719
    4MPD2    C314152   0.197   1.503  11.603  0.1127  0.1561  0.2102
    4MPD2    C414153   0.219   1.532  11.471  0.0744  0.7333 -0.5513
    4MPD2    C514154   0.225   1.661  11.426  0.0122  0.2911 -0.1095
    4MPD2     H14155   0.167   1.581  11.799  2.8787  0.7290 -0.8035
    4MPD2    H114156   0.234   1.456  11.395  2.6126  0.5808  0.1005
    4MPD2    H214157   0.226   1.862  11.473 -1.6207 -0.0507 -1.3243
    4MPD2    H314158   0.258   1.675  11.323 -1.4831  1.1713 -0.4637
    4MPD2     N14159   0.190   1.375  11.668 -0.0964  0.0426 -0.5767
    4MPD2    H514160   0.167   1.368  11.767 -1.9093 -0.2967 -1.0241
    4MPD2    N114161   0.146   1.841  11.740 -0.0300 -0.4406 -0.5116
    4MPD2    H714162   0.117   1.806  11.831 -1.0568 -0.2517 -0.7614
    5TMC3    C114163   0.032   2.026  11.816 -0.3067 -0.4928 -0.0095
    5TMC3    C214164   4.628   2.058  11.767  0.4555  0.3554  0.3423
    5TMC3    C314165   4.517   2.001  11.815  0.3812 -0.6600 -0.6121
    5TMC3    C414166   0.037   1.960  11.939  0.2558 -0.7138 -0.4499
    5TMC3    C514167   4.641   1.910  11.988  0.3089 -0.3288  0.7016
    5TMC3    C614168   4.520   1.925  11.930  0.0062 -0.1944  0.0596
    5TMC3     C14169   0.128   1.973  11.712  0.1610  0.2030  0.2062
    5TMC3     O14170   0.123   2.029  11.601 -0.5247 -0.0265 -0.2118
    5TMC3     H14171   4.630   2.101  11.668  3.3919  1.0350  0.6763
    5TMC3    H114172   0.135   1.923  11.971 -0.8634 -2.0361  1.4958
    5TMC3    H214173   4.429   1.889  11.978 -0.6240 -1.0874 -1.8108
    5TMC3    C714174   4.658   1.771  12.026  0.1028 -0.5879  0.0234
    5TMC3    C814175   4.387   2.007  11.749 -0.8369  0.0326  0.4031
    5TMC3    O114176   0.036   1.717  11.973 -0.4978 -0.2198  0.3906
    5TMC3    O214177   4.303   1.938  11.806  0.3591  0.5366  0.1188
    6TMC3    C114178   3.850   0.813  11.586 -0.4253 -0.2108  1.1446
    6TMC3    C214179   3.840   0.839  11.453 -0.2124  0.1912  0.2227
    6TMC3    C314180   3.919   0.769  11.365  0.9207 -0.0059 -0.3558
    6TMC3    C414181   3.929   0.718  11.643  0.2765 -0.3397 -0.1315
    6TMC3    C514182   4.021   0.658  11.554  0.1815  0.7158 -0.1709
    6TMC3    C614183   4.004   0.676  11.419 -0.1306 -0.2188 -0.0130
    6TMC3     C14184   3.806   0.923  11.670 -1.0242 -0.3890  0.3217
    6TMC3     O14185   3.742   1.014  11.620  0.0672  0.0978 -0.0410
    6TMC3     H14186   3.777   0.919  11.416 -0.2877 -0.0449 -0.1598
    6TMC3    H114187   3.919   0.692  11.748 -0.7300  0.8905  0.0825
    6TMC3    H214188   4.075   0.627  11.354 -0.9493 -0.1357 -0.9708
    6TMC3    C714189   4.154   0.657  11.605 -0.3987 -0.0321 -0.4401
    6TMC3    C814190   3.962   0.822  11.235 -0.5226 -0.2464  0.0290
    6TMC3    O114191   4.162   0.708  11.715 -0.2734  0.2939 -0.2135
    6TMC3    O214192   4.026   0.743  11.165  0.0054 -0.4184 -0.8266
    7MPD2     C14193   4.435   1.318  12.073  0.4643  0.2044 -0.4857
    7MPD2    C114194   4.565   1.355  12.057 -0.8625  0.4330  0.1160
    7MPD2    C214195   4.611   1.488  12.074 -0.4674 -0.0670 -0.3142
    7MPD2    C314196   4.514   1.583  12.096  0.0725  0.3284  0.0851
    7MPD2    C414197   4.383   1.550  12.125 -0.0297 -0.5314 -0.0082
    7MPD2    C514198   4.350   1.418  12.109 -0.3079  0.2190 -0.3258
    7MPD2     H14199   4.710   1.514  12.041 -0.2913 -0.2741  0.0547
    7MPD2    H114200   4.298   1.618  12.131 -1.2693 -2.0883  0.1507
    7MPD2    H214201   4.412   1.213  12.065 -1.2500  0.3197  3.1534
    7MPD2    H314202   4.245   1.392  12.116 -0.6498  1.6785 -0.1326
    7MPD2     N14203   4.545   1.723  12.090  0.4715  0.3413  0.3027
    7MPD2    H514204   4.478   1.791  12.123 -1.1385  0.3844 -3.0275
    7MPD2    N114205   4.649   1.245  12.020 -0.0914  0.4093 -0.3815
    7MPD2    H714206   4.608   1.152  12.016 -0.9670  0.9378 -3.8115
    8TMC3    C114207   0.094   1.134  11.908  0.6937  0.6600 -0.0408
    8TMC3    C214208   4.709   1.048  11.872  0.1923 -0.2427 -0.4150
    8TMC3    C314209   4.713   1.002  11.744  0.2410  0.2432  0.3249
    8TMC3    C414210   0.197   1.162  11.819  1.1939  0.3491  0.9345
    8TMC3    C514211   0.178   1.136  11.683  0.8101 -0.5602 -0.1896
    8TMC3    C614212   0.074   1.055  11.644 -0.0984 -0.0699  1.0236
    8TMC3     C14213   0.059   1.248  11.992  0.4581 -0.4350 -0.0973
    8TMC3     O14214   0.138   1.336  12.009  0.4727  0.2339 -0.1107
    8TMC3     H14215   4.637   1.008  11.942  2.3294  0.3225  2.1022
    8TMC3    H114216   0.279   1.223  11.854  0.6775  1.5868 -0.0095
    8TMC3    H214217   0.068   1.024  11.540  0.5576 -0.2039  1.0313
    8TMC3    C714218   0.193   1.253  11.600 -0.1859 -0.2290  0.6790
    8TMC3    C814219   4.615   0.904  11.706  0.1584 -0.1747 -0.3401
    8TMC3    O114220   0.217   1.231  11.481  0.6850 -0.4103 -0.5524
    8TMC3    O214221   4.507   0.905  11.766  0.5500 -0.2106  0.0399
    9MPD2     C14222   4.650   0.607  11.500 -0.0675 -0.3652 -0.0194
    9MPD2    C114223   4.581   0.706  11.564  0.1579 -0.4030 -0.5181
    9MPD2    C214224   4.447   0.687  11.596  0.0642  1.0717 -0.1663
    9MPD2    C314225   4.377   0.576  11.535  0.1998 -0.2982  0.2188
    9MPD2    C414226   4.452   0.474  11.476  0.2353  0.1645  0.4182
    9MPD2    C514227   4.588   0.495  11.455  0.3746  0.4086 -0.2307
    9MPD2     H14228   4.387   0.766  11.640 -2.1331 -0.6744  0.0080
    9MPD2    H114229   4.396   0.397  11.425  0.9624 -0.1706  0.1166
    9MPD2    H214230   0.034   0.619  11.480 -0.3885 -0.9458 -2.0289
    9MPD2    H314231   4.649   0.435  11.390  1.6854  1.7853 -0.2751
    9MPD2     N14232   4.233   0.580  11.527  0.0648 -0.0945 -0.0100
    9MPD2    H514233   4.182   0.507  11.478 -1.9518  1.1030  0.3210
    9MPD2    N114234   4.661   0.813  11.618  0.1064  0.5561  0.1058
    9MPD2    H714235   0.038   0.815  11.589  0.0291 -3.0587 -0.4892
    1MPD1     C14236   3.876   1.543  16.086 -0.1060 -0.3513  0.5097
    1MPD1    C114237   3.879   1.417  16.131  0.6360  0.2200  0.0664
    1MPD1    C214238   3.757   1.353  16.116  0.4513  0.5727  0.0175
    1MPD1    C314239   3.642   1.403  16.043  0.1462  0.4289  0.4266
    1MPD1    C414240   3.664   1.519  15.978 -0.8679  0.3626  0.3128
    1MPD1    C514241   3.779   1.588  15.997  0.1690  0.4235  0.0100
    1MPD1     H14242   3.759   1.251  16.155  1.2445 -0.3382 -2.4056
    1MPD1    H114243   3.583   1.565  15.923 -0.3122  0.6865 -0.2351
    1MPD1    H214244   3.963   1.605  16.099  0.1632 -0.3813 -1.2372
    1MPD1    H314245   3.792   1.686  15.953  0.8748 -0.7395 -2.3964
    1MPD1     N14246   3.522   1.336  16.018 -0.1806  0.0078  0.5091
    1MPD1    H514247   3.447   1.375  15.961 -0.2760 -1.9723 -0.7280
    1MPD1    N114248   3.981   1.372  16.214  0.5484 -0.4733 -0.0302
    1MPD1    H614249   4.072   1.418  16.213  0.7020 -0.7580  0.7333
    1MPD1    H714250   4.003   1.274  16.196  2.1238 -0.4907  2.0071
    2MPD1     C14251   3.081   0.484  16.382 -0.7165 -1.2170 -0.1902
    2MPD1    C114252   3.209   0.529  16.414 -0.8178 -0.5010 -0.2794
    2MPD1    C214253   3.250   0.633  16.332 -0.0708 -0.8692  0.0015
    2MPD1    C314254   3.176   0.686  16.229  1.5789 -0.1197 -0.2512
    2MPD1    C414255   3.042   0.646  16.212 -0.3434  0.0923  0.1101
    2MPD1    C514256   3.004   0.537  16.286  0.2980  0.1184  0.0048
    2MPD1     H14257   3.355   0.660  16.340  0.0105 -1.1923  0.0569
    2MPD1    H114258   2.978   0.671  16.128  1.0060 -1.2489 -1.2983
    2MPD1    H214259   3.037   0.398  16.432  0.2044 -1.2511  0.5622
    2MPD1    H314260   2.910   0.490  16.259  0.7733 -0.3786 -0.8021
    2MPD1     N14261   3.214   0.804  16.165  0.8039  0.4867  0.4580
    2MPD1    H514262   3.306   0.839  16.188  1.2291 -0.1904 -0.1914
    2MPD1    N114263   3.298   0.462  16.499 -0.0871 -0.1278 -0.4769
    2MPD1    H614264   3.254   0.442  16.588  0.4276  0.0669 -0.1801
    2MPD1    H714265   3.383   0.516  16.516 -1.4050  1.5974  0.5895
    3TCq2    C114266   3.124   0.888  16.098 -0.2348  0.0608  0.4661
    3TCq2    O214267   3.001   0.891  16.093 -0.1127  0.7626 -0.0294
    3TCq2    C214268   3.190   1.007  16.046  0.9726  0.1875  0.0477
    3TCq2    C314269   3.109   1.093  15.972  0.5289  0.5757  0.0270
    3TCq2    C414270   3.139   1.220  15.942 -0.8603 -0.0643  0.1648
    3TCq2    C514271   3.271   1.249  15.970  0.3603  0.3944  0.2157
    3TCq2    C614272   3.358   1.155  16.024  0.2138  0.4059  0.1993
    3TCq2    C714273   3.323   1.034  16.074  0.5895 -0.1843  0.2519
    3TCq2    C814274   3.493   1.208  16.067  0.0473 -0.5333 -0.1154
    3TCq2    O414275   3.566   1.142  16.140  0.1588  0.4772  0.8861
    3TCq2    C914276   3.041   1.320  15.905 -0.2144  0.4247  0.1841
    3TCq2    O514277   3.084   1.433  15.863 -0.2260  0.2992 -0.2341
    3TCq2    O614278   2.922   1.281  15.887  0.4782 -0.7461 -0.5799
    3TCq2    H214279   3.008   1.061  15.948 -0.1904  1.8269  1.3780
    3TCq2    H314280   3.297   1.351  15.944 -3.3605  1.4481  0.5846
    3TCq2    H414281   3.394   0.966  16.119 -0.0289 -1.2206 -0.3502
    1TCq1    O114282   1.834   3.663  12.781  0.4937 -0.2989 -0.0348
    1TCq1    C114283   1.757   3.555  12.814 -0.1434  0.0910  0.4262
    1TCq1    O214284   1.637   3.538  12.793 -0.4179  0.3157 -0.6547
    1TCq1    C214285   1.825   3.481  12.912 -0.0539  0.7753  0.2358
    1TCq1    C314286   1.765   3.370  12.968 -0.4925  0.0507 -1.0674
    1TCq1    C414287   1.818   3.316  13.081 -0.0416  0.7036  0.5851
    1TCq1    C514288   1.943   3.358  13.128  0.6799 -1.1036 -0.3966
    1TCq1    C614289   2.000   3.465  13.069 -1.1687 -0.0006 -0.2634
    1TCq1    C714290   1.943   3.534  12.967  0.8678  0.0559  0.1359
    1TCq1    C814291   2.101   3.528  13.146  0.4479  0.3458  0.0655
    1TCq1    O414292   2.086   3.652  13.160 -0.2224  0.0119 -0.0032
    1TCq1    C914293   1.744   3.213  13.149  0.0174  0.1028  0.3657
    1TCq1    O514294   1.635   3.175  13.099  0.1760  0.1639  0.5499
    1TCq1    O614295   1.780   3.196  13.268 -0.0946 -0.2776  0.5249
    1TCq1    H114296   1.928   3.640  12.794  0.7525  0.6619 -0.2045
    1TCq1    H214297   1.673   3.334  12.922  0.1266 -0.8905 -1.5721
    1TCq1    H314298   1.994   3.312  13.212  1.1724 -0.2492 -0.2348
    1TCq1    H414299   1.996   3.623  12.935 -0.9424  1.7097  1.7888
    2MPD2     C14300   2.274   3.581  13.374  0.3950 -0.2814  0.1275
    2MPD2    C114301   2.289   3.466  13.299 -0.2948 -0.1540 -0.1581
    2MPD2    C214302   2.380   3.372  13.351 -0.2278  0.1011  0.0375
    2MPD2    C314303   2.451   3.391  13.465  1.4097 -0.3673 -0.1681
    2MPD2    C414304   2.422   3.502  13.544 -0.4002  0.9768  0.0632
    2MPD2    C514305   2.339   3.593  13.492 -0.5406 -0.3026  0.2885
    2MPD2     H14306   2.404   3.283  13.292  1.5422 -0.3539  1.4673
    2MPD2    H114307   2.470   3.524  13.638 -0.7299  0.5523  0.3292
    2MPD2    H214308   2.197   3.655  13.354  1.1029  0.9938  2.1400
    2MPD2    H314309   2.333   3.677  13.560 -3.1900 -0.1536 -0.1414
    2MPD2     N14310   2.548   3.290  13.507  0.0608 -0.2918  0.2604
    2MPD2    H514311   2.562   3.209  13.448  0.9975 -1.3465  1.9168
    2MPD2    N114312   2.199   3.441  13.190 -0.1486  0.9564 -0.2926
    2MPD2    H714313   2.200   3.346  13.153 -0.7312  0.9860 -0.3746
    3TCq1    O114314   2.855   2.755  13.555  0.4588 -0.0453 -0.1129
    3TCq1    C114315   2.780   2.857  13.501 -0.1889 -0.3116 -0.0971
    3TCq1    O214316   2.791   2.886  13.382  0.3839 -0.0429 -0.4908
    3TCq1    C214317   2.769   2.959  13.602  0.5007 -0.1958 -0.3313
    3TCq1    C314318   2.859   2.968  13.709 -0.5587  0.5932 -0.0031
    3TCq1    C414319   2.859   3.081  13.788 -0.1820 -0.3011  0.4008
    3TCq1    C514320   2.776   3.183  13.765  0.1809  0.5317 -0.6986
    3TCq1    C614321   2.707   3.187  13.644 -0.7620  0.6125  0.8739
    3TCq1    C714322   2.704   3.078  13.558 -0.3516 -0.3776 -0.3173
    3TCq1    C814323   2.620   3.299  13.627 -0.1771 -0.2569  0.4576
    3TCq1    O414324   2.632   3.387  13.712 -0.1602  0.0782 -0.6790
    3TCq1    C914325   2.940   3.089  13.916 -0.6714 -0.2363  0.4833
    3TCq1    O514326   3.016   2.996  13.946  1.3113 -0.5782  0.0598
    3TCq1    O614327   2.922   3.187  13.992  0.0168  0.0202  0.1837
    3TCq1    H114328   2.846   2.742  13.652  0.4320 -0.0143 -0.1111
    3TCq1    H214329   2.930   2.889  13.729 -1.3724 -0.0616  0.3155
    3TCq1    H314330   2.785   3.269  13.831 -0.4094 -0.3694  0.5568
    3TCq1    H414331   2.660   3.075  13.459 -1.1729  0.1312  0.0261
    1MPD2     C14332   1.591   4.556  15.085 -0.1905  1.0683  0.3908
    1MPD2    C114333   1.546   4.427  15.111  0.5524 -0.2276  0.1019
    1MPD2    C214334   1.630   4.322  15.095 -0.4270 -0.2812  0.3262
    1MPD2    C314335   1.757   4.343  15.052  0.3772 -0.3608 -0.0613
    1MPD2    C414336   1.805   4.474  15.045  0.2732 -0.0919  0.3037
    1MPD2    C514337   1.721   4.580  15.052 -0.2970  0.1743  0.0976
    1MPD2     H14338   1.601   4.220  15.117  0.4645  0.4618  5.0514
    1MPD2    H114339   1.907   4.490  15.013  0.7824 -0.7683  1.5901
    1MPD2    H214340   1.519   4.636  15.097  0.0805  1.5738 -1.3461
    1MPD2    H314341   1.768   4.678  15.048  0.2576 -0.0043  2.3170
    1MPD2     N14342   1.851   4.231  15.043  0.0753 -0.0549  0.6189
    1MPD2    H514343   1.951   4.248  15.043 -0.2431  1.7107 -1.3143
    1MPD2    N114344   1.409   4.411  15.157  0.2645 -0.5404  0.1896
    1MPD2    H714345   1.358   4.497  15.173  1.6579 -0.1012  2.3755
    2TMC3    C114346   1.207   4.285  15.200  0.1767 -0.0694  0.4415
    2TMC3    C214347   1.165   4.159  15.227 -0.5441  0.2704 -0.0796
    2TMC3    C314348   1.082   4.108  15.135  0.6241  0.1371  1.2647
    2TMC3    C414349   1.142   4.370  15.111  0.4049  0.4899  0.1275
    2TMC3    C514350   1.043   4.311  15.042  0.2194 -0.2043  0.0375
    2TMC3    C614351   1.018   4.179  15.045  0.0494 -0.3225 -0.8169
    2TMC3     C14352   1.359   4.293  15.198  0.6458  0.7353 -0.2763
    2TMC3     O14353   1.416   4.187  15.231 -1.2355  0.2837  0.9298
    2TMC3     H14354   1.214   4.106  15.308 -0.6466 -0.4415 -0.4791
    2TMC3    H114355   1.157   4.477  15.108  3.5240  0.0592 -0.1921
    2TMC3    H214356   0.946   4.137  14.976  0.3452  0.3403 -1.5288
    2TMC3    C714357   0.981   4.384  14.933 -0.4093  0.1217  1.7919
    2TMC3    C814358   1.107   3.968  15.097 -0.1658 -0.1783  0.9067
    2TMC3    O114359   0.886   4.334  14.873 -0.1767  0.1964 -0.5908
    2TMC3    O214360   1.029   3.918  15.012 -0.3302  0.1960  0.6874
    3TCq1    O114361   1.144   0.761  14.427 -0.7971 -0.0797 -0.0927
    3TCq1    C114362   1.262   0.722  14.474 -0.4319  0.0413  0.4657
    3TCq1    O214363   1.351   0.796  14.518 -0.4874 -0.0197  0.3366
    3TCq1    C214364   1.270   0.577  14.459 -0.5774 -0.4322  0.1641
    3TCq1    C314365   1.398   0.530  14.468 -0.0911 -0.2441  0.7004
    3TCq1    C414366   1.415   0.398  14.512  0.2004  0.8357 -0.4048
    3TCq1    C514367   1.312   0.318  14.544 -0.0080  0.2461  0.0568
    3TCq1    C614368   1.187   0.372  14.537 -0.1685 -0.5182 -0.0362
    3TCq1    C714369   1.159   0.500  14.497 -1.1120  0.0712 -0.6669
    3TCq1    C814370   1.073   0.288  14.570  0.2623  0.0887 -0.0156
    3TCq1    O414371   0.965   0.334  14.538  0.1908 -0.0401 -0.6738
    3TCq1    C914372   1.550   0.347  14.543 -1.0353 -0.4582 -0.0531
    3TCq1    O514373   1.648   0.430  14.563 -0.1119 -0.1833 -0.2020
    3TCq1    O614374   1.565   0.224  14.522 -0.1943  0.0716  0.3074
    3TCq1    H114375   1.110   0.678  14.386 -1.1894  0.3982 -0.7355
    3TCq1    H214376   1.481   0.595  14.442 -0.5719  0.8560  1.9179
    3TCq1    H314377   1.341   0.216  14.565 -0.5685  0.1950  0.5923
    3TCq1    H414378   1.057   0.535  14.508 -0.8955  0.9344 -1.3454
    4MPD2     C14379   0.877   0.072  14.653  0.3116 -0.4327  0.3713
    4MPD2    C114380   1.011   0.070  14.680  0.1178  0.0768  0.4433
    4MPD2    C214381   1.060   4.692  14.764 -0.5624  0.4238 -0.4476
    4MPD2    C314382   0.979   4.602  14.824  0.4267  0.1255 -0.5547
    4MPD2    C414383   0.848   4.603  14.801  0.8881 -0.6756 -0.2347
    4MPD2    C514384   0.796   4.695  14.714 -0.3522  0.3347 -0.1595
    4MPD2     H14385   1.166   4.689  14.787 -0.6146  0.7388 -0.1622
    4MPD2    H114386   0.781   4.528  14.843  0.3501 -0.9531 -1.5785
    4MPD2    H214387   0.829   0.133  14.577 -0.0806  0.6444  1.4743
    4MPD2    H314388   0.693   4.694  14.683 -1.2519  3.9174  2.7060
    4MPD2     N14389   1.042   4.503  14.899 -0.4393 -0.3866 -0.1353
    4MPD2    H514390   1.139   4.518  14.924 -0.0598 -2.0160 -0.6485
    4MPD2    N114391   1.100   0.170  14.637  0.3938  0.9689  0.3180
    4MPD2    H714392   1.199   0.157  14.655  0.0171 -1.7570  0.3404
    5TMC2    C114393   1.835   3.816  15.166  0.4829 -0.0282 -0.5074
    5TMC2    C214394   1.913   3.871  15.265 -0.4420 -0.4612  0.1820
    5TMC2    C314395   2.003   3.975  15.247 -0.4953 -0.4164 -0.2019
    5TMC2    C414396   1.836   3.879  15.046 -0.0599 -0.5813 -0.0650
    5TMC2    C514397   1.906   3.997  15.034  0.0330  0.2199 -0.3307
    5TMC2    C614398   1.995   4.044  15.129 -0.0129 -0.3893 -0.3803
    5TMC2     C14399   1.705   3.773  15.217  0.2455  0.5285 -0.2940
    5TMC2     O14400   1.663   3.826  15.322 -0.1427  0.3062 -0.1967
    5TMC2     H14401   1.898   3.831  15.365  0.1829  0.3365  0.6035
    5TMC2    H114402   1.764   3.839  14.976 -1.1640  0.4529  0.4839
    5TMC2    H214403   2.061   4.129  15.111 -0.1902 -0.4677 -1.4135
    5TMC2    C714404   1.812   4.102  15.011 -0.3904  0.5246  0.8243
    5TMC2    C814405   2.103   4.021  15.336  0.3824  0.0150 -0.3094
    5TMC2    O114406   1.702   4.052  14.990  0.1524  0.5720 -0.2202
    5TMC2    O214407   2.203   4.069  15.289  0.0649 -0.1874 -0.3412
    5TMC2    O514408   2.096   3.941  15.447 -0.5367 -0.4650 -0.0269
    5TMC2    H514409   2.003   3.945  15.479  0.0940  1.7018  1.5293
    6MPD2     C14410   1.249   3.705  15.017  0.0839  0.7446 -0.4739
    6MPD2    C114411   1.296   3.808  15.099  0.1515  0.1128  0.1520
    6MPD2    C214412   1.428   3.796  15.138  0.9485 -0.1652 -0.5181
    6MPD2    C314413   1.509   3.695  15.101  0.1279 -0.0043  0.0198
    6MPD2    C414414   1.458   3.606  15.010 -0.5291  0.0723 -0.1324
    6MPD2    C514415   1.327   3.605  14.973 -0.2473 -0.3119 -0.3826
    6MPD2     H14416   1.467   3.881  15.192 -1.5159  0.4476  0.3251
    6MPD2    H114417   1.522   3.527  14.970 -2.4838 -0.9099 -1.3050
    6MPD2    H214418   1.145   3.692  14.987  0.4080 -0.7207 -0.9681
    6MPD2    H314419   1.283   3.527  14.912 -2.8288  1.1273 -0.3642
    6MPD2     N14420   1.642   3.692  15.129  0.4663  0.2164  0.7939
    6MPD2    H514421   1.703   3.651  15.060  0.1105  2.2364 -0.7240
    6MPD2    N114422   1.225   3.922  15.145 -0.8598  0.0302 -0.6603
    6MPD2    H714423   1.276   3.991  15.200 -2.6393 -2.2719  3.8272
  945NH3     N114424   4.555   1.284   8.251 -0.6160  0.0667 -0.1043
  945NH3     H214425   4.485   1.289   8.324  0.1454  1.4687  0.5144
  945NH3     H314426   4.639   1.273   8.306 -0.0935 -1.1744 -1.1384
  945NH3     H414427   4.562   1.373   8.203  1.0204  0.5859  1.0944
  946SOD     NA14428   0.553   2.585  15.485 -0.0229 -0.1387 -0.1370
  947SOD     NA14429   3.174   2.964  14.067  0.1103  0.0969  0.0175
  948SOD     NA14430   2.333   0.639  11.403 -0.3030 -0.4268 -0.0240
  949SOD     NA14431   4.095   4.631   1.162 -0.0950 -0.1107  0.0473
  950SOD     NA14432   4.311   4.351   9.372 -0.0377 -0.0111  0.1946
  951SOD     NA14433   3.026   3.329  14.113  0.5462  0.2688  0.0819
  952SOD     NA14434   1.458   3.518  11.551  0.5577  0.0966 -0.0413
  953SOD     NA14435   1.753   1.790   2.099  0.1225  0.0622 -0.1426
  954SOD     NA14436   1.584   3.445  10.955  0.4522 -0.0782  0.2082
  955SOD     NA14437   3.740   0.365  15.094 -0.0647 -0.3696  0.3000
  956SOD     NA14438   3.638   4.057  13.511  0.1560 -0.0002 -0.3159
  957SOD     NA14439   1.085   1.847   9.268 -0.3643 -0.2302 -0.2967
  958SOD     NA14440   1.416   1.375   5.942  0.3925 -0.1044  0.3170
  959SOD     NA14441   3.774   1.803  13.166  0.2498  0.3046  0.2045
  960SOD     NA14442   4.409   3.390  10.973 -0.0969 -0.0599  0.3480
  961SOD     NA14443   3.034   3.826  11.575  0.3318 -0.1032  0.2005
  962SOD     NA14444   2.281   3.577  12.168  0.3071  0.0890 -0.0884
  963SOD     NA14445   2.409   1.593   0.859 -0.4073  0.1909  0.3069
  964SOD     NA14446   1.842   3.551  10.803  0.0424  0.1515  0.1372
  965SOD     NA14447   4.495   1.713   9.376  0.2998  0.0753  0.1418
  966SOD     NA14448   4.524   2.794  12.748 -0.4290  0.0030 -0.4234
  967SOD     NA14449   3.944   0.797   6.875  0.1708 -0.0238 -0.0172
  968SOD     NA14450   1.756   0.176  14.635 -0.4849  0.0925 -0.1223
  969SOD     NA14451   2.893   3.051  13.023  0.3481  0.0736 -0.1970
  970SOD     NA14452   1.999   1.600  13.108 -0.1863  0.2949  0.0284
  971SOD     NA14453   2.111   0.059  14.684  0.1155  0.1713  0.4876
  972SOD     NA14454   0.270   3.601   4.430 -0.0321 -0.5814  0.0503
  973SOD     NA14455   4.410   1.181   0.632 -0.8399 -0.2111 -0.4907
  974SOD     NA14456   4.538   4.022  14.414  0.0408 -0.7554  0.0196
  975SOD     NA14457   2.723   4.101   2.871  0.2557  0.1938  0.2314
  976SOD     NA14458   1.313   2.520   9.904 -0.0827  0.1629  0.5097
  977SOD     NA14459   2.977   3.588  10.570  0.2447  0.0820  0.5420
  978SOD     NA14460   1.277   3.049  13.247  0.2662  0.1882 -0.0616
  979SOD     NA14461   1.783   3.276  13.471  0.5267 -0.1302  0.0230
  980SOD     NA14462   2.683   3.452  11.322  0.5366  0.0353 -0.2381
  981SOD     NA14463   1.876   1.785   0.955 -0.1507  0.2624  0.0735
  982SOD     NA14464   3.140   3.144   7.510  0.1080  0.3974 -0.0764
  983SOD     NA14465   0.395   2.004   9.293  0.2446  0.5321 -0.9656
  984SOD     NA14466   4.060   4.686   3.116 -0.8074 -0.1779  0.5936
  985SOD     NA14467   3.393   1.164   3.808 -0.6327 -0.0627 -0.4628
  986SOD     NA14468   2.295   2.812  10.006 -0.1994  0.2353 -0.5671
  987SOD     NA14469   2.174   2.963   9.761 -0.0477 -0.2416  0.4633
  988SOD     NA14470   2.358   1.105   2.736 -0.0502 -0.1703  0.1056
  989SOD     NA14471   3.535   4.293   0.385 -0.1381 -0.2934  0.2283
  990SOD     NA14472   3.849   4.160  15.280  0.1954 -0.2482  0.0352
  991SOD     NA14473   0.234   0.354   5.329 -0.1937 -0.3817  0.2254
  992SOD     NA14474   1.527   0.037  14.427  0.3316 -0.3394  0.3117
  993SOD     NA14475   2.368   4.442  15.633  0.0408  0.2866 -0.1674
  994SOD     NA14476   3.794   0.507  13.834  0.2624 -0.2006 -0.0973
  995SOD     NA14477   0.337   2.304   9.371 -0.0033  0.0463  0.3467
  996SOD     NA14478   1.802   3.371   8.192  0.3760 -0.4284 -0.1909
  997SOD     NA14479   1.760   1.528  10.623  0.2408 -0.8107  0.6039
  998SOD     NA14480   2.371   1.442   3.242 -0.0095 -0.3293  0.5081
  999SOD     NA14481   1.329   3.840  11.539  0.0958  0.0548 -0.1315
 1000SOD     NA14482   3.562   4.395  14.807  0.3148  0.2062  0.1134
 1001SOD     NA14483   2.750   3.063   5.537  0.0365 -0.3274  0.1008
 1002SOD     NA14484   0.145   3.343   3.358 -0.2484 -0.0105 -0.5571
 1003SOD     NA14485   3.577   0.049   3.919 -0.2706 -0.4114  0.3365
 1004SOD     NA14486   0.119   3.943  16.566 -0.8778 -0.2674  0.0145
 1005SOD     NA14487   0.786   3.831  13.975  0.3800  0.2907  0.0148
 1006SOD     NA14488   2.923   0.163  12.248  0.1638  0.1271 -0.1609
 1007SOD     NA14489   2.069   4.120   0.071 -0.3424  0.0071  0.0329
 1008SOD     NA14490   2.127   3.059  16.649 -0.1882  0.1746 -0.0093
 1009SOD     NA14491   1.671   0.905  16.150 -0.0244  0.0827 -0.1864
 1010SOD     NA14492   3.382   0.333  16.340 -0.4485  0.7522 -0.0625
 1011SOD     NA14493   0.481   1.290   1.745 -0.0379 -0.2629 -0.5942
 1012SOL     OW14494   2.785   0.520   7.280 -0.6912  0.1985  0.4183
 1012SOL    HW114495   2.837   0.448   7.245 -0.6815  0.3529  0.1156
 1012SOL    HW214496   2.851   0.570   7.327 -0.3043  0.6997 -0.6794
 1013SOL     OW14497   2.589   2.621  11.634  0.2207 -0.4282  0.7054
 1013SOL    HW114498   2.585   2.535  11.592  1.3543  0.1618 -0.6145
 1013SOL    HW214499   2.654   2.678  11.594 -1.0713  0.3437 -0.2521
 1014SOL     OW14500   0.892   4.533  13.920  0.0739  0.3407 -0.1927
 1014SOL    HW114501   0.856   4.545  13.832 -1.0933  2.0913  0.5234
 1014SOL    HW214502   0.904   4.624  13.946  0.3567 -0.6729  3.2223
 1015SOL     OW14503   3.559   2.859   6.529  0.1591 -0.9027  0.5856
 1015SOL    HW114504   3.607   2.870   6.612  0.4436 -1.4208  0.4880
 1015SOL    HW214505   3.518   2.774   6.541  1.6220 -1.6991 -0.0587
 1016SOL     OW14506   1.699   0.836  16.389 -0.2436 -0.4151  0.2264
 1016SOL    HW114507   1.719   0.896  16.461  0.6340  0.2795 -0.5900
 1016SOL    HW214508   1.651   0.769  16.437  0.7483  1.5338  3.9403
 1017SOL     OW14509   4.283   2.657  14.125 -0.3612 -0.0329 -0.0169
 1017SOL    HW114510   4.218   2.636  14.058 -1.0387  1.3652  0.2174
 1017SOL    HW214511   4.274   2.578  14.178 -2.3045 -0.8651 -1.5835
 1018SOL     OW14512   0.600   2.823   2.413  0.2590 -0.0595 -0.5569
 1018SOL    HW114513   0.534   2.864   2.468  0.5731 -0.1626 -0.1057
 1018SOL    HW214514   0.630   2.747   2.463 -1.4568  0.5118  1.3229
 1019SOL     OW14515   1.063   4.335   7.071  0.4581 -0.2149  0.2353
 1019SOL    HW114516   1.002   4.361   7.003 -2.0544 -1.4889  1.9958
 1019SOL    HW214517   1.086   4.248   7.038 -1.3769 -0.2924 -0.8328
 1020SOL     OW14518   0.135   2.937   8.892 -0.4198 -0.5216  0.3678
 1020SOL    HW114519   0.120   2.960   8.800 -0.1922 -0.1916  0.4121
 1020SOL    HW214520   0.216   2.888   8.878 -0.8498 -0.5259 -2.2207
 1021SOL     OW14521   0.008   3.148   2.913  0.5896  0.1186  0.2617
 1021SOL    HW114522   4.644   3.172   2.951 -0.5458  1.9740 -3.4901
 1021SOL    HW214523   4.713   3.067   2.863 -0.7842  1.4925 -1.5307
 1022SOL     OW14524   1.134   2.033  15.201  0.0868 -0.1902 -0.1162
 1022SOL    HW114525   1.142   2.123  15.233  1.1955 -0.4286  0.2631
 1022SOL    HW214526   1.136   1.987  15.285 -2.0907 -3.6147 -1.9191
 1023SOL     OW14527   3.856   4.077   7.104  0.0292 -0.2252 -0.3691
 1023SOL    HW114528   3.806   3.996   7.115  0.0605 -0.3488 -1.1753
 1023SOL    HW214529   3.817   4.114   7.024 -0.6878  0.7288  0.4162
 1024SOL     OW14530   2.234   0.304   4.496  0.1448 -0.4549  0.7431
 1024SOL    HW114531   2.296   0.344   4.436 -0.3114 -0.9748 -0.0740
 1024SOL    HW214532   2.186   0.239   4.445  1.5670 -1.4052  0.6293
 1025SOL     OW14533   3.456   2.906   5.970  0.2968  0.4107  0.2848
 1025SOL    HW114534   3.424   2.996   5.965 -0.4120  0.0475 -1.8315
 1025SOL    HW214535   3.384   2.854   6.006  0.5882 -0.6518 -0.6891
 1026SOL     OW14536   2.411   4.255   5.502 -0.2299  0.2058 -0.0645
 1026SOL    HW114537   2.492   4.256   5.451 -0.3877  0.9646 -0.3111
 1026SOL    HW214538   2.371   4.332   5.462  0.5578  2.8321  4.2001
 1027SOL     OW14539   3.373   3.159   5.232 -0.3393  0.3669  0.2080
 1027SOL    HW114540   3.400   3.247   5.206 -0.4357  0.6541  1.1091
 1027SOL    HW214541   3.421   3.106   5.167 -2.8040 -2.1486  0.4698
 1028SOL     OW14542   4.577   2.434  17.516  0.0449 -0.0583 -0.0169
 1028SOL    HW114543   4.521   2.473  17.583 -1.6423 -2.6609  0.1251
 1028SOL    HW214544   4.512   2.374  17.478  1.1079 -0.7276 -0.7928
 1029SOL     OW14545   3.116   3.736  15.563  0.9693 -0.1501 -0.4014
 1029SOL    HW114546   3.155   3.824  15.564 -1.2947  0.8739 -1.5248
 1029SOL    HW214547   3.125   3.720  15.470  2.4669  0.6173 -0.3989
 1030SOL     OW14548   2.858   3.513   6.172 -0.2354 -0.2184 -0.3442
 1030SOL    HW114549   2.787   3.451   6.187  0.7070 -1.3303 -0.5156
 1030SOL    HW214550   2.879   3.477   6.086 -0.0394  0.8795 -0.7495
 1031SOL     OW14551   2.929   2.967  11.617 -0.3426 -0.3070 -0.0896
 1031SOL    HW114552   2.967   3.054  11.606 -0.5058 -0.3778 -1.2612
 1031SOL    HW214553   2.953   2.953  11.708 -3.8385  0.3495  0.9211
 1032SOL     OW14554   2.633   4.514   5.105 -0.0688  0.2419  0.2405
 1032SOL    HW114555   2.634   4.420   5.089 -1.6405 -0.1976  2.6221
 1032SOL    HW214556   2.728   4.526   5.106 -0.1105  0.6382 -0.4438
 1033SOL     OW14557   1.717   1.768   7.908 -0.3413  0.0687  0.0679
 1033SOL    HW114558   1.795   1.823   7.899 -0.2708 -0.1656 -0.8181
 1033SOL    HW214559   1.743   1.687   7.864 -1.3207  0.4786 -1.2585
 1034SOL     OW14560   3.628   4.089  12.698  0.0301 -0.3797 -0.1070
 1034SOL    HW114561   3.646   4.179  12.673  2.9377 -0.4651  1.6477
 1034SOL    HW214562   3.682   4.040  12.636  1.0356  0.7065 -0.0681
 1035SOL     OW14563   4.505   1.764   5.458  0.0290  0.3727 -0.9410
 1035SOL    HW114564   4.553   1.814   5.392  3.1670 -2.7368 -1.0087
 1035SOL    HW214565   4.436   1.828   5.478 -0.6928 -0.3240 -1.2064
 1036SOL     OW14566   2.408   2.055   5.598 -0.1945  0.3150  0.2319
 1036SOL    HW114567   2.427   2.133   5.546 -0.9485 -0.1862 -0.8105
 1036SOL    HW214568   2.315   2.065   5.618 -0.4911 -1.2732 -0.3661
 1037SOL     OW14569   1.350   1.812   1.278  0.0068 -0.3933 -0.5615
 1037SOL    HW114570   1.403   1.888   1.301 -0.5549 -0.9367  2.4458
 1037SOL    HW214571   1.318   1.774   1.359 -0.5220 -1.1542 -1.1249
 1038SOL     OW14572   1.153   1.609   8.495 -0.2949  0.2321  0.0952
 1038SOL    HW114573   1.109   1.568   8.421 -2.3183 -0.2585  1.5672
 1038SOL    HW214574   1.094   1.681   8.516 -0.1664  0.0966  0.9188
 1039SOL     OW14575   1.281   4.124   6.740  0.0413 -0.1431 -0.1433
 1039SOL    HW114576   1.332   4.044   6.737 -0.1929 -0.3625  1.5068
 1039SOL    HW214577   1.347   4.193   6.733  1.1710 -1.2801 -0.5281
 1040SOL     OW14578   1.199   2.052   9.204  0.3481 -1.0989  0.4074
 1040SOL    HW114579   1.259   2.075   9.133 -1.0733 -0.9120 -0.7387
 1040SOL    HW214580   1.122   2.105   9.184  0.6929 -0.3599  1.0219
 1041SOL     OW14581   0.450   1.376   0.058  0.8254 -0.5546  0.4263
 1041SOL    HW114582   0.527   1.424   0.029  1.0268 -0.4377  1.1455
 1041SOL    HW214583   0.397   1.361  17.665  0.9585  0.8748  0.0605
 1042SOL     OW14584   0.444   0.683   5.116  0.6184  0.2600 -0.1394
 1042SOL    HW114585   0.503   0.666   5.042  1.7703  2.4270  0.2947
 1042SOL    HW214586   0.423   0.773   5.093 -2.1156 -0.4183 -0.2992
 1043SOL     OW14587   4.709   1.272   2.892 -0.0231  0.5143  0.5669
 1043SOL    HW114588   4.705   1.197   2.833 -3.2756  0.6835  0.5749
 1043SOL    HW214589   0.082   1.266   2.912 -0.1567  0.7726  1.2795
 1044SOL     OW14590   1.072   3.824   5.167 -0.1817 -0.0297 -0.5630
 1044SOL    HW114591   1.098   3.864   5.083  0.4255  1.9404  0.5610
 1044SOL    HW214592   1.102   3.890   5.230  0.1450  0.6172 -1.3863
 1045SOL     OW14593   2.667   0.369   7.726 -0.2061 -0.2080  0.6380
 1045SOL    HW114594   2.677   0.357   7.631 -0.7022  0.2805  0.5277
 1045SOL    HW214595   2.619   0.451   7.733 -0.9377 -0.6287  0.5614
 1046SOL     OW14596   2.407   0.845  11.327 -0.0274 -0.2225 -0.1296
 1046SOL    HW114597   2.332   0.895  11.360 -0.4905 -0.6076 -0.5909
 1046SOL    HW214598   2.466   0.920  11.320 -0.1854 -0.2189 -1.4558
 1047SOL     OW14599   3.675   2.475   2.551 -0.8326  0.1705 -0.8479
 1047SOL    HW114600   3.658   2.565   2.578  2.2613  0.0017  1.8272
 1047SOL    HW214601   3.621   2.430   2.616 -0.5685  0.9880 -0.0576
 1048SOL     OW14602   2.539   3.664   4.905  0.3967 -0.0138  0.6572
 1048SOL    HW114603   2.455   3.687   4.865  0.6582  2.3237  1.4972
 1048SOL    HW214604   2.531   3.697   4.994  4.1315 -3.2903  2.2239
 1049SOL     OW14605   1.673   2.931   4.142 -0.5510  0.8291  0.2329
 1049SOL    HW114606   1.709   2.994   4.204  0.0019  0.5696  0.1728
 1049SOL    HW214607   1.743   2.912   4.079 -0.5812 -0.6105  0.6334
 1050SOL     OW14608   2.134   3.407   9.860  0.2524 -0.1439  0.3045
 1050SOL    HW114609   2.085   3.489   9.863 -0.8551 -0.7680 -0.8729
 1050SOL    HW214610   2.079   3.340   9.901 -0.2526 -0.8511 -1.5182
 1051SOL     OW14611   3.396   0.049  13.171 -0.1517 -0.2271 -0.4573
 1051SOL    HW114612   3.465   0.043  13.105  1.0375 -2.4560  0.9804
 1051SOL    HW214613   3.455   0.038  13.246  0.5071  3.8209 -0.3432
 1052SOL     OW14614   0.650   2.393   4.495  0.2318  0.1729  0.0824
 1052SOL    HW114615   0.712   2.462   4.471 -0.5369  1.3589  1.4661
 1052SOL    HW214616   0.706   2.329   4.539 -2.5957 -2.2151  0.2332
 1053SOL     OW14617   1.740   2.635   5.655  0.1162  0.3827  0.4606
 1053SOL    HW114618   1.714   2.721   5.622 -0.0853  0.4935  0.9123
 1053SOL    HW214619   1.756   2.655   5.747 -0.2955  1.3390  0.3210
 1054SOL     OW14620   2.711   3.699   7.706  0.3011  0.1616  0.1790
 1054SOL    HW114621   2.765   3.778   7.704 -0.9911  1.0240 -0.8363
 1054SOL    HW214622   2.737   3.671   7.793  0.9153  1.7418  0.4997
 1055SOL     OW14623   4.165   3.604   9.488  0.2104  0.3618  0.3886
 1055SOL    HW114624   4.161   3.641   9.401 -0.4218  2.6266  1.3960
 1055SOL    HW214625   4.175   3.687   9.535 -0.5829  0.1963  0.8456
 1056SOL     OW14626   4.330   0.616   5.304 -0.1172  0.5692 -0.4337
 1056SOL    HW114627   4.264   0.550   5.284  0.0273 -0.2954  1.9471
 1056SOL    HW214628   4.266   0.681   5.334  0.8982  0.9523  0.8851
 1057SOL     OW14629   2.035   1.620  13.326  0.3226 -0.2158  0.7087
 1057SOL    HW114630   2.010   1.706  13.360 -0.5794 -0.0105 -0.4871
 1057SOL    HW214631   2.111   1.598  13.380  0.0685 -0.8984  0.7948
 1058SOL     OW14632   4.519   4.716   7.986  0.3211  0.2151  0.4359
 1058SOL    HW114633   4.586   4.654   7.958  2.1920  2.3795  0.1407
 1058SOL    HW214634   4.438   4.678   7.952 -1.4501  3.3352  1.2395
 1059SOL     OW14635   1.886   1.882   3.226  0.3188 -0.8609  0.3050
 1059SOL    HW114636   1.811   1.900   3.283  0.1405  0.8809 -0.4946
 1059SOL    HW214637   1.859   1.941   3.156 -0.3939 -0.2613  1.0779
 1060SOL     OW14638   2.401   2.174  14.952  0.0066 -0.2417  0.0372
 1060SOL    HW114639   2.380   2.267  14.963 -0.2242 -0.2338 -0.4834
 1060SOL    HW214640   2.442   2.151  15.036 -0.3500  2.1030  0.8738
 1061SOL     OW14641   4.569   4.242   5.745 -0.5985  0.0577  0.8495
 1061SOL    HW114642   4.491   4.188   5.759 -0.6284  0.3585  1.8852
 1061SOL    HW214643   4.528   4.326   5.767 -1.4972 -0.3030  0.5758
 1062SOL     OW14644   2.465   2.810  12.139 -0.5527 -0.1015 -0.0683
 1062SOL    HW114645   2.483   2.745  12.207 -0.3931  0.3921  0.3600
 1062SOL    HW214646   2.473   2.752  12.064  0.3083  0.7102 -0.6006
 1063SOL     OW14647   1.622   0.463   4.988  0.5004  0.4094 -0.5245
 1063SOL    HW114648   1.651   0.386   4.940 -1.8912 -1.3462  0.8685
 1063SOL    HW214649   1.695   0.521   4.967  0.9472 -0.0656 -0.2852
 1064SOL     OW14650   4.209   4.497  15.070 -0.2346  0.1503 -0.1954
 1064SOL    HW114651   4.193   4.440  15.145  0.4639  2.0293  1.3841
 1064SOL    HW214652   4.301   4.483  15.049 -0.3059 -2.0590  0.9682
 1065SOL     OW14653   3.120   0.416   2.939  0.1370  0.2774 -0.1172
 1065SOL    HW114654   3.110   0.378   3.026  2.2023 -0.1848 -0.0823
 1065SOL    HW214655   3.169   0.346   2.895  1.9692  1.5337 -0.0145
 1066SOL     OW14656   1.489   0.743   0.390 -0.3454 -0.0006  0.0560
 1066SOL    HW114657   1.536   0.718   0.470  1.8910 -0.3902 -1.3538
 1066SOL    HW214658   1.541   0.819   0.360  1.2246 -1.4496 -0.9161
 1067SOL     OW14659   0.075   0.033   6.235  0.4169 -0.5556 -0.3926
 1067SOL    HW114660   0.111   0.121   6.221  1.1252 -0.6950  0.5272
 1067SOL    HW214661   0.119   4.703   6.167  0.3771 -1.6290  0.3984
 1068SOL     OW14662   3.075   4.603   3.176  0.2955 -0.0664 -0.3532
 1068SOL    HW114663   3.165   4.570   3.173  0.5387  0.6300 -0.8433
 1068SOL    HW214664   3.023   4.548   3.117  0.1910  0.4047 -0.7004
 1069SOL     OW14665   2.139   3.392   1.586 -0.5252  0.1813 -0.0153
 1069SOL    HW114666   2.178   3.318   1.632 -2.6533 -0.9642 -0.0570
 1069SOL    HW214667   2.093   3.365   1.506 -0.4211  0.5271 -0.1920
 1070SOL     OW14668   0.382   2.106   3.320 -0.1352 -0.5640  0.1154
 1070SOL    HW114669   0.332   2.026   3.336 -1.1247 -0.2972 -1.6226
 1070SOL    HW214670   0.324   2.151   3.258  0.4133 -0.3080 -0.2133
 1071SOL     OW14671   0.416   2.993   9.601 -0.2903 -0.5215 -0.5342
 1071SOL    HW114672   0.332   3.027   9.631 -0.3609 -1.0833 -0.1002
 1071SOL    HW214673   0.396   2.952   9.517 -1.0596 -0.4678 -0.3753
 1072SOL     OW14674   0.891   3.922   4.479 -0.7103 -0.1201 -0.1327
 1072SOL    HW114675   0.858   3.894   4.394 -1.6030 -0.8087  0.4380
 1072SOL    HW214676   0.826   3.985   4.509  1.1739  2.5547 -1.7135
 1073SOL     OW14677   4.196   3.712   3.520 -0.1082  0.0727 -0.0360
 1073SOL    HW114678   4.221   3.634   3.471 -2.5876  0.7263 -2.2671
 1073SOL    HW214679   4.171   3.776   3.454 -0.0672  0.8620  0.6990
 1074SOL     OW14680   2.987   0.679   5.003 -0.5694  0.5685 -0.2773
 1074SOL    HW114681   3.035   0.629   5.070  0.0074 -0.5135 -1.4813
 1074SOL    HW214682   3.038   0.760   4.999  0.9497 -0.3307  0.8889
 1075SOL     OW14683   0.168   1.486  16.249  0.3853 -0.2360 -0.4029
 1075SOL    HW114684   0.116   1.436  16.186  0.6429  0.0260 -0.8179
 1075SOL    HW214685   0.185   1.422  16.318  1.4773  1.7100  1.1253
 1076SOL     OW14686   2.752   2.013   5.274 -0.1787  0.0792 -0.4087
 1076SOL    HW114687   2.802   1.933   5.290 -2.1666 -1.0576 -0.0106
 1076SOL    HW214688   2.783   2.086   5.327 -2.0415  1.1681 -0.8235
 1077SOL     OW14689   4.219   2.029   1.890 -0.2217  0.0614 -0.2147
 1077SOL    HW114690   4.202   2.000   1.979  2.8368  0.7169  0.5909
 1077SOL    HW214691   4.134   2.058   1.859  0.1818  0.9930 -0.4521
 1078SOL     OW14692   3.087   2.046   7.647 -0.2980  0.0063 -0.7261
 1078SOL    HW114693   3.028   2.120   7.631  1.6986  1.5246 -1.2459
 1078SOL    HW214694   3.166   2.080   7.604  0.6980 -1.8475 -0.3665
 1079SOL     OW14695   2.413   2.463  12.679  0.4935 -0.2053 -0.7368
 1079SOL    HW114696   2.356   2.387  12.690  0.8694 -0.6631 -2.0205
 1079SOL    HW214697   2.396   2.516  12.757  0.4026 -0.7640 -0.3775
 1080SOL     OW14698   2.251   2.483  16.090  0.6271 -0.2387  0.0998
 1080SOL    HW114699   2.342   2.475  16.061  0.5061 -0.4247 -0.2372
 1080SOL    HW214700   2.249   2.415  16.158 -2.8881 -1.2647 -1.0018
 1081SOL     OW14701   1.999   4.324   4.037 -0.0396  0.1269  0.2282
 1081SOL    HW114702   2.006   4.249   4.096  0.5884  0.3317  0.4229
 1081SOL    HW214703   1.924   4.310   3.980  0.5820 -4.9301  0.6699
 1082SOL     OW14704   0.206   2.630   5.158  0.2150  0.2548  0.0059
 1082SOL    HW114705   0.157   2.712   5.169  0.3317  0.2232  0.7709
 1082SOL    HW214706   0.250   2.646   5.074 -3.5776 -0.7842 -2.1956
 1083SOL     OW14707   2.040   2.517  12.456  0.7162  0.1131 -0.2838
 1083SOL    HW114708   2.133   2.519  12.475  0.0923  1.6111  2.6224
 1083SOL    HW214709   2.005   2.503  12.543 -0.6296  0.0447 -0.8254
 1084SOL     OW14710   4.041   2.027   8.115  0.0745 -0.4650  0.0208
 1084SOL    HW114711   4.062   1.945   8.069  0.1812 -0.2609 -0.2966
 1084SOL    HW214712   3.965   2.002   8.167 -0.6077  1.4535 -0.0453
 1085SOL     OW14713   1.703   2.157   6.401 -0.2647  0.2431  0.4044
 1085SOL    HW114714   1.608   2.152   6.389 -0.3784 -0.3023  1.5872
 1085SOL    HW214715   1.712   2.106   6.481 -0.2564 -0.8453 -0.2874
 1086SOL     OW14716   1.728   4.352   5.312 -0.2326  0.1368 -0.1009
 1086SOL    HW114717   1.811   4.399   5.306  0.4396 -0.8356  1.5961
 1086SOL    HW214718   1.756   4.279   5.367 -0.1579  0.7869  0.7077
 1087SOL     OW14719   3.971   1.870   9.916  0.0111  0.2049  0.0146
 1087SOL    HW114720   4.011   1.924   9.984 -0.2318  0.7734 -0.2895
 1087SOL    HW214721   3.886   1.911   9.901  0.1725  0.8423  0.9002
 1088SOL     OW14722   2.790   4.085   0.108  0.1565 -0.0597  0.3148
 1088SOL    HW114723   2.818   4.068   0.198  1.4317  1.0443  0.1339
 1088SOL    HW214724   2.845   4.027   0.055 -2.1121 -1.0222 -0.9678
 1089SOL     OW14725   3.241   3.181  16.116 -0.0918  0.5002  0.3520
 1089SOL    HW114726   3.327   3.203  16.079 -0.1081  0.6179  0.3839
 1089SOL    HW214727   3.261   3.169  16.209 -0.9532  1.4122  0.6496
 1090SOL     OW14728   2.449   3.803   6.077 -0.5634 -0.6979  0.4373
 1090SOL    HW114729   2.528   3.796   6.131  1.2326  0.7361 -2.0028
 1090SOL    HW214730   2.456   3.721   6.028  0.3561 -0.6053  0.4071
 1091SOL     OW14731   3.720   1.789   5.468  0.1254 -0.2322 -0.0751
 1091SOL    HW114732   3.788   1.755   5.411  0.4266 -1.8192  1.2271
 1091SOL    HW214733   3.676   1.845   5.404 -0.7639  0.8813  1.4985
 1092SOL     OW14734   4.595   0.421  10.556 -0.1362  0.3587  0.3494
 1092SOL    HW114735   4.576   0.473  10.634  1.4399  0.2680  0.7933
 1092SOL    HW214736   4.689   0.410  10.564 -0.2203  0.1778  1.0507
 1093SOL     OW14737   1.996   3.540   0.535 -0.5258 -0.5625 -0.1381
 1093SOL    HW114738   2.075   3.572   0.578 -1.4846 -0.7175  1.7391
 1093SOL    HW214739   1.948   3.485   0.597 -0.0966  0.3332  0.9913
 1094SOL     OW14740   3.933   2.219   7.883  0.6679 -0.0327 -0.1161
 1094SOL    HW114741   4.010   2.162   7.876 -1.0369 -2.3782  0.4082
 1094SOL    HW214742   3.906   2.209   7.974  1.8228 -1.9998  0.0051
 1095SOL     OW14743   1.053   1.245   7.041  0.5637 -0.2046 -0.3133
 1095SOL    HW114744   1.026   1.331   7.074  0.4531 -0.2712 -0.2268
 1095SOL    HW214745   1.067   1.275   6.951 -0.2258 -0.8772 -0.6656
 1096SOL     OW14746   0.664   4.569   4.110  0.6131  0.1083  0.0663
 1096SOL    HW114747   0.642   4.657   4.141 -1.9383 -0.2482 -0.7003
 1096SOL    HW214748   0.695   4.587   4.021 -0.5287 -0.5668 -0.4712
 1097SOL     OW14749   1.085   3.843  14.763  0.1133 -0.8476  0.1110
 1097SOL    HW114750   1.085   3.875  14.853 -0.2881  4.7071 -1.8180
 1097SOL    HW214751   1.179   3.831  14.747  0.5002  1.2353  0.7991
 1098SOL     OW14752   3.802   0.126   4.044 -0.0655 -0.0888  0.1957
 1098SOL    HW114753   3.849   0.205   4.015 -1.3950  0.6844  0.1373
 1098SOL    HW214754   3.862   0.054   4.025  2.4461  2.1380 -0.2746
 1099SOL     OW14755   0.054   1.253   7.791 -0.5510  0.4973 -0.4182
 1099SOL    HW114756   0.073   1.165   7.758  1.3164  1.0621 -0.8705
 1099SOL    HW214757   4.689   1.251   7.833  0.4739  0.6219  1.6897
 1100SOL     OW14758   0.193   2.138   3.862 -0.5182 -0.2031 -0.6043
 1100SOL    HW114759   0.230   2.224   3.880  0.2823 -0.8099  0.6470
 1100SOL    HW214760   0.237   2.087   3.929 -2.1784  1.4193  1.7192
 1101SOL     OW14761   3.585   1.303   4.546 -0.4013  0.0411  0.2089
 1101SOL    HW114762   3.523   1.233   4.564 -0.7420  0.5754  1.0887
 1101SOL    HW214763   3.624   1.320   4.632  0.2391 -2.7796  0.4570
 1102SOL     OW14764   1.807   1.835   7.174 -0.0329  0.1319  0.2562
 1102SOL    HW114765   1.742   1.782   7.219 -0.6888  0.1935 -0.6395
 1102SOL    HW214766   1.862   1.874   7.243 -0.5045 -1.7304  1.6662
 1103SOL     OW14767   3.281   4.446   5.264 -0.7319 -0.1398  0.4261
 1103SOL    HW114768   3.212   4.399   5.311 -0.1996 -1.5217 -0.1873
 1103SOL    HW214769   3.240   4.434   5.179 -0.0866  2.3645 -0.2427
 1104SOL     OW14770   1.673   2.616   6.615  0.6890  0.6885 -0.3708
 1104SOL    HW114771   1.692   2.638   6.706  4.8086 -1.3391 -0.7299
 1104SOL    HW214772   1.731   2.542   6.597 -1.2851 -1.2601  1.2031
 1105SOL     OW14773   2.346   3.120   2.662  0.0284  0.2003 -0.4983
 1105SOL    HW114774   2.315   3.039   2.622 -1.0030  0.1095  0.4808
 1105SOL    HW214775   2.432   3.130   2.622 -0.1162  0.9259 -0.6241
 1106SOL     OW14776   4.122   2.883   6.370  0.1077  0.3849 -0.3515
 1106SOL    HW114777   4.094   2.956   6.426 -3.5080 -1.1941 -0.0865
 1106SOL    HW214778   4.057   2.881   6.300 -0.1580 -2.5429 -0.0025
 1107SOL     OW14779   1.604   0.518   2.601  0.7251 -0.7735 -0.2723
 1107SOL    HW114780   1.521   0.493   2.560 -0.3513  0.4353  1.1772
 1107SOL    HW214781   1.579   0.583   2.666 -1.6662 -2.1276  0.1781
 1108SOL     OW14782   1.896   0.359   8.841 -0.3660  0.2728 -0.5996
 1108SOL    HW114783   1.915   0.286   8.782 -0.6388 -1.9390  2.0235
 1108SOL    HW214784   1.985   0.390   8.855  0.0628 -1.2101 -0.0452
 1109SOL     OW14785   4.663   2.861   2.802 -0.4255  0.3615 -0.6855
 1109SOL    HW114786   4.701   2.775   2.786  1.3038  0.8551  0.7882
 1109SOL    HW214787   4.628   2.848   2.889 -1.4925  2.0124 -0.8668
 1110SOL     OW14788   2.239   3.344   6.038  0.3887  0.1114 -0.1586
 1110SOL    HW114789   2.157   3.313   6.077  0.6599 -0.3812  0.0284
 1110SOL    HW214790   2.220   3.437   6.030  2.3242  0.5845  0.7254
 1111SOL     OW14791   2.299   3.831   1.772  0.7305 -0.4314  0.3137
 1111SOL    HW114792   2.212   3.843   1.735  1.2617  0.0586 -0.7624
 1111SOL    HW214793   2.306   3.743   1.735 -0.4776 -1.4938  2.6026
 1112SOL     OW14794   0.884   4.706   8.255  0.0904 -0.5184 -0.2470
 1112SOL    HW114795   0.961   4.698   8.198  1.0805  0.4154  0.9494
 1112SOL    HW214796   0.835   4.631   8.222 -0.8268 -0.2466  0.5112
 1113SOL     OW14797   2.012   3.995   8.344 -0.1352 -0.3869 -0.2736
 1113SOL    HW114798   1.933   3.972   8.296 -0.5243  0.5256 -0.0609
 1113SOL    HW214799   1.983   3.993   8.435 -0.0593  0.0910 -0.2389
 1114SOL     OW14800   0.944   3.580   3.292 -0.4291  0.6927  0.0062
 1114SOL    HW114801   0.958   3.491   3.259 -0.4686  0.4657  0.5940
 1114SOL    HW214802   0.853   3.586   3.319 -0.5211 -0.4593 -0.0632
 1115SOL     OW14803   2.388   1.054   4.069  0.1531 -0.5437 -0.3985
 1115SOL    HW114804   2.292   1.059   4.076  0.3161 -0.5602  1.8505
 1115SOL    HW214805   2.405   1.117   3.999 -1.8935 -0.4173 -0.7949
 1116SOL     OW14806   0.755   4.558   7.404 -0.0549  0.9862  0.0777
 1116SOL    HW114807   0.788   4.641   7.368 -0.2036 -0.1215 -2.5789
 1116SOL    HW214808   0.826   4.555   7.469  1.6722  0.9230 -1.8194
 1117SOL     OW14809   3.908   3.497  11.187 -0.1042  0.3734  0.2618
 1117SOL    HW114810   3.894   3.530  11.098 -0.9033  0.0105  0.2552
 1117SOL    HW214811   3.922   3.406  11.159 -0.7236  0.3712 -0.0472
 1118SOL     OW14812   3.540   0.378   5.713  0.3689  0.1269 -0.0583
 1118SOL    HW114813   3.448   0.398   5.696  0.7366  1.4747 -0.4648
 1118SOL    HW214814   3.541   0.284   5.701 -1.6640  0.0948 -0.0955
 1119SOL     OW14815   3.503   0.787  17.412 -0.8044  0.2004 -0.0956
 1119SOL    HW114816   3.542   0.767  17.497 -1.1270  0.4196  0.1056
 1119SOL    HW214817   3.523   0.711  17.358  0.2526  0.9486 -0.7270
 1120SOL     OW14818   3.984   0.502   1.443  0.0484 -0.0048  0.1271
 1120SOL    HW114819   4.001   0.597   1.439  1.9010 -0.2408  2.0015
 1120SOL    HW214820   4.068   0.457   1.441  0.4026  0.7666 -2.0328
 1121SOL     OW14821   3.021   4.518   8.260  0.4114 -0.4219  0.3461
 1121SOL    HW114822   2.969   4.467   8.322  0.7204  0.8656  1.6758
 1121SOL    HW214823   3.024   4.605   8.300  1.0005 -0.7859  1.0879
 1122SOL     OW14824   0.844   0.475   6.170 -0.1860 -0.1030 -0.0250
 1122SOL    HW114825   0.777   0.520   6.222 -0.7050 -1.2380  0.2980
 1122SOL    HW214826   0.884   0.422   6.239  0.5649 -0.9801 -1.1430
 1123SOL     OW14827   0.764   3.979  14.924  0.3656 -0.3458 -0.5973
 1123SOL    HW114828   0.713   3.940  14.995  2.6133  0.0502  1.2423
 1123SOL    HW214829   0.855   3.967  14.952 -1.0111 -3.1399  2.6376
 1124SOL     OW14830   3.125   2.632  13.867  0.3668 -0.2440  0.4945
 1124SOL    HW114831   3.135   2.537  13.878  0.7582  0.1098  3.1961
 1124SOL    HW214832   3.033   2.633  13.840  0.5789  0.1635 -0.2232
 1125SOL     OW14833   0.359   1.692   9.932  0.2855 -0.6813 -0.2721
 1125SOL    HW114834   0.429   1.707   9.868  1.7453  0.6015  1.6351
 1125SOL    HW214835   0.312   1.776   9.925  1.1769 -0.3134 -1.8168
 1126SOL     OW14836   2.386   2.316   6.669 -0.3320  0.0723 -0.2990
 1126SOL    HW114837   2.439   2.295   6.745  0.4923 -0.4492 -1.0222
 1126SOL    HW214838   2.311   2.361   6.708 -0.3434  1.5640 -2.0294
 1127SOL     OW14839   3.118   1.021   5.746 -0.1528  0.8499  0.0718
 1127SOL    HW114840   3.050   1.069   5.698  0.1714  0.1407 -1.0919
 1127SOL    HW214841   3.179   1.090   5.771 -0.0069  0.6849  0.1700
 1128SOL     OW14842   3.737   0.192   7.618 -0.0269  0.0528  0.0893
 1128SOL    HW114843   3.671   0.160   7.678 -1.2586  1.3193 -0.5956
 1128SOL    HW214844   3.686   0.237   7.551 -1.4684 -0.9937  0.5013
 1129SOL     OW14845   2.342   4.717   1.912  0.0880 -0.1032  0.5580
 1129SOL    HW114846   2.351   0.063   1.845  0.1989  1.1108  1.7794
 1129SOL    HW214847   2.374   0.049   1.985 -1.2034  0.7588  0.4870
 1130SOL     OW14848   2.668   3.357   6.609 -0.1634  0.2977  0.8375
 1130SOL    HW114849   2.585   3.374   6.654 -1.0346 -0.3061 -0.5168
 1130SOL    HW214850   2.705   3.445   6.598 -2.6629  1.2417 -0.2715
 1131SOL     OW14851   0.114   1.845   4.268  0.4716  0.1383  0.2839
 1131SOL    HW114852   0.181   1.779   4.287  0.9273  0.6510  0.4749
 1131SOL    HW214853   0.078   1.800   4.191  0.8027 -0.6283  0.5747
 1132SOL     OW14854   1.233   2.717   3.520  0.0839  0.0144  0.1391
 1132SOL    HW114855   1.165   2.699   3.455 -0.9423 -0.3164  1.3113
 1132SOL    HW214856   1.307   2.679   3.471 -0.0834 -2.2453  1.5937
 1133SOL     OW14857   1.963   3.725   2.627 -0.1177  0.1177  0.3670
 1133SOL    HW114858   2.057   3.706   2.631 -0.6531 -2.5500  0.1740
 1133SOL    HW214859   1.923   3.643   2.653  0.6882  0.5338  2.8589
 1134SOL     OW14860   3.937   0.533   4.500  0.2229  0.5012 -0.6504
 1134SOL    HW114861   3.859   0.523   4.446  0.0351 -1.1778 -0.0703
 1134SOL    HW214862   4.006   0.499   4.443  0.7184 -1.5304  1.1722
 1135SOL     OW14863   2.818   0.485   7.925 -0.2694  0.3996 -0.0301
 1135SOL    HW114864   2.781   0.431   7.855  1.1706 -0.9695  0.2698
 1135SOL    HW214865   2.805   0.451   8.013  2.4012 -3.5383 -1.1456
 1136SOL     OW14866   0.187   4.081   5.350  0.6243  0.1546  0.6150
 1136SOL    HW114867   0.280   4.105   5.344  0.7086 -0.5937 -1.1964
 1136SOL    HW214868   0.149   4.159   5.391 -0.6336 -0.5096  0.6774
 1137SOL     OW14869   1.790   0.926   4.913  0.1759  0.1374  0.5500
 1137SOL    HW114870   1.738   1.000   4.943  0.8009  1.3914 -1.4694
 1137SOL    HW214871   1.800   0.955   4.823 -0.2142  1.3667  0.8993
 1138SOL     OW14872   4.649   0.929   8.929  0.0514 -0.4155  0.5334
 1138SOL    HW114873   4.614   0.972   9.008  2.3992  2.5215 -0.0050
 1138SOL    HW214874   4.658   0.837   8.950  1.6189 -0.4350 -0.2402
 1139SOL     OW14875   4.212   2.295   1.629 -0.3314 -0.5062  0.2918
 1139SOL    HW114876   4.290   2.296   1.573 -1.6391 -1.2465 -1.5404
 1139SOL    HW214877   4.208   2.388   1.649  1.9591 -0.4015  0.2576
 1140SOL     OW14878   2.460   4.446   7.102 -0.8765 -0.0119  0.1143
 1140SOL    HW114879   2.517   4.372   7.080  1.7570  1.7607  1.0228
 1140SOL    HW214880   2.502   4.507   7.041 -3.6793  0.6774 -1.1323
 1141SOL     OW14881   4.000   1.085   4.400 -0.0030  0.0354  0.4223
 1141SOL    HW114882   3.999   1.000   4.355  2.2405 -0.2403  0.8861
 1141SOL    HW214883   4.071   1.129   4.354  0.0860  0.3508  0.8641
 1142SOL     OW14884   3.277   3.217  16.397 -0.0709 -0.6119 -0.1706
 1142SOL    HW114885   3.188   3.203  16.363  0.1191 -0.1201 -0.8845
 1142SOL    HW214886   3.299   3.302  16.358 -0.3965 -0.1831  0.5929
 1143SOL     OW14887   3.408   4.407  14.211  0.2850 -0.6485 -0.1938
 1143SOL    HW114888   3.316   4.387  14.190  0.0671  1.2240 -1.0430
 1143SOL    HW214889   3.415   4.492  14.168  0.8682  0.4107  2.0334
 1144SOL     OW14890   4.291   0.961   7.390  0.4938 -0.3127 -0.2300
 1144SOL    HW114891   4.207   1.007   7.379  0.3684 -0.3337  0.6327
 1144SOL    HW214892   4.319   1.009   7.467 -0.5963 -0.4913  0.2834
 1145SOL     OW14893   2.141   4.394   3.412 -0.1891  0.3757 -0.0065
 1145SOL    HW114894   2.053   4.415   3.381 -0.1105 -0.0188 -0.4938
 1145SOL    HW214895   2.127   4.300   3.425  2.4730  0.0247  0.5136
 1146SOL     OW14896   2.107   0.880   8.955  0.5536 -0.1045 -0.1721
 1146SOL    HW114897   2.045   0.953   8.962  0.1403 -0.2202 -2.4850
 1146SOL    HW214898   2.044   0.811   8.934 -0.3488  0.7026 -0.1285
 1147SOL     OW14899   0.246   3.727   5.200 -0.0308  0.2192  1.2097
 1147SOL    HW114900   0.244   3.643   5.154 -0.2130  0.9170 -0.0483
 1147SOL    HW214901   0.336   3.754   5.179  0.0136 -0.1007  0.9864
 1148SOL     OW14902   2.920   3.179   9.012  0.4921 -0.3172  0.7340
 1148SOL    HW114903   2.949   3.270   9.018  0.3840 -0.3759  2.0421
 1148SOL    HW214904   2.996   3.148   9.060  0.5501 -1.9239 -0.3842
 1149SOL     OW14905   1.588   0.438   9.267 -0.3254 -0.1199 -0.2987
 1149SOL    HW114906   1.493   0.440   9.279 -0.3330  0.7566 -0.4788
 1149SOL    HW214907   1.608   0.351   9.302 -0.7816  0.0076  0.2667
 1150SOL     OW14908   0.759   3.445   0.543 -0.1138  0.0475 -0.2243
 1150SOL    HW114909   0.786   3.353   0.534 -0.4168 -0.2162  1.6050
 1150SOL    HW214910   0.666   3.428   0.525 -0.3384  0.8707  0.1854
 1151SOL     OW14911   3.597   3.157  15.844 -0.2363 -0.3210 -0.0059
 1151SOL    HW114912   3.650   3.102  15.786  2.6627  4.8004 -2.2212
 1151SOL    HW214913   3.510   3.146  15.805 -1.0662  1.2583  1.3838
 1152SOL     OW14914   0.997   2.698  14.936 -0.2241  0.9056 -0.0925
 1152SOL    HW114915   0.943   2.632  14.893  0.4951 -0.3417  0.9033
 1152SOL    HW214916   0.941   2.771  14.960  1.9063  2.0361  1.4485
 1153SOL     OW14917   3.570   4.557   3.099 -0.4868 -0.3386  0.0490
 1153SOL    HW114918   3.619   4.516   3.028  1.6265  2.6243 -0.2068
 1153SOL    HW214919   3.608   4.510   3.173  1.6592 -0.1768 -0.9550
 1154SOL     OW14920   3.966   3.389   8.750  0.1600  0.2358 -0.6772
 1154SOL    HW114921   3.905   3.315   8.760 -0.6397  0.8633 -0.9212
 1154SOL    HW214922   3.962   3.417   8.659 -3.3842 -1.3395 -0.9868
 1155SOL     OW14923   1.449   0.386  13.621  0.0410  0.2801 -0.4507
 1155SOL    HW114924   1.486   0.342  13.698 -0.3582  0.5019 -0.1344
 1155SOL    HW214925   1.496   0.340  13.552 -1.7908 -1.4213 -0.5566
 1156SOL     OW14926   2.437   0.124   1.510  0.7171 -0.6307  0.2060
 1156SOL    HW114927   2.349   0.087   1.504 -0.3757  1.7986  1.4951
 1156SOL    HW214928   2.499   0.058   1.542  0.4997 -0.8561  0.1679
 1157SOL     OW14929   3.709   4.683   6.421  0.1230  0.2228  0.0334
 1157SOL    HW114930   3.794   4.642   6.437  0.6694  0.8617 -1.2698
 1157SOL    HW214931   3.652   4.613   6.454 -0.9724  1.3766  0.5785
 1158SOL     OW14932   0.170   0.314  17.554 -0.1734  0.1075 -0.1607
 1158SOL    HW114933   0.154   0.370  17.630 -1.8744 -1.0662  0.3662
 1158SOL    HW214934   0.150   0.376  17.485  0.2134  1.9761  1.4110
 1159SOL     OW14935   1.461   4.527   6.318  0.3534 -0.0762 -0.0330
 1159SOL    HW114936   1.503   4.606   6.352 -1.0100 -0.5841  2.8591
 1159SOL    HW214937   1.463   4.548   6.225 -1.7183  1.4303  0.2534
 1160SOL     OW14938   1.041   3.008   8.672 -0.1033 -0.1073 -0.1876
 1160SOL    HW114939   1.101   3.054   8.731 -0.8624 -1.2167  1.4646
 1160SOL    HW214940   0.988   3.072   8.626  0.2164  0.0505 -0.3343
 1161SOL     OW14941   4.482   1.082   1.403  0.0990 -0.3011  0.4307
 1161SOL    HW114942   4.409   1.129   1.443  1.3143  1.0885  1.0215
 1161SOL    HW214943   4.494   1.015   1.472  0.8014 -1.1005 -0.4628
 1162SOL     OW14944   2.483   0.979   4.901  0.6525  0.0796  0.3015
 1162SOL    HW114945   2.449   0.962   4.813  0.5119  0.6263  0.2480
 1162SOL    HW214946   2.564   0.928   4.902 -0.1042 -1.1955 -2.6036
 1163SOL     OW14947   1.819   1.585   4.009  0.5871 -0.4178  0.2288
 1163SOL    HW114948   1.877   1.513   4.033  1.5624  0.5137  0.6757
 1163SOL    HW214949   1.728   1.555   4.013  0.7667 -1.2996 -2.5891
 1164SOL     OW14950   2.443   2.026   2.604  0.3727  0.3980 -0.0775
 1164SOL    HW114951   2.414   1.941   2.570  2.6436  0.0722 -1.2318
 1164SOL    HW214952   2.488   2.059   2.526  0.1874  0.5601 -0.1148
 1165SOL     OW14953   1.174   3.079   3.247 -0.3538  0.0885  0.4656
 1165SOL    HW114954   1.089   3.055   3.210 -0.2917  0.9086 -0.2133
 1165SOL    HW214955   1.235   3.010   3.222  0.4298  0.7342  0.5797
 1166SOL     OW14956   0.567   3.332   7.056  0.8802 -0.4958 -0.5249
 1166SOL    HW114957   0.653   3.364   7.028 -0.0754  2.3223 -0.1814
 1166SOL    HW214958   0.521   3.336   6.973 -0.2895  0.5470  0.1734
 1167SOL     OW14959   0.668   3.611   4.556  0.2391 -0.1657  0.4596
 1167SOL    HW114960   0.631   3.542   4.611  0.0632 -1.1623 -0.9296
 1167SOL    HW214961   0.589   3.665   4.560 -2.4148 -4.0097  0.1593
 1168SOL     OW14962   1.561   2.906   8.708  0.2607 -0.3076  0.2409
 1168SOL    HW114963   1.625   2.950   8.652 -1.1876 -0.2288 -1.3851
 1168SOL    HW214964   1.549   2.967   8.780  0.1028 -0.9380  0.7489
 1169SOL     OW14965   2.063   2.388  15.094 -0.1343 -0.4012  0.6156
 1169SOL    HW114966   2.133   2.382  15.029  0.6217  0.5395  1.3586
 1169SOL    HW214967   2.045   2.294  15.108  0.8629 -1.0632 -2.6160
 1170SOL     OW14968   0.668   2.148   7.447 -0.3811  0.3209 -0.1098
 1170SOL    HW114969   0.757   2.172   7.420  1.0388 -2.3257  2.2287
 1170SOL    HW214970   0.645   2.232   7.488  2.0530  2.2508 -2.6400
 1171SOL     OW14971   1.201   4.580   6.925  0.2722  0.4370 -0.3762
 1171SOL    HW114972   1.151   4.604   6.848 -0.1509  0.3991 -0.1129
 1171SOL    HW214973   1.152   4.516   6.977 -0.7438  0.2077 -1.6239
 1172SOL     OW14974   3.645   0.837   5.372 -0.2356 -1.0351  0.2523
 1172SOL    HW114975   3.582   0.827   5.444 -1.5939  1.3454 -0.6052
 1172SOL    HW214976   3.653   0.932   5.381  3.6578 -1.3422 -0.2190
 1173SOL     OW14977   3.643   4.640   7.776 -0.1198 -0.2857 -0.2391
 1173SOL    HW114978   3.715   4.681   7.825 -0.3985  1.6719 -1.4691
 1173SOL    HW214979   3.570   4.679   7.825  0.5909  0.1802  0.4533
 1174SOL     OW14980   1.994   4.089   4.185  0.1966  0.3604  0.1859
 1174SOL    HW114981   1.973   4.036   4.262  1.0549  1.1715  0.9858
 1174SOL    HW214982   1.996   4.023   4.115  0.1567 -0.2332  0.7451
 1175SOL     OW14983   4.011   3.759   9.890  0.0209 -0.2137 -0.1829
 1175SOL    HW114984   4.008   3.843   9.937  0.4949 -1.1714  1.5340
 1175SOL    HW214985   4.078   3.777   9.824  0.2040  1.2458  0.4048
 1176SOL     OW14986   1.833   1.246   9.354  0.2725  0.6933  0.7254
 1176SOL    HW114987   1.804   1.161   9.322 -0.0618  0.5736  1.3581
 1176SOL    HW214988   1.837   1.227   9.448 -0.6170  1.0377  0.8326
 1177SOL     OW14989   3.751   2.121   5.439  0.5992  0.2789  0.5877
 1177SOL    HW114990   3.707   2.099   5.356  2.4486 -1.0899 -0.0389
 1177SOL    HW214991   3.672   2.108   5.492  0.3956  0.9770  0.4514
 1178SOL     OW14992   0.570   3.727   9.404 -0.3187  0.3108 -0.8579
 1178SOL    HW114993   0.562   3.822   9.398  0.8375  0.6794  3.6477
 1178SOL    HW214994   0.592   3.728   9.497 -0.8649  0.9242 -0.7413
 1179SOL     OW14995   0.157   3.141   7.725  0.0806  0.2169  0.2525
 1179SOL    HW114996   0.242   3.183   7.737 -0.3820  1.5589 -1.1839
 1179SOL    HW214997   0.123   3.202   7.659 -1.9005 -0.3877  0.7090
 1180SOL     OW14998   3.008   1.921  13.699  0.5318  0.5787 -0.2227
 1180SOL    HW114999   2.929   1.932  13.647 -0.9736 -0.4594  1.8533
 1180SOL    HW215000   3.042   1.833  13.682  2.4650  1.2450  0.1199
 1181SOL     OW15001   0.580   3.178   8.789  0.8581  0.6813 -0.6705
 1181SOL    HW115002   0.547   3.207   8.874  0.1323 -0.8911 -0.4275
 1181SOL    HW215003   0.644   3.111   8.812  0.0451  0.0987 -0.1256
 1182SOL     OW15004   1.518   0.816   3.930 -0.2124 -0.0580  0.3615
 1182SOL    HW115005   1.606   0.829   3.964  0.0251 -0.5080 -0.0820
 1182SOL    HW215006   1.506   0.877   3.857 -2.1842 -1.1188 -0.1995
 1183SOL     OW15007   1.419   3.582   1.198  0.0836  0.2096  0.9812
 1183SOL    HW115008   1.487   3.633   1.242  1.9605 -0.6155 -1.0019
 1183SOL    HW215009   1.375   3.540   1.272  0.1032 -1.6993 -0.0866
 1184SOL     OW15010   2.453   4.269   7.593  0.6201 -0.2579  0.1657
 1184SOL    HW115011   2.390   4.203   7.569 -0.7575  1.0944  0.0713
 1184SOL    HW215012   2.418   4.337   7.536  0.3762 -0.9035 -0.4421
 1185SOL     OW15013   4.522   1.980   0.191  0.6734  0.4411  0.3019
 1185SOL    HW115014   4.591   2.006   0.130 -0.2473  2.1691 -0.0212
 1185SOL    HW215015   4.531   2.048   0.258  2.2233  0.0694  0.4598
 1186SOL     OW15016   1.164   3.488   9.533 -0.3940 -0.5044  0.0655
 1186SOL    HW115017   1.152   3.556   9.467  0.7596  0.1490  0.5241
 1186SOL    HW215018   1.172   3.543   9.611 -0.6788 -0.6407  0.1900
 1187SOL     OW15019   3.918   1.192   4.628  0.1224 -0.2189 -0.4595
 1187SOL    HW115020   3.945   1.141   4.552  2.3915  0.9275 -0.3992
 1187SOL    HW215021   3.884   1.269   4.582 -2.4961 -1.5259 -0.7219
 1188SOL     OW15022   1.830   2.893  16.931 -0.0181  0.3653 -0.2380
 1188SOL    HW115023   1.804   2.982  16.954  0.4017  1.1925 -3.0433
 1188SOL    HW215024   1.908   2.922  16.885 -0.4742  3.6824  1.0950
 1189SOL     OW15025   4.025   3.545   5.849  0.4370  0.8940  0.4047
 1189SOL    HW115026   4.020   3.545   5.945  0.4350  2.3392  0.4022
 1189SOL    HW215027   4.090   3.477   5.833 -1.3495 -0.4971 -1.0068
 1190SOL     OW15028   3.535   4.542  16.875  0.2302  0.2311 -0.6408
 1190SOL    HW115029   3.592   4.589  16.936  0.2274  0.6256 -0.9440
 1190SOL    HW215030   3.605   4.481  16.853 -0.5615 -1.2156  0.8490
 1191SOL     OW15031   1.578   0.972   9.030 -0.5103  0.3541 -0.0928
 1191SOL    HW115032   1.487   0.944   9.038 -0.5573  0.4655 -0.2259
 1191SOL    HW215033   1.602   0.963   8.937 -0.4295 -1.3867  0.1035
 1192SOL     OW15034   4.500   2.941   9.757 -0.2880  0.4437  0.3363
 1192SOL    HW115035   4.427   2.945   9.820 -0.4635  0.3720  0.1377
 1192SOL    HW215036   4.465   3.008   9.699 -0.8901  0.1347  0.3404
 1193SOL     OW15037   1.992   1.903   6.273  0.1277  0.2466  0.1477
 1193SOL    HW115038   2.036   1.907   6.358  0.3358 -1.1664  0.1003
 1193SOL    HW215039   1.992   1.808   6.262  0.2666  0.3115 -0.4277
 1194SOL     OW15040   0.246   1.603   1.930  0.1346 -0.2385 -0.2776
 1194SOL    HW115041   0.158   1.570   1.948 -0.0838 -0.4219 -1.6400
 1194SOL    HW215042   0.240   1.683   1.982  0.2230 -0.4808  0.1072
 1195SOL     OW15043   2.952   0.603   2.994  0.3663 -0.1826  0.3568
 1195SOL    HW115044   3.013   0.536   2.966  0.1341 -0.2126 -0.0739
 1195SOL    HW215045   2.998   0.686   2.983 -1.1353  0.6218  0.0525
 1196SOL     OW15046   4.697   0.760   6.082 -0.4088 -0.3880 -0.5962
 1196SOL    HW115047   4.670   0.843   6.121  1.8899  0.8463 -1.6243
 1196SOL    HW215048   4.627   0.751   6.017 -0.3106 -2.6305 -0.3983
 1197SOL     OW15049   0.993   3.358   3.110 -0.2993  0.5139 -0.3992
 1197SOL    HW115050   1.028   3.386   3.026 -1.2434  2.2280 -0.2105
 1197SOL    HW215051   0.946   3.279   3.083 -2.3094  0.8566  2.0544
 1198SOL     OW15052   2.883   3.667  11.647 -0.1008  0.1261 -0.5685
 1198SOL    HW115053   2.835   3.634  11.723 -0.2868  0.2354 -0.6380
 1198SOL    HW215054   2.821   3.688  11.576  3.0320  0.5400 -3.2054
 1199SOL     OW15055   2.142   2.683   5.048  0.1036  0.6232 -0.2485
 1199SOL    HW115056   2.079   2.631   5.099 -0.3975  0.1351 -1.3634
 1199SOL    HW215057   2.166   2.635   4.969 -2.4179 -1.7369  0.4128
 1200SOL     OW15058   3.333   1.855   8.388  0.0546 -0.5793  0.6030
 1200SOL    HW115059   3.293   1.835   8.303  1.8136  1.2805 -0.6647
 1200SOL    HW215060   3.324   1.949   8.401 -2.2406 -0.4679 -1.7191
 1201SOL     OW15061   2.742   3.009  17.205 -0.5685 -0.3154  0.2527
 1201SOL    HW115062   2.790   2.938  17.163 -0.3775  0.6209 -1.1028
 1201SOL    HW215063   2.694   2.957  17.269 -0.9558 -0.5240 -0.2019
 1202SOL     OW15064   1.317   0.446   6.318 -0.3410 -0.4747  0.6472
 1202SOL    HW115065   1.381   0.401   6.262 -1.2564 -0.6844 -0.2351
 1202SOL    HW215066   1.353   0.533   6.302 -0.7630  0.1261  2.9366
 1203SOL     OW15067   0.971   0.753   9.836  0.1310  0.1247 -0.1497
 1203SOL    HW115068   0.876   0.759   9.821  0.3050  0.2657 -1.1602
 1203SOL    HW215069   0.975   0.696   9.913 -0.6792 -0.9670 -0.9137
 1204SOL     OW15070   0.738   2.634   3.372  0.6186  0.5674 -0.0250
 1204SOL    HW115071   0.722   2.619   3.465  2.1986  0.4755  0.2351
 1204SOL    HW215072   0.829   2.663   3.369  0.7243  0.1131 -1.2895
 1205SOL     OW15073   2.587   2.385   4.077 -0.6274  0.6135 -0.4213
 1205SOL    HW115074   2.680   2.407   4.089 -0.1986 -1.5032  0.1319
 1205SOL    HW215075   2.591   2.340   3.992  0.4399 -0.5838  0.2650
 1206SOL     OW15076   0.017   2.861  12.767  0.1928 -0.7315  0.0294
 1206SOL    HW115077   0.064   2.844  12.849  0.5534  0.2680  0.0357
 1206SOL    HW215078   0.093   2.867  12.709 -1.4158  2.0479 -1.7706
 1207SOL     OW15079   0.471   0.388  13.896 -0.1704 -0.1572 -0.3014
 1207SOL    HW115080   0.475   0.479  13.867 -1.6897  0.3032  0.9818
 1207SOL    HW215081   0.506   0.404  13.983  0.8268 -0.3637 -0.6718
 1208SOL     OW15082   3.495   0.194   7.748 -0.6612  0.3900  0.1314
 1208SOL    HW115083   3.425   0.130   7.752  0.5580 -1.1079 -2.5276
 1208SOL    HW215084   3.450   0.271   7.714 -1.2514  0.2548  0.6185
 1209SOL     OW15085   1.557   2.315  16.822 -0.2521 -0.2224 -0.3765
 1209SOL    HW115086   1.478   2.360  16.794 -0.4602 -0.5603 -0.3437
 1209SOL    HW215087   1.529   2.301  16.913  1.1392 -0.3402  0.0346
 1210SOL     OW15088   2.641   4.316   5.364 -0.2132  0.4050  0.2017
 1210SOL    HW115089   2.682   4.275   5.287  0.5202 -0.0439  0.8374
 1210SOL    HW215090   2.712   4.328   5.427 -2.6287 -0.9923  3.1869
 1211SOL     OW15091   0.666   2.675   1.663  0.1963 -0.3792 -0.1659
 1211SOL    HW115092   0.687   2.607   1.599  0.2241 -0.8320  0.3204
 1211SOL    HW215093   0.629   2.625   1.736  1.0971 -1.7007 -0.6032
 1212SOL     OW15094   0.857   1.602   1.377  0.0373 -0.0759 -0.6096
 1212SOL    HW115095   0.867   1.697   1.366  0.4699 -0.4188 -3.2749
 1212SOL    HW215096   0.786   1.588   1.314 -0.4776  1.6559 -0.4128
 1213SOL     OW15097   2.372   1.339   4.762  0.1155  0.8145  0.2542
 1213SOL    HW115098   2.284   1.311   4.787  0.9134 -2.0817 -0.0716
 1213SOL    HW215099   2.363   1.340   4.666 -0.9989 -1.1980  0.3347
 1214SOL     OW15100   4.269   1.903   3.645 -0.1354  0.0076  1.1798
 1214SOL    HW115101   4.345   1.951   3.679  1.4685 -1.7670  0.0561
 1214SOL    HW215102   4.266   1.927   3.553  1.5199 -0.7993  0.9333
 1215SOL     OW15103   0.564   1.056   3.236  0.0415 -0.3439  0.2492
 1215SOL    HW115104   0.630   1.030   3.300 -0.2378  0.2184  0.7641
 1215SOL    HW215105   0.527   0.971   3.212 -2.2007  0.8042 -0.3456
 1216SOL     OW15106   3.499   1.199  11.703 -0.0437 -0.0119 -0.5872
 1216SOL    HW115107   3.486   1.256  11.628  1.5340 -0.2725 -1.0530
 1216SOL    HW215108   3.552   1.127  11.670 -1.1222 -0.5400 -1.1771
 1217SOL     OW15109   2.932   1.369   6.623  0.3713 -0.3851  0.5305
 1217SOL    HW115110   2.942   1.276   6.603 -1.0484 -0.8307  1.8660
 1217SOL    HW215111   2.873   1.357   6.698 -0.7797 -1.6407 -0.5644
 1218SOL     OW15112   2.264   2.218   8.372  0.4297  0.5508 -0.2700
 1218SOL    HW115113   2.315   2.200   8.451  0.0969 -1.0362 -0.4230
 1218SOL    HW215114   2.187   2.255   8.415  0.1579  1.1922 -1.3250
 1219SOL     OW15115   1.727   1.277   3.001 -0.3400 -0.7101  0.3958
 1219SOL    HW115116   1.749   1.269   2.908  1.0693  1.4885  0.5534
 1219SOL    HW215117   1.647   1.227   3.017 -1.8838  1.7786  0.2713
 1220SOL     OW15118   1.126   3.759  11.445 -0.5491 -0.2231 -0.1647
 1220SOL    HW115119   1.062   3.745  11.515  0.8188 -1.5136  0.8067
 1220SOL    HW215120   1.069   3.756  11.368  2.2225  0.4586 -2.2304
 1221SOL     OW15121   2.944   2.951   7.164 -0.2255 -0.0940 -0.0376
 1221SOL    HW115122   2.916   2.910   7.082 -1.2322  1.4970 -0.4868
 1221SOL    HW215123   2.913   3.041   7.153  0.4846  0.6401  3.7188
 1222SOL     OW15124   1.190   4.185   5.571 -0.1797  0.8262  0.5514
 1222SOL    HW115125   1.238   4.175   5.653  1.8476 -0.4881 -0.7780
 1222SOL    HW215126   1.237   4.257   5.530  0.6664 -1.5690 -2.7363
 1223SOL     OW15127   1.631   4.288   2.711 -0.5489 -0.2202 -0.1782
 1223SOL    HW115128   1.583   4.355   2.758  1.3771 -1.3523  3.3994
 1223SOL    HW215129   1.722   4.298   2.740 -0.7318  1.8670 -0.3670
 1224SOL     OW15130   2.799   3.798   8.914 -0.5748 -0.2801  0.0079
 1224SOL    HW115131   2.712   3.817   8.947 -1.2012  0.6985 -2.2394
 1224SOL    HW215132   2.836   3.776   9.000  1.1604 -3.7986 -1.6147
 1225SOL     OW15133   3.456   4.174  13.481  0.4829  0.5079 -0.1822
 1225SOL    HW115134   3.440   4.220  13.398  2.2129  0.7903 -0.3546
 1225SOL    HW215135   3.401   4.224  13.542  0.1572 -1.6727  1.3222
 1226SOL     OW15136   2.862   1.288   6.242  0.2416  0.0921  0.1167
 1226SOL    HW115137   2.890   1.368   6.197  0.1877 -0.4559 -0.9022
 1226SOL    HW215138   2.933   1.282   6.306 -0.0813 -1.9854  0.2882
 1227SOL     OW15139   2.668   2.557  12.702  0.4859 -0.4679  0.0973
 1227SOL    HW115140   2.581   2.525  12.675  1.0486 -1.4349 -0.5753
 1227SOL    HW215141   2.638   2.594  12.785  0.7212  0.1831 -0.1075
 1228SOL     OW15142   3.144   3.007  17.047  0.1821  0.0840 -0.6946
 1228SOL    HW115143   3.081   3.023  16.977 -0.6481 -0.3086 -0.0360
 1228SOL    HW215144   3.170   3.099  17.057 -1.5944  0.5638 -0.3769
 1229SOL     OW15145   1.036   0.516   0.178  0.0606 -0.7059  0.2218
 1229SOL    HW115146   1.119   0.471   0.189  0.0134 -0.7814  0.2728
 1229SOL    HW215147   1.009   0.479   0.095  1.1545  0.1900 -0.5373
 1230SOL     OW15148   2.037   1.390   4.479 -0.0954 -0.3224  0.4641
 1230SOL    HW115149   2.052   1.468   4.426  1.0909 -1.3226 -0.6758
 1230SOL    HW215150   1.966   1.419   4.535 -0.9076 -0.5266 -0.4652
 1231SOL     OW15151   3.790   0.398  10.668 -0.2606 -0.4133  0.0865
 1231SOL    HW115152   3.793   0.329  10.734  0.2608 -0.1302  0.3531
 1231SOL    HW215153   3.828   0.470  10.717 -1.3622  0.3700 -0.2114
 1232SOL     OW15154   1.716   0.578  17.588 -0.0719  0.3660  0.0923
 1232SOL    HW115155   1.628   0.574  17.552  0.8722  0.1237 -2.1964
 1232SOL    HW215156   1.710   0.514  17.659 -0.2955 -0.8503 -1.0326
 1233SOL     OW15157   0.373   2.822  14.484  0.1974 -0.1185 -0.2661
 1233SOL    HW115158   0.335   2.740  14.455 -1.2675  0.6037 -0.3518
 1233SOL    HW215159   0.449   2.818  14.426  2.3323 -0.0643  2.5247
 1234SOL     OW15160   1.501   0.277   3.925  0.3715 -0.2398 -0.0188
 1234SOL    HW115161   1.496   0.365   3.890 -2.4435 -1.6277 -3.1016
 1234SOL    HW215162   1.477   0.300   4.015  0.9326 -1.5022  0.4555
 1235SOL     OW15163   1.052   1.011   5.182 -0.2962 -0.4222 -0.7823
 1235SOL    HW115164   0.967   1.034   5.219  0.2842 -0.3198  0.5037
 1235SOL    HW215165   1.038   0.926   5.142 -0.8708  0.2834 -2.0625
 1236SOL     OW15166   0.070   1.847  14.993 -0.6718 -0.1039  0.0227
 1236SOL    HW115167   0.016   1.911  14.947  0.7962  1.0089 -0.1363
 1236SOL    HW215168   0.085   1.895  15.075  0.0039 -1.9645  0.9905
 1237SOL     OW15169   4.031   2.484   6.857 -0.3085  0.2044  0.0405
 1237SOL    HW115170   4.030   2.451   6.946 -0.3924  0.4668  0.1372
 1237SOL    HW215171   4.034   2.410   6.797  1.0121 -0.9171  1.5080
 1238SOL     OW15172   3.457   1.921   9.663  0.0497  0.0595  1.0114
 1238SOL    HW115173   3.441   1.968   9.745  0.2787  1.3497  0.3246
 1238SOL    HW215174   3.368   1.896   9.638 -0.4192  1.5545  1.2109
 1239SOL     OW15175   4.224   1.611  13.773 -0.2582 -0.2363 -0.2046
 1239SOL    HW115176   4.158   1.545  13.753  0.0559 -1.0660  1.4780
 1239SOL    HW215177   4.268   1.627  13.690 -0.7274  0.0512 -0.3999
 1240SOL     OW15178   1.273   3.799  15.919  0.0815 -0.3072  0.4087
 1240SOL    HW115179   1.353   3.763  15.881 -0.5087 -0.6393 -0.5097
 1240SOL    HW215180   1.216   3.722  15.921  0.7314 -0.8406 -1.3451
 1241SOL     OW15181   2.251   4.273   7.043  0.2785 -0.5022  0.4542
 1241SOL    HW115182   2.324   4.332   7.021 -0.4861  0.7881  1.3408
 1241SOL    HW215183   2.197   4.265   6.963  0.7624  0.6923 -0.0020
 1242SOL     OW15184   0.623   2.644   4.242  0.1723 -0.1362  0.1526
 1242SOL    HW115185   0.594   2.650   4.333 -1.1456 -2.1033 -0.1103
 1242SOL    HW215186   0.686   2.715   4.232  1.7765 -1.3612  1.6532
 1243SOL     OW15187   3.975   4.379   7.676  0.1154  0.1310  1.2642
 1243SOL    HW115188   4.007   4.299   7.719  1.2128 -0.0693  0.0849
 1243SOL    HW215189   3.880   4.377   7.685  0.2802 -0.6481  2.9545
 1244SOL     OW15190   3.447   0.174  15.907 -0.3080 -0.0269 -0.0004
 1244SOL    HW115191   3.491   0.146  15.827 -1.3280  0.1560 -0.6162
 1244SOL    HW215192   3.367   0.122  15.912 -1.8049  2.2820  0.4631
 1245SOL     OW15193   2.260   1.011   9.184 -1.0381 -0.1279 -0.3200
 1245SOL    HW115194   2.221   0.947   9.125 -1.6422 -0.2047  0.1526
 1245SOL    HW215195   2.193   1.078   9.202 -1.2772 -0.2082 -0.9193
 1246SOL     OW15196   0.690   2.997   5.403  0.3855  0.0998 -0.2184
 1246SOL    HW115197   0.618   3.026   5.347 -0.7565  0.1181  1.2560
 1246SOL    HW215198   0.685   2.902   5.404  1.1747  0.0399 -2.2810
 1247SOL     OW15199   4.213   4.507   7.069 -0.1578  0.1839  0.6344
 1247SOL    HW115200   4.245   4.518   6.979 -0.7866  0.5957  0.4569
 1247SOL    HW215201   4.173   4.421   7.063 -4.5278  2.3041 -0.6536
 1248SOL     OW15202   4.537   4.720   9.480  0.2995 -0.0998  0.1810
 1248SOL    HW115203   4.579   0.051   9.411 -1.8169  3.0942  1.2750
 1248SOL    HW215204   4.612   4.704   9.537  0.7206  2.0516  0.2350
 1249SOL     OW15205   4.456   3.723  13.093  0.0271  0.9033 -0.3473
 1249SOL    HW115206   4.424   3.705  13.181 -0.0972  2.1905 -0.1329
 1249SOL    HW215207   4.442   3.817  13.089  1.4008  1.1861  1.4179
 1250SOL     OW15208   2.857   4.486  16.758 -0.2588  0.0079  0.8218
 1250SOL    HW115209   2.830   4.396  16.776 -1.0072  0.1360  0.3169
 1250SOL    HW215210   2.857   4.484  16.662 -1.4465 -0.5983  0.8364
 1251SOL     OW15211   3.425   4.219  15.769 -0.3085  0.1895  0.3193
 1251SOL    HW115212   3.390   4.257  15.849 -2.8033  0.0398 -0.6938
 1251SOL    HW215213   3.370   4.274  15.713 -0.3460 -0.4959 -0.3206
 1252SOL     OW15214   1.933   4.501   3.270  0.6210  0.7491 -0.6967
 1252SOL    HW115215   1.998   4.538   3.211 -0.2692  2.8785 -0.3129
 1252SOL    HW215216   1.886   4.445   3.208  0.2435  0.1494  0.1177
 1253SOL     OW15217   0.891   4.383   4.797  0.0194  0.1235 -0.8518
 1253SOL    HW115218   0.975   4.395   4.841 -0.3409 -2.1332  0.4138
 1253SOL    HW215219   0.856   4.470   4.775  0.1723  0.5266  0.4950
 1254SOL     OW15220   1.311   1.236   0.703  0.1758 -0.3184  0.1805
 1254SOL    HW115221   1.240   1.301   0.693 -0.9893 -1.6729 -0.3457
 1254SOL    HW215222   1.363   1.280   0.770  0.9912  0.6148 -1.0677
 1255SOL     OW15223   4.274   0.103   5.342 -0.2919 -0.2250  0.3526
 1255SOL    HW115224   4.188   0.128   5.376  0.3809 -0.1862  2.0040
 1255SOL    HW215225   4.274   0.154   5.261 -1.8509  1.2485  1.2582
 1256SOL     OW15226   1.804   3.961   5.254 -0.2471  0.6688 -0.0060
 1256SOL    HW115227   1.787   3.879   5.300  1.6715  0.7313  0.8349
 1256SOL    HW215228   1.834   4.011   5.330 -0.8256 -0.5018  0.9935
 1257SOL     OW15229   3.371   1.737   3.643  0.3593 -0.2300  0.3766
 1257SOL    HW115230   3.365   1.648   3.678  1.3270 -0.4584 -0.0458
 1257SOL    HW215231   3.460   1.762   3.668  0.4051 -2.1039  2.1037
 1258SOL     OW15232   3.347   4.574   4.745 -0.2803 -0.2901 -0.2055
 1258SOL    HW115233   3.348   4.576   4.649 -4.1006 -1.0673 -0.2513
 1258SOL    HW215234   3.413   4.638   4.774 -0.1566 -1.3144  1.7539
 1259SOL     OW15235   0.541   0.085   8.103  0.0548 -0.0170 -0.5867
 1259SOL    HW115236   0.559   0.087   8.197 -1.4033 -0.7673 -0.2850
 1259SOL    HW215237   0.592   0.009   8.074 -0.0184 -1.3555  2.7703
 1260SOL     OW15238   4.626   2.127   5.941 -0.5438  0.1387 -0.0795
 1260SOL    HW115239   4.611   2.113   5.848 -0.8367 -0.5240  0.0640
 1260SOL    HW215240   4.540   2.159   5.968 -1.1537 -0.3514 -1.4688
 1261SOL     OW15241   2.649   2.416   6.529 -0.3162 -0.4089 -0.5149
 1261SOL    HW115242   2.560   2.387   6.549  0.1001 -0.3856  1.4230
 1261SOL    HW215243   2.692   2.361   6.595  1.2162  0.3118 -0.9164
 1262SOL     OW15244   3.970   3.861   2.114  0.5508 -0.2288 -0.0789
 1262SOL    HW115245   3.978   3.913   2.034  0.9284  1.4789  1.0757
 1262SOL    HW215246   4.052   3.813   2.117 -0.0049 -1.1623  0.2581
 1263SOL     OW15247   3.782   1.477  17.222 -0.0833  0.0971 -0.3360
 1263SOL    HW115248   3.817   1.525  17.146  2.0355 -0.8063  0.0796
 1263SOL    HW215249   3.688   1.493  17.211 -0.1732 -0.4177 -0.2876
 1264SOL     OW15250   0.771   0.759   8.214 -0.1915 -0.1838  0.2904
 1264SOL    HW115251   0.818   0.676   8.214  1.3337  0.6652 -0.3556
 1264SOL    HW215252   0.710   0.744   8.286 -0.8561  0.7845 -0.0743
 1265SOL     OW15253   0.549   1.007   8.779 -0.2520 -0.2737  0.6720
 1265SOL    HW115254   0.560   0.916   8.753 -0.0379 -0.1966  0.4866
 1265SOL    HW215255   0.621   1.023   8.840 -1.2177  1.7885  1.2815
 1266SOL     OW15256   1.445   0.676   6.259  0.2385  0.2018  0.1046
 1266SOL    HW115257   1.414   0.763   6.232 -3.4504 -1.3148 -0.4953
 1266SOL    HW215258   1.540   0.692   6.257  0.1902  0.4495 -0.1922
 1267SOL     OW15259   0.044   2.660   7.147  0.0756  0.2466  0.1430
 1267SOL    HW115260   0.118   2.614   7.108 -0.5258 -0.2323 -0.4267
 1267SOL    HW215261   4.689   2.605   7.128 -0.9138  1.5632  0.2769
 1268SOL     OW15262   2.587   4.425  13.776  0.0321 -0.4233 -0.0983
 1268SOL    HW115263   2.652   4.495  13.765 -1.2406  0.8110  0.2626
 1268SOL    HW215264   2.573   4.429  13.870 -2.6165  1.3382 -0.5868
 1269SOL     OW15265   2.727   3.842   4.190  0.2221 -0.2489 -0.2528
 1269SOL    HW115266   2.662   3.887   4.243  0.5740 -1.0425  0.8642
 1269SOL    HW215267   2.732   3.757   4.234  2.1235 -0.7809 -1.4514
 1270SOL     OW15268   0.788   4.268   4.287 -0.1163 -0.1400 -0.2707
 1270SOL    HW115269   0.852   4.336   4.266  0.2361 -0.0232  1.1907
 1270SOL    HW215270   0.832   4.231   4.363  0.0398  1.1115  0.2432
 1271SOL     OW15271   2.636   1.721   8.991  0.3731  0.4054  0.2553
 1271SOL    HW115272   2.651   1.630   9.014 -0.0727 -0.0187 -1.1377
 1271SOL    HW215273   2.543   1.733   9.012  0.4774 -0.1427  0.9982
 1272SOL     OW15274   2.049   4.597   1.407 -0.2343  0.4587  0.3975
 1272SOL    HW115275   2.016   4.562   1.324 -0.0454  0.9357  0.1142
 1272SOL    HW215276   1.972   4.644   1.440 -0.8427 -0.1352 -0.1692
 1273SOL     OW15277   1.455   0.974   4.480  0.2789  0.0744  0.1674
 1273SOL    HW115278   1.531   0.917   4.464 -0.0137 -0.6528  1.4221
 1273SOL    HW215279   1.486   1.055   4.440  1.0680 -0.0943  0.4356
 1274SOL     OW15280   3.437   1.113   4.640 -0.6345 -0.0677  0.4954
 1274SOL    HW115281   3.504   1.052   4.672  0.2125  0.2880 -0.5927
 1274SOL    HW215282   3.366   1.103   4.703  0.8758 -1.3103  2.0179
 1275SOL     OW15283   0.414   0.596   3.136  0.1141  0.3099  0.3872
 1275SOL    HW115284   0.436   0.606   3.229  0.1940  1.7830  0.2165
 1275SOL    HW215285   0.322   0.571   3.138 -0.1309  1.2189  0.6469
 1276SOL     OW15286   3.130   3.570   4.765  0.0671  0.0540 -0.2203
 1276SOL    HW115287   3.154   3.611   4.849  0.5300 -0.0394 -0.3081
 1276SOL    HW215288   3.198   3.601   4.705 -1.5636  1.8083 -1.1941
 1277SOL     OW15289   2.188   2.940   5.163  0.0858 -0.7674  0.6563
 1277SOL    HW115290   2.104   2.983   5.145  0.1461 -0.8342  0.2074
 1277SOL    HW215291   2.169   2.850   5.136 -1.6509 -0.0915 -0.4031
 1278SOL     OW15292   2.954   2.481   3.147 -0.2109 -0.2295  0.5371
 1278SOL    HW115293   3.038   2.480   3.193 -0.3536 -2.2993  0.7526
 1278SOL    HW215294   2.955   2.393   3.109  1.9428  0.5080 -1.1653
 1279SOL     OW15295   4.352   1.071   1.661 -0.4136  0.5745  0.6922
 1279SOL    HW115296   4.343   0.995   1.719 -0.0025  0.3940  0.5131
 1279SOL    HW215297   4.393   1.133   1.721 -0.0352  1.4229 -0.4364
 1280SOL     OW15298   0.692   3.482   4.185 -0.3615 -0.2297 -0.2355
 1280SOL    HW115299   0.735   3.454   4.104 -0.7044 -3.5300  0.6978
 1280SOL    HW215300   0.770   3.479   4.241 -0.2682 -1.0414 -0.4103
 1281SOL     OW15301   3.274   4.494   2.490 -0.2180  0.1217  0.0090
 1281SOL    HW115302   3.337   4.449   2.547  1.9785  2.4463 -0.5861
 1281SOL    HW215303   3.335   4.537   2.430 -0.3553  0.3445  0.0324
 1282SOL     OW15304   1.834   4.380  10.297 -0.1698 -0.1454  0.2738
 1282SOL    HW115305   1.810   4.421  10.214  2.0701  0.4452 -0.0895
 1282SOL    HW215306   1.852   4.456  10.352  1.1091  0.7371 -1.3654
 1283SOL     OW15307   1.164   3.806   5.885  0.5755  0.3046 -0.0518
 1283SOL    HW115308   1.197   3.892   5.910  0.8431  0.7635 -1.9699
 1283SOL    HW215309   1.241   3.760   5.918 -0.5187 -2.0636 -0.7797
 1284SOL     OW15310   0.445   0.341   4.488  0.2117 -0.2829  0.7976
 1284SOL    HW115311   0.410   0.274   4.429 -0.9392 -0.4022  1.6323
 1284SOL    HW215312   0.536   0.344   4.457 -0.1545 -1.4919 -0.3587
 1285SOL     OW15313   0.636   1.670   3.263 -0.1703  0.6414 -0.4318
 1285SOL    HW115314   0.629   1.758   3.300 -3.4945  0.5536 -0.8868
 1285SOL    HW215315   0.693   1.691   3.189 -0.5433 -3.2855 -1.7931
 1286SOL     OW15316   2.874   2.605  11.196 -0.4421 -0.1497 -0.3137
 1286SOL    HW115317   2.855   2.698  11.206 -2.5273 -0.5652 -0.4675
 1286SOL    HW215318   2.946   2.596  11.259 -1.6497  0.5444  1.1522
 1287SOL     OW15319   0.971   2.045   8.181 -0.3862 -0.0849  0.4360
 1287SOL    HW115320   0.879   2.047   8.210 -1.2307  0.2670 -2.2856
 1287SOL    HW215321   0.997   2.134   8.204  1.7174 -0.9746  1.4857
 1288SOL     OW15322   4.624   0.535   4.118  0.1468  0.7758 -0.0401
 1288SOL    HW115323   4.636   0.441   4.125 -0.9640  0.6654  0.2175
 1288SOL    HW215324   4.623   0.548   4.213  0.6810 -1.5891  0.2815
 1289SOL     OW15325   0.804   1.070   7.240  0.6303 -0.1854 -0.0586
 1289SOL    HW115326   0.832   1.026   7.320 -1.1832 -0.5080  0.4021
 1289SOL    HW215327   0.885   1.115   7.216 -1.0333  2.1188 -1.3227
 1290SOL     OW15328   2.744   3.245   1.733 -0.4795  0.1429  0.2413
 1290SOL    HW115329   2.735   3.164   1.683 -1.7759 -0.0372  0.7692
 1290SOL    HW215330   2.792   3.226   1.814  1.0121  2.3341 -0.1044
 1291SOL     OW15331   3.292   3.940  11.945 -0.2680 -0.6638 -0.0106
 1291SOL    HW115332   3.307   3.893  12.027  1.8685 -0.8269 -0.4916
 1291SOL    HW215333   3.369   3.997  11.934 -1.9560  1.5484 -0.4146
 1292SOL     OW15334   2.502   1.259   4.981  0.2542 -0.4546  0.3708
 1292SOL    HW115335   2.486   1.165   4.975  1.7900 -0.6555 -0.6013
 1292SOL    HW215336   2.457   1.290   4.903 -3.3986 -3.7155  1.1990
 1293SOL     OW15337   0.443   1.533  17.243 -0.3595  0.2271  0.1531
 1293SOL    HW115338   0.466   1.617  17.282 -0.7423 -0.0619  1.0034
 1293SOL    HW215339   0.513   1.475  17.273 -1.8557 -1.2086  0.9458
 1294SOL     OW15340   3.623   1.834   3.712 -0.3190 -0.0983  0.1448
 1294SOL    HW115341   3.693   1.854   3.649 -1.2247  1.1651 -0.4471
 1294SOL    HW215342   3.628   1.899   3.782 -1.5854  1.2493 -1.0378
 1295SOL     OW15343   3.616   2.682   5.086 -0.6411 -0.4336 -0.2408
 1295SOL    HW115344   3.703   2.685   5.124 -0.8642  0.2551  0.2161
 1295SOL    HW215345   3.615   2.735   5.007  0.0231 -0.4856 -0.2775
 1296SOL     OW15346   3.769   3.112   0.822  0.2845  0.5619 -0.0479
 1296SOL    HW115347   3.820   3.125   0.902  0.9244 -0.4113 -0.2995
 1296SOL    HW215348   3.718   3.193   0.821  0.5879  0.7697  1.2251
 1297SOL     OW15349   4.430   3.550   7.132 -0.1458  0.7736  0.3607
 1297SOL    HW115350   4.519   3.546   7.098  0.1024 -0.9718  1.2653
 1297SOL    HW215351   4.431   3.575   7.225 -0.4752 -2.0207  1.0913
 1298SOL     OW15352   0.469   2.724   0.516  0.2132 -0.3010  0.2712
 1298SOL    HW115353   0.487   2.757   0.428 -0.0104  3.7996  1.7748
 1298SOL    HW215354   0.411   2.793   0.545  0.7744  0.7599 -1.1578
 1299SOL     OW15355   1.956   1.029   0.602 -0.6130 -0.1856  0.5547
 1299SOL    HW115356   2.036   1.036   0.652  0.2477 -0.9096 -0.7094
 1299SOL    HW215357   1.990   1.039   0.513 -3.7522  1.2022 -0.5234
 1300SOL     OW15358   1.992   2.368   2.031  0.2587  0.0525 -0.2475
 1300SOL    HW115359   2.043   2.437   1.988  1.3202 -0.0214  0.8935
 1300SOL    HW215360   1.966   2.425   2.102  0.7508 -0.1123  0.0658
 1301SOL     OW15361   4.166   1.302   2.805  0.6329 -0.3890  0.2419
 1301SOL    HW115362   4.193   1.387   2.839 -0.1206 -1.3764  3.3918
 1301SOL    HW215363   4.205   1.238   2.865  2.1761 -0.1311 -0.5051
 1302SOL     OW15364   1.644   0.670  12.946  0.1883  0.0468 -0.4131
 1302SOL    HW115365   1.692   0.622  12.879 -1.9402 -0.4167 -1.5771
 1302SOL    HW215366   1.648   0.604  13.015  0.8194  1.6359  1.0810
 1303SOL     OW15367   3.139   0.316   5.975 -0.3409 -0.0470  0.0022
 1303SOL    HW115368   3.087   0.237   5.962 -1.4023  0.8682 -1.1710
 1303SOL    HW215369   3.224   0.274   5.957  1.0339  3.0538 -0.7063
 1304SOL     OW15370   2.467   3.347  11.279  1.0813 -0.3802  0.0228
 1304SOL    HW115371   2.438   3.260  11.305  1.0368 -1.5316 -3.8524
 1304SOL    HW215372   2.482   3.333  11.185  2.5179 -0.5272  0.2784
 1305SOL     OW15373   0.738   1.335   5.109 -0.7938 -0.0992  0.2259
 1305SOL    HW115374   0.691   1.408   5.149  0.5333  0.5275  0.6444
 1305SOL    HW215375   0.688   1.255   5.127 -0.2095 -0.0056  2.2774
 1306SOL     OW15376   2.988   1.517   1.786 -0.4566  0.2585 -0.1288
 1306SOL    HW115377   2.956   1.526   1.696 -0.4640  2.5261  0.0935
 1306SOL    HW215378   2.987   1.422   1.800  0.4664  0.4599  1.3051
 1307SOL     OW15379   1.911   3.187   8.281  0.7443  0.1513  0.4068
 1307SOL    HW115380   1.931   3.095   8.268 -1.5125 -0.0317 -1.6528
 1307SOL    HW215381   1.961   3.202   8.361  2.8994 -1.2218 -0.6631
 1308SOL     OW15382   0.920   1.622   5.861  0.0198 -0.6229  0.3940
 1308SOL    HW115383   1.004   1.661   5.837 -1.3663  2.6696  0.9037
 1308SOL    HW215384   0.863   1.664   5.797 -0.8015 -0.8484  0.9840
 1309SOL     OW15385   3.059   2.208   0.000 -0.1034  0.0252  0.1114
 1309SOL    HW115386   3.078   2.178   0.089 -1.2447 -1.0233  0.0039
 1309SOL    HW215387   3.069   2.303  17.685 -2.2024  0.2420 -0.3816
 1310SOL     OW15388   0.950   1.101   2.517 -0.3961  0.1915 -0.8906
 1310SOL    HW115389   0.936   1.128   2.608  1.0607 -0.6436 -0.4070
 1310SOL    HW215390   0.886   1.034   2.496 -0.0798  0.8042 -3.7260
 1311SOL     OW15391   4.710   1.879   8.581 -0.2866  0.4860  0.4324
 1311SOL    HW115392   4.632   1.918   8.621 -0.3687 -0.1237  0.8545
 1311SOL    HW215393   0.054   1.929   8.631 -0.3644  1.5370 -0.5103
 1312SOL     OW15394   1.305   4.431   0.667 -0.3238  0.2455 -0.3961
 1312SOL    HW115395   1.395   4.399   0.672 -1.6085 -3.9056 -3.7030
 1312SOL    HW215396   1.252   4.383   0.731  0.6162 -0.7724 -0.3697
 1313SOL     OW15397   1.155   0.166   5.903  0.2967  0.7650  0.1849
 1313SOL    HW115398   1.164   0.254   5.940 -1.4486  0.6453  0.8750
 1313SOL    HW215399   1.168   0.115   5.982 -1.1801  1.0365  0.6008
 1314SOL     OW15400   1.640   2.841  14.442 -0.0252 -0.0000  0.2923
 1314SOL    HW115401   1.638   2.761  14.390 -1.8014 -0.6182  1.2973
 1314SOL    HW215402   1.728   2.876  14.434  1.1722 -3.1766 -0.5768
 1315SOL     OW15403   1.124   3.438   3.498  0.0105  0.1151 -0.0888
 1315SOL    HW115404   1.162   3.513   3.543  0.0762  0.8621 -1.3815
 1315SOL    HW215405   1.078   3.478   3.424  0.1480 -0.1289 -0.3071
 1316SOL     OW15406   3.651   3.154   3.001  0.3904  0.6907 -0.2087
 1316SOL    HW115407   3.746   3.164   2.999  0.7122 -2.3705 -0.1985
 1316SOL    HW215408   3.634   3.197   3.085 -0.6253 -1.0665  0.4793
 1317SOL     OW15409   0.791   2.997   4.796 -0.4923 -0.4410  0.0172
 1317SOL    HW115410   0.874   3.044   4.806 -0.2632 -1.1837  1.6575
 1317SOL    HW215411   0.831   2.913   4.773 -1.4356 -0.5261 -1.3218
 1318SOL     OW15412   3.132   3.871   2.580  0.0771 -0.0562 -0.0747
 1318SOL    HW115413   3.085   3.815   2.518 -0.3964  0.7802 -0.4912
 1318SOL    HW215414   3.102   3.833   2.663  0.8252  0.2432  0.3345
 1319SOL     OW15415   2.330   0.139   7.914 -0.0929  0.1558  0.6263
 1319SOL    HW115416   2.238   0.115   7.920 -0.9835  3.1444 -0.9818
 1319SOL    HW215417   2.337   0.154   7.819 -0.7942 -1.0339  0.3858
 1320SOL     OW15418   1.400   2.836   2.200  0.0883 -0.0588 -0.2072
 1320SOL    HW115419   1.340   2.878   2.261  1.1122 -1.6588  1.9221
 1320SOL    HW215420   1.361   2.877   2.123 -0.0656 -0.6196 -0.4304
 1321SOL     OW15421   1.905   4.404  11.431  0.2691  0.1768  0.0189
 1321SOL    HW115422   2.000   4.408  11.434  0.3660 -2.5724  0.5374
 1321SOL    HW215423   1.874   4.410  11.522  0.0055  0.7145 -0.1051
 1322SOL     OW15424   1.533   2.454  11.153  0.2186 -0.2245  0.2132
 1322SOL    HW115425   1.571   2.479  11.237 -3.1841  1.0945  1.3993
 1322SOL    HW215426   1.603   2.451  11.087 -0.5054 -1.5503 -0.4938
 1323SOL     OW15427   4.413   1.762  16.884 -0.5318 -0.5137 -0.0046
 1323SOL    HW115428   4.485   1.734  16.940 -0.7145 -1.9001 -0.4521
 1323SOL    HW215429   4.347   1.757  16.954  0.6187 -0.0003  1.1128
 1324SOL     OW15430   0.106   3.413   4.519  0.7388  0.7914 -0.3021
 1324SOL    HW115431   0.014   3.441   4.521 -0.2774 -2.5845 -0.0938
 1324SOL    HW215432   0.106   3.319   4.531 -2.1453  0.6663 -1.3308
 1325SOL     OW15433   3.802   0.716   7.406 -0.3319 -0.0497 -0.8072
 1325SOL    HW115434   3.815   0.691   7.498  3.7694 -1.7602 -1.8914
 1325SOL    HW215435   3.890   0.745   7.383 -0.7917  1.0509 -1.1978
 1326SOL     OW15436   2.660   3.408   3.429  0.3283  0.0729 -0.2563
 1326SOL    HW115437   2.706   3.492   3.438 -0.9306  0.6191  0.9048
 1326SOL    HW215438   2.718   3.359   3.488 -1.3944 -1.4503  0.1686
 1327SOL     OW15439   2.563   3.126  17.521  0.5263 -0.2841 -0.5219
 1327SOL    HW115440   2.589   3.048  17.472 -1.2857 -1.3015  0.1601
 1327SOL    HW215441   2.651   3.162  17.533 -1.5359  4.5063  0.0949
 1328SOL     OW15442   0.446   4.518   3.160  0.5069 -0.0295 -0.5071
 1328SOL    HW115443   0.526   4.536   3.111 -0.1861 -1.0936 -2.0074
 1328SOL    HW215444   0.396   4.469   3.096  0.5680  1.7815 -1.9434
 1329SOL     OW15445   2.354   2.082   3.990 -0.5715  0.1261  0.0860
 1329SOL    HW115446   2.281   2.144   3.997 -1.9681 -1.4542 -0.3308
 1329SOL    HW215447   2.347   2.042   3.903 -0.7389 -1.5331  0.8782
 1330SOL     OW15448   4.556   3.519   8.994  0.4983 -0.3785 -0.3943
 1330SOL    HW115449   4.526   3.429   9.003  0.3132 -0.1122  1.6596
 1330SOL    HW215450   4.651   3.513   8.995  0.3784 -1.4488  2.7987
 1331SOL     OW15451   2.141   2.118   5.191  0.3297  0.0612  0.0655
 1331SOL    HW115452   2.234   2.099   5.183  0.2700 -1.5407  3.0840
 1331SOL    HW215453   2.108   2.074   5.113 -0.4331  0.7323 -0.0052
 1332SOL     OW15454   0.983   1.443   8.327  0.0115  0.1439 -0.0405
 1332SOL    HW115455   0.989   1.359   8.283 -3.5244  0.6815 -1.5063
 1332SOL    HW215456   0.891   1.467   8.319  0.0543 -0.6942 -2.7830
 1333SOL     OW15457   3.418   4.108   1.431  0.4012 -0.7051  0.0264
 1333SOL    HW115458   3.454   4.041   1.373  0.5790 -0.4665 -0.1369
 1333SOL    HW215459   3.403   4.058   1.511  0.9817  1.0314  1.2226
 1334SOL     OW15460   3.985   2.851   3.315 -0.4909  0.3530  0.3441
 1334SOL    HW115461   3.948   2.890   3.236 -0.5539 -0.4289 -0.0110
 1334SOL    HW215462   4.015   2.931   3.358 -1.4052  1.0506 -0.3277
 1335SOL     OW15463   0.654   3.327   5.679 -0.0207  0.2935  0.0364
 1335SOL    HW115464   0.562   3.346   5.658  0.2010  1.5094  0.2047
 1335SOL    HW215465   0.657   3.232   5.690  2.1103  0.2740 -0.6619
 1336SOL     OW15466   1.507   1.072   1.889 -0.6477 -0.0734 -0.3666
 1336SOL    HW115467   1.554   1.091   1.971  0.6943 -0.5893 -1.0152
 1336SOL    HW215468   1.439   1.019   1.930  0.1309 -1.4029 -0.7756
 1337SOL     OW15469   2.034   2.772  11.388  0.7984  0.1748  0.2030
 1337SOL    HW115470   1.969   2.724  11.338 -0.2479 -0.3640  2.0563
 1337SOL    HW215471   2.016   2.743  11.478 -1.1047 -1.7014 -0.7804
 1338SOL     OW15472   1.437   0.081   8.380  0.1034 -0.1304  0.5144
 1338SOL    HW115473   1.426   0.139   8.456  0.3574 -0.6986  0.9852
 1338SOL    HW215474   1.526   0.093   8.348 -0.2480 -0.9476 -0.7660
 1339SOL     OW15475   0.831   4.368   0.814 -0.6848 -0.2128 -0.0048
 1339SOL    HW115476   0.875   4.377   0.730  0.4961 -0.7360  0.5617
 1339SOL    HW215477   0.873   4.442   0.859  0.5831 -1.1180  0.3087
 1340SOL     OW15478   2.558   4.685   2.846  0.3046 -0.0584  0.1920
 1340SOL    HW115479   2.490   4.689   2.778  0.3116 -1.6486  0.0909
 1340SOL    HW215480   2.633   4.689   2.787  0.7939 -1.5610  0.7109
 1341SOL     OW15481   2.368   2.454   9.743 -0.1160 -0.3522  0.2079
 1341SOL    HW115482   2.356   2.362   9.768  0.4747 -0.2686  0.7983
 1341SOL    HW215483   2.275   2.476   9.742  0.2379  1.1447  0.8477
 1342SOL     OW15484   3.106   2.061   6.987  0.1118  0.4554  0.4293
 1342SOL    HW115485   3.106   2.042   7.081 -1.7391  2.9291  0.9362
 1342SOL    HW215486   3.114   1.975   6.945  2.1416  1.5417 -1.4031
 1343SOL     OW15487   4.009   3.209  14.224 -0.4183 -0.1340 -0.0892
 1343SOL    HW115488   3.949   3.209  14.299  1.7173 -2.1507  1.6202
 1343SOL    HW215489   4.072   3.141  14.247  0.9207  1.0499 -0.2283
 1344SOL     OW15490   2.884   4.529   7.988  0.3252  0.2720  0.5137
 1344SOL    HW115491   2.954   4.499   8.046 -0.9065  1.3074  2.5346
 1344SOL    HW215492   2.803   4.493   8.023 -1.3313  2.3574 -1.1490
 1345SOL     OW15493   4.432   1.763  15.654  0.0532  0.7349 -0.2450
 1345SOL    HW115494   4.425   1.775  15.559  3.1820 -0.4254 -0.6188
 1345SOL    HW215495   4.353   1.809  15.680 -0.8703 -1.2472  0.4800
 1346SOL     OW15496   0.142   1.427   6.697  0.3249 -0.1056  0.6159
 1346SOL    HW115497   0.233   1.450   6.714  0.8970 -2.5776  0.8641
 1346SOL    HW215498   0.149   1.381   6.614 -0.6761  1.1667 -0.1792
 1347SOL     OW15499   3.281   3.877   6.793 -0.2124  1.2261 -0.1981
 1347SOL    HW115500   3.204   3.934   6.795 -0.4238  0.9807 -1.5748
 1347SOL    HW215501   3.246   3.789   6.791  1.5829  0.4803  0.7061
 1348SOL     OW15502   0.065   0.473   9.991 -0.0321  0.3617  0.0384
 1348SOL    HW115503   4.701   0.439  10.019  0.4524 -1.0409 -0.2011
 1348SOL    HW215504   0.035   0.560   9.965  1.7926  0.2850 -2.3302
 1349SOL     OW15505   1.124   1.025   3.595 -0.1432  0.1146 -0.3782
 1349SOL    HW115506   1.149   1.007   3.685 -0.5896 -0.0674 -0.2946
 1349SOL    HW215507   1.210   1.041   3.555  0.8544  0.3194  1.8616
 1350SOL     OW15508   2.747   1.478   0.657  0.1259 -0.4916  0.7681
 1350SOL    HW115509   2.652   1.481   0.649  0.1237  0.2786  1.0840
 1350SOL    HW215510   2.765   1.549   0.719  3.7569  0.6787 -1.5924
 1351SOL     OW15511   2.011   4.310  15.578 -0.2384  0.5618  0.1165
 1351SOL    HW115512   1.949   4.309  15.504  0.2688  1.3320 -0.3085
 1351SOL    HW215513   2.082   4.297  15.516 -0.3370 -0.4764  0.2156
 1352SOL     OW15514   1.706   2.356   7.026 -0.2085  0.2601 -0.3452
 1352SOL    HW115515   1.752   2.429   6.985 -0.3772 -0.3502 -1.6347
 1352SOL    HW215516   1.726   2.289   6.961 -1.2709 -0.6530  0.2757
 1353SOL     OW15517   4.563   4.007   4.997 -0.4126  0.4221 -0.4895
 1353SOL    HW115518   4.535   3.916   4.992 -0.2939  0.2393  2.5724
 1353SOL    HW215519   4.656   4.003   5.019 -0.3661  0.8827 -0.5960
 1354SOL     OW15520   4.562   2.331   8.231  0.1072 -0.2907 -0.5255
 1354SOL    HW115521   4.530   2.246   8.259 -0.4672  0.5631  1.3884
 1354SOL    HW215522   4.558   2.378   8.314 -1.7526 -0.1486 -0.7091
 1355SOL     OW15523   1.311   2.860  13.756  0.5673 -0.2470  0.2062
 1355SOL    HW115524   1.316   2.765  13.768  1.5268 -0.2043  0.1584
 1355SOL    HW215525   1.217   2.869  13.742  0.6129  0.7341  0.5064
 1356SOL     OW15526   3.892   4.615  14.099  0.3134 -0.2732  0.7441
 1356SOL    HW115527   3.885   4.571  14.014 -0.0924  0.6051  0.3294
 1356SOL    HW215528   3.818   4.577  14.146 -1.2380  1.9810  0.1283
 1357SOL     OW15529   4.625   4.102   1.267 -0.0158 -0.5762  0.0140
 1357SOL    HW115530   4.547   4.138   1.309  0.6482  1.2011 -0.2642
 1357SOL    HW215531   4.627   4.126   1.175 -2.0125 -2.1483 -0.4306
 1358SOL     OW15532   1.507   2.050   4.456  0.0008  0.2191 -0.2629
 1358SOL    HW115533   1.560   2.026   4.381  1.5347  0.8786  0.6180
 1358SOL    HW215534   1.575   2.086   4.512  0.3986  0.3091 -0.8092
 1359SOL     OW15535   3.886   1.404  15.047  0.2731 -0.3435 -0.2616
 1359SOL    HW115536   3.826   1.478  15.059 -0.1183 -0.8661  0.9794
 1359SOL    HW215537   3.954   1.449  14.996  3.7639 -2.1505  2.8754
 1360SOL     OW15538   3.699   3.880   9.382  0.3490 -0.2207  0.3089
 1360SOL    HW115539   3.613   3.898   9.422 -1.1614  0.0123 -3.0194
 1360SOL    HW215540   3.708   3.932   9.302  1.1169  0.3292  0.7572
 1361SOL     OW15541   4.638   1.469  13.507  1.0594  0.0316  0.2433
 1361SOL    HW115542   4.636   1.373  13.512  0.0789 -0.0415 -1.6424
 1361SOL    HW215543   4.709   1.483  13.444 -0.8301 -1.8121 -2.2693
 1362SOL     OW15544   3.149   1.369   3.132  0.1346  0.1342 -0.5110
 1362SOL    HW115545   3.182   1.342   3.047  1.3088  3.0957 -0.9794
 1362SOL    HW215546   3.109   1.451   3.105  0.5776  0.8496  0.9941
 1363SOL     OW15547   4.214   0.802   9.161  0.0044 -0.9591  0.0567
 1363SOL    HW115548   4.240   0.893   9.147 -1.0058 -0.2301  2.8377
 1363SOL    HW215549   4.283   0.755   9.116  0.5887  0.2806 -0.3458
 1364SOL     OW15550   4.655   3.872  13.405  0.9158 -0.8291 -0.2110
 1364SOL    HW115551   4.578   3.920  13.376  0.8784 -2.0818 -2.2145
 1364SOL    HW215552   4.720   3.869  13.334  0.0543  0.2425 -1.0413
 1365SOL     OW15553   1.615   1.062   9.290 -0.2634 -0.3823 -0.3536
 1365SOL    HW115554   1.615   1.069   9.194 -1.4067  0.5266 -0.2845
 1365SOL    HW215555   1.564   0.985   9.315 -0.3783 -0.8952 -2.1297
 1366SOL     OW15556   1.502   4.587  14.281 -0.0250  0.3003 -0.3063
 1366SOL    HW115557   1.447   4.516  14.313 -0.7437  1.4510  0.9780
 1366SOL    HW215558   1.507   4.566  14.187  2.6840 -1.2953  0.1626
 1367SOL     OW15559   3.885   2.300  14.859  0.2561  0.0445 -0.5297
 1367SOL    HW115560   3.858   2.391  14.849 -1.0760 -0.3632 -0.6180
 1367SOL    HW215561   3.812   2.255  14.817  0.9274 -1.6432  0.1209
 1368SOL     OW15562   0.332   2.682   7.853 -0.3215  0.0463 -0.2670
 1368SOL    HW115563   0.275   2.722   7.787 -0.2862  1.7618  0.7354
 1368SOL    HW215564   0.302   2.733   7.928  1.4976  0.6896  0.0097
 1369SOL     OW15565   3.750   3.801   8.244 -0.4351  0.6082  0.3039
 1369SOL    HW115566   3.733   3.755   8.162  1.4726  1.6756 -0.6870
 1369SOL    HW215567   3.835   3.842   8.228 -0.4418  1.0723  1.4862
 1370SOL     OW15568   4.208   4.514   4.156 -0.1625 -0.0706 -0.1861
 1370SOL    HW115569   4.269   4.440   4.155  1.3889  1.2332 -1.4072
 1370SOL    HW215570   4.165   4.491   4.239 -1.2386 -0.4566 -0.8587
 1371SOL     OW15571   3.599   0.072  15.704  0.2043 -1.4716  0.0302
 1371SOL    HW115572   3.668   0.008  15.721  0.6099 -0.7311  1.1555
 1371SOL    HW215573   3.638   0.120  15.631 -1.5384 -0.9712 -0.5954
 1372SOL     OW15574   0.857   4.265   8.392 -0.3358 -0.2780 -0.1998
 1372SOL    HW115575   0.935   4.310   8.424 -1.0285  0.9429 -0.1953
 1372SOL    HW215576   0.826   4.317   8.318 -1.7213 -0.5834  0.1699
 1373SOL     OW15577   0.026   2.281   6.508  0.1564 -0.0458  0.3733
 1373SOL    HW115578   0.008   2.273   6.414  1.6959  1.3932 -0.0391
 1373SOL    HW215579   0.058   2.371   6.502  3.2832 -1.1520  0.5279
 1374SOL     OW15580   4.277   1.707   8.673 -0.1478  0.1243 -0.5234
 1374SOL    HW115581   4.295   1.622   8.713 -2.1530  0.2730  0.6998
 1374SOL    HW215582   4.313   1.765   8.740  1.4867  0.0826 -1.3585
 1375SOL     OW15583   4.405   1.179   3.778 -0.6258  0.3437  0.0127
 1375SOL    HW115584   4.364   1.118   3.717 -0.7675  1.1125 -0.6569
 1375SOL    HW215585   4.383   1.143   3.864 -1.3714  0.2884 -0.1972
 1376SOL     OW15586   1.355   1.384   2.789  0.5292 -0.1978  0.1443
 1376SOL    HW115587   1.266   1.347   2.790  0.4404  0.0099 -0.0257
 1376SOL    HW215588   1.349   1.438   2.711 -0.2730  1.0743  1.0925
 1377SOL     OW15589   0.856   2.962   3.504 -0.3170 -0.2934  0.2440
 1377SOL    HW115590   0.909   3.000   3.434  0.1266 -2.8386 -0.8042
 1377SOL    HW215591   0.872   2.869   3.488  2.3775  0.1823  0.1624
 1378SOL     OW15592   3.733   1.043   7.671 -0.2972 -0.3301  0.3434
 1378SOL    HW115593   3.720   1.116   7.733 -1.2265  0.2654 -0.5515
 1378SOL    HW215594   3.791   0.980   7.713 -0.1237 -1.5137 -1.6937
 1379SOL     OW15595   3.647   3.321   1.487  0.8252  0.7393 -0.5121
 1379SOL    HW115596   3.652   3.240   1.538 -0.6544  0.7995 -0.2726
 1379SOL    HW215597   3.713   3.311   1.419 -0.1127  0.4824 -1.3876
 1380SOL     OW15598   3.009   4.135   5.291 -0.0952 -0.2869 -0.2301
 1380SOL    HW115599   3.039   4.045   5.278  0.1081 -0.3569  0.7066
 1380SOL    HW215600   3.010   4.172   5.203  1.1265  1.3229  0.4399
 1381SOL     OW15601   1.348   3.752   3.848 -0.3848 -0.7372  0.2663
 1381SOL    HW115602   1.317   3.811   3.779 -1.1864 -1.2595  0.1741
 1381SOL    HW215603   1.313   3.668   3.818 -0.5447 -1.6087  2.8628
 1382SOL     OW15604   4.457   3.107   0.901  0.2152  0.0275 -0.6541
 1382SOL    HW115605   4.395   3.062   0.844 -0.7982 -0.7678  1.0693
 1382SOL    HW215606   4.516   3.125   0.828  1.1870  0.1490  0.1693
 1383SOL     OW15607   2.565   4.029   2.510  0.6982 -0.3019 -0.0379
 1383SOL    HW115608   2.574   3.951   2.456 -0.9961 -0.3291 -0.2769
 1383SOL    HW215609   2.469   4.036   2.513  0.6657 -0.6245 -0.3416
 1384SOL     OW15610   3.948   0.250   3.376 -0.6396  0.0308  0.1653
 1384SOL    HW115611   3.953   0.298   3.459 -1.3750  1.8362 -0.8387
 1384SOL    HW215612   3.894   0.306   3.320  0.0313  1.8037  1.2885
 1385SOL     OW15613   0.265   0.548   6.705 -0.4462  0.0899  0.4433
 1385SOL    HW115614   0.310   0.630   6.726  2.8683 -1.7726  0.7186
 1385SOL    HW215615   0.313   0.490   6.764  1.4803  2.4705  1.1957
 1386SOL     OW15616   1.918   2.243   7.330 -0.2695 -0.1059  0.2630
 1386SOL    HW115617   1.933   2.149   7.340  0.1262 -0.0519  0.1720
 1386SOL    HW215618   1.909   2.270   7.421 -1.8421  0.0547  0.0681
 1387SOL     OW15619   0.136   0.955   6.885  0.1762 -0.6212 -0.0992
 1387SOL    HW115620   0.053   1.001   6.868 -0.6080 -1.5310  1.2636
 1387SOL    HW215621   0.118   0.904   6.963 -1.7822  1.1427  0.5883
 1388SOL     OW15622   3.873   1.725   2.438  0.2800 -0.1207 -0.0636
 1388SOL    HW115623   3.873   1.665   2.364 -0.1099 -0.8298  0.5126
 1388SOL    HW215624   3.946   1.783   2.418 -0.5269  1.7147  2.2698
 1389SOL     OW15625   3.231   4.054   7.569  0.5875 -0.6532  0.2683
 1389SOL    HW115626   3.313   4.099   7.589  0.2927  0.5679 -1.2104
 1389SOL    HW215627   3.165   4.092   7.627  1.8272  2.8153 -0.6155
 1390SOL     OW15628   4.580   0.236   9.819  0.6019  0.2110  0.2631
 1390SOL    HW115629   4.662   0.228   9.867  0.7946 -3.2718 -0.6351
 1390SOL    HW215630   4.526   0.174   9.869  0.0749  1.4733  1.2446
 1391SOL     OW15631   2.429   2.152   8.586  0.7890  0.3789  0.4781
 1391SOL    HW115632   2.518   2.117   8.599  1.2661  1.9747  1.4771
 1391SOL    HW215633   2.394   2.171   8.673  1.6981  1.7358  0.5479
 1392SOL     OW15634   3.532   4.426   6.970  0.7032 -0.0049 -0.3070
 1392SOL    HW115635   3.579   4.394   7.047  1.9173  1.6541 -0.3719
 1392SOL    HW215636   3.440   4.434   6.995  0.2245 -0.7917 -1.8126
 1393SOL     OW15637   4.085   3.784   6.792  0.1570  0.4412 -0.5036
 1393SOL    HW115638   4.042   3.705   6.759  0.2222 -0.9512  2.8389
 1393SOL    HW215639   4.176   3.760   6.809 -0.1740 -1.0673 -0.8489
 1394SOL     OW15640   4.200   4.587   5.744 -0.2790 -0.1830 -0.4128
 1394SOL    HW115641   4.150   4.668   5.757  1.0244  0.5328  0.1482
 1394SOL    HW215642   4.178   4.579   5.651  1.3102 -0.9994 -0.7142
 1395SOL     OW15643   3.905   4.569   5.498  0.2449  0.3036  0.2614
 1395SOL    HW115644   3.863   4.541   5.580  1.0094 -2.9258 -0.4403
 1395SOL    HW215645   3.927   4.480   5.469 -0.4587 -0.0977  0.9417
 1396SOL     OW15646   3.435   4.157  10.286  0.4028  0.3132  0.5454
 1396SOL    HW115647   3.480   4.173  10.203  0.3501  0.0485  0.4677
 1396SOL    HW215648   3.445   4.244  10.325 -2.8981  0.6835  0.4997
 1397SOL     OW15649   0.257   2.510   6.635  0.0578  0.0112 -0.1129
 1397SOL    HW115650   0.297   2.574   6.576  1.9511 -1.7629 -0.7788
 1397SOL    HW215651   0.208   2.571   6.689 -0.2827 -1.6335  1.4379
 1398SOL     OW15652   4.395   2.592  10.982 -0.0638  0.1283 -0.5514
 1398SOL    HW115653   4.413   2.535  10.907  0.4361  1.3265 -1.3435
 1398SOL    HW215654   4.304   2.612  10.961  0.6062  0.7064 -2.8697
 1399SOL     OW15655   3.852   1.688   9.287  0.2939  0.2201  0.4911
 1399SOL    HW115656   3.778   1.680   9.348 -0.2142  0.4791 -0.0963
 1399SOL    HW215657   3.901   1.614   9.324 -1.3210 -1.6485 -1.0993
 1400SOL     OW15658   2.395   0.199   4.717 -0.1139  0.7705  0.3450
 1400SOL    HW115659   2.342   0.264   4.672 -0.3448 -0.9925 -1.9543
 1400SOL    HW215660   2.363   0.115   4.683 -1.2251  1.8376 -1.2490
 1401SOL     OW15661   0.024   1.633   6.244 -0.1176 -0.7379  0.2327
 1401SOL    HW115662   0.018   1.723   6.276  0.7234 -1.3701  2.1789
 1401SOL    HW215663   0.104   1.609   6.292  0.2340 -2.5551 -1.2679
 1402SOL     OW15664   3.823   4.295   3.690  0.4212 -0.1755  0.3584
 1402SOL    HW115665   3.801   4.240   3.765 -1.8564  0.7662  0.3681
 1402SOL    HW215666   3.835   4.380   3.732 -0.2677 -0.7056  1.6129
 1403SOL     OW15667   2.745   4.665   7.440 -0.0979  0.1241  0.0519
 1403SOL    HW115668   2.683   0.008   7.404  1.7640  2.4806  1.0279
 1403SOL    HW215669   2.736   4.585   7.388 -1.9537  0.2670  0.1768
 1404SOL     OW15670   3.923   4.654   3.612 -0.4806 -0.1280  0.5307
 1404SOL    HW115671   3.965   4.641   3.527  0.2192  0.0364  0.8575
 1404SOL    HW215672   3.978   4.720   3.654 -0.3148  1.0313 -1.5047
 1405SOL     OW15673   4.082   0.163   3.717 -0.2498 -0.3166  0.3772
 1405SOL    HW115674   4.095   0.208   3.633  0.0888  1.0269  1.1571
 1405SOL    HW215675   4.120   0.230   3.774  1.4800 -2.5070  1.8023
 1406SOL     OW15676   2.316   4.585   6.853 -0.4505 -0.0357  0.3009
 1406SOL    HW115677   2.220   4.584   6.850 -0.3801  2.1121 -2.7933
 1406SOL    HW215678   2.336   4.676   6.877 -2.3871  1.1367 -2.4473
 1407SOL     OW15679   4.165   4.690   1.977  0.2985  0.1099  0.2689
 1407SOL    HW115680   4.212   0.053   1.979  0.0602  0.2633 -1.1253
 1407SOL    HW215681   4.142   4.686   1.885  1.3088 -1.2451  0.0797
 1408SOL     OW15682   1.510   2.290   1.429 -0.6787  0.2431 -0.2340
 1408SOL    HW115683   1.416   2.279   1.444 -0.4235  1.5263  2.2954
 1408SOL    HW215684   1.500   2.384   1.413  0.5309  0.3760 -0.2074
 1409SOL     OW15685   3.985   0.080   5.622  0.0112  0.1218 -0.0800
 1409SOL    HW115686   3.996   0.149   5.557  3.8384 -2.0711 -1.7621
 1409SOL    HW215687   3.961   0.003   5.572  0.4949 -1.3789  2.0136
 1410SOL     OW15688   0.748   1.174   6.496  0.1419  0.3143 -0.2027
 1410SOL    HW115689   0.778   1.227   6.422  0.1004  2.2306  1.1436
 1410SOL    HW215690   0.717   1.242   6.556  1.3634  1.7038 -1.1359
 1411SOL     OW15691   2.146   0.709  11.304 -0.1222  0.6825  0.4641
 1411SOL    HW115692   2.122   0.797  11.277  0.8314  1.0536  0.8093
 1411SOL    HW215693   2.074   0.679  11.360 -0.9063 -1.4225 -1.6721
 1412SOL     OW15694   1.997   2.171  15.709  0.0452  0.0330  0.4317
 1412SOL    HW115695   2.039   2.229  15.772  4.7165 -0.5024 -2.2179
 1412SOL    HW215696   1.998   2.084  15.750 -2.4338 -0.1411  0.1795
 1413SOL     OW15697   1.432   1.592   5.853  0.8279 -0.1924  0.1369
 1413SOL    HW115698   1.480   1.620   5.775 -0.5159  0.0089 -0.6203
 1413SOL    HW215699   1.392   1.671   5.891  1.6420 -0.2480  1.1297
 1414SOL     OW15700   0.330   3.603  16.772 -0.0985 -0.0909 -0.3150
 1414SOL    HW115701   0.398   3.664  16.803 -0.0263 -1.1961  1.7386
 1414SOL    HW215702   0.378   3.528  16.736  1.2340  1.0483 -0.9178
 1415SOL     OW15703   3.117   2.427   5.074  0.2528 -0.0677 -0.1070
 1415SOL    HW115704   3.142   2.514   5.047 -0.3856  0.0536 -0.3186
 1415SOL    HW215705   3.082   2.446   5.162  2.2577 -0.2757  0.7252
 1416SOL     OW15706   2.308   3.720   4.784 -0.0214  0.7453 -0.0977
 1416SOL    HW115707   2.242   3.652   4.767  0.3842  0.5356 -0.8104
 1416SOL    HW215708   2.264   3.788   4.733  0.6633  0.8934 -0.4907
 1417SOL     OW15709   1.148   2.988   4.552  0.2199 -0.4870 -0.2044
 1417SOL    HW115710   1.168   3.044   4.477  1.8705 -0.0464  0.5588
 1417SOL    HW215711   1.233   2.945   4.563  0.2715 -0.7155 -1.4550
 1418SOL     OW15712   2.760   3.285   7.739 -0.3933  0.0958 -0.1715
 1418SOL    HW115713   2.799   3.344   7.804  0.3869 -0.0651 -0.4936
 1418SOL    HW215714   2.812   3.294   7.659 -2.4593  0.2105 -1.4971
 1419SOL     OW15715   2.643   0.674   5.628  0.4571 -0.2973  0.3869
 1419SOL    HW115716   2.609   0.592   5.593 -2.0135  0.4587  1.0141
 1419SOL    HW215717   2.731   0.643   5.649  0.8847 -0.6909 -2.0948
 1420SOL     OW15718   0.554   0.293   4.011  0.2740 -0.4679 -0.1656
 1420SOL    HW115719   0.484   0.342   4.055  1.3256  0.8593  0.0465
 1420SOL    HW215720   0.518   0.269   3.926  0.7894  0.6481 -0.6981
 1421SOL     OW15721   1.571   1.028  10.977 -0.7540 -0.5022  0.3659
 1421SOL    HW115722   1.486   1.058  10.945  0.1441  0.6571 -0.9237
 1421SOL    HW215723   1.610   1.115  10.974 -0.6573 -0.5898 -1.1151
 1422SOL     OW15724   1.233   3.733   0.445  0.2323  0.2300  0.0315
 1422SOL    HW115725   1.275   3.702   0.525  0.0303  0.4979  0.2394
 1422SOL    HW215726   1.301   3.703   0.385 -0.4184  0.5054 -0.8525
 1423SOL     OW15727   4.170   3.970  13.127 -0.1488 -0.0579 -1.1905
 1423SOL    HW115728   4.242   4.015  13.085 -0.2748 -1.0936 -2.4936
 1423SOL    HW215729   4.118   4.036  13.173  0.2089  0.2644 -1.2517
 1424SOL     OW15730   1.978   2.715   8.502 -0.5156 -0.1145  0.1321
 1424SOL    HW115731   2.013   2.786   8.557  0.3459  0.0857 -0.6767
 1424SOL    HW215732   2.026   2.639   8.535 -0.3974 -0.3441 -0.5693
 1425SOL     OW15733   3.577   1.055   3.769  0.0456 -0.1992 -0.1449
 1425SOL    HW115734   3.672   1.063   3.778  0.1078 -2.1776  0.9945
 1425SOL    HW215735   3.574   0.985   3.705 -0.7677  1.1773 -1.6147
 1426SOL     OW15736   4.046   4.506   8.693 -0.3276  0.2747 -0.0018
 1426SOL    HW115737   3.977   4.569   8.671 -0.2467  0.5088  0.4078
 1426SOL    HW215738   4.082   4.558   8.765  1.5194  0.3797 -0.9955
 1427SOL     OW15739   1.699   0.162   4.369 -0.1169 -0.3482 -0.4039
 1427SOL    HW115740   1.735   0.122   4.289  2.7054  1.3457  0.0074
 1427SOL    HW215741   1.618   0.202   4.340 -1.2728 -0.5422  2.5361
 1428SOL     OW15742   3.491   1.787   6.944  0.7566 -0.0487  0.0080
 1428SOL    HW115743   3.409   1.765   6.988  0.0781 -0.5773 -1.5138
 1428SOL    HW215744   3.539   1.815   7.022 -0.0679  1.0554  0.1043
 1429SOL     OW15745   0.840   0.985  12.439  0.4455 -0.0369  0.3177
 1429SOL    HW115746   0.849   1.080  12.448 -0.6447  0.1018 -0.1611
 1429SOL    HW215747   0.928   0.955  12.461  1.3281  0.4348 -2.5256
 1430SOL     OW15748   2.447   1.334   1.646 -0.3016  1.0914  0.2807
 1430SOL    HW115749   2.364   1.350   1.691 -1.0419 -0.9129 -0.3643
 1430SOL    HW215750   2.488   1.421   1.653 -2.2411  2.2197 -2.6966
 1431SOL     OW15751   1.970   3.456   2.034  0.1393 -0.0902 -0.0506
 1431SOL    HW115752   1.909   3.483   2.103 -0.2050 -0.4797 -0.2003
 1431SOL    HW215753   1.931   3.369   2.027 -1.1134  0.3674  1.3192
 1432SOL     OW15754   4.334   2.771   3.698  0.2604  0.7282 -0.3959
 1432SOL    HW115755   4.354   2.718   3.621 -1.4411 -0.9875  0.3303
 1432SOL    HW215756   4.262   2.719   3.733 -1.4767  4.3489  1.3644
 1433SOL     OW15757   0.792   2.373   3.899 -0.2262 -0.1696  0.4130
 1433SOL    HW115758   0.781   2.396   3.991  0.5392  1.3660  0.1210
 1433SOL    HW215759   0.807   2.279   3.903 -1.2421 -0.3480  0.1056
 1434SOL     OW15760   0.237   1.638   0.675  0.8025  0.4592  0.5973
 1434SOL    HW115761   0.184   1.672   0.747  0.0705 -2.6377  1.5092
 1434SOL    HW215762   0.306   1.589   0.719  1.5193 -2.7242 -3.9852
 1435SOL     OW15763   2.135   0.628   8.342 -0.1243 -0.2655 -0.3602
 1435SOL    HW115764   2.091   0.689   8.402  0.8718 -0.4539  0.5643
 1435SOL    HW215765   2.079   0.551   8.344 -2.6660  1.6356  0.8455
 1436SOL     OW15766   0.362   1.809   3.128 -0.0277  0.3134 -0.3503
 1436SOL    HW115767   0.394   1.720   3.113 -2.0331 -0.1198 -2.0791
 1436SOL    HW215768   0.435   1.867   3.105 -0.5941  0.3824 -2.0116
 1437SOL     OW15769   3.644   4.404   8.937 -0.1489  0.3637 -0.0217
 1437SOL    HW115770   3.662   4.353   8.859  2.5871  1.1119  0.1161
 1437SOL    HW215771   3.578   4.464   8.903 -1.3144 -1.1467 -0.4096
 1438SOL     OW15772   4.468   4.020  11.942 -0.3169 -0.0162 -0.3318
 1438SOL    HW115773   4.549   3.982  11.909 -0.1423  0.1165 -0.0532
 1438SOL    HW215774   4.453   4.080  11.869  2.2638  1.2613  0.1912
 1439SOL     OW15775   1.173   4.154   4.486  0.3390 -0.0584  0.5134
 1439SOL    HW115776   1.191   4.218   4.418 -0.3985 -0.2964  0.1016
 1439SOL    HW215777   1.092   4.189   4.522  0.7440  1.9049 -0.5201
 1440SOL     OW15778   1.179   1.361   2.530 -0.0445 -0.0286  0.1047
 1440SOL    HW115779   1.163   1.287   2.588 -1.4896  1.7923  2.0090
 1440SOL    HW215780   1.091   1.366   2.493 -0.1076  1.5647  0.4810
 1441SOL     OW15781   2.765   2.249   5.080 -0.3770  0.5072  0.0078
 1441SOL    HW115782   2.785   2.198   5.158 -0.4282 -2.4821 -1.9577
 1441SOL    HW215783   2.769   2.342   5.105 -0.0306  0.5018 -0.0283
 1442SOL     OW15784   3.505   4.195  12.915  0.3695  0.2819  0.5395
 1442SOL    HW115785   3.548   4.279  12.929  1.0119  0.3716 -1.8925
 1442SOL    HW215786   3.572   4.147  12.865  2.4784  0.8167  2.8943
 1443SOL     OW15787   3.312   2.945  11.400 -0.1824  0.0285  0.2294
 1443SOL    HW115788   3.321   3.011  11.468 -0.3831 -0.1439  0.4224
 1443SOL    HW215789   3.244   2.993  11.352  0.7853  0.7210 -0.4397
 1444SOL     OW15790   3.640   0.229  12.101 -0.1177  0.1478  0.0252
 1444SOL    HW115791   3.590   0.309  12.085 -0.4228 -0.6436 -2.8812
 1444SOL    HW215792   3.583   0.170  12.051 -1.7997  1.0879  0.8037
 1445SOL     OW15793   1.834   3.077   2.310  0.3409 -0.4023 -0.1864
 1445SOL    HW115794   1.853   3.048   2.221  0.9667  0.4967 -0.3518
 1445SOL    HW215795   1.877   3.005   2.354  0.6176  0.2149  0.5552
 1446SOL     OW15796   4.557   1.486   9.385  0.2453  0.0650 -0.1255
 1446SOL    HW115797   4.625   1.419   9.392  0.9827  0.7343 -0.9568
 1446SOL    HW215798   4.497   1.449   9.451 -1.0426  0.4972 -1.0494
 1447SOL     OW15799   2.711   3.665  12.237 -0.4389  0.1983 -0.2865
 1447SOL    HW115800   2.626   3.667  12.194  0.3629 -1.2410 -1.9533
 1447SOL    HW215801   2.708   3.574  12.267  0.3771  0.3188  0.1713
 1448SOL     OW15802   2.206   3.975  13.608  0.4976 -0.0385  0.1958
 1448SOL    HW115803   2.282   3.929  13.572 -0.1992 -2.7730  2.1915
 1448SOL    HW215804   2.215   3.956  13.701  0.1822  0.5647  0.3448
 1449SOL     OW15805   1.120   0.665   3.814 -0.4784  0.7992  0.0202
 1449SOL    HW115806   1.093   0.756   3.819  2.4269  1.6251  1.1216
 1449SOL    HW215807   1.144   0.665   3.721 -3.2313 -1.7019 -0.6854
 1450SOL     OW15808   2.524   3.007   6.081 -0.3555  0.0017 -0.1157
 1450SOL    HW115809   2.486   2.954   6.151  1.9021 -2.0735 -0.4812
 1450SOL    HW215810   2.605   2.964   6.056  0.6559  1.0859  1.3333
 1451SOL     OW15811   0.141   3.169   9.418 -0.8504 -0.6956 -0.3444
 1451SOL    HW115812   0.192   3.148   9.496 -1.9159 -2.7072 -0.1930
 1451SOL    HW215813   0.096   3.087   9.397 -0.7645 -0.7573 -0.2821
 1452SOL     OW15814   3.826   3.198   3.568  0.2548  0.2415 -0.1795
 1452SOL    HW115815   3.891   3.238   3.510  1.1464  3.5633  3.1039
 1452SOL    HW215816   3.832   3.256   3.644 -0.4363 -1.9620  1.5503
 1453SOL     OW15817   1.872   3.520   8.684 -0.4052  0.1791 -0.0325
 1453SOL    HW115818   1.937   3.583   8.713 -0.9755  0.4364  0.6965
 1453SOL    HW215819   1.868   3.443   8.741 -1.5688  0.6399  0.5133
 1454SOL     OW15820   1.772   3.567   7.681  0.8835 -0.2245 -0.4885
 1454SOL    HW115821   1.696   3.624   7.679  0.5996 -0.5515  0.6926
 1454SOL    HW215822   1.736   3.478   7.680  1.4785 -0.4868  0.6820
 1455SOL     OW15823   0.401   2.237   1.203  0.0232  0.5026 -0.3920
 1455SOL    HW115824   0.423   2.278   1.119  1.2335  1.5108  0.4261
 1455SOL    HW215825   0.319   2.188   1.193  0.9029 -0.4709 -3.1163
 1456SOL     OW15826   3.274   1.701   3.014 -0.0342 -0.1493  0.4659
 1456SOL    HW115827   3.282   1.792   3.044  1.9505 -0.8110  1.9408
 1456SOL    HW215828   3.185   1.675   3.036 -0.3961  1.6311  1.0926
 1457SOL     OW15829   2.955   4.019   2.913 -0.8040  0.0680  0.2747
 1457SOL    HW115830   3.017   3.946   2.918 -0.1189  0.7725  2.2813
 1457SOL    HW215831   2.986   4.062   2.993  0.4376  0.1161 -0.2271
 1458SOL     OW15832   0.277   2.960   2.882 -0.4972  0.3650  0.0336
 1458SOL    HW115833   0.244   2.927   2.965  0.5441 -0.3207  0.1659
 1458SOL    HW215834   0.215   3.032   2.864 -1.7012 -0.7493 -0.2815
 1459SOL     OW15835   0.570   4.204   6.442 -0.0973  0.5645  0.3175
 1459SOL    HW115836   0.660   4.172   6.442 -0.4883 -0.5303 -0.3422
 1459SOL    HW215837   0.549   4.191   6.534  0.5904 -2.0940  0.0728
 1460SOL     OW15838   4.702   4.458   1.323 -0.5412  0.2639 -0.2596
 1460SOL    HW115839   4.704   4.477   1.229 -1.5858  1.4070 -0.0428
 1460SOL    HW215840   0.066   4.414   1.331 -0.6519  0.1070  0.0369
 1461SOL     OW15841   3.811   2.161  15.805  0.0190  0.0307  0.2681
 1461SOL    HW115842   3.854   2.227  15.860  1.2317  0.9770 -1.8172
 1461SOL    HW215843   3.731   2.207  15.782  0.9039  1.1034 -0.6400
 1462SOL     OW15844   4.095   3.007   5.401  0.4005  0.0617  0.4313
 1462SOL    HW115845   4.065   2.970   5.484 -1.4614  0.5977 -0.0056
 1462SOL    HW215846   4.189   3.010   5.419  0.9774 -0.0699 -2.5490
 1463SOL     OW15847   1.649   0.887   8.419 -0.5383  0.2820 -0.2458
 1463SOL    HW115848   1.615   0.848   8.499  1.3580  0.2903  0.5425
 1463SOL    HW215849   1.565   0.912   8.380 -1.2585  0.5035  1.4576
 1464SOL     OW15850   0.912   1.230  15.709 -0.1822  0.5947 -0.3371
 1464SOL    HW115851   0.837   1.215  15.767 -0.0180 -0.2798 -0.3492
 1464SOL    HW215852   0.904   1.325  15.712 -1.3898  0.4818  0.2475
 1465SOL     OW15853   3.180   2.271   7.812 -0.3276  0.3090  0.0049
 1465SOL    HW115854   3.094   2.301   7.784  0.2108 -0.1616 -2.2062
 1465SOL    HW215855   3.239   2.317   7.751 -0.4393 -1.5341 -1.4912
 1466SOL     OW15856   1.018   1.117   4.248 -0.0984 -0.0104 -0.0690
 1466SOL    HW115857   0.999   1.102   4.341  2.0266 -1.7059  0.1055
 1466SOL    HW215858   1.079   1.048   4.222  0.1564  0.1908 -0.0142
 1467SOL     OW15859   2.937   1.309   3.924  0.2977  0.5307  0.0552
 1467SOL    HW115860   2.936   1.395   3.881  4.1394 -0.5557 -2.1912
 1467SOL    HW215861   2.892   1.330   4.006 -2.0771 -1.0494 -0.8365
 1468SOL     OW15862   2.964   1.614   6.815 -0.3047  0.0366 -0.2872
 1468SOL    HW115863   2.915   1.630   6.895 -0.0580  1.1250 -0.3578
 1468SOL    HW215864   2.889   1.610   6.756  0.9070  0.5539 -1.8771
 1469SOL     OW15865   4.139   0.222   7.307 -0.3197  0.0135 -0.8028
 1469SOL    HW115866   4.075   0.293   7.317 -0.3716 -0.3709  1.7474
 1469SOL    HW215867   4.197   0.233   7.382  0.3289 -1.2377 -1.1382
 1470SOL     OW15868   1.715   3.663  13.932 -0.2125 -0.3200 -0.7954
 1470SOL    HW115869   1.759   3.706  14.004 -1.1160  0.8703 -0.9546
 1470SOL    HW215870   1.758   3.706  13.858  2.6097 -0.5833  0.6921
 1471SOL     OW15871   0.033   4.094  17.146  0.2226 -0.1862 -0.4002
 1471SOL    HW115872   0.025   4.139  17.231 -1.8620  0.9335 -1.1835
 1471SOL    HW215873   0.094   4.023  17.165 -0.9354 -1.5527 -1.7531
 1472SOL     OW15874   3.050   1.406   9.189  0.0359 -0.4051 -0.5382
 1472SOL    HW115875   2.986   1.403   9.260 -0.6543 -1.0379 -1.1827
 1472SOL    HW215876   3.096   1.489   9.182  1.0004 -0.7404  2.0483
 1473SOL     OW15877   3.010   2.572   0.469  0.8308 -0.3887 -0.4257
 1473SOL    HW115878   2.970   2.492   0.503  0.0213  0.9422  1.7781
 1473SOL    HW215879   2.985   2.572   0.376  2.0604  1.1890 -0.7656
 1474SOL     OW15880   0.194   0.334   6.570  0.3980 -0.0063  0.3777
 1474SOL    HW115881   0.115   0.280   6.575 -1.6273  3.0030  1.0268
 1474SOL    HW215882   0.168   0.416   6.613  0.0719  0.4950 -0.7834
 1475SOL     OW15883   1.449   0.887  16.116  0.0316  0.4687 -0.1406
 1475SOL    HW115884   1.388   0.815  16.131 -3.1013  2.8801 -1.4781
 1475SOL    HW215885   1.394   0.947  16.066  1.0898  0.0265 -1.8408
 1476SOL     OW15886   3.763   1.967  14.284 -0.2542  0.2915 -0.1565
 1476SOL    HW115887   3.852   1.988  14.310 -0.8607  1.4684  0.9458
 1476SOL    HW215888   3.759   1.887  14.337  0.4683 -0.1247 -0.7284
 1477SOL     OW15889   1.962   0.154  12.143 -0.3440 -0.3618 -0.3743
 1477SOL    HW115890   1.938   0.247  12.137 -1.2472 -0.6994 -1.9643
 1477SOL    HW215891   2.037   0.153  12.203 -1.6343 -1.3588  1.2134
 1478SOL     OW15892   2.533   2.631   7.445 -0.3720 -0.2990 -0.2607
 1478SOL    HW115893   2.505   2.660   7.358 -0.4100  0.4871  0.0083
 1478SOL    HW215894   2.477   2.685   7.500 -2.0854  0.6005 -2.8847
 1479SOL     OW15895   2.760   2.873   2.677 -0.2055  0.4872 -0.2908
 1479SOL    HW115896   2.728   2.874   2.587  0.4913  1.2136 -0.5310
 1479SOL    HW215897   2.785   2.781   2.686 -1.7336  0.0699 -0.2704
 1480SOL     OW15898   4.719   2.228   0.095  0.3564 -0.1347 -0.6005
 1480SOL    HW115899   0.079   2.204   0.139 -0.6309  2.6974  2.6891
 1480SOL    HW215900   0.038   2.294   0.038 -1.7282 -0.3005 -2.2452
 1481SOL     OW15901   0.576   1.362  12.871  0.5084 -0.3385 -0.5210
 1481SOL    HW115902   0.491   1.398  12.897  0.8927  0.2789 -0.1200
 1481SOL    HW215903   0.620   1.444  12.890  0.2020 -0.3210  0.1192
 1482SOL     OW15904   2.285   3.005   3.286 -0.3063  0.6276 -0.2107
 1482SOL    HW115905   2.316   3.020   3.197  0.3062  3.1685  0.4399
 1482SOL    HW215906   2.229   2.927   3.281 -1.1758  1.2781 -0.6181
 1483SOL     OW15907   3.320   1.108  13.098  0.3749  0.4682 -0.3888
 1483SOL    HW115908   3.258   1.087  13.168  1.2128  1.9887  0.8050
 1483SOL    HW215909   3.393   1.052  13.124  1.0429  2.0035  0.9912
 1484SOL     OW15910   2.678   4.685   6.362 -0.2599 -0.3660  0.2048
 1484SOL    HW115911   2.662   0.058   6.356 -1.4638 -0.6598 -1.1412
 1484SOL    HW215912   2.647   4.672   6.451 -0.4989 -0.8690  0.0479
 1485SOL     OW15913   2.632   2.187   3.914 -0.2946  0.3013  0.3316
 1485SOL    HW115914   2.545   2.158   3.886 -0.6088  1.2444  0.3476
 1485SOL    HW215915   2.685   2.149   3.844 -3.5915  0.0967 -2.0554
 1486SOL     OW15916   2.738   1.074   5.787 -0.1278 -0.2039  0.3227
 1486SOL    HW115917   2.780   1.088   5.872 -0.2986  1.0879  0.2067
 1486SOL    HW215918   2.674   1.146   5.791 -0.5062 -0.5428  0.3054
 1487SOL     OW15919   4.677   3.337   5.702  0.6111 -0.2581  0.5471
 1487SOL    HW115920   4.594   3.377   5.676  1.6194  1.4539 -0.0405
 1487SOL    HW215921   0.003   3.309   5.623 -4.0267 -1.4997 -1.7439
 1488SOL     OW15922   0.076   3.318   7.536 -0.1489  0.2309 -0.4386
 1488SOL    HW115923   0.102   3.271   7.456  0.1889 -0.7446  0.2481
 1488SOL    HW215924   0.138   3.391   7.535  1.1979 -0.9052 -0.2157
 1489SOL     OW15925   2.031   2.520   5.242  0.3704 -0.3100  0.4282
 1489SOL    HW115926   2.002   2.545   5.330 -2.1204  0.2487 -0.5496
 1489SOL    HW215927   1.984   2.438   5.229 -1.0042  0.8083 -1.6119
 1490SOL     OW15928   0.118   1.501  13.315 -1.0407 -0.4790  0.8840
 1490SOL    HW115929   0.193   1.558  13.332  0.8804 -2.4778 -0.9284
 1490SOL    HW215930   0.131   1.485  13.222  0.4015  1.4998  0.7477
 1491SOL     OW15931   0.328   0.186   5.519  0.3825 -0.3182  0.0867
 1491SOL    HW115932   0.420   0.209   5.528  0.5021 -0.6626 -0.2850
 1491SOL    HW215933   0.302   0.141   5.599  3.3079  1.6268  2.1225
 1492SOL     OW15934   1.454   1.684  16.487 -0.4992 -0.1392  0.4369
 1492SOL    HW115935   1.504   1.747  16.539 -0.3291  1.0964 -1.2076
 1492SOL    HW215936   1.467   1.715  16.397 -0.3935  1.9278  1.1715
 1493SOL     OW15937   0.279   0.722   8.425  0.5205 -0.2008  0.4343
 1493SOL    HW115938   0.247   0.641   8.464 -2.9736  0.0175 -1.8944
 1493SOL    HW215939   0.198   0.762   8.390  0.5312  0.1592  0.8234
 1494SOL     OW15940   0.569   0.407   2.044 -0.1688  0.0592  0.4837
 1494SOL    HW115941   0.513   0.349   1.992  0.7843 -0.2048 -0.2535
 1494SOL    HW215942   0.647   0.354   2.061  1.4270  2.1906 -0.3116
 1495SOL     OW15943   3.668   4.030  16.098 -0.2629  0.5191  0.2776
 1495SOL    HW115944   3.721   4.057  16.023  1.3846 -2.2998  0.4409
 1495SOL    HW215945   3.607   4.102  16.114 -0.7626  0.1751 -0.1271
 1496SOL     OW15946   1.965   3.273   3.739  0.3700  0.1546  0.3586
 1496SOL    HW115947   1.992   3.342   3.800 -1.5520  3.0833 -2.1108
 1496SOL    HW215948   1.999   3.196   3.784 -0.0191  0.0122  0.4110
 1497SOL     OW15949   1.435   4.041   9.619 -0.1697  0.0543 -0.0187
 1497SOL    HW115950   1.437   3.962   9.565 -1.3514 -1.0069  1.4824
 1497SOL    HW215951   1.417   4.002   9.705 -1.4900  1.0994  0.1758
 1498SOL     OW15952   2.465   1.814   3.973 -0.6685 -0.4461 -0.1422
 1498SOL    HW115953   2.560   1.826   3.975 -0.7384 -0.0251  0.7304
 1498SOL    HW215954   2.433   1.901   3.995  0.6834 -0.0005  0.0719
 1499SOL     OW15955   4.454   1.029   0.198 -0.5270  0.1542 -0.2039
 1499SOL    HW115956   4.520   1.021   0.266 -0.1348 -0.2476 -0.6320
 1499SOL    HW215957   4.463   1.122   0.174 -0.1421  0.3728  0.7884
 1500SOL     OW15958   4.371   3.847   3.687  0.1651 -0.2787 -0.3633
 1500SOL    HW115959   4.421   3.766   3.672  1.9491  0.7141  0.3302
 1500SOL    HW215960   4.301   3.828   3.624 -0.9692  1.2918  0.4270
 1501SOL     OW15961   2.763   1.221   4.988 -0.3124  0.5836 -0.0889
 1501SOL    HW115962   2.725   1.171   4.916  1.5377  0.0193 -0.6737
 1501SOL    HW215963   2.679   1.252   5.020 -0.5364  1.0671 -1.1348
 1502SOL     OW15964   1.394   3.983   0.178  0.5174 -0.1981  0.1726
 1502SOL    HW115965   1.355   3.902   0.212 -0.8123  0.7667  0.9190
 1502SOL    HW215966   1.407   4.033   0.258 -0.3152  0.2291  0.0309
 1503SOL     OW15967   4.293   0.331  16.823  0.2754 -0.0674 -0.5099
 1503SOL    HW115968   4.337   0.327  16.908  0.2272  0.5725 -0.4541
 1503SOL    HW215969   4.289   0.239  16.796 -1.3633 -0.0413 -0.3934
 1504SOL     OW15970   4.260   0.377   4.633  0.1535  0.0171  0.0295
 1504SOL    HW115971   4.287   0.444   4.696 -1.1699  0.1668  0.4290
 1504SOL    HW215972   4.341   0.328   4.623 -0.0800  0.1823 -2.6822
 1505SOL     OW15973   3.853   1.219   6.735 -0.1242 -0.0594  0.1836
 1505SOL    HW115974   3.900   1.201   6.816 -0.8075 -2.4098  0.0385
 1505SOL    HW215975   3.840   1.314   6.741 -1.8343 -0.3038  0.4620
 1506SOL     OW15976   0.734   0.194  11.252  0.1126  0.5584  0.0704
 1506SOL    HW115977   0.770   0.202  11.340 -2.7157  0.2450  1.2881
 1506SOL    HW215978   0.813   0.192  11.199 -0.0642  0.4508 -0.1926
 1507SOL     OW15979   0.258   0.214   0.726  0.3169  0.1977  0.3694
 1507SOL    HW115980   0.264   0.196   0.633  1.6212 -1.3734  0.7510
 1507SOL    HW215981   0.280   0.126   0.758 -3.7104 -0.4999  1.2845
 1508SOL     OW15982   3.040   3.579   9.181 -0.9319 -0.8048  0.8717
 1508SOL    HW115983   2.966   3.633   9.208 -0.3278  1.2011 -1.5293
 1508SOL    HW215984   3.097   3.652   9.157  0.2887 -2.1841 -0.4206
 1509SOL     OW15985   2.786   2.895   9.950  0.2143 -0.4171  0.1823
 1509SOL    HW115986   2.787   2.812   9.903  2.1286  1.7742 -3.7041
 1509SOL    HW215987   2.837   2.873  10.027  1.5699  1.4133 -0.1951
 1510SOL     OW15988   4.422   3.040   1.314  0.0880  0.6138 -0.3530
 1510SOL    HW115989   4.393   3.022   1.404 -2.6507 -0.4179 -1.4408
 1510SOL    HW215990   4.497   3.095   1.338  0.8935 -0.5945 -0.0959
 1511SOL     OW15991   1.990   2.642   0.167  0.4675  0.5549 -0.1066
 1511SOL    HW115992   2.058   2.581   0.194 -1.0106 -1.0878 -0.0917
 1511SOL    HW215993   2.035   2.701   0.107  2.5511  0.3435  1.2497
 1512SOL     OW15994   0.551   2.115   5.237  0.0809 -0.0411 -0.1381
 1512SOL    HW115995   0.638   2.152   5.225  1.0585 -2.7290 -1.1953
 1512SOL    HW215996   0.556   2.062   5.158  2.2908  1.7517 -1.2177
 1513SOL     OW15997   0.030   0.251  12.397  0.0978 -0.5203  0.3382
 1513SOL    HW115998   4.666   0.236  12.439 -0.5267  0.6355 -0.4993
 1513SOL    HW215999   0.008   0.236  12.305 -0.7085  0.4540  0.3695
 1514SOL     OW16000   3.177   1.661   0.543 -0.3777  0.0139 -0.9296
 1514SOL    HW116001   3.110   1.593   0.549 -0.3853  0.1736  0.6599
 1514SOL    HW216002   3.176   1.699   0.631  0.6665 -1.9145 -0.0966
 1515SOL     OW16003   2.867   0.152   8.007 -0.2427 -0.1481 -0.1457
 1515SOL    HW116004   2.847   0.083   8.070  0.3186 -1.0790 -0.9955
 1515SOL    HW216005   2.797   0.215   8.027  1.3165  1.5796 -0.1162
 1516SOL     OW16006   2.343   0.741   6.329  0.1211 -0.3635 -0.2966
 1516SOL    HW116007   2.307   0.669   6.277 -0.2955 -1.3759  1.4031
 1516SOL    HW216008   2.410   0.765   6.265  1.2238  1.1328  1.4001
 1517SOL     OW16009   1.877   0.147   6.678 -0.1456  0.2895 -0.4964
 1517SOL    HW116010   1.847   0.217   6.621  2.9818  1.8947 -0.2181
 1517SOL    HW216011   1.910   0.201   6.750 -2.5162  3.4331 -1.7633
 1518SOL     OW16012   0.716   0.090   5.630  0.1935  0.2499 -0.2832
 1518SOL    HW116013   0.684   0.011   5.586 -0.1479  0.6165 -0.6928
 1518SOL    HW216014   0.738   0.056   5.717  1.0062  1.9650  0.1826
 1519SOL     OW16015   3.456   0.573   6.396  0.0566 -0.4069  0.5852
 1519SOL    HW116016   3.517   0.523   6.342  2.1612  0.1550  2.4258
 1519SOL    HW216017   3.372   0.566   6.351 -0.5848 -1.4699  1.9481
 1520SOL     OW16018   0.978   1.179   7.806 -0.1748  0.1442 -0.4988
 1520SOL    HW116019   0.953   1.087   7.799  1.1874 -0.2706  0.2677
 1520SOL    HW216020   1.074   1.182   7.806 -0.2230  1.8483 -0.7814
 1521SOL     OW16021   3.209   3.167   4.608  0.6155  0.1816 -0.1666
 1521SOL    HW116022   3.269   3.240   4.621  2.1524 -1.1744  0.2603
 1521SOL    HW216023   3.139   3.202   4.552 -0.3886 -0.8936  0.4237
 1522SOL     OW16024   0.324   3.097  10.577 -0.1213  0.4178  0.0190
 1522SOL    HW116025   0.364   3.029  10.523  0.0418  1.3569 -1.0630
 1522SOL    HW216026   0.319   3.164  10.508 -2.2763  1.9044  1.6430
 1523SOL     OW16027   1.742   1.273  11.016 -0.4456 -0.4226 -0.3040
 1523SOL    HW116028   1.752   1.366  11.033  0.6987 -0.0782 -2.9270
 1523SOL    HW216029   1.818   1.252  10.962 -0.2262 -0.3622 -0.0178
 1524SOL     OW16030   0.123   0.346   7.021 -0.4720  0.0990  0.0475
 1524SOL    HW116031   0.096   0.290   7.094  0.1526 -2.7955 -1.9457
 1524SOL    HW216032   0.213   0.316   7.011  0.4137  2.7534  0.0888
 1525SOL     OW16033   3.290   3.695   4.589  0.3434  0.2181 -0.1934
 1525SOL    HW116034   3.357   3.762   4.598 -0.0033  0.5292  0.0309
 1525SOL    HW216035   3.307   3.648   4.507 -0.1083 -0.3931  0.0615
 1526SOL     OW16036   2.726   4.441  13.261 -0.1102  0.0487 -0.5025
 1526SOL    HW116037   2.772   4.522  13.282  3.4123 -1.8765 -0.8746
 1526SOL    HW216038   2.703   4.417  13.351  3.1303 -1.7945 -0.1674
 1527SOL     OW16039   4.316   3.298   6.017  0.1907 -0.2775  0.3057
 1527SOL    HW116040   4.335   3.237   5.945  3.7077  0.2993  0.7776
 1527SOL    HW216041   4.335   3.384   5.980 -0.0789  0.6118  2.2460
 1528SOL     OW16042   1.284   2.410   8.577 -0.2944  0.6181 -0.1849
 1528SOL    HW116043   1.194   2.384   8.599  0.5447 -1.7359  0.4499
 1528SOL    HW216044   1.270   2.448   8.490 -0.6238  0.9341  0.0035
 1529SOL     OW16045   4.606   0.438   8.212 -0.0581 -0.2169  0.0003
 1529SOL    HW116046   4.566   0.499   8.149  0.1340  1.2913  1.3489
 1529SOL    HW216047   4.655   0.497   8.269 -0.2487  0.3112 -0.3790
 1530SOL     OW16048   2.592   2.997   2.175 -0.2606  0.7757 -0.1738
 1530SOL    HW116049   2.585   3.093   2.180 -0.2649  0.8045 -0.7564
 1530SOL    HW216050   2.566   2.980   2.085 -0.1600 -0.6591  0.0712
 1531SOL     OW16051   4.278   2.121  15.067  0.7793  0.1704  0.6078
 1531SOL    HW116052   4.206   2.164  15.113  0.3340  0.6217 -0.5167
 1531SOL    HW216053   4.246   2.142  14.979 -0.0497 -0.7267  0.7031
 1532SOL     OW16054   4.186   1.161   0.774 -0.0435  0.0411  0.1223
 1532SOL    HW116055   4.105   1.201   0.743 -0.2766  0.1185  0.8349
 1532SOL    HW216056   4.155   1.116   0.852  0.0802 -0.9023 -0.3679
 1533SOL     OW16057   1.786   1.042   8.016  0.5806 -0.4503 -0.6742
 1533SOL    HW116058   1.762   1.130   8.044  0.7574  0.0938 -2.1878
 1533SOL    HW216059   1.820   1.001   8.096  1.9777 -0.6273 -1.3572
 1534SOL     OW16060   3.839   0.567   8.939  0.0048 -0.1554 -0.2712
 1534SOL    HW116061   3.849   0.635   9.007 -0.4373 -0.5728  0.2112
 1534SOL    HW216062   3.835   0.615   8.857 -0.1325  0.5401  0.1420
 1535SOL     OW16063   3.176   0.592   6.822 -0.0045  0.4852 -1.0801
 1535SOL    HW116064   3.208   0.624   6.737  1.0879  0.8444 -0.5445
 1535SOL    HW216065   3.229   0.517   6.849 -2.1598 -0.6022  0.1104
 1536SOL     OW16066   1.719   3.264   6.190  0.4133 -0.4702  0.1595
 1536SOL    HW116067   1.664   3.303   6.258  0.3372  0.9486 -0.7234
 1536SOL    HW216068   1.705   3.170   6.198 -0.5060 -0.5333 -2.1167
 1537SOL     OW16069   3.943   0.134  14.244  0.9270 -0.3647  0.0537
 1537SOL    HW116070   3.873   0.133  14.309  0.6862 -0.8694 -0.2066
 1537SOL    HW216071   3.924   0.052  14.198  0.3625 -0.4055  0.3580
 1538SOL     OW16072   0.806   3.153   2.223  0.0422 -0.2354 -0.2484
 1538SOL    HW116073   0.824   3.072   2.272  0.7965  0.1757  0.1566
 1538SOL    HW216074   0.896   3.170   2.197 -0.4849 -1.3829 -2.7810
 1539SOL     OW16075   1.707   1.704   7.583 -0.0960 -0.3335  0.0233
 1539SOL    HW116076   1.731   1.611   7.590 -1.7347 -0.7634  0.0040
 1539SOL    HW216077   1.790   1.748   7.598 -0.0825 -0.9475  1.7443
 1540SOL     OW16078   3.741   1.851   5.057 -0.5531  0.4607 -1.0575
 1540SOL    HW116079   3.770   1.831   4.968  1.1027 -1.3910 -0.1076
 1540SOL    HW216080   3.743   1.763   5.093 -0.8844  0.1367 -1.8459
 1541SOL     OW16081   1.200   2.181   1.715  0.1145 -0.0387  0.3483
 1541SOL    HW116082   1.109   2.152   1.712  0.1720 -0.2073  0.2564
 1541SOL    HW216083   1.180   2.274   1.708  1.5562  0.3630  1.4044
 1542SOL     OW16084   0.804   1.559   3.484  0.0014  0.4891 -0.1628
 1542SOL    HW116085   0.844   1.636   3.527 -0.0144  1.2518 -1.5163
 1542SOL    HW216086   0.780   1.602   3.402  0.1922  1.2285  0.1606
 1543SOL     OW16087   2.094   2.432   2.481 -0.1153  0.2205  0.5238
 1543SOL    HW116088   2.045   2.350   2.478  0.7060 -0.1801 -2.4040
 1543SOL    HW216089   2.177   2.395   2.511  0.2613 -1.0986 -2.1679
 1544SOL     OW16090   0.053   4.233   6.024 -0.1954  0.2335  0.0827
 1544SOL    HW116091   0.027   4.173   6.094  0.1813 -0.5407 -0.4458
 1544SOL    HW216092   4.695   4.286   6.010  0.6112  0.9604 -1.7271
 1545SOL     OW16093   2.703   2.871  10.262 -0.2424  0.0251  0.2097
 1545SOL    HW116094   2.682   2.963  10.276  1.1100  0.6217 -1.6642
 1545SOL    HW216095   2.637   2.841  10.199  1.5671  0.4052 -1.8948
 1546SOL     OW16096   4.380   2.217  13.704 -0.2701  0.3288  0.4432
 1546SOL    HW116097   4.418   2.164  13.774  0.6100 -1.3602 -1.3312
 1546SOL    HW216098   4.337   2.289  13.750  1.1475  0.5915  1.3538
 1547SOL     OW16099   2.378   0.263   5.762 -0.1945  0.1972 -0.2699
 1547SOL    HW116100   2.460   0.242   5.806  1.6102  1.7110 -2.9074
 1547SOL    HW216101   2.342   0.336   5.812 -0.1410 -1.0310  1.5345
 1548SOL     OW16102   1.354   2.588  13.798 -0.2157  0.6956  0.1449
 1548SOL    HW116103   1.299   2.535  13.740  1.6359  1.1053 -1.9607
 1548SOL    HW216104   1.345   2.540  13.880 -0.9897  0.7881  0.1208
 1549SOL     OW16105   0.128   0.577   8.052 -0.2067 -0.4971  0.2767
 1549SOL    HW116106   0.073   0.595   7.976  0.3293  0.0972  0.0325
 1549SOL    HW216107   0.096   0.645   8.112  1.6067 -0.7282  1.4848
 1550SOL     OW16108   1.873   0.620  14.885 -0.4258  0.1653 -0.3019
 1550SOL    HW116109   1.927   0.678  14.831 -1.4327  1.3956 -0.0078
 1550SOL    HW216110   1.899   0.660  14.968  0.2270 -2.3646  0.6938
 1551SOL     OW16111   3.349   3.164   3.808  0.3031  0.1982  0.0754
 1551SOL    HW116112   3.390   3.110   3.740 -1.0219 -0.4047 -0.2637
 1551SOL    HW216113   3.322   3.095   3.868  0.6100  0.3044  0.3352
 1552SOL     OW16114   0.926   2.772   5.635  0.3481 -0.0956 -0.9278
 1552SOL    HW116115   0.876   2.839   5.588 -0.5222  1.0736  1.6416
 1552SOL    HW216116   0.858   2.737   5.692  1.4099  1.2363  1.1364
 1553SOL     OW16117   2.596   1.473   8.349 -0.1047  0.6325 -0.5376
 1553SOL    HW116118   2.610   1.567   8.355  1.5689  0.2493  1.6546
 1553SOL    HW216119   2.559   1.465   8.261  2.1295 -2.2824 -1.1926
 1554SOL     OW16120   0.396   4.475   8.506 -0.4045 -0.1588  0.3387
 1554SOL    HW116121   0.395   4.411   8.577  0.0632 -0.7781 -0.2094
 1554SOL    HW216122   0.303   4.497   8.503 -0.1457  0.5163 -2.2633
 1555SOL     OW16123   2.839   0.672   8.417  0.3969 -0.0281 -0.3291
 1555SOL    HW116124   2.885   0.754   8.432  0.1589 -0.0092  0.3073
 1555SOL    HW216125   2.775   0.707   8.354  0.1527  0.3074  0.1097
 1556SOL     OW16126   3.156   0.697   5.630  0.1777  0.6718  0.1103
 1556SOL    HW116127   3.245   0.715   5.660  0.5562 -4.0751  1.9800
 1556SOL    HW216128   3.154   0.758   5.557  1.2578  0.2450 -0.2696
 1557SOL     OW16129   2.422   1.995   6.794  0.1512  0.2842  0.1986
 1557SOL    HW116130   2.491   2.061   6.807  0.1269  0.5270 -0.9035
 1557SOL    HW216131   2.353   2.009   6.859  0.3124 -1.9921  0.8714
 1558SOL     OW16132   1.889   0.204   5.442 -0.1243 -0.3185  0.0193
 1558SOL    HW116133   1.843   0.243   5.517 -0.2694  1.1248 -0.8183
 1558SOL    HW216134   1.857   0.257   5.369 -1.3468 -1.8814 -0.5627
 1559SOL     OW16135   0.224   3.935   7.324  0.9522  0.6495 -0.5477
 1559SOL    HW116136   0.133   3.953   7.348  0.3526 -1.1243 -1.5544
 1559SOL    HW216137   0.261   4.023   7.338  1.4859  0.0400  1.9366
 1560SOL     OW16138   0.849   3.839   6.579 -0.1865 -0.3520  0.2803
 1560SOL    HW116139   0.943   3.838   6.597  0.3792 -3.6677 -2.9067
 1560SOL    HW216140   0.845   3.904   6.509 -0.6492  2.7008  3.1427
 1561SOL     OW16141   1.992   2.384   3.254 -0.3997  0.0364 -0.1409
 1561SOL    HW116142   2.024   2.422   3.336 -1.3846 -1.0231  0.7336
 1561SOL    HW216143   2.009   2.457   3.195  0.6303  0.6618  0.9144
 1562SOL     OW16144   4.216   0.635  13.419  0.5246 -0.3849 -0.6910
 1562SOL    HW116145   4.234   0.599  13.506 -0.6180 -0.8849 -0.6702
 1562SOL    HW216146   4.282   0.705  13.423  0.1632  0.0308 -2.0841
 1563SOL     OW16147   4.700   1.067   6.081  0.2693 -0.3095  0.6011
 1563SOL    HW116148   4.647   1.057   6.002  0.9225 -0.5553  0.1888
 1563SOL    HW216149   4.642   1.135   6.115 -0.6364  0.0777 -1.6711
 1564SOL     OW16150   0.812   0.267   2.082  0.2322  0.3287  0.2625
 1564SOL    HW116151   0.872   0.204   2.043 -0.1238  0.7670 -1.0054
 1564SOL    HW216152   0.829   0.254   2.175 -1.1417 -0.6966  0.3740
 1565SOL     OW16153   1.152   4.490  13.949 -0.1639 -0.7172 -0.4886
 1565SOL    HW116154   1.056   4.491  13.944 -0.3069 -1.1347  2.4241
 1565SOL    HW216155   1.171   4.465  13.858  1.4460  1.0291 -0.6114
 1566SOL     OW16156   2.836   3.872   5.157 -0.3310 -0.4854  0.1057
 1566SOL    HW116157   2.874   3.932   5.093  0.7826  0.9268  2.0590
 1566SOL    HW216158   2.742   3.887   5.147  0.1447  2.3076 -0.3453
 1567SOL     OW16159   0.044   4.171   1.576 -0.7492  0.2717  0.5065
 1567SOL    HW116160   4.694   4.235   1.571 -0.6583  0.2291 -1.3686
 1567SOL    HW216161   4.706   4.106   1.615  0.6328 -0.6629  1.0485
 1568SOL     OW16162   2.484   2.734  16.819  0.3325 -0.4533 -0.3585
 1568SOL    HW116163   2.489   2.639  16.827 -0.5907 -0.4710  0.1012
 1568SOL    HW216164   2.435   2.747  16.737 -0.6043  0.8193  0.4029
 1569SOL     OW16165   1.375   2.746   7.967 -0.1077 -0.2593  0.5268
 1569SOL    HW116166   1.292   2.739   8.014 -0.8812 -1.7558 -1.0621
 1569SOL    HW216167   1.361   2.689   7.891  1.4676  2.4114 -1.7799
 1570SOL     OW16168   0.488   3.661   5.540  0.2746  0.1221  0.4295
 1570SOL    HW116169   0.556   3.678   5.474 -1.8521  2.5225 -1.1383
 1570SOL    HW216170   0.435   3.740   5.543  0.3315  0.1872 -0.4222
 1571SOL     OW16171   3.355   0.434   7.659 -0.2151 -0.3888  0.4638
 1571SOL    HW116172   3.341   0.494   7.732 -1.0307  0.4190 -0.3395
 1571SOL    HW216173   3.440   0.462   7.624 -0.1648 -1.6557 -0.4267
 1572SOL     OW16174   1.470   0.547   0.185 -0.1457 -0.0444  0.3147
 1572SOL    HW116175   1.428   0.596   0.114  0.3208 -2.5406 -1.6836
 1572SOL    HW216176   1.458   0.600   0.264 -2.2350 -0.0549  0.0095
 1573SOL     OW16177   1.931   2.584   8.217 -0.2902  0.4377  0.4664
 1573SOL    HW116178   1.935   2.514   8.153  0.7607  1.3559 -0.4762
 1573SOL    HW216179   2.023   2.594   8.243 -0.3735 -0.1119  0.9737
 1574SOL     OW16180   2.358   1.700   9.130 -0.0479 -0.0170  0.0321
 1574SOL    HW116181   2.381   1.642   9.203 -0.9428 -1.6908 -1.0251
 1574SOL    HW216182   2.326   1.642   9.062  0.1430  0.0951 -0.1542
 1575SOL     OW16183   1.922   2.557   5.473 -0.3436  0.8008  0.1544
 1575SOL    HW116184   1.973   2.636   5.491  1.7893  0.0199 -2.5275
 1575SOL    HW216185   1.857   2.573   5.542 -0.6990 -2.3697  0.5754
 1576SOL     OW16186   1.073   0.703  12.844  0.5445  0.6579 -0.5419
 1576SOL    HW116187   1.156   0.741  12.871  0.5506  0.0346  0.3437
 1576SOL    HW216188   1.103   0.613  12.827 -3.2568 -1.1706  2.4241
 1577SOL     OW16189   4.580   2.118  17.601  0.0799  0.1704 -0.2870
 1577SOL    HW116190   4.514   2.187  17.609 -1.1552 -1.5033  4.3383
 1577SOL    HW216191   4.637   2.151  17.671 -1.0871 -2.0854  1.7699
 1578SOL     OW16192   3.831   1.021   4.136  0.0336  0.1976 -0.2080
 1578SOL    HW116193   3.788   0.957   4.080 -0.4085  0.2502  0.0774
 1578SOL    HW216194   3.775   1.098   4.129 -2.7645 -2.0165 -2.2931
 1579SOL     OW16195   0.601   3.592   0.846 -0.1085  0.2772 -0.6003
 1579SOL    HW116196   0.545   3.668   0.828 -1.2849 -0.0488  1.7615
 1579SOL    HW216197   0.685   3.635   0.830 -0.1363  0.3766 -0.4761
 1580SOL     OW16198   3.389   3.300   6.455  0.0323  0.1315  0.2109
 1580SOL    HW116199   3.305   3.270   6.490  1.4590 -2.4776  1.3599
 1580SOL    HW216200   3.442   3.223   6.435  1.6518  1.6461 -1.4253
 1581SOL     OW16201   4.110   4.404   2.742 -0.2328 -0.0174 -0.1057
 1581SOL    HW116202   4.034   4.458   2.723  0.6754  0.4642 -2.2492
 1581SOL    HW216203   4.080   4.378   2.830 -1.1696 -1.8183 -0.9563
 1582SOL     OW16204   2.870   4.073   8.861 -0.5811  0.0202 -0.5750
 1582SOL    HW116205   2.822   4.019   8.924 -0.3075  1.6925  1.0773
 1582SOL    HW216206   2.952   4.024   8.865  0.2807  1.5356  0.2996
 1583SOL     OW16207   4.076   0.575   9.909  0.0185  0.4732  0.3960
 1583SOL    HW116208   4.124   0.602   9.987 -0.4362  1.1256  0.4474
 1583SOL    HW216209   4.086   0.482   9.926  0.8477  0.2045 -1.4370
 1584SOL     OW16210   0.624   3.610  12.209  0.3791 -0.5241  0.2608
 1584SOL    HW116211   0.702   3.632  12.157  1.8269 -3.8223  1.0106
 1584SOL    HW216212   0.561   3.678  12.187 -0.3214 -1.2426  0.0518
 1585SOL     OW16213   1.408   2.735   6.561 -0.0627 -0.0176 -0.1155
 1585SOL    HW116214   1.490   2.701   6.597 -0.5760  1.6452  2.5718
 1585SOL    HW216215   1.386   2.674   6.490 -1.2872 -0.4010  0.5816
 1586SOL     OW16216   2.068   3.609   0.979  0.7559  0.2693 -0.0419
 1586SOL    HW116217   1.999   3.643   0.923 -0.5109 -0.3526  1.1253
 1586SOL    HW216218   2.136   3.675   0.963  0.4514  0.7946  0.8201
 1587SOL     OW16219   3.128   2.095  15.988 -0.1152 -0.0050  0.0938
 1587SOL    HW116220   3.121   2.028  16.056  1.7433  0.3934  0.6720
 1587SOL    HW216221   3.209   2.062  15.950 -0.4677 -0.4587 -0.2501
 1588SOL     OW16222   1.468   4.173  12.506 -0.2509 -0.3770 -0.6726
 1588SOL    HW116223   1.476   4.194  12.413  2.7162 -0.3450 -0.4358
 1588SOL    HW216224   1.557   4.144  12.526 -0.1490  0.0601 -0.4919
 1589SOL     OW16225   3.583   2.098  12.124 -0.0918 -0.5962  0.4991
 1589SOL    HW116226   3.613   2.184  12.095 -0.2313 -1.2411 -1.4959
 1589SOL    HW216227   3.580   2.109  12.219 -1.0735  2.2678  0.1452
 1590SOL     OW16228   2.495   1.854   1.431 -0.0315 -0.3992 -0.5497
 1590SOL    HW116229   2.545   1.775   1.410 -2.1208 -1.6325 -0.8468
 1590SOL    HW216230   2.557   1.886   1.497  0.2475 -1.6115 -0.2200
 1591SOL     OW16231   3.795   0.525   4.134  0.3243 -0.0518 -0.1514
 1591SOL    HW116232   3.802   0.498   4.225  0.6834 -0.6110 -0.3428
 1591SOL    HW216233   3.849   0.463   4.085  1.5651  0.3059  0.7649
 1592SOL     OW16234   0.172   0.175  17.035 -0.5886  0.5015 -0.2940
 1592SOL    HW116235   0.209   0.116  16.969 -1.1634  0.4352 -0.5578
 1592SOL    HW216236   0.227   0.253  17.036 -0.2118  0.2229  0.5205
 1593SOL     OW16237   3.247   0.875   7.792 -0.1142  0.2821 -0.3172
 1593SOL    HW116238   3.171   0.817   7.799  1.2800 -1.4724  0.3513
 1593SOL    HW216239   3.232   0.931   7.868 -1.4933  0.1716 -0.4981
 1594SOL     OW16240   3.502   1.218   4.975  0.1146 -0.5802  0.1006
 1594SOL    HW116241   3.414   1.207   5.011  0.5445 -2.1309  0.6760
 1594SOL    HW216242   3.541   1.131   4.977  0.1109 -0.5746  0.3489
 1595SOL     OW16243   1.445   3.741  13.378 -0.0781 -0.0460  0.6463
 1595SOL    HW116244   1.520   3.684  13.361 -1.3389 -1.5432  0.0439
 1595SOL    HW216245   1.382   3.719  13.309  2.1875  0.5071 -1.6066
 1596SOL     OW16246   2.740   2.791   4.334 -0.3062 -0.4252 -0.7487
 1596SOL    HW116247   2.662   2.843   4.353 -0.3499 -1.3675  1.6736
 1596SOL    HW216248   2.746   2.743   4.417 -0.3699  1.4779  0.3621
 1597SOL     OW16249   2.571   1.898   5.828 -0.1809 -0.4817  0.3051
 1597SOL    HW116250   2.563   1.927   5.737 -0.7202 -2.0399 -0.1466
 1597SOL    HW216251   2.494   1.947   5.858  0.7566  0.9232  0.4496
 1598SOL     OW16252   2.658   3.476  15.778  0.4777 -0.5006 -0.1365
 1598SOL    HW116253   2.689   3.553  15.730  2.4448 -2.1588 -1.5520
 1598SOL    HW216254   2.608   3.425  15.714  0.2834 -2.6791  1.7595
 1599SOL     OW16255   4.011   3.420   0.180  0.0498  0.4287 -0.5216
 1599SOL    HW116256   3.921   3.408   0.209  1.8050  0.7181  5.0000
 1599SOL    HW216257   4.051   3.428   0.266 -2.2331  1.4079  0.4465
 1600SOL     OW16258   0.429   2.575   5.556 -0.0336 -0.3415  0.1471
 1600SOL    HW116259   0.515   2.610   5.533 -0.0108  0.5796  1.6340
 1600SOL    HW216260   0.392   2.537   5.477  0.8690 -2.9541  0.9986
 1601SOL     OW16261   2.073   0.315  15.703 -0.8211 -0.2825 -0.3047
 1601SOL    HW116262   2.039   0.304  15.614 -1.3661 -0.8721 -0.0241
 1601SOL    HW216263   2.143   0.377  15.683 -0.2899 -0.6774  0.3132
 1602SOL     OW16264   3.003   0.453  10.482 -0.8076 -0.0463  0.7048
 1602SOL    HW116265   2.981   0.380  10.540 -1.4098 -1.5107 -1.3573
 1602SOL    HW216266   3.094   0.437  10.458 -0.6269  0.4602  1.0556
 1603SOL     OW16267   3.267   4.421  15.635  0.1079  0.2320 -0.3407
 1603SOL    HW116268   3.200   4.416  15.567 -0.8671 -0.9776  0.7098
 1603SOL    HW216269   3.228   4.474  15.704  0.8743  2.2768 -1.4747
 1604SOL     OW16270   2.198   0.097   3.473 -0.2887 -0.9731 -0.3476
 1604SOL    HW116271   2.217   0.186   3.504  0.6643 -1.1969 -0.2873
 1604SOL    HW216272   2.278   0.066   3.431  0.8477 -0.6214  1.5982
 1605SOL     OW16273   0.041   3.242   2.234 -0.1687  0.2023 -0.4162
 1605SOL    HW116274   0.098   3.185   2.286 -1.4304 -1.4107 -0.7807
 1605SOL    HW216275   0.093   3.254   2.155  2.2667  0.3204  1.2121
 1606SOL     OW16276   3.851   2.281  12.144  0.6064 -0.6351  0.0815
 1606SOL    HW116277   3.806   2.216  12.198  0.3546  1.2143  2.0932
 1606SOL    HW216278   3.853   2.359  12.200 -0.2667  0.2586 -1.1340
 1607SOL     OW16279   2.070   4.192   3.639 -0.3374 -0.2880 -0.0598
 1607SOL    HW116280   2.005   4.162   3.575  0.6090 -1.4040 -0.5051
 1607SOL    HW216281   2.041   4.283   3.650 -0.8173 -0.5067  0.4942
 1608SOL     OW16282   2.161   3.591   6.274  1.0310 -0.5847 -0.1720
 1608SOL    HW116283   2.155   3.600   6.178 -1.3811  3.9958  0.3793
 1608SOL    HW216284   2.196   3.678   6.295 -0.1177 -0.6860  2.1339
 1609SOL     OW16285   3.551   3.748   3.565 -0.3467  0.2441 -0.1656
 1609SOL    HW116286   3.582   3.792   3.485 -0.0530  1.5732  0.6713
 1609SOL    HW216287   3.624   3.748   3.627 -1.5302  0.9133  1.2177
 1610SOL     OW16288   0.645   0.109   6.981 -0.1246 -0.7313 -0.5364
 1610SOL    HW116289   0.614   0.165   7.052 -2.3301 -0.5660 -1.6269
 1610SOL    HW216290   0.578   0.042   6.979 -1.6620  0.7016  3.3127
 1611SOL     OW16291   1.438   1.240   3.024 -0.8628  0.2378 -0.2136
 1611SOL    HW116292   1.461   1.291   2.946 -0.9773  2.1209  0.9909
 1611SOL    HW216293   1.357   1.288   3.041 -1.8291 -1.5961  0.2607
 1612SOL     OW16294   1.225   0.088   8.691  0.4796  0.0911 -0.0038
 1612SOL    HW116295   1.304   0.071   8.743  0.2719 -0.1758  0.2255
 1612SOL    HW216296   1.202   4.716   8.683 -0.5144  0.3614 -0.1877
 1613SOL     OW16297   2.812   1.099   6.041 -0.1032  0.1165 -0.3929
 1613SOL    HW116298   2.836   1.158   6.113  1.4142  1.6727 -2.1723
 1613SOL    HW216299   2.836   1.016   6.083 -0.5220  1.9988  3.5942
 1614SOL     OW16300   2.362   0.465  14.041 -0.3077 -0.3467 -0.3141
 1614SOL    HW116301   2.271   0.445  14.022  0.4910 -3.1136 -1.3492
 1614SOL    HW216302   2.399   0.409  13.972 -0.5649  0.4828 -1.1238
 1615SOL     OW16303   2.148   0.034  13.622 -0.5416 -0.9730 -0.4429
 1615SOL    HW116304   2.203   0.071  13.691 -0.8875 -0.2371 -0.5694
 1615SOL    HW216305   2.179   4.665  13.611 -0.2929 -1.2469  2.3461
 1616SOL     OW16306   4.395   0.016   2.503  0.3218  0.1050  0.4658
 1616SOL    HW116307   4.301   0.011   2.487  0.4518  0.6288 -0.4190
 1616SOL    HW216308   4.432   0.042   2.419 -1.0601  1.0449  0.1438
 1617SOL     OW16309   2.980   1.956   3.634 -0.2832 -0.4947  0.3089
 1617SOL    HW116310   3.072   1.932   3.621 -0.3743 -0.8825  0.3836
 1617SOL    HW216311   2.943   1.876   3.670  0.1113 -1.3512 -1.2286
 1618SOL     OW16312   0.461   1.890   2.574  0.7059  0.1768  0.3720
 1618SOL    HW116313   0.432   1.947   2.502  0.9465  1.0775  0.9919
 1618SOL    HW216314   0.387   1.895   2.634  0.2197 -0.1430 -0.1921
 1619SOL     OW16315   1.585   0.571   7.616 -0.2745  0.3960  0.3188
 1619SOL    HW116316   1.617   0.659   7.635 -0.7361  1.0422 -1.7991
 1619SOL    HW216317   1.591   0.525   7.700 -1.3727  0.0345  0.2044
 1620SOL     OW16318   2.384   0.838   7.177 -0.0595 -0.3133  0.2470
 1620SOL    HW116319   2.423   0.817   7.262 -2.2541 -2.9581  0.6180
 1620SOL    HW216320   2.464   0.861   7.130 -1.6072  2.1484 -1.1742
 1621SOL     OW16321   3.699   4.330   4.591  0.1150  0.1214 -0.4372
 1621SOL    HW116322   3.702   4.286   4.676  1.4075  2.0884  0.5395
 1621SOL    HW216323   3.767   4.277   4.550  2.3521  0.8626  2.3168
 1622SOL     OW16324   2.633   1.863   3.436 -0.2154 -0.4100 -0.2685
 1622SOL    HW116325   2.707   1.925   3.438  0.4199 -1.1791  0.4376
 1622SOL    HW216326   2.674   1.785   3.399 -1.1312 -0.3712 -1.3349
 1623SOL     OW16327   3.747   0.570   7.167  0.3420 -0.0629  1.0705
 1623SOL    HW116328   3.794   0.630   7.109 -2.1615 -0.0463 -0.9252
 1623SOL    HW216329   3.754   0.628   7.244 -1.8885 -0.9844  1.9502
 1624SOL     OW16330   1.630   1.390  15.932 -0.1691  0.1801 -0.4815
 1624SOL    HW116331   1.682   1.310  15.927 -1.8998 -0.8133 -2.6251
 1624SOL    HW216332   1.656   1.422  16.018 -1.2966 -2.8312  0.9697
 1625SOL     OW16333   1.566   1.312   7.952  0.3351  0.2511 -0.5823
 1625SOL    HW116334   1.569   1.297   7.858 -0.2214  1.2541 -0.7585
 1625SOL    HW216335   1.511   1.390   7.957  1.8164  1.2011  1.1085
 1626SOL     OW16336   4.353   2.815   8.831  0.1442  0.0150 -0.2184
 1626SOL    HW116337   4.297   2.802   8.907 -1.4136  2.8680 -0.8699
 1626SOL    HW216338   4.416   2.870   8.877 -1.5898  1.2373  0.7388
 1627SOL     OW16339   3.444   2.743   8.566  0.5521  0.1690 -0.3749
 1627SOL    HW116340   3.451   2.771   8.657 -1.9022 -0.5474  0.0181
 1627SOL    HW216341   3.349   2.751   8.558  0.7488 -0.5923 -3.3507
 1628SOL     OW16342   3.329   2.529   0.026 -0.1323 -0.2240  0.2859
 1628SOL    HW116343   3.394   2.514   0.095 -0.7058 -1.3749  0.5703
 1628SOL    HW216344   3.356   2.463  17.648 -0.6745  0.3647 -0.5515
 1629SOL     OW16345   2.262   1.697   7.426  0.1682 -0.0477 -0.4376
 1629SOL    HW116346   2.222   1.667   7.345 -0.7624 -1.0360  0.3856
 1629SOL    HW216347   2.198   1.654   7.482  1.2054 -2.1424 -0.8851
 1630SOL     OW16348   2.029   2.689  11.700 -0.6192  0.4568 -0.4661
 1630SOL    HW116349   2.081   2.658  11.774  0.7217 -0.2854 -1.7207
 1630SOL    HW216350   2.092   2.729  11.641 -0.2133 -0.1362 -0.4329
 1631SOL     OW16351   2.118   0.530   8.838 -0.1919 -0.0563 -0.1079
 1631SOL    HW116352   2.164   0.570   8.913 -0.0844 -2.0138  0.8587
 1631SOL    HW216353   2.148   0.580   8.762  1.6482  0.8501  1.1924
 1632SOL     OW16354   1.763   3.893   8.217 -0.4007 -0.6521  0.2698
 1632SOL    HW116355   1.778   3.914   8.124 -1.4576 -1.7958 -0.1563
 1632SOL    HW216356   1.674   3.927   8.226 -0.8598 -1.4477 -1.2122
 1633SOL     OW16357   3.303   0.324  13.243  0.5237 -0.3302  0.0760
 1633SOL    HW116358   3.384   0.361  13.278 -2.1944  2.2479  3.5386
 1633SOL    HW216359   3.345   0.262  13.182 -0.4320 -1.0501  0.1509
 1634SOL     OW16360   0.783   1.075   0.408 -0.0530  0.3622  0.8095
 1634SOL    HW116361   0.765   1.165   0.435 -0.4883  0.1621  1.1790
 1634SOL    HW216362   0.824   1.038   0.486  0.7099  0.0559  0.2566
 1635SOL     OW16363   2.040   1.769   9.577 -0.1964  0.5325 -0.1281
 1635SOL    HW116364   2.114   1.826   9.553  0.8221 -1.1755 -1.0058
 1635SOL    HW216365   2.064   1.733   9.663 -0.3521 -0.8639 -0.6728
 1636SOL     OW16366   0.310   2.186   8.687  0.2796  0.0355 -0.0712
 1636SOL    HW116367   0.373   2.222   8.749  1.0831 -0.9187 -0.3282
 1636SOL    HW216368   0.267   2.264   8.651  0.2955  1.0351  2.0990
 1637SOL     OW16369   1.789   4.247   2.455  0.3077  0.1563 -0.6946
 1637SOL    HW116370   1.700   4.216   2.474  0.3934  0.3084 -0.0555
 1637SOL    HW216371   1.805   4.232   2.362  2.2092 -1.0680 -0.1600
 1638SOL     OW16372   3.157   2.706   4.048 -0.0958  0.3464  0.3120
 1638SOL    HW116373   3.096   2.678   4.117 -2.0733  3.0721 -0.3104
 1638SOL    HW216374   3.220   2.744   4.110 -0.5715  0.5821  0.6546
 1639SOL     OW16375   2.637   3.460   4.714 -0.7585 -0.2903  0.9881
 1639SOL    HW116376   2.562   3.423   4.667 -1.1659 -0.0640  1.4504
 1639SOL    HW216377   2.596   3.507   4.788  1.4715 -1.0053  2.6688
 1640SOL     OW16378   0.835   4.163   6.490  0.0991 -0.3726 -0.6111
 1640SOL    HW116379   0.908   4.139   6.548  1.4978  1.0025 -1.8104
 1640SOL    HW216380   0.871   4.138   6.405  0.2186 -1.9656 -0.0920
 1641SOL     OW16381   2.559   4.103  17.628  0.1687 -0.1899 -0.4345
 1641SOL    HW116382   2.637   4.095  17.683  0.5949  2.5661 -0.6472
 1641SOL    HW216383   2.493   4.044  17.665  0.2768  0.9942  1.5855
 1642SOL     OW16384   2.464   1.790   7.617  0.0533  0.7189  0.1732
 1642SOL    HW116385   2.387   1.737   7.595 -0.5157  1.7098 -0.2111
 1642SOL    HW216386   2.507   1.786   7.531  0.7980 -2.2406  0.6848
 1643SOL     OW16387   3.760   2.351   4.887 -0.0655 -0.2412  0.0383
 1643SOL    HW116388   3.706   2.375   4.812 -1.1944 -2.1800  0.2148
 1643SOL    HW216389   3.834   2.303   4.850 -0.7303 -0.3973 -1.0970
 1644SOL     OW16390   4.082   0.538   5.017 -0.3539 -0.4710 -0.4765
 1644SOL    HW116391   4.024   0.543   4.941 -1.6590  0.9921  0.6032
 1644SOL    HW216392   4.036   0.489   5.085 -0.9323  1.2670  0.3937
 1645SOL     OW16393   0.192   4.581   5.253 -0.1799 -0.2136 -0.2610
 1645SOL    HW116394   0.233   4.655   5.208  0.0633 -0.2130 -0.0375
 1645SOL    HW216395   0.192   4.512   5.187  1.0801 -1.3810  0.9806
 1646SOL     OW16396   4.445   2.811  12.528 -0.2667  0.7844 -0.1242
 1646SOL    HW116397   4.388   2.881  12.497  2.0363  2.0083 -1.5590
 1646SOL    HW216398   4.461   2.765  12.445 -0.3644 -1.5421  1.1501
 1647SOL     OW16399   2.346   3.304   6.425  0.2692  0.9057  0.2186
 1647SOL    HW116400   2.380   3.219   6.453 -0.6022  0.7734  0.8823
 1647SOL    HW216401   2.397   3.318   6.345  0.7088 -2.2054 -0.0489
 1648SOL     OW16402   4.179   2.821   7.732 -0.0844  0.0984  0.0595
 1648SOL    HW116403   4.167   2.885   7.662 -0.8048 -0.9953 -0.8295
 1648SOL    HW216404   4.253   2.766   7.705 -0.4960  0.3550 -1.5874
 1649SOL     OW16405   0.108   3.531   4.253  0.2707  0.3082 -0.3392
 1649SOL    HW116406   0.020   3.557   4.224  0.4596  0.0850 -1.0969
 1649SOL    HW216407   0.099   3.438   4.270  0.8480  0.3284  0.0864
 1650SOL     OW16408   1.072   3.471   0.374 -0.0932  0.2364  0.4347
 1650SOL    HW116409   1.074   3.424   0.457 -1.3992  0.6123  0.6827
 1650SOL    HW216410   1.055   3.561   0.402 -0.0418 -0.0382  1.3396
 1651SOL     OW16411   0.570   2.584   7.174 -0.4566 -0.2271 -0.2225
 1651SOL    HW116412   0.602   2.495   7.183 -0.6824 -0.4989 -2.1122
 1651SOL    HW216413   0.518   2.591   7.255 -0.8364 -1.6983 -0.3389
 1652SOL     OW16414   2.807   4.452   5.691 -0.2414  0.2677  0.0246
 1652SOL    HW116415   2.848   4.368   5.673  2.3280  0.9467  2.6836
 1652SOL    HW216416   2.803   4.491   5.603 -0.8989 -1.0453 -0.5263
 1653SOL     OW16417   4.500   1.605   4.289 -0.1472 -0.2378  0.2116
 1653SOL    HW116418   4.512   1.544   4.217 -0.1911 -1.4542  1.2427
 1653SOL    HW216419   4.511   1.686   4.239  0.5784 -1.3952 -1.4920
 1654SOL     OW16420   0.356   1.103   6.844  0.3929 -0.5460 -0.1628
 1654SOL    HW116421   0.381   1.047   6.771 -2.9728 -1.0518 -0.8957
 1654SOL    HW216422   0.277   1.058   6.873  1.9798 -1.7458  2.3407
 1655SOL     OW16423   0.096   0.325   3.057  0.5280 -0.1207 -0.3632
 1655SOL    HW116424   0.101   0.231   3.042  0.4392 -0.0869 -0.5972
 1655SOL    HW216425   0.169   0.361   3.007 -1.8123  2.1532 -2.1516
 1656SOL     OW16426   4.674   4.406  12.475 -0.4730 -0.7070  0.1619
 1656SOL    HW116427   4.619   4.379  12.548 -0.2233 -0.5405  0.4107
 1656SOL    HW216428   4.612   4.452  12.417  1.1320  1.9781  0.5525
 1657SOL     OW16429   4.323   2.405   7.337  0.0357  0.2920 -0.1562
 1657SOL    HW116430   4.383   2.361   7.397  1.3306  0.0192 -1.6520
 1657SOL    HW216431   4.242   2.428   7.383 -1.6175 -3.0182 -1.3863
 1658SOL     OW16432   1.386   3.932   9.877 -0.0739 -0.2498 -0.4618
 1658SOL    HW116433   1.465   3.891   9.914  0.6627  0.3482 -1.3583
 1658SOL    HW216434   1.354   3.964   9.960  1.6457  2.5372 -0.8769
 1659SOL     OW16435   4.228   0.757  15.681 -0.0133 -0.3323 -0.0333
 1659SOL    HW116436   4.200   0.848  15.668 -0.6503 -0.7461 -1.5584
 1659SOL    HW216437   4.150   0.727  15.728  0.7622  0.4460  1.7292
 1660SOL     OW16438   2.668   3.248   2.138  0.0566 -0.1536 -0.5384
 1660SOL    HW116439   2.759   3.233   2.113  0.4978  2.0130 -0.2269
 1660SOL    HW216440   2.658   3.330   2.089  0.1824 -0.0125 -0.3284
 1661SOL     OW16441   4.027   0.835   0.900 -0.0708  0.1972 -0.2234
 1661SOL    HW116442   3.987   0.828   0.813  1.2075 -0.3281 -0.7625
 1661SOL    HW216443   4.012   0.927   0.923  1.8564 -0.0464  1.9977
 1662SOL     OW16444   4.052   1.138  12.774 -0.1123  0.1964 -0.1880
 1662SOL    HW116445   4.060   1.110  12.683 -0.7345  3.8699 -1.3929
 1662SOL    HW216446   4.133   1.094  12.800 -0.0064  0.8403  0.5831
 1663SOL     OW16447   1.973   1.348   8.183 -0.2517 -0.4376 -0.0137
 1663SOL    HW116448   1.878   1.335   8.189 -0.4335  0.0513 -1.9877
 1663SOL    HW216449   1.981   1.441   8.164  0.3485 -0.6059 -0.5731
 1664SOL     OW16450   4.280   4.606  14.657 -0.4949 -0.5586 -0.3469
 1664SOL    HW116451   4.306   4.521  14.620 -1.9394 -0.5420 -1.3905
 1664SOL    HW216452   4.210   4.636  14.600  0.5382  1.2736 -0.6508
 1665SOL     OW16453   3.241   0.994   0.326 -0.4759 -0.4837 -0.3233
 1665SOL    HW116454   3.149   1.022   0.325 -0.9216 -1.8851  1.7235
 1665SOL    HW216455   3.267   0.987   0.418  0.8378  1.5833 -0.5469
 1666SOL     OW16456   2.910   3.985   8.266  0.0899 -0.2977  0.1469
 1666SOL    HW116457   2.862   4.066   8.251 -2.5677 -1.1461  3.9355
 1666SOL    HW216458   2.851   3.949   8.333 -1.0898  1.1628 -0.1105
 1667SOL     OW16459   2.586   3.438  10.354  0.3452 -0.1011  0.0650
 1667SOL    HW116460   2.573   3.496  10.428  3.6933  1.5137 -0.6616
 1667SOL    HW216461   2.679   3.446  10.336  0.0759  1.2764 -0.7012
 1668SOL     OW16462   4.016   2.372  10.625  0.2898  0.1795 -0.6797
 1668SOL    HW116463   3.934   2.419  10.621 -0.1311 -0.4144  1.0184
 1668SOL    HW216464   3.983   2.283  10.614 -2.0218  0.7649  1.7255
 1669SOL     OW16465   1.087   0.894   3.082  0.1316 -0.1168  0.0355
 1669SOL    HW116466   1.148   0.883   3.154  2.8160  0.8172 -2.0787
 1669SOL    HW216467   1.026   0.962   3.110 -0.3956 -0.1204 -1.0840
 1670SOL     OW16468   2.399   2.544   8.404  0.1489 -0.4445 -0.4338
 1670SOL    HW116469   2.397   2.638   8.422  1.5186 -0.4570 -0.2310
 1670SOL    HW216470   2.442   2.518   8.486  0.1467  0.2261 -0.2166
 1671SOL     OW16471   4.102   4.012  10.759 -0.4389  0.5163 -0.6131
 1671SOL    HW116472   4.117   3.919  10.779  1.2772  1.1594  1.1628
 1671SOL    HW216473   4.011   4.029  10.783 -0.8328  0.4251 -2.0903
 1672SOL     OW16474   4.356   4.004   4.829  0.3039 -0.7278 -0.8205
 1672SOL    HW116475   4.392   3.924   4.790 -2.5690 -1.2289 -2.4929
 1672SOL    HW216476   4.418   4.031   4.896 -1.1923 -0.7127  0.5417
 1673SOL     OW16477   0.854   0.895   5.411  0.3215 -0.1003 -0.2628
 1673SOL    HW116478   0.873   0.977   5.457 -3.0391  1.6543 -1.9688
 1673SOL    HW216479   0.775   0.928   5.367 -0.0741 -0.3856  0.2441
 1674SOL     OW16480   4.606   0.212   2.772 -0.1533  0.3212  0.0180
 1674SOL    HW116481   4.559   0.286   2.809  0.3357  0.7497 -0.2088
 1674SOL    HW216482   4.651   0.249   2.696  1.5845 -0.8883  0.4439
 1675SOL     OW16483   3.432   1.042   7.335  0.1716  0.2974  0.1726
 1675SOL    HW116484   3.421   0.949   7.353 -0.0405  0.4791  0.9713
 1675SOL    HW216485   3.338   1.056   7.330  0.5499  1.8841 -2.6332
 1676SOL     OW16486   2.688   3.267   3.158  0.3108 -0.9087 -0.5013
 1676SOL    HW116487   2.681   3.351   3.111  3.3166 -0.2972  0.1895
 1676SOL    HW216488   2.672   3.297   3.247 -1.2488  3.2480 -2.1401
 1677SOL     OW16489   0.276   4.695   0.865 -0.2614 -0.1164 -0.5256
 1677SOL    HW116490   0.219   4.691   0.943 -1.1920  1.3150 -1.1119
 1677SOL    HW216491   0.276   4.604   0.837 -0.9026 -0.1998 -0.2712
 1678SOL     OW16492   0.172   0.063   3.041 -0.4779 -0.4447 -0.0797
 1678SOL    HW116493   0.191   4.702   3.087  0.4220 -0.0146  0.3145
 1678SOL    HW216494   0.139   0.031   2.957 -1.9860 -1.9807  1.1019
 1679SOL     OW16495   3.901   4.143   5.275  0.0452  0.0974  0.2115
 1679SOL    HW116496   3.943   4.071   5.322 -1.9689  0.2142  2.2219
 1679SOL    HW216497   3.967   4.213   5.278  0.7925 -0.5787 -0.5012
 1680SOL     OW16498   0.615   3.201   3.984 -0.0201 -0.3682  0.1795
 1680SOL    HW116499   0.616   3.146   3.905  3.8376 -1.0360  0.7100
 1680SOL    HW216500   0.602   3.289   3.949  0.8646  0.2731  1.5023
 1681SOL     OW16501   1.644   3.268   5.685 -0.2236  0.8423  0.0146
 1681SOL    HW116502   1.669   3.198   5.745 -0.9619  1.5024  1.1013
 1681SOL    HW216503   1.654   3.343   5.743 -0.2085 -0.0024  1.1160
 1682SOL     OW16504   2.244   2.556  13.040  0.1839  0.5423  0.1644
 1682SOL    HW116505   2.326   2.590  13.003  2.1932 -2.0867  2.2173
 1682SOL    HW216506   2.209   2.509  12.964  2.2881  1.2993 -1.2680
 1683SOL     OW16507   0.018   3.481   3.896  0.0101  0.0457  0.2611
 1683SOL    HW116508   4.697   3.539   3.961 -0.2400  0.8130 -0.5793
 1683SOL    HW216509   4.664   3.424   3.879  0.5307 -1.1440  1.9440
 1684SOL     OW16510   2.671   0.343   4.561 -0.1409  0.6482 -0.1582
 1684SOL    HW116511   2.663   0.268   4.620  0.3005  0.3844 -0.4327
 1684SOL    HW216512   2.696   0.412   4.623 -2.1356  1.5842 -0.3925
 1685SOL     OW16513   4.436   2.280   4.893  0.4631 -0.5908  0.0371
 1685SOL    HW116514   4.384   2.318   4.822 -1.6641 -2.5189  0.5353
 1685SOL    HW216515   4.525   2.281   4.857  1.2191  1.9404  2.0257
 1686SOL     OW16516   2.626   2.663  15.116 -0.2485  0.1368  0.4202
 1686SOL    HW116517   2.673   2.689  15.037 -1.2373 -1.3597 -0.6539
 1686SOL    HW216518   2.535   2.672  15.089  0.4140  1.6166 -1.3559
 1687SOL     OW16519   4.683   2.013   4.940  0.6895  0.3562  0.0706
 1687SOL    HW116520   4.714   1.981   4.855  0.1832 -1.6975  0.6607
 1687SOL    HW216521   0.011   2.095   4.953  1.3133  0.0372 -0.2695
 1688SOL     OW16522   0.405   1.504   0.318  0.3364 -0.6022 -0.4849
 1688SOL    HW116523   0.408   1.591   0.280  1.1160  0.8233  2.7888
 1688SOL    HW216524   0.424   1.448   0.243 -1.3814 -0.0581 -1.3130
 1689SOL     OW16525   2.278   4.521  11.157 -0.2712  0.2252 -0.2201
 1689SOL    HW116526   2.265   4.595  11.217  1.5843  1.0012 -0.7953
 1689SOL    HW216527   2.209   4.544  11.094  0.4379 -1.8825 -1.7674
 1690SOL     OW16528   2.609   2.585   9.714  0.1037 -0.1771 -0.6259
 1690SOL    HW116529   2.527   2.537   9.722 -0.3597  0.8140  0.5851
 1690SOL    HW216530   2.572   2.663   9.672 -0.5315 -0.3199 -0.3206
 1691SOL     OW16531   3.567   3.960   2.533  0.2577 -0.1643  0.6015
 1691SOL    HW116532   3.643   3.993   2.485 -2.5902  1.5631 -2.7464
 1691SOL    HW216533   3.585   3.991   2.622  0.8175 -0.3988  0.5671
 1692SOL     OW16534   2.108   1.914   6.533  0.2603 -0.3909  0.4799
 1692SOL    HW116535   2.201   1.936   6.521 -0.5665  1.7979 -1.9698
 1692SOL    HW216536   2.107   1.855   6.608 -0.7547  1.2917  1.7859
 1693SOL     OW16537   1.962   4.472   9.483 -0.6459  0.1347 -0.1210
 1693SOL    HW116538   2.036   4.419   9.513 -0.9558 -0.6660 -0.7908
 1693SOL    HW216539   1.955   4.538   9.552 -0.9999 -0.2349  0.1970
 1694SOL     OW16540   4.139   4.636   0.882  0.0529 -0.1043 -0.0969
 1694SOL    HW116541   4.049   4.630   0.849  0.3129  1.7421 -1.1412
 1694SOL    HW216542   4.165   0.004   0.858 -1.3778  0.7959  1.7358
 1695SOL     OW16543   2.892   0.628   2.544  0.5688  0.2538  0.3883
 1695SOL    HW116544   2.851   0.690   2.604 -0.9371 -2.0176  1.7096
 1695SOL    HW216545   2.835   0.649   2.469 -0.9852 -0.7825  1.2729
 1696SOL     OW16546   4.051   0.025   9.562 -0.0436 -0.2528  0.4336
 1696SOL    HW116547   3.960   0.038   9.591 -0.2040  2.0375 -1.0118
 1696SOL    HW216548   4.087   0.023   9.650  0.6837  1.3176  0.1791
 1697SOL     OW16549   4.502   2.967   1.790 -0.2860 -0.0811 -0.4124
 1697SOL    HW116550   4.478   3.027   1.860  0.5018  1.2092 -1.2487
 1697SOL    HW216551   4.528   2.885   1.832 -0.6464 -0.2632 -0.5454
 1698SOL     OW16552   1.587   1.259   2.175 -0.0887 -0.5362  0.3921
 1698SOL    HW116553   1.549   1.302   2.252  1.1294  2.0705 -0.4658
 1698SOL    HW216554   1.671   1.239   2.216  0.6785  2.1636  0.1162
 1699SOL     OW16555   0.640   3.279  14.731 -0.6473  0.0745 -0.5110
 1699SOL    HW116556   0.590   3.235  14.800  0.8827 -2.0961 -0.8071
 1699SOL    HW216557   0.692   3.342  14.781 -0.0459 -1.0159  0.2360
 1700SOL     OW16558   3.042   0.111  11.476 -0.5582  0.0445  0.5038
 1700SOL    HW116559   3.058   0.157  11.558 -0.8798  0.0472  0.5682
 1700SOL    HW216560   2.947   0.100  11.477 -0.6610  1.1044  3.6528
 1701SOL     OW16561   4.179   3.235   1.236  0.3832 -0.2671  0.4822
 1701SOL    HW116562   4.221   3.315   1.203 -0.1812  0.5067  1.6165
 1701SOL    HW216563   4.249   3.172   1.222 -0.2663 -1.1240  1.0788
 1702SOL     OW16564   1.327   1.592   1.032  0.5250  0.0111  0.2434
 1702SOL    HW116565   1.263   1.632   0.973 -1.0987 -1.5759  0.9261
 1702SOL    HW216566   1.278   1.588   1.114 -0.2753  0.6991 -0.1953
 1703SOL     OW16567   3.214   2.502   3.850 -0.5237  0.3191 -0.4430
 1703SOL    HW116568   3.206   2.556   3.929 -1.0288  0.6732 -0.7329
 1703SOL    HW216569   3.130   2.456   3.848 -0.2085 -0.2664  0.0417
 1704SOL     OW16570   0.926   3.097   5.345  0.4602 -0.1353  0.3034
 1704SOL    HW116571   0.962   3.028   5.289  0.6776 -0.3577  0.7172
 1704SOL    HW216572   0.853   3.043   5.375 -0.0072 -0.6478 -1.7652
 1705SOL     OW16573   4.598   4.090   6.516 -0.0843  0.1843 -0.2429
 1705SOL    HW116574   4.693   4.091   6.504 -0.1542 -0.0832 -0.8433
 1705SOL    HW216575   4.580   3.997   6.521  0.9961 -0.0855 -1.1588
 1706SOL     OW16576   3.285   4.517  13.124  0.6175  0.1066  0.6348
 1706SOL    HW116577   3.305   4.604  13.157  2.1574  0.9008 -2.4395
 1706SOL    HW216578   3.225   4.537  13.053  0.2270  0.1719  0.9816
 1707SOL     OW16579   0.162   3.163   4.908  0.2538 -0.5280 -0.0856
 1707SOL    HW116580   0.078   3.128   4.880  1.4239 -3.0177 -0.5517
 1707SOL    HW216581   0.158   3.257   4.896 -0.4661 -0.4566  0.6798
 1708SOL     OW16582   1.626   1.073   1.468 -0.0702 -0.0932  0.1897
 1708SOL    HW116583   1.550   1.058   1.525 -1.2060  1.4718 -0.9264
 1708SOL    HW216584   1.690   1.113   1.527 -0.9808  0.0173  1.1043
 1709SOL     OW16585   4.572   3.454  12.971 -0.1221  0.6395 -0.4600
 1709SOL    HW116586   4.538   3.532  13.015  1.5719  1.1627 -0.1017
 1709SOL    HW216587   4.595   3.392  13.040  0.6637  1.6595  0.1906
 1710SOL     OW16588   1.440   1.089   8.348  0.3223 -0.4012  0.7490
 1710SOL    HW116589   1.370   1.137   8.305  0.2584  0.5536  1.9080
 1710SOL    HW216590   1.478   1.053   8.268  2.2415 -1.6848  2.2431
 1711SOL     OW16591   1.397   4.078   3.857  0.2694  0.2880  0.4057
 1711SOL    HW116592   1.466   4.094   3.922 -0.2083 -1.2851  1.3235
 1711SOL    HW216593   1.439   4.068   3.772 -1.9368  3.1195 -0.9948
 1712SOL     OW16594   0.179   1.853   9.658 -0.6864 -0.3647  0.1046
 1712SOL    HW116595   0.238   1.888   9.726  0.5319 -1.5968 -0.3082
 1712SOL    HW216596   0.229   1.863   9.577 -1.1322  2.9888  0.2365
 1713SOL     OW16597   2.108   1.679   9.809  0.1532  1.2052  0.4916
 1713SOL    HW116598   2.040   1.620   9.841  1.4542 -0.2004  0.6661
 1713SOL    HW216599   2.161   1.699   9.886  1.2604 -2.2128  0.6196
 1714SOL     OW16600   4.467   1.536   3.456  0.7090  0.0631 -0.2212
 1714SOL    HW116601   4.466   1.553   3.550  0.1915  0.3778 -0.2829
 1714SOL    HW216602   4.434   1.620   3.426  0.1220  0.0487  0.3884
 1715SOL     OW16603   3.338   1.089   5.509  0.0915  0.3975  0.1597
 1715SOL    HW116604   3.375   1.156   5.452 -1.2729  1.0977  0.1113
 1715SOL    HW216605   3.356   1.123   5.597  0.9809 -0.2605  0.2375
 1716SOL     OW16606   4.119   0.053   9.285 -0.1627  0.3976  0.6351
 1716SOL    HW116607   4.093   0.017   9.370  0.8465 -2.1117 -0.1394
 1716SOL    HW216608   4.208   0.080   9.308 -0.0037  0.0121  0.4780
 1717SOL     OW16609   0.713   3.044   4.535  0.3361 -0.2153  0.4135
 1717SOL    HW116610   0.745   3.023   4.622 -0.7644 -3.0322  0.1246
 1717SOL    HW216611   0.776   3.114   4.514  1.7342 -1.1550  1.5253
 1718SOL     OW16612   2.349   0.684   5.258  0.0352  0.3507 -0.1214
 1718SOL    HW116613   2.422   0.721   5.208 -1.6451  2.6915 -0.8724
 1718SOL    HW216614   2.353   0.593   5.232 -0.2509  0.1250  0.6133
 1719SOL     OW16615   3.516   2.525   2.967  0.1271  0.0087  0.3345
 1719SOL    HW116616   3.572   2.487   3.034  0.7865 -0.6842 -0.5960
 1719SOL    HW216617   3.577   2.593   2.937 -1.5338  2.8872  3.5693
 1720SOL     OW16618   2.143   4.649  11.566  0.0286  0.2987 -0.4406
 1720SOL    HW116619   2.139   4.560  11.603  0.1487  0.4286 -0.1176
 1720SOL    HW216620   2.162   4.694  11.648  1.0207 -0.0128 -0.4998
 1721SOL     OW16621   0.980   2.536   9.100 -0.1580 -0.2330 -0.3396
 1721SOL    HW116622   0.984   2.579   9.185 -0.1128  0.0452 -0.4845
 1721SOL    HW216623   0.888   2.510   9.099  0.0903 -1.0518 -3.1305
 1722SOL     OW16624   4.480   2.619   9.027 -0.0901  0.1531  0.4875
 1722SOL    HW116625   4.569   2.650   9.011 -0.7864  1.0247 -1.7388
 1722SOL    HW216626   4.455   2.650   9.114 -0.4288  0.3530  0.3171
 1723SOL     OW16627   2.961   1.910   1.545  0.5398 -0.1589  0.2796
 1723SOL    HW116628   3.055   1.929   1.544  0.4271  0.3534 -1.0046
 1723SOL    HW216629   2.945   1.942   1.456  3.0600  0.4281  0.0209
 1724SOL     OW16630   3.090   0.072  12.541  0.2523 -0.3461  0.0203
 1724SOL    HW116631   3.021   0.085  12.606 -1.3350 -0.1280 -1.7097
 1724SOL    HW216632   3.152   0.025  12.597  0.1988  1.1118  1.3082
 1725SOL     OW16633   4.479   3.619   0.118 -0.7470  0.2523 -0.3471
 1725SOL    HW116634   4.489   3.712   0.140 -0.3163  0.5340 -1.6966
 1725SOL    HW216635   4.414   3.595   0.184  1.5431  0.2406  1.8888
 1726SOL     OW16636   3.528   1.733  10.482  0.6388 -0.0133  0.0437
 1726SOL    HW116637   3.518   1.814  10.532  1.6258  0.6332 -0.7902
 1726SOL    HW216638   3.488   1.677  10.547 -0.3267 -1.1802 -1.5709
 1727SOL     OW16639   1.748   1.722   9.769  0.0360  0.2129  0.1094
 1727SOL    HW116640   1.794   1.638   9.774 -1.8183 -0.7322  1.4580
 1727SOL    HW216641   1.736   1.737   9.675  1.0426 -1.3404 -0.2635
 1728SOL     OW16642   2.654   0.573   2.018  0.2119 -0.0891  0.1294
 1728SOL    HW116643   2.716   0.509   2.054  1.8201  2.1657  1.4085
 1728SOL    HW216644   2.624   0.626   2.092  0.3712  2.7739 -1.8454
 1729SOL     OW16645   4.512   0.007   8.511 -0.4850 -0.1762 -0.5699
 1729SOL    HW116646   4.461   4.654   8.478  1.0915 -1.1471 -0.8415
 1729SOL    HW216647   4.530   0.056   8.431 -0.1488 -0.0240 -0.3995
 1730SOL     OW16648   2.449   3.979   7.206 -0.2686 -0.0415  0.1682
 1730SOL    HW116649   2.458   3.905   7.147 -2.6172 -0.2611  0.0638
 1730SOL    HW216650   2.465   3.934   7.289 -0.4463 -0.0281  0.2095
 1731SOL     OW16651   1.202   0.490   5.755 -0.3227  0.0915 -0.0856
 1731SOL    HW116652   1.152   0.568   5.781 -0.5407 -0.4452  1.1250
 1731SOL    HW216653   1.183   0.432   5.829 -1.1167 -0.3191 -0.6175
 1732SOL     OW16654   3.917   1.750   4.806  0.0096  0.1864  0.0907
 1732SOL    HW116655   3.897   1.662   4.838 -1.4181  0.0622 -1.1495
 1732SOL    HW216656   3.888   1.736   4.716 -3.4153  1.7615  0.9517
 1733SOL     OW16657   1.016   0.848   7.075 -0.4511  0.1698 -0.9010
 1733SOL    HW116658   1.016   0.854   6.979 -0.2940  2.3118 -0.7634
 1733SOL    HW216659   0.940   0.792   7.093  2.1144 -2.2572  2.3928
 1734SOL     OW16660   2.015   2.078   4.639  0.6704  0.1274 -0.0789
 1734SOL    HW116661   2.016   2.169   4.666 -1.9491 -0.1004  0.7207
 1734SOL    HW216662   2.092   2.038   4.679 -0.9052 -0.7574  2.0333
 1735SOL     OW16663   0.248   2.610   9.634  0.2396 -0.5679  0.4791
 1735SOL    HW116664   0.301   2.549   9.583  0.9262  2.8126 -2.8778
 1735SOL    HW216665   0.169   2.557   9.637  0.9315 -1.6260 -0.1527
 1736SOL     OW16666   4.309   0.508   4.869  0.2327 -0.2067  0.6263
 1736SOL    HW116667   4.225   0.529   4.910  0.0174  0.2310 -0.0438
 1736SOL    HW216668   4.367   0.575   4.905  0.7208 -1.1282  1.5480
 1737SOL     OW16669   0.808   3.877   0.528  0.3668  0.1750  0.0454
 1737SOL    HW116670   0.767   3.802   0.485  1.3884 -1.8966  2.6281
 1737SOL    HW216671   0.761   3.956   0.501 -0.5183 -0.4272 -0.1632
 1738SOL     OW16672   1.753   0.254   6.997 -0.0490  0.2166  0.5696
 1738SOL    HW116673   1.825   0.289   6.943 -1.1955 -1.7483 -2.2522
 1738SOL    HW216674   1.685   0.280   6.934 -0.8307 -0.7758  1.0045
 1739SOL     OW16675   1.671   3.380   4.558 -0.5937 -0.4787 -0.0437
 1739SOL    HW116676   1.627   3.296   4.545  0.0899 -1.1145  1.8278
 1739SOL    HW216677   1.608   3.406   4.625  0.8634  0.7846  0.8389
 1740SOL     OW16678   2.429   3.700  10.083  0.0099 -0.1631 -0.5841
 1740SOL    HW116679   2.357   3.713  10.021 -0.0553  0.8034 -0.2947
 1740SOL    HW216680   2.491   3.757  10.038 -1.4373 -0.1416 -2.5624
 1741SOL     OW16681   4.648   4.331   4.068 -0.3596  0.0662  0.3867
 1741SOL    HW116682   4.604   4.292   3.993  0.0446  0.3509  0.0023
 1741SOL    HW216683   4.698   4.403   4.030  1.4472 -1.8494 -0.8549
 1742SOL     OW16684   0.540   2.186  14.389  0.1912 -0.2152  0.3319
 1742SOL    HW116685   0.485   2.234  14.327 -1.2664  0.1070  1.8818
 1742SOL    HW216686   0.608   2.144  14.337  2.3168  1.5292  1.7177
 1743SOL     OW16687   2.092   4.367  16.390  0.0895  1.1002  0.0435
 1743SOL    HW116688   2.176   4.328  16.365  0.2001  2.0484 -1.0385
 1743SOL    HW216689   2.133   4.446  16.428  0.0911  0.7944  0.6881
 1744SOL     OW16690   4.701   2.723   6.369  0.2198 -0.2727  0.5110
 1744SOL    HW116691   4.644   2.677   6.432  2.0278  0.6008  2.7853
 1744SOL    HW216692   4.637   2.734   6.299  1.1457 -2.1767 -0.6490
 1745SOL     OW16693   3.787   2.461   7.140 -0.6248 -0.3473 -0.0695
 1745SOL    HW116694   3.864   2.404   7.131 -1.4862 -1.3982 -0.7611
 1745SOL    HW216695   3.732   2.432   7.067 -0.1500 -0.0067 -0.5705
 1746SOL     OW16696   3.047   0.748   7.924  0.1715  0.4504  0.1942
 1746SOL    HW116697   3.078   0.820   7.978 -2.0376  0.3685  1.5630
 1746SOL    HW216698   3.069   0.674   7.981 -0.7874  1.8467  2.3821
 1747SOL     OW16699   4.653   0.719   8.659 -0.0602  0.5656 -0.2702
 1747SOL    HW116700   4.639   0.675   8.575  0.2497  3.2445 -1.7191
 1747SOL    HW216701   4.610   0.645   8.701  0.3805  0.6205  0.2692
 1748SOL     OW16702   4.192   1.704   3.274  0.0546 -0.3470 -0.3664
 1748SOL    HW116703   4.262   1.666   3.220  0.5001  1.1099 -0.8042
 1748SOL    HW216704   4.131   1.630   3.279  1.8248 -1.7618  0.5257
 1749SOL     OW16705   4.014   1.480   4.170 -0.0219  0.6807  0.0343
 1749SOL    HW116706   3.954   1.433   4.228  0.9620  0.0538  0.5552
 1749SOL    HW216707   3.961   1.492   4.092 -2.1796 -2.2283  1.0302
 1750SOL     OW16708   1.773   4.317  10.625 -0.1542  0.2453  0.0877
 1750SOL    HW116709   1.678   4.313  10.620  0.0230 -1.2991 -2.3144
 1750SOL    HW216710   1.814   4.232  10.642  0.5129  1.0011  2.2452
 1751SOL     OW16711   0.149   3.768   6.111  0.1545 -0.4090 -0.7078
 1751SOL    HW116712   0.090   3.712   6.160  0.1194  0.1389 -0.1152
 1751SOL    HW216713   0.149   3.727   6.025  2.2586 -1.6956 -0.0945
 1752SOL     OW16714   0.577   1.700   7.280  0.4281  0.7452 -0.2161
 1752SOL    HW116715   0.569   1.646   7.358  0.8654  1.4509  0.3099
 1752SOL    HW216716   0.632   1.763   7.326 -0.2918 -0.1760  1.8968
 1753SOL     OW16717   0.278   3.156   6.979 -0.0744 -0.2773  0.0598
 1753SOL    HW116718   0.198   3.191   7.016  0.0630  0.3630 -0.2631
 1753SOL    HW216719   0.346   3.220   7.000  0.3903 -0.8575  0.3462
 1754SOL     OW16720   3.540   3.544   0.005 -0.0851 -0.3154 -0.3014
 1754SOL    HW116721   3.506   3.546  17.601 -1.9083  2.5645  0.4676
 1754SOL    HW216722   3.590   3.626   0.011  0.2881 -0.4218 -1.7652
 1755SOL     OW16723   0.104   0.464   5.468  0.1543 -0.1954  0.1264
 1755SOL    HW116724   0.069   0.404   5.534 -0.0767  0.9412  1.0532
 1755SOL    HW216725   0.039   0.534   5.481 -1.2217 -0.8127 -3.5629
 1756SOL     OW16726   2.486   3.068  12.196 -0.2167  0.2044 -0.6900
 1756SOL    HW116727   2.476   2.975  12.180  0.1281  0.0113  0.2108
 1756SOL    HW216728   2.536   3.066  12.278  0.3336  1.3744 -0.9914
 1757SOL     OW16729   4.695   1.552   4.823 -0.4159  0.1970  0.4950
 1757SOL    HW116730   0.002   1.628   4.772  0.7027  1.9532  3.7350
 1757SOL    HW216731   4.620   1.590   4.868 -1.0454 -1.9811  1.2778
 1758SOL     OW16732   3.561   3.201   8.129  0.3246 -0.1284  0.5213
 1758SOL    HW116733   3.543   3.248   8.210 -0.5130  1.1004 -0.3754
 1758SOL    HW216734   3.479   3.157   8.108  0.8041 -0.0558 -1.5232
 1759SOL     OW16735   1.240   2.151   3.984  0.0650 -0.0663  0.2373
 1759SOL    HW116736   1.184   2.206   4.039  0.0187 -1.6810  1.7912
 1759SOL    HW216737   1.315   2.210   3.978  0.4109 -0.6915 -1.7260
 1760SOL     OW16738   1.311   4.618   5.196 -0.2307 -0.3227 -0.2360
 1760SOL    HW116739   1.366   4.541   5.183 -0.3994 -0.3769 -0.6177
 1760SOL    HW216740   1.329   4.643   5.287 -1.5008  0.4258 -0.1912
 1761SOL     OW16741   2.592   0.229   6.864 -0.6329  0.0075  0.0598
 1761SOL    HW116742   2.670   0.207   6.814  0.1541  2.0577  0.3676
 1761SOL    HW216743   2.536   0.262   6.794 -0.1745 -0.2692 -0.4325
 1762SOL     OW16744   2.527   0.841   6.147  0.3291  0.6961 -0.7084
 1762SOL    HW116745   2.534   0.936   6.139 -2.3553  0.9627  0.2209
 1762SOL    HW216746   2.594   0.811   6.085 -1.1541  0.4468 -2.1926
 1763SOL     OW16747   4.108   0.189   3.054  0.1209 -0.1517 -0.2342
 1763SOL    HW116748   4.074   0.259   3.109 -1.9865 -1.0306 -0.3941
 1763SOL    HW216749   4.181   0.231   3.008  0.1869 -1.4241 -1.2880
 1764SOL     OW16750   1.194   4.461   9.203 -0.3303  0.5155 -0.1342
 1764SOL    HW116751   1.121   4.483   9.145 -0.6589 -1.2517 -0.3903
 1764SOL    HW216752   1.162   4.480   9.291  1.0867  2.4405 -0.0364
 1765SOL     OW16753   0.246   3.142   3.420  0.1438 -0.1778 -0.8140
 1765SOL    HW116754   0.211   3.055   3.401 -0.1281 -0.1764 -0.3280
 1765SOL    HW216755   0.277   3.142   3.510  1.0001  1.0828 -1.1047
 1766SOL     OW16756   1.926   1.921   8.673  0.0703 -0.0969 -0.3167
 1766SOL    HW116757   1.887   1.843   8.713 -1.4259  0.4833 -0.6520
 1766SOL    HW216758   1.864   1.940   8.603 -0.5938 -1.6260 -0.1561
 1767SOL     OW16759   4.179   2.500  14.983  0.1977 -0.3175  0.6195
 1767SOL    HW116760   4.170   2.521  14.890 -1.2671 -1.0754  0.5926
 1767SOL    HW216761   4.243   2.567  15.007 -1.6287  1.5086  0.3522
 1768SOL     OW16762   4.535   1.465   4.050  0.4871 -0.0842 -0.2694
 1768SOL    HW116763   4.555   1.498   3.963 -1.5526  1.5843 -0.1058
 1768SOL    HW216764   4.445   1.495   4.062  0.8040  0.3069  1.1427
 1769SOL     OW16765   0.235   2.216   8.267 -0.5683  0.0569  0.3894
 1769SOL    HW116766   0.166   2.174   8.215  1.2113 -2.6114  0.1842
 1769SOL    HW216767   0.175   2.248   8.334 -1.6705  1.6456 -1.3565
 1770SOL     OW16768   2.228   4.460   7.769 -0.7807 -0.0776  0.0247
 1770SOL    HW116769   2.285   4.524   7.727 -1.3277 -1.4702 -2.9103
 1770SOL    HW216770   2.271   4.455   7.854 -0.2824 -0.5456 -0.2627
 1771SOL     OW16771   2.614   1.155   4.685  0.3115 -0.3996  0.1888
 1771SOL    HW116772   2.531   1.191   4.714  1.4201  0.0559  2.7503
 1771SOL    HW216773   2.591   1.071   4.645  3.0893 -1.2325  0.3042
 1772SOL     OW16774   3.279   0.098   7.087 -0.5615 -0.0030  0.0142
 1772SOL    HW116775   3.267   0.098   6.992  1.6632 -1.5361 -0.2786
 1772SOL    HW216776   3.190   0.116   7.115 -0.0221  0.2369  1.5778
 1773SOL     OW16777   1.122   4.277   5.199  0.3410  0.0068 -0.0280
 1773SOL    HW116778   1.118   4.373   5.206  0.8110 -0.0201  0.6336
 1773SOL    HW216779   1.027   4.271   5.194  0.4989 -0.4440 -2.5427
 1774SOL     OW16780   0.462   2.357  16.988  0.7043 -0.4429  0.3854
 1774SOL    HW116781   0.383   2.411  16.997 -0.0016 -1.3386 -0.3362
 1774SOL    HW216782   0.435   2.284  17.043 -2.1130 -0.4961 -1.0518
 1775SOL     OW16783   2.542   3.101   4.107  0.1400 -0.1881  0.7476
 1775SOL    HW116784   2.567   3.011   4.130  0.8537 -0.1450  0.1336
 1775SOL    HW216785   2.618   3.149   4.140  1.3606 -1.5962  0.0428
 1776SOL     OW16786   3.020   2.183   8.066  0.0038  0.1712 -0.0344
 1776SOL    HW116787   2.956   2.202   7.997 -0.8091  2.4588  1.3935
 1776SOL    HW216788   3.082   2.136   8.010  0.0240 -1.3929  1.3120
 1777SOL     OW16789   3.563   2.359  12.301 -0.4224  0.2988  0.2019
 1777SOL    HW116790   3.637   2.415  12.280  1.4271 -2.0349  0.4904
 1777SOL    HW216791   3.503   2.433  12.287 -0.9158 -0.3024 -0.9152
 1778SOL     OW16792   2.540   2.589   3.533 -0.5132 -0.2820  0.2430
 1778SOL    HW116793   2.590   2.579   3.614  0.2141 -0.4988 -0.2395
 1778SOL    HW216794   2.568   2.515   3.479  1.8589  0.7706  0.0167
 1779SOL     OW16795   4.568   1.356   3.086 -0.0876  0.4992  0.2305
 1779SOL    HW116796   4.643   1.408   3.115 -0.0009 -0.6742  2.1290
 1779SOL    HW216797   4.610   1.321   3.008  0.0230 -0.0723  0.5476
 1780SOL     OW16798   1.944   4.710   3.492  0.8306  0.1644 -0.7480
 1780SOL    HW116799   2.031   0.027   3.485  0.9882 -0.2691 -1.1305
 1780SOL    HW216800   1.958   4.659   3.411 -0.0619 -0.6752 -0.3742
 1781SOL     OW16801   3.113   0.085   4.332 -0.0426  0.0073 -0.2446
 1781SOL    HW116802   3.116   0.054   4.242 -1.3372  0.6858 -0.5277
 1781SOL    HW216803   3.020   0.067   4.348  0.4375 -0.7380  1.7657
 1782SOL     OW16804   2.757   1.827  16.129  0.1823 -0.3649  0.1531
 1782SOL    HW116805   2.804   1.887  16.072  0.3246 -0.9309 -0.3290
 1782SOL    HW216806   2.838   1.792  16.167 -1.1043 -1.8611  1.5472
 1783SOL     OW16807   1.382   3.480   4.098 -0.1017 -0.4291 -0.3678
 1783SOL    HW116808   1.317   3.440   4.040  0.2396 -1.3720 -0.1021
 1783SOL    HW216809   1.456   3.476   4.037 -0.7147 -2.1525 -0.9822
 1784SOL     OW16810   1.733   0.636   6.808  0.1487  0.0517 -0.0196
 1784SOL    HW116811   1.722   0.551   6.851 -1.3541  1.7119  2.8489
 1784SOL    HW216812   1.680   0.614   6.732  1.0761 -2.6205  0.1229
 1785SOL     OW16813   0.589   4.636  12.159 -0.4266 -0.2249  0.4931
 1785SOL    HW116814   0.513   4.612  12.212 -0.5814  0.8418  0.7534
 1785SOL    HW216815   0.648   4.562  12.170 -0.0713  0.3696  2.4994
 1786SOL     OW16816   2.399   3.008   8.362  0.3488  0.1508 -0.6640
 1786SOL    HW116817   2.412   2.999   8.268  2.3111  0.4958 -0.4313
 1786SOL    HW216818   2.481   3.048   8.391  0.5076 -0.4735 -0.2363
 1787SOL     OW16819   3.039   2.952   7.420  0.1617  1.0564 -0.3608
 1787SOL    HW116820   2.963   2.900   7.444  1.8303 -1.4035 -0.3743
 1787SOL    HW216821   3.023   2.961   7.326  0.0601  2.1066 -0.2479
 1788SOL     OW16822   1.675   1.528   6.443  0.5847 -0.2904  0.0399
 1788SOL    HW116823   1.712   1.611   6.414  2.0338 -1.0356 -0.2299
 1788SOL    HW216824   1.606   1.550   6.506  0.4876  2.0742 -0.9129
 1789SOL     OW16825   3.794   3.622  10.655 -0.2872 -0.1095  0.6503
 1789SOL    HW116826   3.854   3.633  10.728 -0.4525  2.8460  0.3474
 1789SOL    HW216827   3.768   3.714  10.641  0.5417 -0.1437 -1.0944
 1790SOL     OW16828   1.188   1.033   1.740  0.0204 -0.1484  0.1497
 1790SOL    HW116829   1.111   1.069   1.696  1.2124 -0.5212 -2.2688
 1790SOL    HW216830   1.197   1.072   1.827 -2.2223  1.4661 -0.3499
 1791SOL     OW16831   1.381   0.098   4.514 -0.5008 -0.1847  0.3360
 1791SOL    HW116832   1.388   0.105   4.419  0.8850 -0.0721  0.4483
 1791SOL    HW216833   1.398   0.190   4.536 -0.4856 -0.5191  1.7135
 1792SOL     OW16834   3.124   1.523   3.675  0.4175  0.4509 -0.8940
 1792SOL    HW116835   3.155   1.517   3.585 -1.2998 -1.0839 -1.3694
 1792SOL    HW216836   3.038   1.563   3.669  0.7241  1.1826 -0.4136
 1793SOL     OW16837   1.102   2.557   5.651 -0.2882  0.8464  0.0077
 1793SOL    HW116838   1.038   2.488   5.633  0.2519  0.6348 -1.1426
 1793SOL    HW216839   1.051   2.637   5.636 -1.5534 -0.2958 -1.8192
 1794SOL     OW16840   1.149   2.706   2.047  0.0776 -0.1182 -0.7163
 1794SOL    HW116841   1.232   2.710   2.000 -0.3882  0.1113 -1.5070
 1794SOL    HW216842   1.100   2.770   1.995 -1.2888 -0.1806  0.4758
 1795SOL     OW16843   0.803   0.181   4.939  0.2676  0.6952  0.0864
 1795SOL    HW116844   0.754   0.261   4.919  0.3450 -0.0158 -2.9808
 1795SOL    HW216845   0.771   0.155   5.026 -0.0259  0.4819 -0.0841
 1796SOL     OW16846   3.955   3.474   6.919 -0.7511  0.4411 -0.1421
 1796SOL    HW116847   3.966   3.488   6.825  0.3130 -0.9587 -0.2214
 1796SOL    HW216848   4.025   3.411   6.931 -2.4833 -1.5796 -0.6020
 1797SOL     OW16849   0.849   0.344  13.951  0.3497  0.1197  0.0874
 1797SOL    HW116850   0.849   0.397  14.031 -2.0247  2.5995 -1.5517
 1797SOL    HW216851   0.837   0.401  13.875 -0.7989 -2.6404 -1.8189
 1798SOL     OW16852   4.295   4.412   8.184 -0.0074  0.2118 -0.0911
 1798SOL    HW116853   4.345   4.360   8.247 -2.6224 -2.6022 -0.3555
 1798SOL    HW216854   4.346   4.405   8.103  1.7615  1.0462  0.9348
 1799SOL     OW16855   1.340   3.302  12.742  0.5131 -0.2962  0.1475
 1799SOL    HW116856   1.378   3.369  12.686 -0.9639 -0.4230 -0.9752
 1799SOL    HW216857   1.413   3.246  12.770  0.5391  0.3572  1.3731
 1800SOL     OW16858   0.057   1.366   4.993  0.4780  0.3431 -0.0539
 1800SOL    HW116859   0.051   1.418   5.073  3.0252 -0.3621  0.5856
 1800SOL    HW216860   0.052   1.438   4.929 -2.6144  1.2565  1.2056
 1801SOL     OW16861   2.570   3.056  11.119 -0.4853  0.0356  0.0920
 1801SOL    HW116862   2.481   3.057  11.085 -0.4310  1.7588  0.0213
 1801SOL    HW216863   2.604   2.974  11.083 -0.2178  0.7734 -1.3237
 1802SOL     OW16864   2.457   1.504   0.644  0.3350  0.1304  0.0787
 1802SOL    HW116865   2.412   1.525   0.562  2.5962 -0.0719 -1.2291
 1802SOL    HW216866   2.416   1.419   0.657  0.4594 -0.1847 -1.6393
 1803SOL     OW16867   0.712   2.472   1.411  0.5269 -0.4553  0.1165
 1803SOL    HW116868   0.640   2.410   1.414 -0.5108  0.6548 -1.6456
 1803SOL    HW216869   0.664   2.552   1.388  0.3747 -1.2870 -2.4549
 1804SOL     OW16870   3.960   2.954   7.026  0.5440  0.1441 -0.1253
 1804SOL    HW116871   3.932   2.883   7.083  0.9683  0.1180  0.0556
 1804SOL    HW216872   4.000   3.012   7.092 -0.7628 -0.5853  1.3226
 1805SOL     OW16873   0.050   4.139  17.664  0.3744 -0.4434  0.5289
 1805SOL    HW116874   0.037   4.116   0.070  3.7140  1.2682  1.4153
 1805SOL    HW216875   0.059   4.052  17.623  0.1137 -0.1111 -0.2371
 1806SOL     OW16876   1.150   0.219   6.763 -0.0951 -0.4755 -0.7368
 1806SOL    HW116877   1.066   0.176   6.781  0.7440 -1.9519 -0.3853
 1806SOL    HW216878   1.136   0.266   6.680 -0.2899 -0.2205 -0.5639
 1807SOL     OW16879   4.194   1.511   6.910  0.0222 -0.0844 -0.2780
 1807SOL    HW116880   4.254   1.581   6.934 -0.3456  0.4659 -0.9699
 1807SOL    HW216881   4.119   1.563   6.882  0.7113  0.1332 -1.6879
 1808SOL     OW16882   0.705   3.454   6.557  0.1636  0.3479  0.4434
 1808SOL    HW116883   0.621   3.412   6.540  0.9790  0.1230 -3.0403
 1808SOL    HW216884   0.692   3.524   6.493 -0.2995 -2.2329 -2.3143
 1809SOL     OW16885   2.497   1.573   4.165  0.0895  0.8428  0.8993
 1809SOL    HW116886   2.540   1.643   4.118 -0.2121  0.5937  0.2500
 1809SOL    HW216887   2.556   1.551   4.237  1.6078  0.4529 -0.4747
 1810SOL     OW16888   3.936   3.608   1.278 -0.4600  0.0532  0.2996
 1810SOL    HW116889   3.966   3.603   1.369 -1.7885  1.2880  0.8109
 1810SOL    HW216890   3.914   3.517   1.258  1.8139  0.4423 -3.8658
 1811SOL     OW16891   4.330   0.935   3.189  0.0963 -0.3332 -0.2236
 1811SOL    HW116892   4.278   0.874   3.137  0.5568  0.1244 -1.2069
 1811SOL    HW216893   4.382   0.876   3.244 -0.8179 -1.4853 -0.5831
 1812SOL     OW16894   2.217   3.584  14.554 -0.0889 -0.1979 -0.3592
 1812SOL    HW116895   2.257   3.497  14.557  1.2429  0.5043  2.2603
 1812SOL    HW216896   2.294   3.635  14.580 -0.4449 -0.0758  0.4730
 1813SOL     OW16897   2.359   2.447  14.940  0.4841  0.4507 -0.4749
 1813SOL    HW116898   2.449   2.469  14.916  0.7446 -1.8615 -1.6522
 1813SOL    HW216899   2.308   2.516  14.898 -1.7548 -0.5132  0.6339
 1814SOL     OW16900   2.061   1.198  15.201 -0.0863 -0.0413 -0.4453
 1814SOL    HW116901   2.097   1.126  15.252  0.6870  0.4005 -0.3601
 1814SOL    HW216902   1.968   1.183  15.214 -0.2582 -0.2989 -1.9242
 1815SOL     OW16903   1.893   4.669  11.958  0.3027  0.2164 -0.4051
 1815SOL    HW116904   1.969   4.620  11.989  0.3577 -0.6634 -1.9250
 1815SOL    HW216905   1.904   0.025  12.014 -0.4747  1.9396 -2.6308
 1816SOL     OW16906   4.659   2.095   4.301  0.0142  0.0905  0.0665
 1816SOL    HW116907   0.007   2.029   4.305 -0.3573 -0.2807  0.2906
 1816SOL    HW216908   4.589   2.042   4.339  1.8682 -1.2088  1.6647
 1817SOL     OW16909   1.165   2.714   6.044  0.5713 -0.1421  0.3871
 1817SOL    HW116910   1.104   2.671   6.105  0.4073 -1.5318 -0.7704
 1817SOL    HW216911   1.208   2.638   6.005 -1.4773 -1.8229  1.3568
 1818SOL     OW16912   0.295   0.152  12.350  0.8919  0.1691  0.1619
 1818SOL    HW116913   0.204   0.173  12.373  0.6258 -2.1882  1.2898
 1818SOL    HW216914   0.334   0.238  12.367 -0.6795  1.1078 -0.8889
 1819SOL     OW16915   3.618   1.259   2.682 -0.3853 -0.6101 -0.0816
 1819SOL    HW116916   3.624   1.208   2.602  1.4798 -0.8463  0.2206
 1819SOL    HW216917   3.548   1.321   2.660 -0.8519 -1.7340 -1.7140
 1820SOL     OW16918   3.709   4.109  10.146 -0.3211  0.3263  0.0606
 1820SOL    HW116919   3.688   4.021  10.115  1.0250  0.7148 -1.9232
 1820SOL    HW216920   3.643   4.165  10.106  1.1584  0.4145 -2.2273
 1821SOL     OW16921   4.372   2.940   1.549 -0.2392 -0.1975  0.0950
 1821SOL    HW116922   4.386   2.859   1.499 -1.6588  0.0062 -0.6561
 1821SOL    HW216923   4.420   2.914   1.627  0.2137 -2.1590 -0.8307
 1822SOL     OW16924   1.689   3.062   2.816  0.7198 -0.0214  0.8353
 1822SOL    HW116925   1.615   3.081   2.758  0.6069  1.0266  1.3117
 1822SOL    HW216926   1.768   3.066   2.763 -0.2531  1.3761 -0.4964
 1823SOL     OW16927   0.564   1.131   7.162 -0.2056  0.0411  0.1735
 1823SOL    HW116928   0.536   1.048   7.200 -0.7938  0.5297  0.8165
 1823SOL    HW216929   0.658   1.125   7.179 -0.1407 -0.2712 -0.3115
 1824SOL     OW16930   0.538   3.302   5.076  0.4615  0.6427 -0.4696
 1824SOL    HW116931   0.623   3.346   5.072  0.7125  0.1868 -0.0779
 1824SOL    HW216932   0.540   3.251   4.994  0.0632 -0.9780  0.5220
 1825SOL     OW16933   4.453   1.272   3.359 -0.0051  0.5483 -0.2817
 1825SOL    HW116934   4.489   1.342   3.414  1.4291  0.7746 -1.5232
 1825SOL    HW216935   4.451   1.307   3.270  0.1932  1.2843 -0.0035
 1826SOL     OW16936   2.724   3.828   9.987 -0.3050  0.3175 -0.1203
 1826SOL    HW116937   2.746   3.920   9.977 -0.4452  0.2458 -1.0548
 1826SOL    HW216938   2.762   3.830  10.075 -2.6532  0.4819  0.8925
 1827SOL     OW16939   1.318   1.026  12.309 -0.1269 -0.8645 -0.1962
 1827SOL    HW116940   1.399   0.983  12.280 -1.2390 -2.7083 -0.5654
 1827SOL    HW216941   1.258   0.959  12.341 -0.9875 -1.0359 -2.1352
 1828SOL     OW16942   3.553   4.646  14.812 -0.3416 -0.0589 -0.3723
 1828SOL    HW116943   3.584   0.008  14.775 -0.5121 -0.2171 -0.8662
 1828SOL    HW216944   3.494   4.679  14.879  1.7178  0.8584  1.0088
 1829SOL     OW16945   2.175   3.116   7.319 -0.2943 -0.2181 -0.2171
 1829SOL    HW116946   2.198   3.074   7.403  1.4857 -0.1503 -0.6809
 1829SOL    HW216947   2.226   3.064   7.257  1.0028  0.2786  0.4250
 1830SOL     OW16948   4.507   0.278  12.580  0.5341  0.3902  0.0785
 1830SOL    HW116949   4.447   0.219  12.535  2.5777 -2.6185  1.3249
 1830SOL    HW216950   4.451   0.340  12.627  1.2951 -0.3603  1.9619
 1831SOL     OW16951   2.219   1.318  12.535 -0.1903 -0.3175  0.1236
 1831SOL    HW116952   2.149   1.260  12.505 -1.3809 -0.4863  3.1597
 1831SOL    HW216953   2.178   1.397  12.570 -1.0056 -0.2607 -0.9810
 1832SOL     OW16954   0.363   3.985   2.510 -0.3825  0.2146  0.5351
 1832SOL    HW116955   0.447   4.029   2.521 -0.0557 -0.7356  1.8528
 1832SOL    HW216956   0.322   4.031   2.437 -0.8480 -0.6085  0.2793
 1833SOL     OW16957   2.701   4.245   5.060  0.8002 -0.1689  0.5028
 1833SOL    HW116958   2.679   4.151   5.063 -0.6804  0.1712  0.1900
 1833SOL    HW216959   2.758   4.255   4.984 -0.7166  1.8250 -0.3659
 1834SOL     OW16960   2.917   1.108   3.749 -0.3768  0.5677  0.3733
 1834SOL    HW116961   2.926   1.171   3.822 -0.9552  0.2348  0.7282
 1834SOL    HW216962   2.824   1.088   3.743 -0.4005  0.0377  2.5031
 1835SOL     OW16963   0.055   1.139  10.474 -0.0330  0.3720  0.1137
 1835SOL    HW116964   0.020   1.057  10.508  0.6154  0.0226 -0.0661
 1835SOL    HW216965   0.003   1.212  10.508 -0.8101 -0.2099  0.1528
 1836SOL     OW16966   0.648   0.944   3.763  0.0728 -0.0698  0.1994
 1836SOL    HW116967   0.623   0.940   3.670 -1.5874 -0.1014  0.6568
 1836SOL    HW216968   0.557   0.958   3.789  0.0331  0.1699 -0.0637
 1837SOL     OW16969   2.647   3.054  12.432  0.7188 -0.1374  0.0225
 1837SOL    HW116970   2.653   2.976  12.487 -0.7630 -1.5628 -1.7870
 1837SOL    HW216971   2.627   3.119  12.499 -1.2003 -1.5239  0.7879
 1838SOL     OW16972   2.582   2.216   6.859  0.0296  0.1598  0.3799
 1838SOL    HW116973   2.595   2.292   6.916  2.0608 -1.5754  2.2048
 1838SOL    HW216974   2.663   2.223   6.809  0.6336  1.2041  1.4879
 1839SOL     OW16975   1.545   0.964   5.790  0.4239 -0.0858  0.0383
 1839SOL    HW116976   1.561   0.871   5.771  1.5823 -0.3571  2.3146
 1839SOL    HW216977   1.636   0.992   5.796  0.1174  0.7287  0.7592
 1840SOL     OW16978   3.045   3.080   6.015  0.5969  0.1151  0.0909
 1840SOL    HW116979   3.122   3.121   5.975 -1.1776  0.8959 -2.5740
 1840SOL    HW216980   3.088   3.028   6.083  0.2322  0.6260  0.7061
 1841SOL     OW16981   0.642   1.917   3.868  0.2719  0.6056  0.1149
 1841SOL    HW116982   0.692   1.998   3.860 -1.4741  1.7739  1.0371
 1841SOL    HW216983   0.621   1.904   3.775 -0.2791 -0.1428  0.3519
 1842SOL     OW16984   1.180   0.798   5.992  0.4852 -0.0398  0.3890
 1842SOL    HW116985   1.098   0.750   5.997  0.1479  0.3035 -2.0920
 1842SOL    HW216986   1.222   0.800   6.078 -0.1194  2.2512  0.6190
 1843SOL     OW16987   4.083   2.371  10.359  0.1613 -0.5580 -0.4593
 1843SOL    HW116988   4.034   2.447  10.329  1.6654  1.5237  2.3818
 1843SOL    HW216989   4.079   2.378  10.454 -0.1293  2.1566 -0.6825
 1844SOL     OW16990   1.363   2.655   5.697 -0.2078  0.3906  0.3167
 1844SOL    HW116991   1.416   2.605   5.759 -2.2771 -2.8459 -0.5355
 1844SOL    HW216992   1.279   2.610   5.708  0.0130  0.0868  0.7422
 1845SOL     OW16993   3.595   1.236   7.810  0.3947 -0.3370  0.4422
 1845SOL    HW116994   3.602   1.166   7.875 -3.1615 -0.8600  0.2831
 1845SOL    HW216995   3.546   1.293   7.869 -0.5661 -0.6264 -0.0782
 1846SOL     OW16996   0.147   0.073   5.679  0.2984 -0.5126  0.2829
 1846SOL    HW116997   0.058   0.062   5.711 -0.1853 -0.4562 -1.0668
 1846SOL    HW216998   0.128   0.091   5.587  2.3540 -0.7588 -0.1873
 1847SOL     OW16999   1.649   2.636   7.923  0.4525  0.5055  0.2508
 1847SOL    HW117000   1.674   2.706   7.984  2.7767  0.3060 -0.4501
 1847SOL    HW217001   1.554   2.643   7.922  0.5306  1.3472 -1.1517
 1848SOL     OW17002   2.345   3.123   5.893  0.5304 -0.6051 -0.1609
 1848SOL    HW117003   2.317   3.198   5.945  0.1836 -1.3866  0.7750
 1848SOL    HW217004   2.417   3.088   5.946  1.6498  1.0084 -0.6004
 1849SOL     OW17005   1.947   2.159   3.110 -0.2245 -0.2697  0.0353
 1849SOL    HW117006   2.040   2.136   3.103 -0.2299  0.0806 -1.2190
 1849SOL    HW217007   1.954   2.224   3.179  0.2869 -1.0882  0.7611
 1850SOL     OW17008   3.324   4.036   2.424  0.4773  0.3334  0.0822
 1850SOL    HW117009   3.409   3.997   2.445  1.5878  2.3893 -0.6327
 1850SOL    HW217010   3.270   3.972   2.471 -0.6959  0.4751 -1.0632
 1851SOL     OW17011   3.050   0.666   2.329 -0.1361  0.5306  0.1781
 1851SOL    HW117012   2.995   0.728   2.282 -1.8741 -1.8137 -0.8876
 1851SOL    HW217013   3.006   0.635   2.408 -1.0709  0.2098 -0.4757
 1852SOL     OW17014   1.567   1.916   4.782 -0.4490 -0.9346  0.0683
 1852SOL    HW117015   1.655   1.879   4.787  0.0312 -0.1321 -2.3649
 1852SOL    HW217016   1.593   1.985   4.720 -4.3189  0.1267 -0.3378
 1853SOL     OW17017   0.686   1.255   3.050  0.4938 -1.2652  0.1130
 1853SOL    HW117018   0.626   1.229   3.120  2.0602  1.7385  2.6203
 1853SOL    HW217019   0.632   1.241   2.973 -0.8547 -0.2115  0.8636
 1854SOL     OW17020   1.429   3.203   8.724 -0.0528  0.7655  0.1097
 1854SOL    HW117021   1.483   3.222   8.801 -0.8676  0.5085  0.7377
 1854SOL    HW217022   1.344   3.182   8.762 -0.4206  1.8616 -0.1117
 1855SOL     OW17023   1.954   2.689   6.220  0.5127  0.2024 -0.0043
 1855SOL    HW117024   1.870   2.685   6.265  0.8156 -0.5126  0.4993
 1855SOL    HW217025   1.918   2.716   6.135 -0.6050  1.2782  0.8194
 1856SOL     OW17026   4.296   0.483   3.383 -0.4197  0.0914  0.6289
 1856SOL    HW117027   4.349   0.506   3.307 -1.6573 -1.2976 -0.6552
 1856SOL    HW217028   4.214   0.530   3.363 -0.4019 -0.2582 -0.2707
 1857SOL     OW17029   2.610   4.575  15.316  0.6720  0.1384  0.1585
 1857SOL    HW117030   2.521   4.549  15.294  0.0355  1.3576  1.3019
 1857SOL    HW217031   2.647   4.635  15.251  0.2092  1.3130  0.9636
 1858SOL     OW17032   4.632   2.551  16.386 -0.3264 -0.2957 -0.6893
 1858SOL    HW117033   4.577   2.629  16.390  1.1816  0.7897 -1.0017
 1858SOL    HW217034   4.575   2.497  16.332 -1.0635  0.1912 -0.4033
 1859SOL     OW17035   1.465   0.698   8.874 -0.2700 -0.5632 -0.1891
 1859SOL    HW117036   1.440   0.612   8.907 -1.8708  0.6255  1.6916
 1859SOL    HW217037   1.406   0.760   8.917 -1.9021 -2.7740  0.7327
 1860SOL     OW17038   4.325   0.429   0.074  0.2771 -0.7592  0.0251
 1860SOL    HW117039   4.297   0.383  17.681 -0.7502  0.5871 -0.3941
 1860SOL    HW217040   4.240   0.436   0.118 -0.6429  1.0385 -2.0610
 1861SOL     OW17041   2.912   2.248   5.327  0.7523 -0.0664  0.3035
 1861SOL    HW117042   3.001   2.212   5.336  1.3254  0.7052 -2.3694
 1861SOL    HW217043   2.942   2.338   5.339  2.4060 -0.3739 -1.6334
 1862SOL     OW17044   1.324   2.209   5.207 -0.4570  0.1275 -0.3189
 1862SOL    HW117045   1.265   2.283   5.220  0.5066  1.1871 -1.9045
 1862SOL    HW217046   1.324   2.170   5.295 -0.4861 -3.2495 -1.8414
 1863SOL     OW17047   1.380   1.014  12.766 -0.2101 -0.7128 -0.3953
 1863SOL    HW117048   1.300   1.029  12.817  1.7598 -0.1945  2.5495
 1863SOL    HW217049   1.434   1.089  12.793 -0.4909 -1.6534  2.8116
 1864SOL     OW17050   0.661   3.451  16.112  0.0120  0.3065  0.1587
 1864SOL    HW117051   0.647   3.387  16.042  0.0412  0.4156  0.0535
 1864SOL    HW217052   0.626   3.532  16.075  0.0627  0.8085  1.1880
 1865SOL     OW17053   4.586   4.048   5.458  0.5213 -0.1674  0.2781
 1865SOL    HW117054   4.599   4.097   5.539 -0.8040 -0.6553  0.7914
 1865SOL    HW217055   4.650   4.080   5.393 -0.2577 -1.2715 -1.0291
 1866SOL     OW17056   4.000   1.548   9.003  0.2425 -0.5466 -0.2702
 1866SOL    HW117057   4.021   1.489   9.075  0.6305  2.0938  1.7765
 1866SOL    HW217058   3.906   1.535   8.993 -0.0147  1.5339 -0.6397
 1867SOL     OW17059   2.818   3.142  12.228 -0.4927  0.2013 -0.5427
 1867SOL    HW117060   2.870   3.078  12.178 -0.5077 -0.7547  0.6631
 1867SOL    HW217061   2.771   3.086  12.290 -0.4913  0.1602 -0.5780
 1868SOL     OW17062   0.528   4.042   2.828 -0.5057 -0.2816  0.2538
 1868SOL    HW117063   0.603   3.994   2.793 -1.2737  1.4200 -3.7015
 1868SOL    HW217064   0.474   3.972   2.865 -0.4452 -0.1195  0.6468
 1869SOL     OW17065   0.077   4.568  14.886  0.6581 -0.0194  0.2694
 1869SOL    HW117066   0.133   4.559  14.809 -0.9646 -2.2663 -0.6584
 1869SOL    HW217067   0.107   4.648  14.928  0.7227  0.3841 -0.5373
 1870SOL     OW17068   1.843   1.561  15.035 -0.3780  0.3621  0.0127
 1870SOL    HW117069   1.853   1.522  15.122  2.1346  2.8376  0.8391
 1870SOL    HW217070   1.748   1.562  15.021 -0.7866  1.5839  2.9251
 1871SOL     OW17071   4.217   3.266   5.486  0.0881 -0.1195  0.1998
 1871SOL    HW117072   4.136   3.267   5.434  0.4704 -2.8608 -0.4552
 1871SOL    HW217073   4.294   3.269   5.430  0.5161 -0.5910  0.7676
 1872SOL     OW17074   1.976   2.873   4.459 -0.3716 -0.2869  0.4701
 1872SOL    HW117075   1.906   2.848   4.520 -1.0446  0.2833 -0.0822
 1872SOL    HW217076   2.039   2.915   4.518  0.8410 -0.2509 -0.8463
 1873SOL     OW17077   1.900   1.792  13.525  0.0227 -0.8083  0.1875
 1873SOL    HW117078   1.814   1.833  13.518  0.2520 -0.2680  0.5337
 1873SOL    HW217079   1.887   1.697  13.528 -0.1954 -0.7228  1.5037
 1874SOL     OW17080   2.518   0.971   7.816 -1.0087  0.4014 -0.4972
 1874SOL    HW117081   2.439   0.969   7.869 -0.8171 -0.3003 -0.2356
 1874SOL    HW217082   2.576   0.987   7.890 -0.7498 -0.9628 -0.4113
 1875SOL     OW17083   1.659   3.100  17.022 -0.0171 -0.9205  0.0378
 1875SOL    HW117084   1.620   3.154  17.090  1.3252 -1.0227  0.9001
 1875SOL    HW217085   1.615   3.016  17.040 -1.2243 -0.1700  0.5865
 1876SOL     OW17086   0.618   0.124   8.962  0.2800  0.1990 -0.0758
 1876SOL    HW117087   0.694   0.096   8.910 -1.4150 -2.6598 -1.0128
 1876SOL    HW217088   0.573   0.174   8.893  1.1524 -0.0944 -0.8612
 1877SOL     OW17089   2.528   1.722   7.169 -0.1398  0.2471  0.2575
 1877SOL    HW117090   2.463   1.682   7.111  0.5370 -2.4050  1.3131
 1877SOL    HW217091   2.575   1.782   7.111  1.4457 -0.9110  0.3479
 1878SOL     OW17092   0.974   1.975   7.924  0.7396 -0.4127 -0.4034
 1878SOL    HW117093   0.987   2.024   8.006 -0.1962 -0.0018 -0.4923
 1878SOL    HW217094   0.990   1.885   7.952  1.0722 -0.8615 -2.0641
 1879SOL     OW17095   2.272   4.443   5.315 -0.2965  0.4417 -0.9627
 1879SOL    HW117096   2.353   4.491   5.298 -0.7859  1.2456 -1.0023
 1879SOL    HW217097   2.272   4.377   5.245  0.6967 -0.7579  0.1680
 1880SOL     OW17098   0.374   3.262   2.734  0.0086 -0.0564 -0.2738
 1880SOL    HW117099   0.461   3.301   2.745 -0.0388  0.2859 -1.1102
 1880SOL    HW217100   0.378   3.244   2.640 -0.1637  0.2977 -0.3487
 1881SOL     OW17101   0.068   4.384  16.987  0.0983  0.2220 -0.2593
 1881SOL    HW117102   0.134   4.361  17.052  0.7669  1.9610 -0.3058
 1881SOL    HW217103   0.029   4.451  17.043  2.7468  0.1235  1.7188
 1882SOL     OW17104   4.445   0.609   0.866  0.2383  0.2325  0.5313
 1882SOL    HW117105   4.399   0.692   0.873  1.1298  0.8557 -1.0880
 1882SOL    HW217106   4.452   0.607   0.771 -0.8670  1.8353  0.4368
 1883SOL     OW17107   3.155   0.655   5.277 -0.3006 -0.0864  0.0470
 1883SOL    HW117108   3.103   0.727   5.311 -0.4924  0.0093 -0.4543
 1883SOL    HW217109   3.240   0.672   5.318 -0.4177 -0.4900  0.4700
 1884SOL     OW17110   3.793   2.779  13.373  0.2303 -0.1884 -1.0170
 1884SOL    HW117111   3.870   2.836  13.369  0.2949 -0.2468 -0.5377
 1884SOL    HW217112   3.843   2.703  13.342  0.6696 -0.7589  1.0753
 1885SOL     OW17113   0.624   0.284  12.823  0.3895 -0.5493 -0.5969
 1885SOL    HW117114   0.646   0.376  12.809 -0.5710 -0.1197  0.6841
 1885SOL    HW217115   0.598   0.254  12.736 -0.7091  0.7801 -0.7283
 1886SOL     OW17116   1.627   3.907  10.113 -0.4974  0.3077 -0.2710
 1886SOL    HW117117   1.668   3.877  10.195  0.4643  1.0983 -0.4553
 1886SOL    HW217118   1.700   3.919  10.052  0.1670  3.2146  1.0848
 1887SOL     OW17119   2.410   3.362  16.269  0.1664 -0.2319  0.4101
 1887SOL    HW117120   2.425   3.378  16.175  2.7638  0.0826  0.8879
 1887SOL    HW217121   2.396   3.268  16.267  0.1437 -0.2246  0.1484
 1888SOL     OW17122   2.782   4.342  10.412  0.1151  0.5640 -0.6718
 1888SOL    HW117123   2.714   4.290  10.371 -0.8221 -0.3788  2.0615
 1888SOL    HW217124   2.854   4.335  10.349 -0.2117 -0.1975 -0.9572
 1889SOL     OW17125   2.115   3.674  12.741  0.3642  0.8059 -0.2184
 1889SOL    HW117126   2.165   3.712  12.669  2.6740 -0.8674  0.5066
 1889SOL    HW217127   2.173   3.608  12.779  0.7586  1.7111  0.7349
 1890SOL     OW17128   2.515   2.851   3.429 -0.1056  0.1997  0.2964
 1890SOL    HW117129   2.472   2.830   3.346  0.9612 -0.1119 -0.1823
 1890SOL    HW217130   2.526   2.764   3.468  0.7699  0.0987 -0.1670
 1891SOL     OW17131   3.523   3.713   9.231 -0.3242  0.1064 -0.2803
 1891SOL    HW117132   3.550   3.622   9.222  0.3953  0.4896 -1.9314
 1891SOL    HW217133   3.576   3.749   9.302 -0.8730 -0.6279  0.5060
 1892SOL     OW17134   3.177   4.642   3.834 -0.0353 -0.4938 -0.5102
 1892SOL    HW117135   3.147   4.683   3.752 -1.0831 -0.9370 -0.3436
 1892SOL    HW217136   3.266   4.677   3.825  0.1021 -0.5440  0.6729
 1893SOL     OW17137   2.058   3.144   6.500  0.3118 -0.2496 -0.2714
 1893SOL    HW117138   2.108   3.192   6.434 -0.2967  1.3772  0.4408
 1893SOL    HW217139   1.967   3.154   6.471 -0.0953 -0.9343  0.7715
 1894SOL     OW17140   1.469   0.850  14.759  0.2450 -0.0914 -0.2308
 1894SOL    HW117141   1.395   0.866  14.700  0.3421 -0.5214 -0.4668
 1894SOL    HW217142   1.532   0.804  14.705 -2.4194 -1.6201 -2.0149
 1895SOL     OW17143   2.589   0.885   4.464  1.2013 -0.2855 -0.2750
 1895SOL    HW117144   2.549   0.967   4.433 -1.0503 -1.3311 -0.1122
 1895SOL    HW217145   2.583   0.827   4.388  0.2913  0.1130 -0.5114
 1896SOL     OW17146   3.661   1.433   9.796 -0.6476  0.3315 -0.1342
 1896SOL    HW117147   3.589   1.496   9.792 -1.0476 -0.0771  0.6218
 1896SOL    HW217148   3.733   1.478   9.841  0.6264 -1.3589 -0.5082
 1897SOL     OW17149   4.671   3.714   4.057 -0.7281 -0.4740 -0.1279
 1897SOL    HW117150   4.622   3.723   4.138 -0.6429  1.6362 -0.3063
 1897SOL    HW217151   4.627   3.773   3.996  0.4474 -2.0621 -2.5364
 1898SOL     OW17152   0.566   0.426   2.313  0.1310  0.1919 -0.4979
 1898SOL    HW117153   0.525   0.424   2.226 -0.4665 -0.8943 -0.1976
 1898SOL    HW217154   0.600   0.336   2.317  0.6383  0.3697 -0.8917
 1899SOL     OW17155   0.563   0.013  12.861 -0.0253 -0.2235  0.5586
 1899SOL    HW117156   0.586   0.103  12.837 -2.3270  0.5018  1.0363
 1899SOL    HW217157   0.636   4.683  12.825 -0.0398 -1.0062  1.6445
 1900SOL     OW17158   4.614   4.594   7.401 -0.0144  0.0413  0.3544
 1900SOL    HW117159   4.538   4.625   7.352  0.2952  0.5334  0.1866
 1900SOL    HW217160   4.634   4.660   7.468  1.1364  0.6971 -0.6423
 1901SOL     OW17161   3.191   0.111   3.091 -0.0470 -0.1764 -0.1364
 1901SOL    HW117162   3.160   0.188   3.139  0.3123 -0.1229  0.0126
 1901SOL    HW217163   3.134   0.042   3.125  0.4179  0.2391  1.4837
 1902SOL     OW17164   1.598   0.421   0.757 -0.3893  0.0421 -0.2942
 1902SOL    HW117165   1.502   0.421   0.751 -0.3378 -2.1069 -1.1459
 1902SOL    HW217166   1.605   0.469   0.839 -1.6865  2.9257 -1.8633
 1903SOL     OW17167   4.625   1.728   4.543 -0.2724  0.3002  0.2066
 1903SOL    HW117168   4.627   1.708   4.449 -2.1073  2.2916 -0.2708
 1903SOL    HW217169   4.610   1.638   4.570 -0.7396 -0.1225 -1.4220
 1904SOL     OW17170   3.842   1.104   8.020  0.6466  0.3051  0.1537
 1904SOL    HW117171   3.749   1.107   8.045  0.0347  0.0634 -2.1348
 1904SOL    HW217172   3.884   1.145   8.096  1.7261  0.8460 -0.7397
 1905SOL     OW17173   1.202   0.704   0.429 -0.1044 -0.0918 -0.2946
 1905SOL    HW117174   1.217   0.626   0.482  1.6259  0.3252 -0.1584
 1905SOL    HW217175   1.285   0.713   0.383  1.2913 -1.1508  1.9905
 1906SOL     OW17176   3.044   0.052   2.332  0.6690 -0.3846 -0.2752
 1906SOL    HW117177   3.102   0.013   2.266 -0.0860 -0.5294 -0.8581
 1906SOL    HW217178   3.097   0.053   2.412  0.8660 -1.6458 -0.3808
 1907SOL     OW17179   2.824   3.430   5.006  0.3708  0.3706  0.1268
 1907SOL    HW117180   2.881   3.370   4.958  0.6555  1.6719 -1.1910
 1907SOL    HW217181   2.749   3.436   4.946 -1.7439  1.5988  2.8897
 1908SOL     OW17182   2.539   0.023   2.404 -0.1619 -0.1113  0.2050
 1908SOL    HW117183   2.498   0.011   2.489 -3.1390  1.8328 -0.9432
 1908SOL    HW217184   2.625   0.058   2.428 -0.4005  1.0962 -0.6452
 1909SOL     OW17185   2.691   2.694   5.607  0.5824  0.0379 -0.1730
 1909SOL    HW117186   2.627   2.700   5.536 -0.0963 -0.2917  0.4114
 1909SOL    HW217187   2.635   2.688   5.684  2.2003 -0.2836  0.9758
 1910SOL     OW17188   0.548   3.026  13.354 -0.0874 -0.3696  0.4975
 1910SOL    HW117189   0.500   3.109  13.354 -0.1430 -0.4023  0.5861
 1910SOL    HW217190   0.514   2.972  13.424 -0.4964 -0.5848  0.1268
 1911SOL     OW17191   4.294   3.020   2.178 -0.7236 -0.0977  0.1774
 1911SOL    HW117192   4.200   3.007   2.166 -1.1945  3.5219 -0.1840
 1911SOL    HW217193   4.294   3.116   2.174 -2.2873 -0.0721  0.6476
 1912SOL     OW17194   2.246   3.153   5.431  0.5513 -0.0292  0.2736
 1912SOL    HW117195   2.195   3.152   5.350  1.1784  0.1446 -0.1230
 1912SOL    HW217196   2.221   3.075   5.481 -2.0989  0.1753 -0.7055
 1913SOL     OW17197   1.429   2.946   5.744  0.0160 -0.0389 -0.1363
 1913SOL    HW117198   1.399   2.857   5.728 -1.2262  0.5615 -1.1788
 1913SOL    HW217199   1.353   2.999   5.720  1.6165  1.7323 -1.2740
 1914SOL     OW17200   0.118   2.316   6.785  0.7830 -0.3595  0.4645
 1914SOL    HW117201   0.057   2.281   6.721  0.8801  0.1684  0.0900
 1914SOL    HW217202   0.171   2.373   6.730 -2.3388  0.9556 -1.1212
 1915SOL     OW17203   1.948   4.305  16.906 -0.2982 -0.0568  0.4119
 1915SOL    HW117204   1.889   4.230  16.910 -1.4245  0.7510 -1.3201
 1915SOL    HW217205   1.945   4.314  16.811  0.2806  0.6342  0.4574
 1916SOL     OW17206   0.852   1.746   3.109  0.2160 -0.5298 -0.1062
 1916SOL    HW117207   0.889   1.712   3.027  1.5812 -1.3415  0.8377
 1916SOL    HW217208   0.937   1.768   3.149  0.2183 -2.1122  0.7635
 1917SOL     OW17209   1.744   2.575   0.257 -0.2085 -0.2840  0.2016
 1917SOL    HW117210   1.812   2.609   0.199 -1.2521 -1.0149 -1.4449
 1917SOL    HW217211   1.781   2.586   0.345 -0.1412 -0.5845  0.2103
 1918SOL     OW17212   0.501   1.782  17.344  0.0116 -0.2088  0.3134
 1918SOL    HW117213   0.425   1.836  17.366  0.5742  1.8541 -2.9187
 1918SOL    HW217214   0.538   1.830  17.270  0.3777 -1.2609 -0.1826
 1919SOL     OW17215   0.853   4.015   6.867  0.1034  0.1866 -0.2882
 1919SOL    HW117216   0.808   3.939   6.832  1.2830 -2.1113  3.1406
 1919SOL    HW217217   0.803   4.015   6.949  0.5168 -0.1809 -0.0348
 1920SOL     OW17218   4.658   2.350  13.635  0.2973  0.5435  0.3096
 1920SOL    HW117219   4.685   2.373  13.546 -1.6772  2.2888  0.1737
 1920SOL    HW217220   4.568   2.379  13.646  0.0385 -0.6246  1.2584
 1921SOL     OW17221   4.303   2.779  16.450 -0.4068 -0.1703 -0.1109
 1921SOL    HW117222   4.313   2.871  16.477  1.2997 -0.4160  0.0589
 1921SOL    HW217223   4.378   2.768  16.392  1.3322  0.6970  1.9863
 1922SOL     OW17224   2.197   2.331  10.992 -0.4860 -0.4875  0.8985
 1922SOL    HW117225   2.238   2.365  11.071  1.7583 -0.7374 -0.1559
 1922SOL    HW217226   2.107   2.363  11.001 -0.3830 -0.2294  1.0119
 1923SOL     OW17227   0.030   2.177   2.876 -0.6421  0.2805 -0.2458
 1923SOL    HW117228   4.701   2.163   2.795  0.5710 -2.1372 -0.5647
 1923SOL    HW217229   0.041   2.272   2.873  2.1086 -0.0235  0.6006
 1924SOL     OW17230   0.816   3.811  11.430 -0.4221 -0.5304  0.1949
 1924SOL    HW117231   0.816   3.724  11.472  1.1907  0.7494  2.8515
 1924SOL    HW217232   0.762   3.794  11.353  0.7234 -0.1714 -0.6811
 1925SOL     OW17233   3.387   2.431   6.267  0.3455 -0.3473 -0.3844
 1925SOL    HW117234   3.432   2.413   6.350  0.0136 -0.5655 -0.2534
 1925SOL    HW217235   3.311   2.476   6.304 -1.0628 -1.6058 -1.8143
 1926SOL     OW17236   2.920   1.176   2.711  0.2809  0.1356  0.1216
 1926SOL    HW117237   2.839   1.226   2.720  0.5276  0.5293  0.1637
 1926SOL    HW217238   2.990   1.238   2.731  0.6953  0.0860 -1.1922
 1927SOL     OW17239   4.331   3.552   8.290  0.2008  0.1823  0.4798
 1927SOL    HW117240   4.392   3.511   8.229  0.2382  3.8324 -1.9602
 1927SOL    HW217241   4.369   3.523   8.373  2.3096  2.0986  0.1698
 1928SOL     OW17242   0.688   1.871   7.477 -0.1284  0.5488 -0.1006
 1928SOL    HW117243   0.641   1.952   7.461 -2.0094 -0.2322  1.3042
 1928SOL    HW217244   0.742   1.895   7.552  0.2656 -1.5313  0.2993
 1929SOL     OW17245   2.771   4.689   3.267  0.4048  0.2107  0.0778
 1929SOL    HW117246   2.723   0.025   3.207  3.1088  1.3980 -0.9874
 1929SOL    HW217247   2.832   0.027   3.313  0.4006  1.4315 -1.4739
 1930SOL     OW17248   0.521   2.910   7.578  0.3634  0.0922  0.2233
 1930SOL    HW117249   0.616   2.904   7.568  0.4868  0.4649  1.2092
 1930SOL    HW217250   0.502   2.991   7.626  0.6004 -0.1691  0.7599
 1931SOL     OW17251   4.049   2.637   4.267 -0.4040  0.6232 -0.3462
 1931SOL    HW117252   3.969   2.682   4.239 -0.0945 -0.8711 -3.6292
 1931SOL    HW217253   4.077   2.606   4.181 -0.1212 -2.4480  0.8722
 1932SOL     OW17254   3.161   2.697   8.554 -0.0873 -0.1891 -0.0272
 1932SOL    HW117255   3.147   2.636   8.481  1.4989 -1.0736  0.4220
 1932SOL    HW217256   3.138   2.779   8.510 -0.9809  0.5735  1.8557
 1933SOL     OW17257   4.016   2.320   2.333 -0.3974  0.5218 -0.6772
 1933SOL    HW117258   3.951   2.268   2.380 -0.4999  2.5490  1.4365
 1933SOL    HW217259   4.072   2.329   2.411  2.0733 -1.0870 -2.2665
 1934SOL     OW17260   0.617   2.091   8.607  0.2447 -0.0278  0.0358
 1934SOL    HW117261   0.648   2.169   8.654 -0.5947  0.1456  0.2991
 1934SOL    HW217262   0.523   2.109   8.598  0.3662  2.1248  2.7972
 1935SOL     OW17263   4.386   0.201   1.222 -0.0035  0.1894 -0.2399
 1935SOL    HW117264   4.352   0.115   1.197  1.3448 -0.0422 -1.3397
 1935SOL    HW217265   4.349   0.263   1.159  0.4184 -0.8806 -1.5442
 1936SOL     OW17266   4.469   4.234  16.351  0.2126 -0.5149  0.0601
 1936SOL    HW117267   4.526   4.225  16.427  1.6601 -2.5148 -1.2810
 1936SOL    HW217268   4.441   4.143  16.342  1.9493 -0.8946 -1.4699
 1937SOL     OW17269   0.464   3.824   0.756 -0.5737 -0.0529 -0.0863
 1937SOL    HW117270   0.467   3.914   0.788  0.6528 -0.0840 -0.1309
 1937SOL    HW217271   0.431   3.834   0.666 -0.5151  0.5926 -0.0347
 1938SOL     OW17272   0.996   0.534  12.267  0.2999  0.2547 -0.1419
 1938SOL    HW117273   0.954   0.489  12.340 -0.1404 -1.4412 -1.4378
 1938SOL    HW217274   0.936   0.526  12.193 -0.2645  1.9739  0.1257
 1939SOL     OW17275   0.668   1.792   5.968 -0.3270 -0.2447  0.4247
 1939SOL    HW117276   0.597   1.850   5.995  2.0324  1.5633  2.7744
 1939SOL    HW217277   0.695   1.767   6.056  0.9556  0.0034  0.1131
 1940SOL     OW17278   3.442   4.658  14.004 -0.1693  0.2551  0.4341
 1940SOL    HW117279   3.482   4.584  13.957  1.0233 -0.0820  2.0029
 1940SOL    HW217280   3.376   4.669  13.935  3.3600  2.5842 -2.5559
 1941SOL     OW17281   4.716   2.660   4.702  0.1065 -0.4973  0.6331
 1941SOL    HW117282   4.668   2.652   4.619  0.2311  0.9462  0.4189
 1941SOL    HW217283   0.076   2.701   4.671 -1.3903  1.9771 -0.0098
 1942SOL     OW17284   2.042   2.418   7.177  0.2784  0.4797 -0.0203
 1942SOL    HW117285   1.999   2.348   7.226  1.1725  1.6308  2.4290
 1942SOL    HW217286   2.097   2.458   7.244  0.7977  0.1895 -0.2674
 1943SOL     OW17287   4.611   4.123  16.570  0.4379 -0.1798 -0.3070
 1943SOL    HW117288   4.639   4.196  16.627  0.9449 -0.0196 -0.7571
 1943SOL    HW217289   4.529   4.091  16.607  1.5820 -0.8160  1.6837
 1944SOL     OW17290   0.326   0.365  12.553  0.3413 -0.6898 -0.1092
 1944SOL    HW117291   0.254   0.340  12.611  0.5839  0.3163  0.6334
 1944SOL    HW217292   0.389   0.297  12.577  1.8283  0.5792 -0.4073
 1945SOL     OW17293   0.948   1.076   2.175  1.1031 -0.6718  0.4208
 1945SOL    HW117294   0.934   1.143   2.109  0.6725 -0.0872  1.1069
 1945SOL    HW217295   0.862   1.059   2.215  1.1694  0.0559  0.8675
 1946SOL     OW17296   3.280   0.430   4.188  0.4831  0.5191 -0.0743
 1946SOL    HW117297   3.318   0.351   4.226  0.1372  1.0005  1.2821
 1946SOL    HW217298   3.357   0.474   4.154 -0.1329 -0.6054 -2.9342
 1947SOL     OW17299   1.789   1.688   6.890  0.3701 -0.1912 -0.2178
 1947SOL    HW117300   1.702   1.720   6.868  0.9484  2.5325  1.4419
 1947SOL    HW217301   1.795   1.742   6.969  1.6396 -0.0055 -0.4481
 1948SOL     OW17302   3.727   2.888   5.566  0.4534 -0.1541 -0.4828
 1948SOL    HW117303   3.738   2.803   5.523  0.7096  0.5986 -1.9141
 1948SOL    HW217304   3.800   2.879   5.627  0.8459  0.3942 -0.8638
 1949SOL     OW17305   3.056   1.476   8.572 -0.3880 -0.6608 -0.4091
 1949SOL    HW117306   3.060   1.383   8.593 -0.8123 -0.8231 -1.0453
 1949SOL    HW217307   3.006   1.513   8.645 -1.7564 -1.3104 -1.0101
 1950SOL     OW17308   1.899   0.069   2.859 -0.2411  0.4488 -0.4320
 1950SOL    HW117309   1.963   0.028   2.917  1.7067  2.7187 -1.0101
 1950SOL    HW217310   1.823   0.012   2.875  2.0882 -2.3624  0.6933
 1951SOL     OW17311   1.902   4.542  10.505 -0.0989 -0.5305 -0.0160
 1951SOL    HW117312   1.992   4.521  10.529  1.2100  2.3503 -2.4687
 1951SOL    HW217313   1.854   4.480  10.560  2.2550 -2.2981  0.0663
 1952SOL     OW17314   3.500   0.496  12.256  0.6247  0.7110  0.3137
 1952SOL    HW117315   3.412   0.461  12.244  1.6821 -1.9868  0.3367
 1952SOL    HW217316   3.507   0.550  12.178 -1.9163  0.3324 -0.1826
 1953SOL     OW17317   2.175   0.508  12.266  0.0700 -0.0313 -0.1574
 1953SOL    HW117318   2.201   0.418  12.246 -2.3919 -0.7215 -0.2183
 1953SOL    HW217319   2.262   0.542  12.289 -0.1571  1.6395 -1.7816
 1954SOL     OW17320   1.522   0.593  10.478  0.4972 -0.5516 -0.0829
 1954SOL    HW117321   1.430   0.579  10.497  0.3456  0.2200 -0.2517
 1954SOL    HW217322   1.561   0.582  10.565 -0.5880 -0.1074  0.4556
 1955SOL     OW17323   1.926   0.914   7.818  0.0296  0.3387  0.3837
 1955SOL    HW117324   1.997   0.899   7.881 -0.4535  3.2124  1.5885
 1955SOL    HW217325   1.859   0.939   7.881 -1.4798 -1.6724 -0.4270
 1956SOL     OW17326   1.176   3.426   8.045 -0.3004  0.2258 -0.1638
 1956SOL    HW117327   1.124   3.466   8.115 -1.2564  0.0256 -0.7461
 1956SOL    HW217328   1.261   3.449   8.082  0.4549  1.5559 -2.7612
 1957SOL     OW17329   4.499   2.558   0.555 -0.6045  0.2697 -0.4375
 1957SOL    HW117330   4.474   2.603   0.636 -3.2812 -0.8833 -0.6306
 1957SOL    HW217331   4.565   2.509   0.605 -3.4425 -3.0543  0.0783
 1958SOL     OW17332   0.580   4.084   4.239  0.2401 -0.2983 -0.2814
 1958SOL    HW117333   0.649   4.150   4.239 -0.2275  0.1831 -1.1008
 1958SOL    HW217334   0.554   4.089   4.331  1.1867  0.5203 -0.0607
 1959SOL     OW17335   0.156   1.043   7.606  0.1111 -0.2456  0.1620
 1959SOL    HW117336   0.088   1.019   7.544 -0.4317 -1.3112  1.1784
 1959SOL    HW217337   0.205   1.115   7.566 -2.6677  2.3333  1.4398
 1960SOL     OW17338   3.878   0.848   9.579 -0.3102  0.6721 -0.2037
 1960SOL    HW117339   3.914   0.764   9.609  0.4748  0.5927 -1.3627
 1960SOL    HW217340   3.842   0.873   9.664  0.6344 -1.9893  0.9945
 1961SOL     OW17341   2.602   2.491  14.881  0.5085 -0.8298 -1.0870
 1961SOL    HW117342   2.680   2.467  14.931 -0.1943  0.3321  0.5620
 1961SOL    HW217343   2.608   2.443  14.799  0.2196 -2.4407 -0.1468
 1962SOL     OW17344   2.971   3.985   7.317 -0.5553 -0.5856  0.0171
 1962SOL    HW117345   3.057   3.999   7.277 -1.0789 -0.3993 -1.0384
 1962SOL    HW217346   2.912   4.037   7.263 -2.0634  0.2384  2.4747
 1963SOL     OW17347   4.334   0.819   0.063 -0.1860 -0.1191 -0.0220
 1963SOL    HW117348   4.310   0.874   0.137  1.0995 -0.9725  1.0225
 1963SOL    HW217349   4.400   0.877   0.025 -0.2154  0.7230  1.2341
 1964SOL     OW17350   1.795   0.659   4.905 -0.3381 -0.5937 -0.3445
 1964SOL    HW117351   1.891   0.651   4.905 -0.3632 -0.9352 -0.5810
 1964SOL    HW217352   1.787   0.754   4.910 -1.0043 -0.6278 -0.8167
 1965SOL     OW17353   2.248   4.228  11.896  0.6618 -0.2317  0.4742
 1965SOL    HW117354   2.283   4.172  11.965  0.5181 -1.5783 -0.5415
 1965SOL    HW217355   2.310   4.209  11.826 -0.8110 -1.8401 -0.4218
 1966SOL     OW17356   3.056   4.647  13.563 -0.0048 -0.7860 -0.0365
 1966SOL    HW117357   3.068   4.627  13.471  0.0506 -0.6018 -0.0702
 1966SOL    HW217358   3.024   0.017  13.564  1.8449 -0.1111 -1.0662
 1967SOL     OW17359   0.325   0.214   1.621  0.4885  0.3249 -0.3267
 1967SOL    HW117360   0.314   0.267   1.542 -0.6762  0.4419 -0.0951
 1967SOL    HW217361   0.326   0.124   1.588  1.2957  0.1251  0.2457
 1968SOL     OW17362   2.191   4.709  11.306  0.1026 -0.2139 -0.1731
 1968SOL    HW117363   2.186   4.684  11.398  1.7901 -2.8745 -0.7884
 1968SOL    HW217364   2.097   0.003  11.302  0.5422  1.9162 -2.3106
 1969SOL     OW17365   1.820   4.171   1.856  0.1784 -0.5190 -0.5602
 1969SOL    HW117366   1.825   4.088   1.809 -0.7684 -0.5973 -0.5135
 1969SOL    HW217367   1.904   4.210   1.831  0.1434 -0.0104  0.1102
 1970SOL     OW17368   1.179   3.106   4.955 -0.3392 -0.2243  0.1354
 1970SOL    HW117369   1.167   3.011   4.956  0.2926 -0.3019  0.8450
 1970SOL    HW217370   1.117   3.127   4.886  0.5061  1.1036 -0.2207
 1971SOL     OW17371   3.047   4.374  15.475  0.0274  0.1747 -0.3271
 1971SOL    HW117372   3.019   4.453  15.428 -0.6609 -0.3763 -0.8393
 1971SOL    HW217373   2.968   4.348  15.523  0.1037  0.6008  0.0273
 1972SOL     OW17374   3.111   4.714   4.856 -0.0787  0.1180  0.8214
 1972SOL    HW117375   3.185   4.656   4.834  0.5953  1.2434  0.0674
 1972SOL    HW217376   3.137   0.073   4.809  0.6297 -0.8213 -0.3879
 1973SOL     OW17377   4.663   4.507  16.337  0.3982 -0.0017 -1.0639
 1973SOL    HW117378   4.586   4.544  16.294  0.4718  1.5809  0.1442
 1973SOL    HW217379   4.622   4.494  16.422 -1.7069  1.7907 -1.8115
 1974SOL     OW17380   0.858   1.856   1.362 -0.1599  0.6604  0.0953
 1974SOL    HW117381   0.835   1.920   1.430  0.7163 -3.5722  4.3290
 1974SOL    HW217382   0.804   1.891   1.291  1.1897  1.8634 -0.3457
 1975SOL     OW17383   2.753   0.411   3.391 -0.0433  0.1592 -0.1976
 1975SOL    HW117384   2.665   0.403   3.356 -0.4374  0.3847  0.7435
 1975SOL    HW217385   2.747   0.363   3.473  0.1201  1.1301  0.3832
 1976SOL     OW17386   1.337   1.114   8.076  0.1165 -0.1213  0.2681
 1976SOL    HW117387   1.409   1.168   8.045  2.0119 -1.4843  2.2455
 1976SOL    HW217388   1.372   1.027   8.056 -1.8145 -1.4837  2.7839
 1977SOL     OW17389   4.254   0.704   6.103 -0.4635  0.4729 -0.3719
 1977SOL    HW117390   4.248   0.778   6.163  1.2790  1.5961 -1.5716
 1977SOL    HW217391   4.253   0.750   6.019  0.5790 -0.2347 -0.7775
 1978SOL     OW17392   2.630   1.893   7.008  0.3775  0.1497 -0.3207
 1978SOL    HW117393   2.633   1.961   6.941  1.7003  1.4939  1.1235
 1978SOL    HW217394   2.697   1.833   6.976  1.4901 -0.2964  2.8470
 1979SOL     OW17395   4.148   2.223  15.373  0.1352 -0.0462  0.3017
 1979SOL    HW117396   4.087   2.251  15.305  0.6305 -0.7936 -0.4369
 1979SOL    HW217397   4.172   2.311  15.405  0.3765 -0.6784  1.8755
 1980SOL     OW17398   4.717   4.084   0.452  0.2419 -0.2459  0.0325
 1980SOL    HW117399   4.683   3.995   0.465 -0.6813  0.1453  0.2431
 1980SOL    HW217400   4.663   4.136   0.510  0.3537  1.7078 -1.6089
 1981SOL     OW17401   3.301   1.608  15.021  0.0783 -0.1844  0.0237
 1981SOL    HW117402   3.321   1.518  15.047  0.5915 -0.2149 -0.4600
 1981SOL    HW217403   3.348   1.616  14.937 -2.1298  0.9959 -1.0890
 1982SOL     OW17404   1.085   2.841  10.434  0.2110 -0.2947  0.1017
 1982SOL    HW117405   1.036   2.785  10.375 -1.3672  1.2253 -0.0331
 1982SOL    HW217406   1.058   2.807  10.519 -1.9383  0.4644 -0.2798
 1983SOL     OW17407   0.477   0.905   4.674  0.3722  0.3806  0.2521
 1983SOL    HW117408   0.497   0.987   4.629 -0.5288 -0.2840 -1.3620
 1983SOL    HW217409   0.448   0.857   4.597 -1.5292 -0.0616  1.2349
 1984SOL     OW17410   2.759   2.335   2.604  0.1822  0.3325 -0.1019
 1984SOL    HW117411   2.755   2.242   2.583  0.8972 -0.2077  2.1147
 1984SOL    HW217412   2.840   2.331   2.654 -1.6206 -1.8783  2.6325
 1985SOL     OW17413   2.925   0.305   6.406 -0.8223 -0.1779 -0.2488
 1985SOL    HW117414   2.938   0.360   6.328 -2.1393  1.5101  0.7269
 1985SOL    HW217415   3.013   0.320   6.442 -1.0177  2.7377 -0.9416
 1986SOL     OW17416   3.770   0.909   2.653  0.7092 -0.0629  0.2041
 1986SOL    HW117417   3.843   0.918   2.593  0.5879  0.3465  0.1145
 1986SOL    HW217418   3.708   0.953   2.595 -0.5428  0.0573  1.5938
 1987SOL     OW17419   2.039   1.765   4.680  0.4791  0.0626  0.0040
 1987SOL    HW117420   1.992   1.785   4.599  0.5306  2.0978  0.4822
 1987SOL    HW217421   2.121   1.814   4.674  0.0797  0.4466 -2.1327
 1988SOL     OW17422   1.009   0.776   5.025  0.0587  0.4086  0.0725
 1988SOL    HW117423   0.924   0.739   5.048  0.4839  0.3098  1.4431
 1988SOL    HW217424   1.062   0.736   5.094 -0.1947 -1.5959 -0.8825
 1989SOL     OW17425   1.717   4.421  11.236  0.6106 -0.2065 -0.8068
 1989SOL    HW117426   1.790   4.417  11.298  0.6507  1.4376 -0.7320
 1989SOL    HW217427   1.724   4.512  11.206  2.5794 -0.6270 -1.6118
 1990SOL     OW17428   3.150   4.166   7.140  0.2223  0.6907  0.0627
 1990SOL    HW117429   3.214   4.186   7.072  0.4131  3.1152  0.9738
 1990SOL    HW217430   3.104   4.247   7.164 -3.4650 -1.3551  0.0165
 1991SOL     OW17431   4.599   4.208   2.614  1.1352  0.0948 -0.5118
 1991SOL    HW117432   4.534   4.233   2.679  1.5997  0.1120 -0.0547
 1991SOL    HW217433   4.666   4.167   2.668  1.3052  0.2180 -0.6276
 1992SOL     OW17434   1.598   3.014   6.186  0.2534 -0.6070 -0.6594
 1992SOL    HW117435   1.595   2.920   6.172 -0.3469 -0.9378  1.7546
 1992SOL    HW217436   1.548   3.043   6.109  0.5133  1.4205 -0.0751
 1993SOL     OW17437   3.582   4.519   6.601  0.2786  0.3936  0.5936
 1993SOL    HW117438   3.550   4.436   6.568 -1.7436  1.4526 -0.1340
 1993SOL    HW217439   3.656   4.485   6.652 -0.4209  1.0097  2.0337
 1994SOL     OW17440   2.254   3.193   4.098  0.0416 -0.3259  0.1382
 1994SOL    HW117441   2.249   3.250   4.021 -0.2434 -3.5620 -2.2062
 1994SOL    HW217442   2.345   3.171   4.082 -0.1742 -1.4873  0.5000
 1995SOL     OW17443   4.278   1.183   4.053 -0.6235  0.7084 -0.5570
 1995SOL    HW117444   4.240   1.189   4.141  1.9743  1.6404  0.4961
 1995SOL    HW217445   4.225   1.239   3.995  0.8960  3.1552  0.4278
 1996SOL     OW17446   0.495   3.718   1.612  0.5036 -0.2533 -0.2398
 1996SOL    HW117447   0.538   3.655   1.554  0.2101 -0.1121 -0.6153
 1996SOL    HW217448   0.532   3.804   1.597  0.3843  0.0872  1.4652
 1997SOL     OW17449   2.334   3.418  10.244 -0.4153 -0.5909 -0.4539
 1997SOL    HW117450   2.300   3.506  10.260  1.3159  0.0361 -0.2070
 1997SOL    HW217451   2.423   3.413  10.278 -0.6566 -2.4025 -0.1322
 1998SOL     OW17452   3.002   4.668   2.858  0.2103  0.2377 -0.1919
 1998SOL    HW117453   2.976   4.594   2.914  0.4419 -0.3339 -0.8414
 1998SOL    HW217454   3.084   4.630   2.827 -0.3084 -0.6174 -0.4914
 1999SOL     OW17455   3.648   0.340   8.855  0.1305  0.1976 -0.1846
 1999SOL    HW117456   3.737   0.346   8.891  0.2402 -2.5399  0.0073
 1999SOL    HW217457   3.609   0.412   8.905  1.1721 -0.5017  1.6267
 2000SOL     OW17458   3.787   2.572   6.723  0.6131 -0.5356  0.2872
 2000SOL    HW117459   3.880   2.560   6.737  0.9009  1.1314 -0.1604
 2000SOL    HW217460   3.786   2.577   6.627  0.8140 -0.1793  0.3053
 2001SOL     OW17461   2.401   0.960   4.639  0.3503 -0.0752  0.5931
 2001SOL    HW117462   2.307   0.940   4.635  0.5788 -1.0392  0.0474
 2001SOL    HW217463   2.430   0.918   4.559 -1.5550 -1.2749  0.5131
 2002SOL     OW17464   0.849   2.455   6.784  0.4663 -0.2748  0.4860
 2002SOL    HW117465   0.766   2.489   6.817  1.4287  0.9613  1.6524
 2002SOL    HW217466   0.883   2.425   6.868  2.3746 -2.1562 -0.9322
 2003SOL     OW17467   2.979   1.260   1.882 -0.4799 -0.2507  0.1550
 2003SOL    HW117468   2.905   1.257   1.943  1.1792 -1.3254  2.1077
 2003SOL    HW217469   3.049   1.292   1.938  0.1646 -0.3668 -0.5845
 2004SOL     OW17470   3.319   0.214   4.483  0.0688 -0.8036 -0.2614
 2004SOL    HW117471   3.246   0.180   4.432 -0.9507  1.4412 -0.3247
 2004SOL    HW217472   3.384   0.216   4.412  0.8440  0.9540  0.4964
 2005SOL     OW17473   2.397   0.098   3.272 -0.0150 -0.6902  0.5191
 2005SOL    HW117474   2.475   0.059   3.232  1.0844  2.3728 -0.3287
 2005SOL    HW217475   2.337   0.109   3.198  1.3544 -0.9370 -0.6161
 2006SOL     OW17476   4.065   4.143   4.125  0.0375  0.6272 -0.2019
 2006SOL    HW117477   4.048   4.212   4.190  0.6880  2.4235 -1.9143
 2006SOL    HW217478   4.006   4.078   4.161  1.7223 -0.6391  0.2470
 2007SOL     OW17479   3.249   0.479   3.783 -1.1075 -0.2059  0.0502
 2007SOL    HW117480   3.239   0.406   3.845 -0.9787 -0.1490  0.1366
 2007SOL    HW217481   3.224   0.554   3.836  2.0288 -0.3464  1.6760
 2008SOL     OW17482   4.484   1.820   0.878  0.4353 -0.2459  0.6358
 2008SOL    HW117483   4.450   1.905   0.850  0.9456 -0.2776 -0.0817
 2008SOL    HW217484   4.442   1.761   0.815  3.0289 -1.5871  0.1807
 2009SOL     OW17485   3.962   1.952   7.795  0.0259  0.3336 -0.0641
 2009SOL    HW117486   4.047   1.978   7.829 -0.4798  0.0019  1.4786
 2009SOL    HW217487   3.948   1.866   7.835 -1.4940 -0.0617 -1.4286
 2010SOL     OW17488   2.968   3.952  17.632  0.1965 -0.1152  0.1961
 2010SOL    HW117489   3.016   3.962   0.029  1.0234 -2.3023 -0.0190
 2010SOL    HW217490   3.037   3.966  17.568  1.1944  2.9392  1.9372
 2011SOL     OW17491   1.184   3.907  16.164  0.3231 -0.4441  0.4798
 2011SOL    HW117492   1.189   3.984  16.107  1.8263 -1.8169 -1.2332
 2011SOL    HW217493   1.183   3.839  16.097 -0.7218  1.9639 -1.9248
 2012SOL     OW17494   0.380   3.654   4.620 -0.1404 -0.3356 -0.3568
 2012SOL    HW117495   0.362   3.718   4.689 -1.9729  1.6148 -2.6826
 2012SOL    HW217496   0.410   3.580   4.674  1.0131  0.2908 -0.1305
 2013SOL     OW17497   2.007   1.196   1.017 -0.4676 -0.1292 -0.5178
 2013SOL    HW117498   1.938   1.130   1.017  0.2256 -0.8720  0.7191
 2013SOL    HW217499   2.082   1.141   1.038  0.9093  1.1507 -2.0819
 2014SOL     OW17500   2.652   2.960  15.100  0.4093  0.0716 -0.9537
 2014SOL    HW117501   2.609   3.042  15.076  0.4210  0.2906 -0.2337
 2014SOL    HW217502   2.691   2.940  15.015 -0.2534 -3.4515 -0.4290
 2015SOL     OW17503   4.548   0.103   8.265 -0.1681  0.3350  0.4711
 2015SOL    HW117504   4.500   0.066   8.191  0.1992  0.7843  0.0017
 2015SOL    HW217505   4.590   0.178   8.223 -0.3799  0.6296  0.7894
 2016SOL     OW17506   1.685   2.406   7.288 -0.0984  0.1541  0.0364
 2016SOL    HW117507   1.763   2.353   7.307 -1.4181 -1.9871 -0.5003
 2016SOL    HW217508   1.682   2.385   7.195 -2.8205 -0.8921  0.3815
 2017SOL     OW17509   3.966   4.250   2.079 -0.1081  0.2213 -0.6559
 2017SOL    HW117510   4.008   4.196   2.013  0.1225  1.6692 -1.6901
 2017SOL    HW217511   4.011   4.220   2.159 -1.5388  2.7714  1.1135
 2018SOL     OW17512   2.641   3.771   2.324  0.3502 -0.3965 -0.4989
 2018SOL    HW117513   2.618   3.848   2.271  1.1117  0.5732  0.5935
 2018SOL    HW217514   2.737   3.769   2.319  0.4201  0.1605  0.6676
 2019SOL     OW17515   0.836   3.519   2.182  0.2415 -0.2946  0.1922
 2019SOL    HW117516   0.811   3.449   2.243 -0.2564 -0.2178  0.0743
 2019SOL    HW217517   0.928   3.496   2.171  0.5401  1.8658 -1.6699
 2020SOL     OW17518   3.927   2.321   3.659 -0.1868  1.2290 -0.2165
 2020SOL    HW117519   3.960   2.232   3.650 -2.0482  0.3365  1.7556
 2020SOL    HW217520   3.972   2.351   3.738 -0.7818  1.8951 -0.1247
 2021SOL     OW17521   4.269   1.544   4.041 -0.3440 -0.1843  0.8969
 2021SOL    HW117522   4.182   1.530   4.076  0.1374 -1.7893  1.4811
 2021SOL    HW217523   4.245   1.597   3.965 -1.8003  0.2261  1.6598
 2022SOL     OW17524   2.446   0.444   1.085 -0.1666  0.0278 -0.3894
 2022SOL    HW117525   2.466   0.418   1.175  0.1895  0.9870 -0.1865
 2022SOL    HW217526   2.414   0.365   1.042  1.0675 -0.7097  0.0539
 2023SOL     OW17527   3.822   2.228   2.508  0.5290 -0.0813 -0.3654
 2023SOL    HW117528   3.734   2.246   2.477  0.2036 -0.7776  0.1490
 2023SOL    HW217529   3.818   2.292   2.579 -0.7835 -0.4892 -0.0722
 2024SOL     OW17530   2.636   3.777   7.330 -0.0868  0.4414 -0.4834
 2024SOL    HW117531   2.657   3.722   7.255  0.1865  0.1056 -0.1643
 2024SOL    HW217532   2.545   3.755   7.353  0.0751  0.8219  0.5210
 2025SOL     OW17533   2.815   3.219  11.004 -0.5782  0.5203 -0.4001
 2025SOL    HW117534   2.783   3.182  10.922  1.6577  1.0813 -1.5464
 2025SOL    HW217535   2.909   3.197  11.005  0.1441  3.6505 -0.4661
 2026SOL     OW17536   3.734   0.094   3.717 -0.5864  0.1908  0.0524
 2026SOL    HW117537   3.763   0.147   3.643  0.5714  0.4368  0.6880
 2026SOL    HW217538   3.784   0.013   3.708  2.5765  2.2508 -0.7383
 2027SOL     OW17539   2.901   3.590   5.777  0.3500  0.6931 -0.5914
 2027SOL    HW117540   2.987   3.630   5.768  0.7588 -0.7875 -3.3194
 2027SOL    HW217541   2.831   3.650   5.749 -0.2737  1.0726  1.8201
 2028SOL     OW17542   2.967   4.314   6.901 -0.2163 -0.6190 -0.6951
 2028SOL    HW117543   2.967   4.393   6.954  4.3457 -0.5894 -0.7758
 2028SOL    HW217544   3.059   4.312   6.875 -0.7625  0.6235 -2.6740
 2029SOL     OW17545   2.672   3.173  10.226  0.0684 -0.0692 -0.6626
 2029SOL    HW117546   2.761   3.176  10.261 -0.1462  0.7451 -0.2081
 2029SOL    HW217547   2.613   3.217  10.286 -2.7083  0.3363 -3.7168
 2030SOL     OW17548   3.348   1.463   8.615 -0.1236 -0.2673 -0.0684
 2030SOL    HW117549   3.351   1.476   8.709 -1.3969 -0.3148 -0.0158
 2030SOL    HW217550   3.255   1.467   8.593 -0.0095  1.5605 -0.2256
 2031SOL     OW17551   3.882   4.116   4.511 -0.0038  0.5750 -0.0116
 2031SOL    HW117552   3.841   4.031   4.498  2.4589 -0.2659 -2.2407
 2031SOL    HW217553   3.945   4.094   4.579  0.8292  1.8024 -0.3826
 2032SOL     OW17554   1.924   1.561   7.830  0.2993  0.4921  1.0205
 2032SOL    HW117555   1.876   1.559   7.912 -1.1082  0.5411  0.1864
 2032SOL    HW217556   2.007   1.591   7.868  0.4843 -0.4958  1.3773
 2033SOL     OW17557   4.619   1.855   5.149 -0.7489 -0.1514 -0.1307
 2033SOL    HW117558   4.641   1.900   5.067 -1.5200  0.3057 -0.0904
 2033SOL    HW217559   4.524   1.846   5.141 -0.6268 -0.6325 -1.0958
 2034SOL     OW17560   2.209   0.474   5.817 -0.2555  0.0700  0.1879
 2034SOL    HW117561   2.202   0.497   5.724 -0.4191 -1.1111 -0.0952
 2034SOL    HW217562   2.132   0.522   5.849 -0.4747  0.3082 -0.6829
 2035SOL     OW17563   4.150   0.327  15.691 -0.0288 -0.6484 -0.5535
 2035SOL    HW117564   4.156   0.400  15.752  0.9528 -3.4396  2.6761
 2035SOL    HW217565   4.240   0.326  15.656 -0.6465  0.4689 -2.1912
 2036SOL     OW17566   4.195   3.699   2.394 -0.0901  0.1061 -0.3970
 2036SOL    HW117567   4.256   3.736   2.457  2.5134 -0.4237 -2.5834
 2036SOL    HW217568   4.113   3.706   2.443 -0.1432 -2.0184 -0.1823
 2037SOL     OW17569   0.457   0.859   3.099  0.1298  0.2122 -0.1833
 2037SOL    HW117570   0.445   0.880   3.006 -0.2439 -1.9926 -0.6454
 2037SOL    HW217571   0.484   0.768   3.086 -1.6914 -0.0174 -2.4115
 2038SOL     OW17572   2.517   3.027  11.842 -0.3476 -0.4813 -0.4539
 2038SOL    HW117573   2.504   3.035  11.747 -1.8085  1.7326 -0.0680
 2038SOL    HW217574   2.568   2.946  11.845  0.2395 -0.0908 -0.0056
 2039SOL     OW17575   4.138   0.541  16.250 -0.3688  0.9269 -0.6180
 2039SOL    HW117576   4.067   0.602  16.271  1.3965  2.4938  0.7771
 2039SOL    HW217577   4.199   0.555  16.323 -0.4960  1.7123 -0.6540
 2040SOL     OW17578   1.654   4.085   7.865  0.3720 -0.6498  0.6623
 2040SOL    HW117579   1.620   4.171   7.887  0.3609 -0.2035 -1.0947
 2040SOL    HW217580   1.575   4.031   7.870  1.2513 -2.1296 -1.1781
 2041SOL     OW17581   4.549   1.752   7.907  0.2326  0.1848 -0.1047
 2041SOL    HW117582   4.522   1.731   7.818 -0.4628  0.0908  0.1291
 2041SOL    HW217583   4.637   1.773   7.877 -0.0198 -0.6657 -1.4320
 2042SOL     OW17584   3.851   3.263   4.261 -0.3040  0.4273  0.1258
 2042SOL    HW117585   3.882   3.273   4.171  0.1532  0.4319  0.2848
 2042SOL    HW217586   3.857   3.353   4.292  2.2650 -0.1735  1.3837
 2043SOL     OW17587   3.243   2.108   3.431 -0.1275 -0.1414  0.1956
 2043SOL    HW117588   3.268   2.019   3.453 -1.7254 -0.3278  1.2322
 2043SOL    HW217589   3.211   2.092   3.342  1.2673 -2.1783  0.0748
 2044SOL     OW17590   2.853   3.383  10.595  0.8266 -0.1589 -0.4987
 2044SOL    HW117591   2.762   3.405  10.617  0.8668 -1.3236  0.8214
 2044SOL    HW217592   2.849   3.292  10.565  0.4173 -0.1106 -0.5922
 2045SOL     OW17593   2.625   2.901   5.368 -0.3722 -0.4024 -1.1304
 2045SOL    HW117594   2.574   2.956   5.308  0.6715  1.7568 -0.0492
 2045SOL    HW217595   2.561   2.831   5.376 -2.6146  1.6808 -0.7831
 2046SOL     OW17596   0.105   3.711   4.878  0.3219 -0.2588  0.6159
 2046SOL    HW117597   0.179   3.758   4.839 -0.3944  1.1840  1.0226
 2046SOL    HW217598   0.045   3.776   4.913 -1.5849 -0.7351 -1.7716
 2047SOL     OW17599   1.141   1.223   2.772  0.3083  0.3495  0.3739
 2047SOL    HW117600   1.190   1.146   2.742  0.4489  1.0849 -1.2781
 2047SOL    HW217601   1.056   1.181   2.788  0.0697  0.6685 -0.0757
 2048SOL     OW17602   2.156   4.426   4.947  0.0420 -0.1569  0.3889
 2048SOL    HW117603   2.186   4.428   4.856 -0.9841  0.6958  0.0722
 2048SOL    HW217604   2.090   4.495   4.950 -0.1630 -0.2398 -2.1588
 2049SOL     OW17605   0.917   0.692   6.009  0.2913 -0.5609 -0.9180
 2049SOL    HW117606   0.857   0.690   5.934  1.4575 -2.1609 -1.7862
 2049SOL    HW217607   0.881   0.614   6.051 -1.3744  1.9430  2.3197
 2050SOL     OW17608   4.185   3.794   7.277  0.3738  0.0823  0.5218
 2050SOL    HW117609   4.140   3.728   7.223  0.3154 -0.6637  1.4714
 2050SOL    HW217610   4.124   3.865   7.294 -0.6299  0.2385 -3.7730
 2051SOL     OW17611   2.665   4.682   6.651 -0.0970 -0.0930  0.0745
 2051SOL    HW117612   2.698   0.051   6.657  0.2228 -0.4287  3.3604
 2051SOL    HW217613   2.751   4.642   6.655  0.4918  1.1258 -0.2738
 2052SOL     OW17614   4.504   1.487   6.646 -0.2109 -0.0136 -0.2233
 2052SOL    HW117615   4.572   1.522   6.703 -3.1612  0.5525  2.9443
 2052SOL    HW217616   4.448   1.564   6.646 -0.8177 -0.4499 -1.4803
 2053SOL     OW17617   3.498   4.345   3.824 -0.1473 -0.0816  0.2365
 2053SOL    HW117618   3.458   4.344   3.911  0.4357 -1.2334  0.4962
 2053SOL    HW217619   3.470   4.261   3.787 -3.0772  0.1000  2.0809
 2054SOL     OW17620   4.189   1.736   9.086 -0.2711  0.3266  0.1413
 2054SOL    HW117621   4.106   1.695   9.063 -0.3522  1.2616 -1.2562
 2054SOL    HW217622   4.255   1.671   9.062  0.1327  0.6554  0.3576
 2055SOL     OW17623   3.902   3.122   5.926 -0.5321 -0.5183  0.0779
 2055SOL    HW117624   3.882   3.152   5.838 -1.0068 -1.7356 -0.2204
 2055SOL    HW217625   3.984   3.170   5.936 -0.5205 -0.1698 -1.8038
 2056SOL     OW17626   1.334   0.919   6.184  0.1360  0.1393 -0.0336
 2056SOL    HW117627   1.425   0.942   6.206 -0.4572  1.7697  0.7043
 2056SOL    HW217628   1.308   0.994   6.132  0.4781  0.2451 -0.0506
 2057SOL     OW17629   3.950   4.029   9.974 -0.1986  0.2361  0.3416
 2057SOL    HW117630   4.035   4.033  10.017 -0.0850 -1.1704  0.2334
 2057SOL    HW217631   3.895   4.086  10.029 -0.1377 -0.8759  1.5442
 2058SOL     OW17632   1.921   2.794   5.977  0.1617 -0.2260  0.4721
 2058SOL    HW117633   1.964   2.719   5.935  0.7338  1.5866 -2.1585
 2058SOL    HW217634   1.937   2.867   5.917 -1.2787  0.7891  1.3300
 2059SOL     OW17635   1.528   0.330   8.741 -0.4531 -0.0016 -0.0502
 2059SOL    HW117636   1.577   0.249   8.753  2.9134  1.8777 -0.9906
 2059SOL    HW217637   1.562   0.376   8.818 -1.0285  0.2439  0.0578
 2060SOL     OW17638   3.150   1.694  13.659 -0.0895 -0.4469  0.0690
 2060SOL    HW117639   3.214   1.646  13.711  2.4871  2.0047 -0.8222
 2060SOL    HW217640   3.206   1.750  13.605 -1.5366  1.7073  0.8168
 2061SOL     OW17641   2.523   3.490   5.438 -0.3437  0.0989 -0.3660
 2061SOL    HW117642   2.558   3.496   5.349 -1.8486  1.0924 -0.8915
 2061SOL    HW217643   2.431   3.471   5.416 -0.1194 -0.4028 -0.8874
 2062SOL     OW17644   3.547   4.344   1.523  0.0275  0.0324 -0.2099
 2062SOL    HW117645   3.639   4.337   1.497  0.3074 -0.1129  0.8475
 2062SOL    HW217646   3.522   4.256   1.495 -0.3678  0.8088 -2.3340
 2063SOL     OW17647   0.171   3.659  15.909 -0.1831  0.3974  0.2881
 2063SOL    HW117648   0.214   3.579  15.879 -4.1176 -2.0683  1.1086
 2063SOL    HW217649   0.241   3.723  15.921  0.2123 -0.0365  0.2859
 2064SOL     OW17650   3.105   3.668   6.489  0.1378 -0.2174 -0.2503
 2064SOL    HW117651   3.103   3.753   6.533  3.2012  0.1875 -0.9467
 2064SOL    HW217652   3.164   3.615   6.543  0.7146  0.5647 -0.1155
 2065SOL     OW17653   1.668   3.882   4.307  0.3144 -0.4505 -0.3794
 2065SOL    HW117654   1.728   3.809   4.295 -0.6074 -1.0716 -1.2153
 2065SOL    HW217655   1.582   3.841   4.312 -0.9465  2.2594  0.1323
 2066SOL     OW17656   0.022   0.046  12.157  0.1289  0.5086 -0.4529
 2066SOL    HW117657   4.649   0.051  12.176  0.0024  2.2003 -1.5618
 2066SOL    HW217658   0.061   0.020  12.241  2.2986 -3.3786 -2.6441
 2067SOL     OW17659   3.117   3.668   5.028  0.1677  0.4475  0.2191
 2067SOL    HW117660   3.156   3.685   5.114  0.8051  2.2314 -0.4261
 2067SOL    HW217661   3.114   3.754   4.986  2.3186  0.1322 -0.5978
 2068SOL     OW17662   1.002   2.348  17.417  0.2967 -0.4310 -0.1747
 2068SOL    HW117663   1.073   2.286  17.396  2.3984  1.6325  0.8366
 2068SOL    HW217664   0.935   2.311  17.359  1.0274  0.2953 -1.4874
 2069SOL     OW17665   0.679   3.655   3.367 -0.0516 -0.1410  0.2170
 2069SOL    HW117666   0.662   3.743   3.402  0.1887  0.5943 -1.5205
 2069SOL    HW217667   0.599   3.609   3.391 -0.7209  1.1611  0.5011
 2070SOL     OW17668   2.670   1.669   7.771 -0.1346 -0.2035 -0.0175
 2070SOL    HW117669   2.676   1.729   7.845  1.9604  1.4486 -1.5375
 2070SOL    HW217670   2.605   1.707   7.713 -0.7550 -0.2226  0.6645
 2071SOL     OW17671   2.657   3.886   2.855  0.1882  0.3711 -0.1426
 2071SOL    HW117672   2.583   3.828   2.867  0.0720  0.3436 -1.0254
 2071SOL    HW217673   2.713   3.835   2.796  1.3856  0.5034  0.8792
 2072SOL     OW17674   1.893   3.978   0.025  0.0048 -0.0846 -0.0017
 2072SOL    HW117675   1.804   4.014   0.023 -0.0280 -0.2287 -1.2954
 2072SOL    HW217676   1.891   3.906  17.648  0.2006  3.0327 -3.6177
 2073SOL     OW17677   1.973   2.834   2.345  0.3500  0.3438  0.3336
 2073SOL    HW117678   2.039   2.797   2.404  1.3302  0.5698 -0.6353
 2073SOL    HW217679   1.974   2.762   2.282 -2.2044  1.1844 -0.6538
 2074SOL     OW17680   1.854   1.657  15.919  0.3519  0.0404  0.1094
 2074SOL    HW117681   1.797   1.587  15.952 -0.3613  0.5941  0.0435
 2074SOL    HW217682   1.930   1.606  15.893 -0.7481 -1.1510 -0.8015
 2075SOL     OW17683   4.532   2.169   0.372 -0.8843 -0.3426 -0.2787
 2075SOL    HW117684   4.616   2.196   0.410 -0.7412 -1.1301 -0.0339
 2075SOL    HW217685   4.484   2.251   0.370  0.6510  0.6015  0.7071
 2076SOL     OW17686   0.938   1.271   2.010 -0.2716 -0.1712  0.6978
 2076SOL    HW117687   0.897   1.335   2.069 -0.6098  2.0663 -1.9582
 2076SOL    HW217688   0.998   1.316   1.951 -1.2427  1.1512  0.7101
 2077SOL     OW17689   0.590   0.371   8.239  0.1599  0.5778  0.4861
 2077SOL    HW117690   0.605   0.378   8.145  0.0933 -2.0829  0.2663
 2077SOL    HW217691   0.566   0.458   8.269  0.2740  0.9738 -0.5689
 2078SOL     OW17692   3.961   0.159   6.336 -0.2852  0.1642  0.7040
 2078SOL    HW117693   3.994   0.095   6.400  0.5751 -1.1195 -1.0240
 2078SOL    HW217694   4.039   0.212   6.321  2.0729 -2.9537  1.7842
 2079SOL     OW17695   1.031   2.136   3.415  0.3400 -0.3476 -0.6824
 2079SOL    HW117696   1.001   2.077   3.346 -0.6162 -0.8007  0.1242
 2079SOL    HW217697   0.946   2.142   3.459  0.3272 -0.4751 -0.6911
 2080SOL     OW17698   4.254   4.068   3.919 -0.6121 -0.0351 -0.3112
 2080SOL    HW117699   4.204   4.100   3.994  1.7414  0.1476  1.1591
 2080SOL    HW217700   4.234   4.126   3.846  0.3098  1.6522  0.7754
 2081SOL     OW17701   0.082   4.414   6.803  0.0975  0.1737  0.2624
 2081SOL    HW117702   4.719   4.378   6.773 -0.2601  0.8614  0.4403
 2081SOL    HW217703   0.050   4.493   6.846  0.0171  0.7001 -0.7815
 2082SOL     OW17704   1.954   0.423   5.622 -0.4084  0.2579  0.2385
 2082SOL    HW117705   1.954   0.476   5.543 -1.2845  0.1192  0.1384
 2082SOL    HW217706   1.867   0.383   5.613 -0.2406 -0.1906  0.6372
 2083SOL     OW17707   3.302   1.546   5.125 -0.5900  0.1957  0.5340
 2083SOL    HW117708   3.352   1.546   5.043  0.8165  1.1517  1.4009
 2083SOL    HW217709   3.214   1.558   5.089  0.4128  0.1894 -1.9185
 2084SOL     OW17710   3.047   0.265   5.402 -0.0187 -0.4389 -0.7975
 2084SOL    HW117711   2.959   0.242   5.372  0.3789 -0.5807 -1.8546
 2084SOL    HW217712   3.064   0.345   5.353  1.2783  2.1749  3.9279
 2085SOL     OW17713   2.153   0.503   0.964 -0.3267  0.1480  0.0488
 2085SOL    HW117714   2.131   0.454   1.043  1.8653  2.7863  2.2974
 2085SOL    HW217715   2.199   0.576   1.005  0.9165 -1.2021  1.0399
 2086SOL     OW17716   2.036   3.319   9.155 -0.1577 -0.0307 -0.3265
 2086SOL    HW117717   1.973   3.284   9.218 -1.6959  2.3235 -0.5472
 2086SOL    HW217718   2.062   3.403   9.192  0.4699 -1.2510  1.9684
 2087SOL     OW17719   2.224   1.879  16.166  0.0316 -0.4670 -0.2909
 2087SOL    HW117720   2.218   1.783  16.165 -1.0595 -0.3848 -1.2899
 2087SOL    HW217721   2.315   1.894  16.140 -0.6443  1.0126 -1.7971
 2088SOL     OW17722   3.341   1.297   7.047  0.1115 -0.0889 -0.3735
 2088SOL    HW117723   3.273   1.259   6.992  0.1155  0.3765 -0.7047
 2088SOL    HW217724   3.423   1.272   7.003  0.0986 -0.5963 -0.0985
 2089SOL     OW17725   0.346   1.323   8.429 -0.3429 -0.2655  0.1348
 2089SOL    HW117726   0.385   1.397   8.477 -0.1434  1.1249 -2.1497
 2089SOL    HW217727   0.403   1.257   8.468 -0.9312 -1.4059 -0.9414
 2090SOL     OW17728   3.736   3.021   2.103  0.8633 -0.0686  0.3047
 2090SOL    HW117729   3.742   3.110   2.140 -0.8022 -0.5101  1.6422
 2090SOL    HW217730   3.723   2.968   2.182 -0.0857  0.5349  0.5645
 2091SOL     OW17731   0.813   1.685   8.276 -0.4285  0.0836 -0.5771
 2091SOL    HW117732   0.836   1.729   8.358  0.6428  2.5984 -2.2349
 2091SOL    HW217733   0.758   1.614   8.308  1.1445 -0.2299  1.3906
 2092SOL     OW17734   4.171   0.003   4.945  0.1256  0.9500 -0.3358
 2092SOL    HW117735   4.242   0.033   4.888  1.0046 -1.5299 -0.5670
 2092SOL    HW217736   4.117   0.081   4.956  1.4763  1.8894 -0.4694
 2093SOL     OW17737   1.434   0.597   5.902  0.5173 -0.3324  0.0228
 2093SOL    HW117738   1.375   0.673   5.899  0.0459 -0.6601  1.0936
 2093SOL    HW217739   1.480   0.608   5.819 -0.6498  0.9942 -0.4539
 2094SOL     OW17740   0.883   1.471   3.886 -0.4710  0.6394  0.0186
 2094SOL    HW117741   0.896   1.566   3.885 -4.0517  1.0635 -2.1205
 2094SOL    HW217742   0.788   1.465   3.891 -0.3010 -0.7296  1.5609
 2095SOL     OW17743   1.834   1.445   7.339 -0.0713  0.6061 -0.3063
 2095SOL    HW117744   1.832   1.480   7.250 -0.4421  0.5310 -0.3270
 2095SOL    HW217745   1.750   1.400   7.337  0.3864 -0.2144 -1.5562
 2096SOL     OW17746   4.497   3.478   3.101  0.2065 -0.2553  0.0032
 2096SOL    HW117747   4.569   3.538   3.079  1.2855 -1.0431  1.3661
 2096SOL    HW217748   4.417   3.529   3.108  0.2923  0.0948 -1.5326
 2097SOL     OW17749   3.834   1.456   0.779 -0.3943 -0.2361  0.7784
 2097SOL    HW117750   3.882   1.533   0.748 -1.0517  0.1047  0.6234
 2097SOL    HW217751   3.746   1.487   0.758 -0.0036 -0.1029 -0.6881
 2098SOL     OW17752   1.672   2.265   3.109  0.1023  0.5922 -0.3015
 2098SOL    HW117753   1.673   2.354   3.073  0.0475  0.5452 -0.4178
 2098SOL    HW217754   1.760   2.230   3.121  0.3294  1.5911  1.0071
 2099SOL     OW17755   4.416   0.565   1.289 -0.2076  0.1304  0.4310
 2099SOL    HW117756   4.440   0.657   1.284  2.0725 -0.4975 -0.4026
 2099SOL    HW217757   4.380   0.555   1.201  2.0973 -1.1677 -0.3733
 2100SOL     OW17758   3.721   0.182  15.476  0.6582  0.3530  0.4494
 2100SOL    HW117759   3.652   0.194  15.412  3.0059  1.6664 -1.8320
 2100SOL    HW217760   3.754   0.101  15.439  0.6129  0.5882 -0.1095
 2101SOL     OW17761   0.639   0.429   3.038 -0.0253 -0.4312  0.1011
 2101SOL    HW117762   0.702   0.495   3.008 -1.4614  1.3530  0.9745
 2101SOL    HW217763   0.554   0.473   3.047 -0.7053 -1.4033 -1.4924
 2102SOL     OW17764   4.629   1.462  14.210  0.3229  0.5731  0.5318
 2102SOL    HW117765   4.585   1.378  14.195  0.5266  0.6696 -0.6006
 2102SOL    HW217766   4.552   1.519  14.216  0.5793  0.7161  2.4931
 2103SOL     OW17767   3.287   2.762   3.745  0.3175 -0.1255 -0.0474
 2103SOL    HW117768   3.278   2.667   3.756 -0.3787  0.1095  1.3791
 2103SOL    HW217769   3.335   2.786   3.824 -0.7573 -0.8876  0.8469
 2104SOL     OW17770   2.352   1.045  13.925 -0.0637 -0.3175  0.5624
 2104SOL    HW117771   2.364   0.950  13.935  4.1592  0.1531  0.1999
 2104SOL    HW217772   2.347   1.046  13.829 -1.2020  0.2666  0.6352
 2105SOL     OW17773   0.898   3.123  11.511 -0.0610  0.2086 -0.1924
 2105SOL    HW117774   0.869   3.067  11.439 -2.2318  0.7448  0.2700
 2105SOL    HW217775   0.955   3.186  11.467 -1.5257  0.1081 -2.2286
 2106SOL     OW17776   4.143   0.006  14.449  0.0919  0.2011 -0.4846
 2106SOL    HW117777   4.072   0.014  14.384  1.7570  2.2816 -2.0246
 2106SOL    HW217778   4.218   0.015  14.391  0.4377  0.7073  0.0527
 2107SOL     OW17779   1.813   2.818  15.993  0.2847 -0.7012 -0.0438
 2107SOL    HW117780   1.891   2.764  16.003  1.1287  0.4674 -0.2354
 2107SOL    HW217781   1.850   2.904  15.971  0.4117 -0.2085  2.0116
 2108SOL     OW17782   1.866   4.071   1.538  0.3030 -0.5565  0.1663
 2108SOL    HW117783   1.771   4.076   1.545  0.2315  1.0502 -1.9662
 2108SOL    HW217784   1.877   4.159   1.501  0.5605 -1.1039 -1.0408
 2109SOL     OW17785   3.417   3.509   3.603  0.0728  0.3082 -0.3705
 2109SOL    HW117786   3.377   3.480   3.521  1.5593 -1.5032 -0.4509
 2109SOL    HW217787   3.450   3.595   3.578  3.5984  0.3912  4.5384
 2110SOL     OW17788   3.021   2.600   1.042 -0.3467 -0.5137 -0.2566
 2110SOL    HW117789   3.006   2.613   0.948 -0.6271 -1.8561 -0.3995
 2110SOL    HW217790   3.049   2.509   1.050 -0.6643 -0.6192 -0.3460
 2111SOL     OW17791   0.710   4.519   3.470  0.5614 -0.1607 -0.3181
 2111SOL    HW117792   0.626   4.472   3.461  0.0891  0.5444  0.4309
 2111SOL    HW217793   0.672   4.606   3.458 -1.4526 -1.1195 -0.9241
 2112SOL     OW17794   1.267   2.939   8.994 -0.2173 -0.0579 -0.0188
 2112SOL    HW117795   1.196   2.967   9.053 -0.2205 -1.4136  0.6094
 2112SOL    HW217796   1.239   2.852   8.967  2.1824 -1.2091  1.2536
 2113SOL     OW17797   0.987   2.912   6.539  0.1268  0.0139  0.6670
 2113SOL    HW117798   0.956   2.831   6.580 -1.5830  0.5973  0.5091
 2113SOL    HW217799   1.005   2.868   6.456 -0.1727  1.5194 -0.1903
 2114SOL     OW17800   3.217   0.086   8.798  0.1435  0.5578 -0.4367
 2114SOL    HW117801   3.215   0.036   8.716  0.9173  1.7553 -1.1880
 2114SOL    HW217802   3.308   0.112   8.790  0.5343 -0.7643 -0.1314
 2115SOL     OW17803   3.711   0.009   7.336 -1.0308 -0.1399 -0.4220
 2115SOL    HW117804   3.725   4.643   7.374  1.9291  1.6651  2.5058
 2115SOL    HW217805   3.754   0.067   7.399  0.3411  0.4151 -1.8620
 2116SOL     OW17806   4.008   4.588   4.739 -0.2931 -0.5231  0.3686
 2116SOL    HW117807   3.949   4.529   4.785  0.0910 -1.3665 -0.2120
 2116SOL    HW217808   4.064   4.617   4.811 -1.5447  0.0883  1.0854
 2117SOL     OW17809   1.944   1.074  13.443  0.0008  0.3874  0.3958
 2117SOL    HW117810   2.035   1.065  13.468  0.6594  1.4774 -1.6196
 2117SOL    HW217811   1.904   1.078  13.530 -1.2896 -2.8095 -0.0522
 2118SOL     OW17812   4.069   1.839   3.062  0.0167 -0.0194  0.0417
 2118SOL    HW117813   4.098   1.782   3.133 -0.6534 -2.4566 -1.6193
 2118SOL    HW217814   4.151   1.859   3.017 -1.1000  0.6608 -1.7142
 2119SOL     OW17815   1.023   0.346   7.212  0.0244  0.0082  0.6445
 2119SOL    HW117816   1.036   0.263   7.167 -3.2556 -0.2068  0.0876
 2119SOL    HW217817   1.056   0.319   7.298  1.1726  0.2577  0.2843
 2120SOL     OW17818   0.903   2.523  17.591 -0.2575  0.0336  0.0366
 2120SOL    HW117819   0.937   2.478  17.514  0.0370 -1.5127  1.0571
 2120SOL    HW217820   0.938   2.473  17.665 -0.4972  0.5756  0.5192
 2121SOL     OW17821   4.339   2.274   5.160  0.5704 -0.0711 -0.1887
 2121SOL    HW117822   4.272   2.339   5.138 -0.7160 -1.5087 -0.5541
 2121SOL    HW217823   4.357   2.235   5.074 -0.1426 -1.6289  0.3740
 2122SOL     OW17824   1.605   4.386   6.113 -0.3632 -0.5123  0.0344
 2122SOL    HW117825   1.596   4.411   6.205 -1.6427  0.9287 -0.4787
 2122SOL    HW217826   1.698   4.391   6.090  0.0645 -2.4114  1.3865
 2123SOL     OW17827   1.736   0.342   5.940  0.0157  0.4957  0.0355
 2123SOL    HW117828   1.824   0.305   5.940 -0.5486 -0.8837  0.6923
 2123SOL    HW217829   1.690   0.271   5.894 -0.4881  1.3306 -0.7505
 2124SOL     OW17830   4.219   2.048   1.176  0.0122  0.3914 -0.1625
 2124SOL    HW117831   4.307   2.047   1.139  0.1633 -0.2223  0.2092
 2124SOL    HW217832   4.206   1.956   1.201  2.2720  0.8444  2.5509
 2125SOL     OW17833   2.579   4.628   4.253 -0.4549  0.1443  0.5200
 2125SOL    HW117834   2.531   4.671   4.323 -0.5727 -1.2509  1.2740
 2125SOL    HW217835   2.528   4.548   4.247 -1.7861  1.0847 -0.9215
 2126SOL     OW17836   2.900   1.314  14.462 -0.6895 -0.2020  0.5470
 2126SOL    HW117837   2.828   1.363  14.503 -0.5461  1.7792 -1.5704
 2126SOL    HW217838   2.943   1.255  14.525 -1.5064 -1.5910 -0.1935
 2127SOL     OW17839   0.864   1.022   4.771 -0.5660 -0.4301  0.5808
 2127SOL    HW117840   0.905   1.088   4.826  3.1841 -2.6826  0.5164
 2127SOL    HW217841   0.780   1.000   4.810 -0.3943 -1.1173  0.5675
 2128SOL     OW17842   4.282   1.682   0.733 -0.5469  0.3837 -0.3791
 2128SOL    HW117843   4.270   1.656   0.642 -2.4670  0.5785 -0.1832
 2128SOL    HW217844   4.230   1.761   0.749 -0.9482  0.1149 -0.3320
 2129SOL     OW17845   3.711   0.762   6.888  0.1961  0.7803  0.7866
 2129SOL    HW117846   3.681   0.785   6.800 -0.7509  0.2141  0.9594
 2129SOL    HW217847   3.637   0.793   6.940 -0.5906  0.0919  0.0822
 2130SOL     OW17848   3.509   2.173   8.994 -0.7150 -0.1382 -0.7346
 2130SOL    HW117849   3.440   2.203   9.053  0.6486  0.1623  0.6955
 2130SOL    HW217850   3.472   2.186   8.906  2.0469  1.8383 -1.6198
 2131SOL     OW17851   0.682   2.313  12.434  0.3242  0.1182  0.3391
 2131SOL    HW117852   0.764   2.315  12.385 -1.1551 -0.2215 -2.1128
 2131SOL    HW217853   0.644   2.235  12.395 -0.0206  0.3311  0.2578
 2132SOL     OW17854   0.544   2.901   4.757  0.3049  0.1814  0.1813
 2132SOL    HW117855   0.633   2.905   4.791  0.6995 -0.5325 -0.7655
 2132SOL    HW217856   0.503   2.879   4.840  0.6456 -0.1809  0.2530
 2133SOL     OW17857   1.992   1.042   6.870  0.2919  0.4930 -0.0785
 2133SOL    HW117858   1.945   1.085   6.941  1.3043 -0.0462  0.9066
 2133SOL    HW217859   2.071   1.023   6.920 -0.2593  0.8862  0.9284
 2134SOL     OW17860   2.588   0.593   6.766  0.1365  0.1795  0.1987
 2134SOL    HW117861   2.634   0.572   6.847  0.7400  2.7640  0.5129
 2134SOL    HW217862   2.517   0.646   6.802  1.0549  0.5020  1.5048
 2135SOL     OW17863   2.520   1.094   7.253  0.3274  0.2374 -0.3475
 2135SOL    HW117864   2.509   1.110   7.159 -2.0053  1.3095  0.1052
 2135SOL    HW217865   2.608   1.057   7.254  0.1763 -0.1165 -0.3705
 2136SOL     OW17866   1.052   2.390  12.111 -0.3019  0.2772  0.5115
 2136SOL    HW117867   1.134   2.434  12.134  0.3544  0.0384 -1.3761
 2136SOL    HW217868   0.986   2.447  12.149 -0.7121  0.0460  0.1356
 2137SOL     OW17869   4.238   1.439   8.762 -0.1549 -0.1945 -0.1246
 2137SOL    HW117870   4.159   1.432   8.709 -2.5045  1.1938  3.1725
 2137SOL    HW217871   4.269   1.350   8.781 -1.1583 -0.3791  0.6384
 2138SOL     OW17872   3.471   4.203   5.196  0.2094 -0.0504 -0.9240
 2138SOL    HW117873   3.413   4.256   5.141  0.5345 -0.0145 -1.2340
 2138SOL    HW217874   3.564   4.211   5.175  0.4910 -0.1975  0.2738
 2139SOL     OW17875   3.204   3.854   2.902  0.0165  0.1685 -0.6361
 2139SOL    HW117876   3.265   3.927   2.889 -0.5240  0.4492 -1.5870
 2139SOL    HW217877   3.215   3.836   2.995  1.2021 -1.7826 -1.1551
 2140SOL     OW17878   1.983   4.188   4.980  0.4820 -0.0903  0.2332
 2140SOL    HW117879   2.046   4.253   5.008 -0.6973  0.9453  0.4714
 2140SOL    HW217880   1.916   4.241   4.938 -0.9399 -2.5413 -0.6348
 2141SOL     OW17881   4.332   4.198  13.078 -0.3254  0.2356  0.4541
 2141SOL    HW117882   4.367   4.248  13.004  2.8505 -2.3862  0.1380
 2141SOL    HW217883   4.293   4.268  13.130  1.2939 -0.5640  2.7692
 2142SOL     OW17884   1.595   3.188   2.346  0.1804 -0.3257  0.1021
 2142SOL    HW117885   1.680   3.147   2.329  0.6654  0.9835 -0.6491
 2142SOL    HW217886   1.571   3.138   2.424  0.1217 -3.2302 -1.7801
 2143SOL     OW17887   1.475   0.302  15.825  0.1695 -0.6292 -0.0985
 2143SOL    HW117888   1.549   0.241  15.821  0.6133 -0.2220  1.7854
 2143SOL    HW217889   1.396   0.259  15.793 -0.9146  0.0103  1.7266
 2144SOL     OW17890   0.592   4.499   8.319  0.5107  0.7025  0.3080
 2144SOL    HW117891   0.510   4.484   8.365  1.2578  0.5067  1.5816
 2144SOL    HW217892   0.628   4.543   8.396 -1.7702  1.9706  0.6146
 2145SOL     OW17893   3.844   3.824   6.959 -0.2742  0.4828 -0.5932
 2145SOL    HW117894   3.888   3.845   6.877 -3.3829  0.8206 -2.1791
 2145SOL    HW217895   3.892   3.742   6.973 -1.7388 -0.2809 -0.0507
 2146SOL     OW17896   3.436   1.355   3.303  0.4422  0.0856  0.3699
 2146SOL    HW117897   3.402   1.268   3.326 -0.2025  0.3038  0.2278
 2146SOL    HW217898   3.380   1.380   3.231 -1.8247 -1.3859  1.6336
 2147SOL     OW17899   0.786   3.639  12.452 -0.3411 -0.3097  0.0854
 2147SOL    HW117900   0.735   3.637  12.371  1.7225  0.3065 -1.2319
 2147SOL    HW217901   0.752   3.710  12.506 -0.7240  0.5935 -1.3346
 2148SOL     OW17902   1.269   1.940  15.446 -0.7337  1.0166  0.5653
 2148SOL    HW117903   1.311   2.027  15.446  1.3353 -0.0022  3.9659
 2148SOL    HW217904   1.331   1.881  15.488 -1.6635 -0.6471 -0.4128
 2149SOL     OW17905   2.500   2.194   4.966  0.4481  0.4253  0.3587
 2149SOL    HW117906   2.585   2.234   4.984  0.5120  0.7342 -0.6412
 2149SOL    HW217907   2.533   2.104   4.965 -1.6106 -0.3387  0.7270
 2150SOL     OW17908   2.307   0.938   7.989 -0.4307 -0.1067  0.5680
 2150SOL    HW117909   2.218   0.918   8.016 -0.4680  0.4094  0.8283
 2150SOL    HW217910   2.334   1.005   8.052 -0.9936  0.2501  0.4282
 2151SOL     OW17911   3.175   4.055   0.588  0.0774 -0.5684  0.0479
 2151SOL    HW117912   3.090   4.026   0.554  0.6420 -1.2467 -0.7880
 2151SOL    HW217913   3.231   4.018   0.520 -0.4180 -2.4081  0.6331
 2152SOL     OW17914   1.931   4.162   6.804 -0.2102  0.1937 -0.1268
 2152SOL    HW117915   1.935   4.067   6.820  1.3014  0.1341 -0.8151
 2152SOL    HW217916   2.025   4.180   6.816  0.1229 -0.5953 -1.5719
 2153SOL     OW17917   1.878   1.615   8.100 -0.6659  0.5034 -0.0055
 2153SOL    HW117918   1.801   1.668   8.115 -0.4052  0.2232  2.3370
 2153SOL    HW217919   1.931   1.636   8.178  0.0972 -2.3634  0.2891
 2154SOL     OW17920   1.636   1.856  10.342  0.0266 -0.2035 -0.1926
 2154SOL    HW117921   1.655   1.774  10.388  0.7382 -1.0395 -1.9694
 2154SOL    HW217922   1.717   1.875  10.294  0.1909 -3.7709 -1.2979
 2155SOL     OW17923   4.402   0.931   7.810  0.6561  0.0989  0.0000
 2155SOL    HW117924   4.430   0.906   7.898 -1.1457  2.1294  1.1491
 2155SOL    HW217925   4.316   0.890   7.804  0.4670  0.8072 -2.0246
 2156SOL     OW17926   3.685   0.413  13.628  0.0801 -0.0253 -0.4109
 2156SOL    HW117927   3.614   0.470  13.601 -1.5514 -0.6059  2.6325
 2156SOL    HW217928   3.682   0.359  13.550 -1.4823  0.3842 -0.6187
 2157SOL     OW17929   2.102   0.225   5.746 -0.2340 -0.0022 -0.6256
 2157SOL    HW117930   2.064   0.293   5.691  1.9459  0.4472 -1.6043
 2157SOL    HW217931   2.195   0.243   5.734 -0.2507 -0.7524 -1.8136
 2158SOL     OW17932   2.204   2.646  11.897  0.2365 -0.0676  0.1524
 2158SOL    HW117933   2.298   2.638  11.882  0.3267  1.3791 -0.1279
 2158SOL    HW217934   2.210   2.582  11.968 -0.8122  0.0435  0.3469
 2159SOL     OW17935   2.444   4.036  16.460  0.0679  0.0501  0.7034
 2159SOL    HW117936   2.499   3.965  16.495  2.4978  1.5917 -0.0108
 2159SOL    HW217937   2.359   3.991  16.461  0.8640 -1.4899 -0.2287
 2160SOL     OW17938   2.950   3.156   5.602  0.5254  0.5396  0.0224
 2160SOL    HW117939   2.960   3.119   5.689  0.2608 -1.1500 -0.6487
 2160SOL    HW217940   3.027   3.210   5.586  0.3727  0.9163  0.5634
 2161SOL     OW17941   4.349   0.594   8.871  0.2321  0.1414  0.2464
 2161SOL    HW117942   4.282   0.544   8.917 -0.1772 -0.1540 -0.6715
 2161SOL    HW217943   4.431   0.595   8.921 -0.1066 -1.9685  0.8419
 2162SOL     OW17944   2.853   3.675   3.599  0.3647  0.2508  0.0462
 2162SOL    HW117945   2.845   3.713   3.511 -1.4834  1.6407  0.8216
 2162SOL    HW217946   2.777   3.711   3.646 -0.2462 -1.0883  0.0701
 2163SOL     OW17947   3.539   2.200   7.712 -0.1771  0.1863  0.1868
 2163SOL    HW117948   3.604   2.132   7.691 -2.1707 -1.3640 -0.9804
 2163SOL    HW217949   3.551   2.193   7.807  0.4802  0.5299  0.1357
 2164SOL     OW17950   2.783   0.020   8.872 -0.1342 -0.0581 -0.1333
 2164SOL    HW117951   2.814   4.696   8.952 -1.6265  0.8980  0.9727
 2164SOL    HW217952   2.840   0.095   8.858 -0.1967  0.3062  1.6008
 2165SOL     OW17953   2.992   0.581  13.558  0.0551 -0.7094  0.3914
 2165SOL    HW117954   3.028   0.503  13.600 -1.6199 -2.0751 -0.6625
 2165SOL    HW217955   3.028   0.583  13.469  0.0492  1.0578  0.4370
 2166SOL     OW17956   3.667   0.032  12.679 -0.1716 -0.5085 -0.2404
 2166SOL    HW117957   3.602   4.702  12.630 -0.5355  0.1290 -0.4195
 2166SOL    HW217958   3.617   0.112  12.697  1.4096  0.3709  0.2659
 2167SOL     OW17959   0.617   2.686  11.347 -0.2025 -0.1147 -0.3974
 2167SOL    HW117960   0.680   2.616  11.330  1.7601  1.6109 -0.3655
 2167SOL    HW217961   0.551   2.687  11.278  0.1177  1.4096 -0.7001
 2168SOL     OW17962   1.840   2.833   3.978  0.2328 -0.2499 -0.1377
 2168SOL    HW117963   1.799   2.773   3.915 -1.1327 -1.8031  2.2153
 2168SOL    HW217964   1.917   2.784   4.005  0.2496 -0.1826 -0.0657
 2169SOL     OW17965   2.380   4.412   8.009  0.9605  0.1160  0.2652
 2169SOL    HW117966   2.475   4.408   8.005  0.9772  1.0381 -0.1983
 2169SOL    HW217967   2.363   4.345   8.075  0.5283  0.2361  0.2767
 2170SOL     OW17968   4.237   4.278   3.598  0.0073  0.0300 -0.0133
 2170SOL    HW117969   4.304   4.210   3.604  1.8962  2.0326  1.3654
 2170SOL    HW217970   4.269   4.344   3.659  3.0196 -0.9084 -0.5903
 2171SOL     OW17971   0.610   1.136  11.904 -0.0063 -0.4017  0.5105
 2171SOL    HW117972   0.577   1.214  11.860  1.7351  0.0136 -0.0812
 2171SOL    HW217973   0.659   1.176  11.976  1.5872 -0.2882 -0.6344
 2172SOL     OW17974   2.234   0.964  14.891 -0.5873  0.1505  0.0279
 2172SOL    HW117975   2.250   0.941  14.799  0.0413  1.4324 -0.1838
 2172SOL    HW217976   2.143   0.948  14.917 -0.7781  1.4158  0.1252
 2173SOL     OW17977   1.612   3.038   3.060 -0.3192 -1.2919 -0.0733
 2173SOL    HW117978   1.622   3.063   2.969  1.3539 -2.2811 -0.1669
 2173SOL    HW217979   1.552   3.107   3.086 -1.2319 -1.9271 -0.5069
 2174SOL     OW17980   3.771   4.310   0.346  0.1445 -0.2745  0.0505
 2174SOL    HW117981   3.797   4.379   0.285  0.4773  0.5945  1.1693
 2174SOL    HW217982   3.799   4.231   0.299  0.9723 -0.0396  0.1488
 2175SOL     OW17983   4.664   4.621   8.725 -0.3290  0.2002 -0.4822
 2175SOL    HW117984   4.590   4.587   8.776 -0.2737 -2.8154 -2.3972
 2175SOL    HW217985   4.609   4.643   8.651  2.3157  1.6827 -2.0047
 2176SOL     OW17986   3.089   1.253  16.704 -0.1255  0.1705  0.3817
 2176SOL    HW117987   3.034   1.282  16.631 -0.5255  0.1703  0.6768
 2176SOL    HW217988   3.174   1.291  16.682  0.7654 -1.3652  1.1801
 2177SOL     OW17989   0.808   3.491   9.822 -0.6108 -0.4844  0.1612
 2177SOL    HW117990   0.853   3.409   9.803  2.5090  1.6905 -1.9037
 2177SOL    HW217991   0.761   3.459   9.899 -0.1596  1.7873  1.3947
 2178SOL     OW17992   0.342   3.666  17.065 -0.3441  0.2868  0.2338
 2178SOL    HW117993   0.328   3.699  16.976 -0.7302 -1.3100 -0.2856
 2178SOL    HW217994   0.356   3.572  17.060 -2.3127 -0.0570  1.4651
 2179SOL     OW17995   1.038   1.397   4.838  0.2405 -0.0575 -0.0561
 2179SOL    HW117996   1.077   1.393   4.751  0.7068  3.8622 -0.0077
 2179SOL    HW217997   1.068   1.315   4.878 -0.2359 -0.0786  0.2523
 2180SOL     OW17998   3.593   3.331   4.356  0.0188 -0.5262  0.0813
 2180SOL    HW117999   3.629   3.324   4.444  1.0017 -0.6224 -0.3263
 2180SOL    HW218000   3.628   3.257   4.306 -0.5766 -2.3649  2.3900
 2181SOL     OW18001   4.363   4.150   7.382 -0.1612 -0.4053 -0.1971
 2181SOL    HW118002   4.319   4.221   7.429  0.6007 -0.9958  1.4338
 2181SOL    HW218003   4.446   4.189   7.354 -1.6131  0.6836 -2.9487
 2182SOL     OW18004   4.560   4.407   5.262  0.0759  0.0286 -0.5031
 2182SOL    HW118005   4.540   4.499   5.241 -2.1583 -0.4091 -0.3220
 2182SOL    HW218006   4.570   4.374   5.172  1.3930  0.3036 -0.4538
 2183SOL     OW18007   2.282   1.477   4.019 -0.3905 -0.2724  0.0884
 2183SOL    HW118008   2.212   1.531   4.055 -1.6028 -3.3917  2.4542
 2183SOL    HW218009   2.354   1.505   4.076  0.2323  0.8106 -1.2431
 2184SOL     OW18010   1.123   0.443  16.465 -0.4380  0.5127  0.2638
 2184SOL    HW118011   1.217   0.425  16.465 -0.0782  2.4271 -1.8448
 2184SOL    HW218012   1.117   0.533  16.432 -0.9538  0.3633 -0.0419
 2185SOL     OW18013   1.547   1.259   3.705  0.8790 -0.1621  0.2467
 2185SOL    HW118014   1.469   1.289   3.658  0.6201 -1.4307 -0.1294
 2185SOL    HW218015   1.606   1.335   3.708 -0.7722  1.2555 -2.3027
 2186SOL     OW18016   0.742   0.165   2.952  0.0894 -0.4168  0.4124
 2186SOL    HW118017   0.767   0.086   2.999 -1.3021 -0.6822  0.7035
 2186SOL    HW218018   0.721   0.234   3.015  0.6649  0.5736 -0.4825
 2187SOL     OW18019   3.752   2.068   8.786  0.7112  0.0220  0.0969
 2187SOL    HW118020   3.837   2.041   8.819  0.4151  0.8079  1.5084
 2187SOL    HW218021   3.697   1.989   8.778  0.2812  0.4526 -1.2537
 2188SOL     OW18022   0.512   3.313   6.065 -0.0001  0.2682  0.3049
 2188SOL    HW118023   0.469   3.397   6.083 -0.2652  0.6578 -2.2291
 2188SOL    HW218024   0.492   3.299   5.973 -0.6099  1.1876  0.2968
 2189SOL     OW18025   3.282   2.438  17.382 -0.4714  0.0480  0.4945
 2189SOL    HW118026   3.223   2.496  17.334 -1.9979  0.6321  3.0558
 2189SOL    HW218027   3.253   2.347  17.369 -1.9124  0.9873 -2.8552
 2190SOL     OW18028   0.672   2.374   3.111 -0.1660  0.0014  0.4239
 2190SOL    HW118029   0.714   2.298   3.153 -3.3004 -2.0397 -0.1906
 2190SOL    HW218030   0.590   2.339   3.076  0.2503 -1.9085  1.3142
 2191SOL     OW18031   3.706   2.562   5.822 -0.4718 -0.6502 -0.4093
 2191SOL    HW118032   3.669   2.533   5.739  1.1095 -1.0966 -0.9525
 2191SOL    HW218033   3.642   2.530   5.886  0.5446  0.5663  1.2124
 2192SOL     OW18034   2.792   2.039   7.912  0.3267  0.6376  0.3119
 2192SOL    HW118035   2.758   2.114   7.960 -1.6227 -0.5721  0.8043
 2192SOL    HW218036   2.720   2.025   7.850  2.0892 -3.6518 -0.8144
 2193SOL     OW18037   3.053   3.264   7.961 -0.6788  0.5454 -0.5904
 2193SOL    HW118038   3.027   3.357   7.955 -3.6114 -0.0324  2.7765
 2193SOL    HW218039   2.978   3.241   8.017  0.0267  4.3027  1.9613
 2194SOL     OW18040   3.120   2.654  12.636 -0.4228  0.4719  0.6577
 2194SOL    HW118041   3.106   2.565  12.603 -0.0759  0.9640 -0.8284
 2194SOL    HW218042   3.082   2.657  12.724 -1.5923  3.6752  0.0218
 2195SOL     OW18043   3.353   0.205   8.418  0.1412 -0.0444  0.5223
 2195SOL    HW118044   3.284   0.254   8.462 -0.5029 -1.7223  1.3479
 2195SOL    HW218045   3.432   0.250   8.448 -1.0708  1.7726  0.9642
 2196SOL     OW18046   2.351   1.149  13.656 -1.0246 -0.3746 -0.4789
 2196SOL    HW118047   2.320   1.236  13.630  2.2512  0.2228 -2.3598
 2196SOL    HW218048   2.302   1.094  13.594 -0.1900 -0.5145 -1.0136
 2197SOL     OW18049   2.765   3.273   8.741  0.5253  0.0719  0.0649
 2197SOL    HW118050   2.748   3.359   8.778 -0.2123  0.1993 -0.5775
 2197SOL    HW218051   2.759   3.276   8.645 -0.9414 -1.4250  0.1108
 2198SOL     OW18052   0.127   3.878  15.400  0.1879 -0.1128  0.0417
 2198SOL    HW118053   0.179   3.947  15.441  1.7204  0.3578 -2.7523
 2198SOL    HW218054   0.051   3.887  15.457 -0.8201 -1.3859 -1.1076
 2199SOL     OW18055   0.104   4.134  10.205  0.1923  0.4046 -0.5940
 2199SOL    HW118056   0.079   4.057  10.256 -1.1911  0.3495 -1.3494
 2199SOL    HW218057   0.023   4.150  10.156  0.8512  1.3632 -1.3551
 2200SOL     OW18058   1.581   1.475   4.533 -0.1904 -0.6760  0.2471
 2200SOL    HW118059   1.584   1.477   4.628  3.2323  1.2844  0.0781
 2200SOL    HW218060   1.659   1.527   4.512 -1.6524  1.3561 -0.1244
 2201SOL     OW18061   4.113   3.488   6.416  0.1555 -0.2217  0.0013
 2201SOL    HW118062   4.141   3.477   6.507  0.5493  0.9981  0.0288
 2201SOL    HW218063   4.147   3.576   6.399 -0.2871 -0.2480 -1.0433
 2202SOL     OW18064   3.999   2.090  16.378 -0.0871  0.3310  0.4707
 2202SOL    HW118065   4.058   2.015  16.369  0.6978  0.7606  1.9640
 2202SOL    HW218066   3.980   2.076  16.471 -0.0785  1.1259  0.5889
 2203SOL     OW18067   4.574   2.554  10.561  0.0991 -0.0420  0.1344
 2203SOL    HW118068   4.645   2.532  10.622 -0.9397  1.7908  1.9949
 2203SOL    HW218069   4.604   2.515  10.479 -0.3841  0.1266 -0.1194
 2204SOL     OW18070   0.711   1.797   6.744 -0.2474 -0.1865 -0.0661
 2204SOL    HW118071   0.691   1.721   6.689  1.2590 -2.1928  2.1163
 2204SOL    HW218072   0.646   1.787   6.814 -0.3923  1.6122  0.0366
 2205SOL     OW18073   1.299   0.016   2.940 -0.2424 -0.4787  0.3044
 2205SOL    HW118074   1.256   4.666   2.989 -0.2856  0.0364  1.0154
 2205SOL    HW218075   1.309   4.699   2.853 -1.1405 -2.8531  1.2390
 2206SOL     OW18076   3.066   3.864  10.050  0.0878  0.6536  0.6382
 2206SOL    HW118077   3.018   3.827  10.124 -0.1307 -1.4133 -0.5611
 2206SOL    HW218078   3.108   3.935  10.099 -1.3397  1.5476  0.5631
 2207SOL     OW18079   4.591   1.090  14.448 -0.2367  0.2621 -0.1707
 2207SOL    HW118080   4.585   1.005  14.404  0.6052  0.3805 -0.5152
 2207SOL    HW218081   4.667   1.076  14.505 -0.7415 -1.2291  0.1337
 2208SOL     OW18082   4.327   2.469  16.440  0.3029  0.0669 -0.8828
 2208SOL    HW118083   4.300   2.560  16.452 -2.0504 -0.8228  0.5573
 2208SOL    HW218084   4.388   2.460  16.513 -0.0669  0.0053 -0.5784
 2209SOL     OW18085   2.146   2.553   1.895 -0.0994  0.1935  0.0079
 2209SOL    HW118086   2.240   2.569   1.893 -0.1196  0.2960 -0.1057
 2209SOL    HW218087   2.129   2.513   1.810 -2.2290  1.6465 -0.2438
 2210SOL     OW18088   3.962   3.464   3.159 -0.2785 -0.0395  0.8027
 2210SOL    HW118089   3.881   3.505   3.128  0.5269  1.4824  0.6897
 2210SOL    HW218090   3.952   3.370   3.148 -2.0077  0.2329  0.0185
 2211SOL     OW18091   2.859   2.147   1.319  0.0299 -0.1933 -0.4851
 2211SOL    HW118092   2.840   2.169   1.410 -1.6242  0.2162 -0.9351
 2211SOL    HW218093   2.768   2.124   1.300 -0.3778  0.0682  1.1522
 2212SOL     OW18094   2.928   3.791  15.104  0.0944  0.0879  0.1492
 2212SOL    HW118095   2.884   3.873  15.084 -0.1471 -0.4191 -1.3805
 2212SOL    HW218096   2.920   3.742  15.022  0.7506  1.6270 -0.8178
 2213SOL     OW18097   0.034   2.727   8.392  0.5158 -0.3666 -0.0547
 2213SOL    HW118098   0.066   2.759   8.307 -1.7104  2.4584  0.1806
 2213SOL    HW218099   4.664   2.756   8.385 -0.0708 -2.6917 -2.5711
 2214SOL     OW18100   1.676   0.755   7.272 -0.1087  0.0903  0.3315
 2214SOL    HW118101   1.713   0.773   7.186  0.7691  0.5869  0.8098
 2214SOL    HW218102   1.720   0.824   7.322  0.8515 -0.3608  0.1164
 2215SOL     OW18103   4.275   3.593  11.789 -0.0163 -0.2240  0.3206
 2215SOL    HW118104   4.283   3.498  11.776  0.1482 -0.1506 -0.1174
 2215SOL    HW218105   4.361   3.628  11.767  0.2144 -1.6391 -1.0723
 2216SOL     OW18106   2.249   3.697  15.448 -0.1729  0.4263 -0.4104
 2216SOL    HW118107   2.226   3.767  15.509 -1.1281  0.0216 -0.3017
 2216SOL    HW218108   2.245   3.619  15.503 -2.0460  1.1940  0.5193
 2217SOL     OW18109   0.991   4.112   2.895 -0.0085 -0.0787  0.7221
 2217SOL    HW118110   0.902   4.143   2.876  0.5394  1.2660  0.3326
 2217SOL    HW218111   1.028   4.200   2.903 -1.5139  0.4832  1.4897
 2218SOL     OW18112   2.826   4.384   1.945  0.0415 -0.0542  0.3644
 2218SOL    HW118113   2.757   4.330   1.982  2.0644 -2.8786  0.0621
 2218SOL    HW218114   2.910   4.346   1.968  0.2596  1.0450  1.3912
 2219SOL     OW18115   1.074   4.324   0.162 -0.3326  0.1361  0.5143
 2219SOL    HW118116   1.089   4.237   0.124 -0.3583  0.7857 -0.9876
 2219SOL    HW218117   1.156   4.368   0.141 -0.5339 -0.1250 -0.8303
 2220SOL     OW18118   1.422   0.030  15.984 -0.9847 -0.0783  0.3401
 2220SOL    HW118119   1.416   0.009  15.891  0.5275 -1.3255  0.5255
 2220SOL    HW218120   1.334   0.068  15.991 -0.8391  0.4959 -0.9706
 2221SOL     OW18121   3.920   2.486   9.081 -0.5484  0.4477  0.4189
 2221SOL    HW118122   3.881   2.500   9.168 -0.4261 -0.2138  0.5847
 2221SOL    HW218123   3.883   2.402   9.054 -1.9565  1.0992  0.3207
 2222SOL     OW18124   0.374   0.204   7.929  0.4077 -0.0324  0.1208
 2222SOL    HW118125   0.372   0.296   7.954  4.2100 -0.4043  1.6494
 2222SOL    HW218126   0.426   0.164   7.998  0.3402  2.1451  1.4228
 2223SOL     OW18127   1.688   4.234   8.741 -0.3445  0.7677  0.3694
 2223SOL    HW118128   1.643   4.245   8.825 -0.1908 -1.4304  0.7567
 2223SOL    HW218129   1.774   4.261   8.771  1.2920 -3.6258 -0.3005
 2224SOL     OW18130   3.124   4.500  16.049  0.0122  0.4184 -0.0835
 2224SOL    HW118131   3.209   4.540  16.065 -0.6007  1.8531 -0.4842
 2224SOL    HW218132   3.135   4.518  15.956  2.0191 -0.4829 -0.0245
 2225SOL     OW18133   2.752   1.295   4.490 -0.3149  0.4448  0.0766
 2225SOL    HW118134   2.712   1.239   4.556  0.5585 -1.0772 -0.6712
 2225SOL    HW218135   2.773   1.220   4.434  0.6530 -0.8973  2.2668
 2226SOL     OW18136   4.112   2.617   3.366  0.3086 -0.3403  0.3758
 2226SOL    HW118137   4.034   2.673   3.361 -1.8390 -3.7311 -4.1714
 2226SOL    HW218138   4.116   2.615   3.462  1.6866  1.9159  0.3618
 2227SOL     OW18139   3.622   2.001   3.928  0.8639  0.2463 -0.7437
 2227SOL    HW118140   3.713   2.032   3.924  1.4154 -1.4531 -1.6685
 2227SOL    HW218141   3.593   2.068   3.990  1.2091 -2.5236  2.3528
 2228SOL     OW18142   0.566   0.632  13.779  0.1054  0.0679  0.1907
 2228SOL    HW118143   0.532   0.610  13.692  1.2474  3.8344 -1.2187
 2228SOL    HW218144   0.658   0.652  13.760  1.0175 -0.3471  4.2409
 2229SOL     OW18145   3.975   0.805   4.595  0.4445 -0.2370  0.6982
 2229SOL    HW118146   3.965   0.714   4.567 -0.3119 -0.3188  1.2260
 2229SOL    HW218147   4.002   0.844   4.513 -3.4363 -0.3523 -0.6261
 2230SOL     OW18148   0.285   4.568   5.784  0.3143 -0.4512 -0.4445
 2230SOL    HW118149   0.362   4.517   5.761  0.1476 -0.5887 -0.6948
 2230SOL    HW218150   0.312   4.660   5.785  0.8714 -0.6302  1.2735
 2231SOL     OW18151   3.892   3.213   5.658 -0.4192 -0.2750  0.3990
 2231SOL    HW118152   3.823   3.253   5.604  1.3385  0.0187 -1.6258
 2231SOL    HW218153   3.904   3.139   5.598  0.6939 -1.0066  1.5435
 2232SOL     OW18154   1.154   3.107   8.379 -0.2364  0.0217 -0.5686
 2232SOL    HW118155   1.146   3.126   8.473 -1.9307  1.1948 -0.9369
 2232SOL    HW218156   1.180   3.016   8.387  1.5273  0.6194  0.3826
 2233SOL     OW18157   3.568   2.632   1.686  0.3619  0.0575 -0.5893
 2233SOL    HW118158   3.594   2.551   1.731  1.5707  0.7691  0.0089
 2233SOL    HW218159   3.584   2.700   1.752  0.3567  0.1821 -0.7186
 2234SOL     OW18160   3.691   3.872   2.034  0.1202 -0.0769 -0.3280
 2234SOL    HW118161   3.681   3.962   2.063  2.6312  0.4250 -1.0322
 2234SOL    HW218162   3.776   3.841   2.066  0.3016  1.5130  0.6883
 2235SOL     OW18163   3.199   4.479   4.264 -0.0371 -0.0461 -0.4640
 2235SOL    HW118164   3.150   4.555   4.234  0.4117  0.9549  1.3423
 2235SOL    HW218165   3.255   4.469   4.188 -1.6127  0.5722 -1.7006
 2236SOL     OW18166   1.361   4.257  11.078  0.2331 -0.0939 -0.0384
 2236SOL    HW118167   1.270   4.249  11.050  1.0530 -5.3474 -1.2707
 2236SOL    HW218168   1.353   4.333  11.136 -2.2417 -0.1685 -0.2724
 2237SOL     OW18169   3.223   2.489   6.494 -0.1267  0.3957 -0.0618
 2237SOL    HW118170   3.191   2.409   6.454 -0.8133  1.2386 -1.1949
 2237SOL    HW218171   3.170   2.492   6.573 -1.2292 -2.2192 -0.7156
 2238SOL     OW18172   0.944   4.319   5.598  0.3330  0.0472 -0.2395
 2238SOL    HW118173   0.921   4.283   5.513 -0.3354 -1.3007  0.5131
 2238SOL    HW218174   1.014   4.263   5.631  1.8677  1.5682 -0.8728
 2239SOL     OW18175   3.504   3.770  12.987  0.1848 -0.1970 -0.1936
 2239SOL    HW118176   3.551   3.815  13.057 -0.5365  1.1472 -0.5801
 2239SOL    HW218177   3.411   3.787  13.003 -0.6982 -2.8191 -2.5295
 2240SOL     OW18178   1.466   3.485   5.255  0.4652 -0.2389 -0.4503
 2240SOL    HW118179   1.388   3.535   5.232 -0.0061 -0.4304  0.7385
 2240SOL    HW218180   1.439   3.411   5.309 -0.0885  0.5593  0.3598
 2241SOL     OW18181   4.325   3.052   2.757 -0.0384 -0.5752  0.1719
 2241SOL    HW118182   4.346   2.982   2.696  4.1632 -1.1999  2.3561
 2241SOL    HW218183   4.265   3.105   2.704 -0.8958 -1.4163  0.3005
 2242SOL     OW18184   1.578   4.321  17.660  0.1490  0.3905 -0.0801
 2242SOL    HW118185   1.491   4.329  17.620  0.9417 -0.7344 -2.0338
 2242SOL    HW218186   1.613   4.409  17.673 -0.9685  0.5803  1.7092
 2243SOL     OW18187   1.912   0.080  11.619  0.1822 -0.3710 -0.6001
 2243SOL    HW118188   1.979   0.043  11.562 -0.5435 -1.2648 -0.8810
 2243SOL    HW218189   1.838   0.026  11.591  0.0774 -0.4725 -0.1338
 2244SOL     OW18190   0.123   4.591  12.336 -0.1608 -0.3751  0.0621
 2244SOL    HW118191   0.087   4.511  12.375 -0.5393 -0.9187 -1.4128
 2244SOL    HW218192   0.218   4.579  12.345 -0.2459 -1.2332 -0.2497
 2245SOL     OW18193   4.448   4.467   9.207 -0.0676 -0.1752 -0.1303
 2245SOL    HW118194   4.542   4.479   9.223  0.0896 -1.1686 -0.2745
 2245SOL    HW218195   4.426   4.554   9.173  0.1586 -0.4267 -0.9328
 2246SOL     OW18196   2.577   3.044   9.560  0.2709 -0.0464 -0.5856
 2246SOL    HW118197   2.617   3.112   9.614 -0.2745  1.1262 -1.6613
 2246SOL    HW218198   2.605   3.073   9.473 -0.0082 -0.6883 -0.8905
 2247SOL     OW18199   0.136   0.309   8.134 -0.7858 -0.4234 -0.1682
 2247SOL    HW118200   0.078   0.351   8.198  0.4502  1.4964 -0.3116
 2247SOL    HW218201   0.162   0.389   8.088 -0.3865  0.1471  1.0592
 2248SOL     OW18202   0.714   1.146  14.955 -0.3591  0.0998 -0.1249
 2248SOL    HW118203   0.767   1.148  14.876 -0.4664 -0.2272 -0.2066
 2248SOL    HW218204   0.630   1.121  14.917 -1.4027 -1.7111  3.3485
 2249SOL     OW18205   3.470   4.239   5.843 -0.0491  0.2246  0.3183
 2249SOL    HW118206   3.562   4.216   5.834 -0.8628 -1.8323 -3.0207
 2249SOL    HW218207   3.432   4.181   5.777 -0.5895  0.9318 -0.0043
 2250SOL     OW18208   2.798   1.213   8.784 -0.1795 -0.1316  0.5558
 2250SOL    HW118209   2.778   1.238   8.694 -1.5611 -1.5793  0.4474
 2250SOL    HW218210   2.886   1.251   8.781 -0.0900 -0.5262 -1.3798
 2251SOL     OW18211   3.051   0.791   4.242 -0.6197 -0.2009 -0.1609
 2251SOL    HW118212   3.015   0.793   4.154 -2.2356  1.3880  0.5345
 2251SOL    HW218213   2.987   0.732   4.282  0.3927 -0.7458  0.6632
 2252SOL     OW18214   2.620   3.503   4.234 -0.0492 -0.1283 -0.4549
 2252SOL    HW118215   2.692   3.507   4.171 -0.5120  1.9866 -0.8712
 2252SOL    HW218216   2.544   3.508   4.175 -1.3801  0.1793  1.2867
 2253SOL     OW18217   3.098   3.820   0.390 -0.0505  0.6294  0.6805
 2253SOL    HW118218   3.031   3.755   0.410 -1.1729  1.9073  1.0234
 2253SOL    HW218219   3.176   3.764   0.388 -0.6723 -0.2052 -0.2314
 2254SOL     OW18220   2.314   0.705   9.000 -0.2224 -0.6164 -0.2065
 2254SOL    HW118221   2.253   0.774   8.975  1.7484  0.4770 -2.0325
 2254SOL    HW218222   2.388   0.756   8.965 -1.1945 -0.0255 -1.3939
 2255SOL     OW18223   3.294   3.804   8.420  0.0780  0.6383 -0.4534
 2255SOL    HW118224   3.332   3.724   8.456  0.1124  0.0455 -1.8171
 2255SOL    HW218225   3.359   3.826   8.353 -1.0332  0.7880 -1.4824
 2256SOL     OW18226   0.869   2.725   2.718  0.4449 -0.0508  0.1210
 2256SOL    HW118227   0.880   2.631   2.729 -0.0688 -0.2479 -1.1107
 2256SOL    HW218228   0.819   2.744   2.798  1.8564  1.4487  0.6307
 2257SOL     OW18229   0.682   3.961   1.640 -0.2750 -0.1404  0.2883
 2257SOL    HW118230   0.746   3.934   1.574 -1.7087 -0.5339 -0.9395
 2257SOL    HW218231   0.672   4.048   1.602 -1.0875 -0.1260  0.5338
 2258SOL     OW18232   0.693   1.219   2.393 -0.1455  0.4605 -0.2846
 2258SOL    HW118233   0.699   1.127   2.421 -2.2751  0.0045 -1.2567
 2258SOL    HW218234   0.682   1.219   2.298 -0.9228  1.0457 -0.1951
 2259SOL     OW18235   3.884   0.159  17.660  0.6353 -0.4410 -0.4993
 2259SOL    HW118236   3.912   0.099   0.044 -1.2795 -0.8642 -0.0854
 2259SOL    HW218237   3.883   0.098  17.586  0.7886  0.5865 -1.3522
 2260SOL     OW18238   1.994   2.742   7.037 -0.3201  0.3038 -0.6040
 2260SOL    HW118239   2.026   2.820   6.990 -0.7567  1.6960  1.4321
 2260SOL    HW218240   2.002   2.769   7.128 -1.4006 -2.5846  0.3446
 2261SOL     OW18241   3.042   1.602   3.087 -0.0225 -0.3344 -0.2286
 2261SOL    HW118242   3.005   1.648   3.162 -0.4774 -0.0448 -0.6308
 2261SOL    HW218243   2.969   1.589   3.026  1.4278 -0.7149 -1.8674
 2262SOL     OW18244   0.252   2.159   0.143  0.3383  0.4923 -0.2804
 2262SOL    HW118245   0.298   2.233   0.104 -2.2579  1.7658 -0.9286
 2262SOL    HW218246   0.288   2.157   0.232 -0.0497 -1.7433 -0.1785
 2263SOL     OW18247   0.640   3.204   3.594  0.1713  0.2797  0.2131
 2263SOL    HW118248   0.646   3.300   3.592  0.2804  0.3086  2.7453
 2263SOL    HW218249   0.623   3.187   3.501  0.9399  1.6560 -0.1829
 2264SOL     OW18250   3.347   1.951  15.926 -0.6952  0.2612  0.1778
 2264SOL    HW118251   3.405   1.920  15.995  0.7873  1.7704 -0.3772
 2264SOL    HW218252   3.411   1.955  15.854 -0.8123  0.4160  0.0790
 2265SOL     OW18253   3.165   1.182   9.050  0.6088  0.7116  0.3576
 2265SOL    HW118254   3.252   1.180   9.089  0.6593 -3.0923  0.0979
 2265SOL    HW218255   3.122   1.246   9.106  1.2010  2.2047 -0.9020
 2266SOL     OW18256   1.763   3.785   8.481  0.2596 -0.0728 -0.2408
 2266SOL    HW118257   1.810   3.852   8.531 -2.1021  1.8463 -0.5844
 2266SOL    HW218258   1.763   3.819   8.391  1.9768 -1.8178 -0.8928
 2267SOL     OW18259   4.024   1.547  12.019 -0.2911  0.0828 -0.0359
 2267SOL    HW118260   4.062   1.475  11.969  0.0075  1.1543 -1.3439
 2267SOL    HW218261   3.936   1.533  11.985 -0.0190 -0.5810 -0.4728
 2268SOL     OW18262   4.124   2.372   6.533 -0.1109 -0.3395 -0.0883
 2268SOL    HW118263   4.214   2.340   6.527 -0.2823 -0.7182 -0.7245
 2268SOL    HW218264   4.145   2.454   6.488 -1.8682 -0.1403 -0.5419
 2269SOL     OW18265   0.625   4.347   4.708  0.3584  0.0987  0.1445
 2269SOL    HW118266   0.709   4.324   4.748  1.5244  0.5422 -2.0165
 2269SOL    HW218267   0.569   4.335   4.784 -0.4529  0.6847 -0.3617
 2270SOL     OW18268   2.987   3.261   1.566 -0.1181  0.6449 -0.5825
 2270SOL    HW118269   2.901   3.273   1.605 -0.5092  0.6431 -1.4583
 2270SOL    HW218270   2.983   3.166   1.578 -1.7692  0.6074 -1.5421
 2271SOL     OW18271   3.688   4.220  13.645  0.3902  0.3879 -0.2877
 2271SOL    HW118272   3.631   4.248  13.717  0.3704  2.0456 -0.9403
 2271SOL    HW218273   3.708   4.306  13.607 -1.9819  0.7018 -0.8514
 2272SOL     OW18274   4.228   2.668   6.872 -0.0801  0.0561 -0.2580
 2272SOL    HW118275   4.240   2.653   6.965  1.6530 -0.9903 -0.6560
 2272SOL    HW218276   4.155   2.607   6.862  0.0616 -0.2677  0.7477
 2273SOL     OW18277   2.668   3.963   1.686 -0.0356 -0.3960 -0.6481
 2273SOL    HW118278   2.729   3.898   1.652  1.4403  0.0631  1.1059
 2273SOL    HW218279   2.694   4.041   1.636 -0.5553 -0.6706 -1.3407
 2274SOL     OW18280   3.269   0.410   5.625 -0.1872 -0.2240 -0.4888
 2274SOL    HW118281   3.212   0.334   5.639 -0.2915 -0.3879 -1.8370
 2274SOL    HW218282   3.209   0.485   5.620 -1.1181 -1.0052 -1.0122
 2275SOL     OW18283   3.509   0.616   2.965  0.0896 -0.3985 -0.0751
 2275SOL    HW118284   3.555   0.533   2.955 -0.1014 -0.2657 -2.0828
 2275SOL    HW218285   3.573   0.673   2.923  2.3317 -1.5193  1.8455
 2276SOL     OW18286   0.017   1.296   4.292 -0.6387  0.3527 -0.1863
 2276SOL    HW118287   4.702   1.242   4.222  0.8908 -1.8898  0.7667
 2276SOL    HW218288   4.670   1.302   4.358 -0.3238 -0.9975  0.2569
 2277SOL     OW18289   4.067   2.342   4.127  0.3767 -0.0902 -0.1979
 2277SOL    HW118290   3.976   2.334   4.154 -0.2214  1.6720 -1.6865
 2277SOL    HW218291   4.113   2.340   4.211  0.4639 -0.3252 -0.2510
 2278SOL     OW18292   2.824   0.010  12.386  0.1513  0.6100  0.6388
 2278SOL    HW118293   2.785   0.047  12.466 -1.5108  1.6336 -0.6607
 2278SOL    HW218294   2.852   4.645  12.420  1.4535 -0.8969 -4.3295
 2279SOL     OW18295   1.461   0.382   6.548  0.1772  0.0055  0.1382
 2279SOL    HW118296   1.413   0.417   6.473 -2.4424 -1.0273  1.3220
 2279SOL    HW218297   1.435   0.292   6.569  0.4569 -0.5986 -2.1217
 2280SOL     OW18298   2.213   4.192   6.773 -0.3606  0.4596  0.3126
 2280SOL    HW118299   2.218   4.265   6.713 -0.8620 -0.3964 -0.7734
 2280SOL    HW218300   2.299   4.151   6.763 -0.4583  0.3545 -0.0914
 2281SOL     OW18301   4.345   2.736   4.666 -0.6770  0.2813  0.3171
 2281SOL    HW118302   4.340   2.659   4.610 -0.5876  1.1652 -0.9105
 2281SOL    HW218303   4.292   2.713   4.742 -0.9864 -1.7115 -0.5023
 2282SOL     OW18304   3.663   0.463   7.870 -0.1580 -0.5863  0.0640
 2282SOL    HW118305   3.664   0.544   7.820 -0.3407 -0.0351  0.9473
 2282SOL    HW218306   3.670   0.505   7.956  0.1401  1.3064 -0.8942
 2283SOL     OW18307   3.423   4.716   3.748  0.4281 -0.5335  0.2906
 2283SOL    HW118308   3.432   0.083   3.710 -2.1387 -1.3125 -2.1104
 2283SOL    HW218309   3.457   4.668   3.672 -0.9622  0.4440 -0.9591
 2284SOL     OW18310   1.124   3.948   0.295 -0.3209 -0.0633 -0.3258
 2284SOL    HW118311   1.155   3.867   0.337  1.3217  1.4274  1.3159
 2284SOL    HW218312   1.098   3.997   0.373 -0.3389  0.1272 -0.4533
 2285SOL     OW18313   1.608   4.088   6.096  0.6269 -0.2034 -0.0518
 2285SOL    HW118314   1.607   4.183   6.101  0.1776 -0.0772 -2.1677
 2285SOL    HW218315   1.696   4.061   6.122  0.4936 -0.8156 -0.2178
 2286SOL     OW18316   3.847   1.878   6.760  0.1204  0.3110  0.0245
 2286SOL    HW118317   3.802   1.831   6.690 -0.7227  1.4913 -0.2156
 2286SOL    HW218318   3.777   1.940   6.779  0.4565  0.0583  2.1138
 2287SOL     OW18319   0.183   4.352  16.243  0.0201  1.1070 -0.0558
 2287SOL    HW118320   0.102   4.398  16.265  0.3851  2.0443 -0.6473
 2287SOL    HW218321   0.235   4.424  16.207  0.5056  0.6032 -0.3683
 2288SOL     OW18322   4.662   0.357   0.175  0.4312 -0.0401 -0.4320
 2288SOL    HW118323   0.019   0.405   0.148  0.1507  1.3144  1.1780
 2288SOL    HW218324   4.600   0.395   0.112  0.8793 -0.3019 -1.0343
 2289SOL     OW18325   2.075   4.586   7.254  0.1830 -0.0438  0.7297
 2289SOL    HW118326   2.044   4.498   7.234 -1.5320  1.1483 -1.8378
 2289SOL    HW218327   2.016   4.631   7.193  1.8936  0.5880 -0.4511
 2290SOL     OW18328   2.527   3.483  10.734 -0.1981 -0.5549 -0.2271
 2290SOL    HW118329   2.477   3.408  10.702  0.6197 -0.9619 -0.5546
 2290SOL    HW218330   2.543   3.533  10.655  0.5080  0.2180  0.4046
 2291SOL     OW18331   1.035   4.070   4.118 -0.1662  0.3325  0.7694
 2291SOL    HW118332   0.947   4.076   4.081  0.8822  1.5965 -1.5825
 2291SOL    HW218333   1.053   3.977   4.134  3.8937  0.8256 -0.7542
 2292SOL     OW18334   1.471   1.560   6.990  0.5932 -0.1780 -0.0584
 2292SOL    HW118335   1.499   1.474   6.960  1.5879 -0.3094  1.2629
 2292SOL    HW218336   1.458   1.555   7.084 -1.1888 -0.2930 -0.3156
 2293SOL     OW18337   3.269   1.979   1.178  0.2225  0.2900  0.0718
 2293SOL    HW118338   3.242   1.993   1.269  0.6079  0.4025  0.1680
 2293SOL    HW218339   3.349   2.031   1.181 -0.1469  0.8300  0.5491
 2294SOL     OW18340   2.039   1.074   8.622  0.0502  0.3420  0.2638
 2294SOL    HW118341   2.006   1.122   8.546 -1.1228  0.0252  0.5590
 2294SOL    HW218342   2.128   1.108   8.620  0.3288 -0.4251 -0.6097
 2295SOL     OW18343   0.823   3.478   0.260 -0.5897 -0.3199 -0.1278
 2295SOL    HW118344   0.908   3.510   0.288 -0.4743 -0.1434 -0.6933
 2295SOL    HW218345   0.772   3.494   0.340 -3.1962  1.5620 -2.1590
 2296SOL     OW18346   1.946   0.682   0.475 -0.4517  0.0481  0.6671
 2296SOL    HW118347   1.992   0.752   0.429  1.7475 -1.2643  0.8571
 2296SOL    HW218348   2.002   0.606   0.456 -1.2100  0.2904 -2.5243
 2297SOL     OW18349   4.544   0.337  10.086 -0.0080 -0.0761 -0.2474
 2297SOL    HW118350   4.586   0.257  10.118  1.3441  0.9563  0.5355
 2297SOL    HW218351   4.527   0.377  10.171 -0.4608  1.1463 -0.9142
 2298SOL     OW18352   0.045   1.483  11.141  0.1340 -0.4586  0.4620
 2298SOL    HW118353   4.692   1.533  11.108 -1.7057 -2.2316  1.8304
 2298SOL    HW218354   0.013   1.430  11.215 -3.4567  0.2253 -0.6217
 2299SOL     OW18355   1.523   3.564  11.341 -0.6434 -0.4366  0.1845
 2299SOL    HW118356   1.590   3.514  11.294  0.2849 -0.6797  1.7622
 2299SOL    HW218357   1.510   3.644  11.289  0.4328 -0.8507 -0.7270
 2300SOL     OW18358   2.316   3.591   1.643  0.0973  0.4460  0.0025
 2300SOL    HW118359   2.243   3.536   1.615  0.1510  0.1712  0.4039
 2300SOL    HW218360   2.338   3.555   1.729  0.9784 -2.5852 -1.5236
 2301SOL     OW18361   0.508   3.927   8.350 -0.3719 -0.0179 -0.2921
 2301SOL    HW118362   0.505   4.007   8.402  1.3176  0.3975 -0.8422
 2301SOL    HW218363   0.568   3.880   8.408 -1.0270 -2.2451 -1.4178
 2302SOL     OW18364   1.653   4.339   8.079 -0.1636 -0.1737 -0.1024
 2302SOL    HW118365   1.601   4.417   8.060 -1.6968 -1.3555 -0.7333
 2302SOL    HW218366   1.598   4.283   8.134 -0.7331 -0.4231 -0.9247
 2303SOL     OW18367   4.657   2.762   7.914 -0.2538 -0.2188  0.0422
 2303SOL    HW118368   4.674   2.835   7.975 -2.1453 -0.5532  0.9634
 2303SOL    HW218369   4.563   2.765   7.928 -0.4188  1.8736 -1.4722
 2304SOL     OW18370   2.652   0.934   6.878 -0.2151  0.1953  0.1373
 2304SOL    HW118371   2.647   0.851   6.925 -0.6625 -0.5191 -1.1827
 2304SOL    HW218372   2.741   0.960   6.903  0.1674 -0.8214 -0.1661
 2305SOL     OW18373   1.402   4.627   9.241  0.4452  0.1365 -0.2365
 2305SOL    HW118374   1.330   4.585   9.194 -0.3961  0.5019  0.7162
 2305SOL    HW218375   1.360   4.713   9.244 -0.7995 -0.5099  0.9505
 2306SOL     OW18376   3.775   2.342   9.833 -0.7695 -0.0253 -0.1975
 2306SOL    HW118377   3.731   2.360   9.749  0.7482 -1.9672 -1.4012
 2306SOL    HW218378   3.712   2.370   9.900  0.7664 -2.7142  2.3027
 2307SOL     OW18379   3.917   1.936  15.889  0.7635  0.7554  0.3633
 2307SOL    HW118380   3.878   1.923  15.975 -1.8666  0.1321 -0.9419
 2307SOL    HW218381   3.876   2.018  15.860 -3.9088 -1.8972 -0.5213
 2308SOL     OW18382   0.061   1.027   0.619 -0.7909 -0.1700 -0.1197
 2308SOL    HW118383   0.138   1.018   0.675 -0.3891  0.0276 -0.6307
 2308SOL    HW218384   4.720   1.054   0.687 -1.2150 -2.0484  0.2367
 2309SOL     OW18385   3.701   4.143   5.084  0.3172 -0.1202 -0.5401
 2309SOL    HW118386   3.770   4.112   5.143  1.3726  0.6788 -1.3559
 2309SOL    HW218387   3.636   4.075   5.068 -0.1057  0.6874 -2.2886
 2310SOL     OW18388   1.834   2.318   9.418  0.0250 -0.5640 -0.2157
 2310SOL    HW118389   1.768   2.253   9.392  1.5428 -1.9886 -0.5005
 2310SOL    HW218390   1.839   2.300   9.512 -1.8954 -0.4215 -0.0824
 2311SOL     OW18391   0.558   4.225   3.687  0.0367 -0.1738  0.0036
 2311SOL    HW118392   0.640   4.237   3.736  1.0825 -0.0049 -1.7684
 2311SOL    HW218393   0.512   4.308   3.696  0.7940  0.0815  1.5222
 2312SOL     OW18394   3.336   1.558   7.081 -0.2122 -0.4543  0.6495
 2312SOL    HW118395   3.325   1.463   7.083 -1.8198 -0.2827 -0.3447
 2312SOL    HW218396   3.274   1.574   7.010  0.1597 -1.2311  0.1431
 2313SOL     OW18397   0.837   1.379  11.800 -0.1035 -0.9598  0.3504
 2313SOL    HW118398   0.836   1.341  11.888  1.0995  0.5455  1.0072
 2313SOL    HW218399   0.895   1.317  11.756  0.3353 -0.1173 -0.2329
 2314SOL     OW18400   4.155   4.268   8.682 -0.7613  0.0830  0.5389
 2314SOL    HW118401   4.111   4.352   8.666  0.2011  0.5577  0.3588
 2314SOL    HW218402   4.221   4.289   8.749  0.7432  2.1571 -1.5730
 2315SOL     OW18403   1.605   4.696   3.598  0.2409 -0.0372  1.1226
 2315SOL    HW118404   1.591   0.045   3.533 -0.9439 -0.8935  0.4673
 2315SOL    HW218405   1.546   0.012   3.664 -2.1655 -1.4426 -0.2364
 2316SOL     OW18406   1.091   4.386  13.714 -0.0956 -0.4165  0.6192
 2316SOL    HW118407   1.089   4.471  13.670 -2.2573 -0.5807  0.4055
 2316SOL    HW218408   0.999   4.362  13.729 -0.1244 -0.1735  0.8310
 2317SOL     OW18409   3.590   1.491   7.080 -0.2220 -0.1968  0.4262
 2317SOL    HW118410   3.578   1.435   7.157  0.2982 -0.5397  0.2618
 2317SOL    HW218411   3.501   1.525   7.068  1.2160  3.3304 -0.2520
 2318SOL     OW18412   1.275   3.860   1.541  0.3485  0.6016  0.1941
 2318SOL    HW118413   1.217   3.803   1.490  1.8597  0.9820 -1.9431
 2318SOL    HW218414   1.224   3.858   1.622 -1.1651 -0.2651 -0.7691
 2319SOL     OW18415   4.388   0.610   3.140 -0.2088  0.1723 -0.1354
 2319SOL    HW118416   4.306   0.636   3.098 -1.3288 -0.5106  1.5857
 2319SOL    HW218417   4.436   0.567   3.070  0.5236  0.2631  0.3119
 2320SOL     OW18418   2.630   4.704   4.875  0.3081  0.0250  0.0896
 2320SOL    HW118419   2.578   0.063   4.887 -0.7849 -1.0458  2.4563
 2320SOL    HW218420   2.600   4.655   4.951  2.2773 -0.7771  0.3504
 2321SOL     OW18421   2.456   2.270   9.527  0.0399  0.3844 -0.3542
 2321SOL    HW118422   2.402   2.304   9.599 -1.2813 -3.4485  0.4676
 2321SOL    HW218423   2.397   2.281   9.452 -1.5465 -1.8474  0.5619
 2322SOL     OW18424   2.543   0.350  12.157  0.4486 -0.1796  0.2263
 2322SOL    HW118425   2.532   0.322  12.248 -0.7561 -0.2629  0.0614
 2322SOL    HW218426   2.620   0.299  12.134  0.7738  2.0960 -3.7120
 2323SOL     OW18427   2.071   2.542   5.874  0.4761 -0.2236  0.1456
 2323SOL    HW118428   2.143   2.604   5.862 -0.1086  0.3963 -0.1413
 2323SOL    HW218429   2.109   2.468   5.828  1.3761  0.4024 -0.1218
 2324SOL     OW18430   1.242   3.613   5.184  0.2751 -0.0253  1.1914
 2324SOL    HW118431   1.188   3.679   5.142  1.2753 -0.9684 -1.5965
 2324SOL    HW218432   1.235   3.624   5.279 -0.2315 -0.0005  1.1499
 2325SOL     OW18433   1.651   3.825  14.653 -0.9341 -0.1529  0.2976
 2325SOL    HW118434   1.683   3.915  14.651 -2.1267  0.2944  0.8616
 2325SOL    HW218435   1.557   3.842  14.651 -0.9309 -0.4444 -2.0562
 2326SOL     OW18436   3.803   2.712   8.938  0.0017 -0.4046  0.2042
 2326SOL    HW118437   3.775   2.694   8.849  0.0644  0.2689  0.0498
 2326SOL    HW218438   3.831   2.628   8.976  0.3036 -0.3087  0.1930
 2327SOL     OW18439   4.620   1.091   6.906 -0.0342 -0.0066  0.3634
 2327SOL    HW118440   4.536   1.052   6.931 -0.2346  2.6768  3.9466
 2327SOL    HW218441   4.632   1.162   6.969  0.5165 -0.3255  0.6124
 2328SOL     OW18442   1.957   1.659   6.692  0.2162  0.1480  0.0668
 2328SOL    HW118443   2.018   1.721   6.732 -1.0934  0.8511  0.9697
 2328SOL    HW218444   1.889   1.647   6.759  0.2679  0.1518  0.1194
 2329SOL     OW18445   4.062   3.078   6.586  0.1276 -0.2886  0.4582
 2329SOL    HW118446   3.974   3.100   6.617 -0.1222 -0.5900 -0.0383
 2329SOL    HW218447   4.104   3.046   6.667 -2.3908  0.5945  2.1023
 2330SOL     OW18448   0.215   2.612   0.915 -0.0101 -0.5738  0.4540
 2330SOL    HW118449   0.299   2.606   0.868 -0.4646 -1.6055 -0.2142
 2330SOL    HW218450   0.224   2.691   0.968  1.4679  0.5975 -1.5202
 2331SOL     OW18451   1.320   0.689   2.287  0.0630  0.0783 -0.0636
 2331SOL    HW118452   1.250   0.755   2.285  1.9612  2.1380  0.4771
 2331SOL    HW218453   1.275   0.607   2.307 -2.1883  1.6632  1.4457
 2332SOL     OW18454   1.924   3.136  15.364 -0.0092 -0.1527  0.2445
 2332SOL    HW118455   1.901   3.131  15.271  0.1087  0.1866  0.1965
 2332SOL    HW218456   1.834   3.131  15.398 -0.1611  0.0162 -0.1376
 2333SOL     OW18457   4.082   2.039   2.147  0.4333  0.1134  0.1761
 2333SOL    HW118458   3.990   2.014   2.157  0.3420  1.5246  3.0362
 2333SOL    HW218459   4.097   2.101   2.218  0.3922 -1.0955  1.2306
 2334SOL     OW18460   1.878   3.493  16.732  0.3376  0.0036 -0.2320
 2334SOL    HW118461   1.857   3.481  16.639 -2.0986 -1.0163  0.4323
 2334SOL    HW218462   1.850   3.410  16.772  3.4085  0.3204  2.5993
 2335SOL     OW18463   0.518   3.674   6.924  0.1598  0.0237 -0.0597
 2335SOL    HW118464   0.484   3.617   6.855  0.9445 -1.4397  0.7434
 2335SOL    HW218465   0.607   3.691   6.894  0.0706 -1.4697 -1.1769
 2336SOL     OW18466   1.288   4.269  14.830 -0.3619  0.1817  0.0739
 2336SOL    HW118467   1.347   4.205  14.871 -0.0019  1.5332  1.6818
 2336SOL    HW218468   1.224   4.209  14.792  0.3945 -0.5580 -0.0616
 2337SOL     OW18469   0.863   0.465   3.670  0.1642 -0.6627 -0.3734
 2337SOL    HW118470   0.854   0.553   3.708  0.4179 -1.2054  0.9280
 2337SOL    HW218471   0.957   0.451   3.682 -0.2495 -2.8660  0.3036
 2338SOL     OW18472   3.302   0.622   4.945 -0.0040 -0.0381  0.8390
 2338SOL    HW118473   3.284   0.712   4.916 -0.1291  0.3184  2.0097
 2338SOL    HW218474   3.362   0.643   5.016  2.4232 -1.9040 -0.6775
 2339SOL     OW18475   1.508   3.800   7.467  0.4084 -0.0414 -0.1088
 2339SOL    HW118476   1.414   3.821   7.465  0.8289  2.0197  2.2242
 2339SOL    HW218477   1.522   3.735   7.398 -2.8949 -2.8552  1.8903
 2340SOL     OW18478   0.477   1.495   3.166 -0.0607  0.2181 -0.0206
 2340SOL    HW118479   0.495   1.497   3.072 -0.1607  0.8073 -0.0228
 2340SOL    HW218480   0.543   1.553   3.203 -0.3099 -0.8326  2.0851
 2341SOL     OW18481   1.297   4.435   5.531 -0.2108 -0.4517  0.2689
 2341SOL    HW118482   1.322   4.425   5.623 -1.6302 -1.5099  0.5225
 2341SOL    HW218483   1.347   4.512   5.502 -1.1713 -0.2590 -0.8418
 2342SOL     OW18484   2.414   3.955   7.940  0.4083 -0.6401 -0.3632
 2342SOL    HW118485   2.428   3.898   7.865  2.7498  0.1219 -0.5096
 2342SOL    HW218486   2.321   3.942   7.960  0.8292 -0.5757  1.6171
 2343SOL     OW18487   4.541   4.508  16.579  0.2923  0.0272  0.4580
 2343SOL    HW118488   4.539   4.535  16.671 -0.2077  2.1075 -0.1708
 2343SOL    HW218489   4.448   4.523  16.560  0.6416  1.0615 -0.4062
 2344SOL     OW18490   4.484   2.872   1.118  0.3641  0.6687 -0.1806
 2344SOL    HW118491   4.464   2.903   1.206  1.2658  1.3413 -0.2183
 2344SOL    HW218492   4.501   2.953   1.069 -0.8310  0.6680 -0.6041
 2345SOL     OW18493   0.437   2.532   4.603 -0.0081  0.2638 -0.3072
 2345SOL    HW118494   0.492   2.472   4.552 -1.3540 -0.5805 -0.7649
 2345SOL    HW218495   0.506   2.579   4.650  0.2073 -0.3069 -0.0530
 2346SOL     OW18496   4.217   3.084   0.730 -0.0801  0.0450 -0.0359
 2346SOL    HW118497   4.232   3.146   0.659  0.5292 -0.2695 -0.1839
 2346SOL    HW218498   4.161   3.132   0.791  2.5641  1.2054  1.5006
 2347SOL     OW18499   2.043   1.517   7.516  0.4591  0.1465 -0.4946
 2347SOL    HW118500   1.982   1.491   7.447 -1.8088 -0.1649  1.6248
 2347SOL    HW218501   2.041   1.443   7.577  0.3882 -0.0279 -0.7118
 2348SOL     OW18502   1.404   1.562   2.223  0.1311 -0.3641 -0.0864
 2348SOL    HW118503   1.406   1.517   2.139 -2.3449  0.7813 -0.7211
 2348SOL    HW218504   1.400   1.481   2.274 -0.2013 -0.3620 -0.1121
 2349SOL     OW18505   1.566   3.850  13.599 -0.2313  0.4529  0.0722
 2349SOL    HW118506   1.501   3.814  13.538  1.7086  1.1961 -2.3924
 2349SOL    HW218507   1.639   3.808  13.555  0.1830 -0.8831  2.0171
 2350SOL     OW18508   2.395   1.284   3.860 -0.4282 -0.6999 -0.3028
 2350SOL    HW118509   2.359   1.354   3.915  2.1239 -0.6347  1.3134
 2350SOL    HW218510   2.325   1.274   3.796  0.9723 -4.9237 -1.2194
 2351SOL     OW18511   4.050   1.165   9.125  0.5260 -0.7275  0.4371
 2351SOL    HW118512   3.973   1.110   9.140  1.2381 -1.5710  0.9711
 2351SOL    HW218513   4.114   1.097   9.145  2.0924  1.4536  2.7092
 2352SOL     OW18514   1.550   4.349   0.738 -0.4678  0.8769  0.3865
 2352SOL    HW118515   1.576   4.258   0.751  0.7290  1.0444 -0.7557
 2352SOL    HW218516   1.615   4.379   0.674  0.6482 -0.3217  0.9646
 2353SOL     OW18517   3.022   3.862   4.810 -0.4675  0.0027  0.3735
 2353SOL    HW118518   2.939   3.821   4.788  0.2289 -0.2312 -1.8339
 2353SOL    HW218519   3.027   3.928   4.741 -1.1735 -0.4440 -0.1069
 2354SOL     OW18520   2.623   2.444  12.142  0.6819  0.1598 -0.3342
 2354SOL    HW118521   2.709   2.419  12.108 -0.2971 -1.3278 -1.7055
 2354SOL    HW218522   2.568   2.424  12.067 -1.1830 -1.2694  1.3966
 2355SOL     OW18523   3.730   3.610  12.708  0.5496  0.2034 -0.3323
 2355SOL    HW118524   3.703   3.565  12.628 -0.5230  0.9000 -0.3673
 2355SOL    HW218525   3.661   3.673  12.725 -0.3047 -1.2048  1.3801
 2356SOL     OW18526   0.338   1.375   1.585  0.0357 -0.3279  0.4526
 2356SOL    HW118527   0.377   1.376   1.498 -1.6916  2.0800 -0.2897
 2356SOL    HW218528   0.303   1.463   1.602 -1.7851 -0.4642 -2.7132
 2357SOL     OW18529   3.067   2.685  15.226 -0.1039 -0.1597  0.3641
 2357SOL    HW118530   3.036   2.775  15.214  0.6885  0.1601  0.7077
 2357SOL    HW218531   3.076   2.689  15.321 -0.0022  1.2625  0.3056
 2358SOL     OW18532   0.312   0.068   9.287 -0.2028  0.7166 -0.2985
 2358SOL    HW118533   0.406   0.083   9.275 -0.2686 -0.2983 -2.0388
 2358SOL    HW218534   0.286   0.138   9.346 -1.7178 -0.2828  0.2275
 2359SOL     OW18535   1.200   0.969   2.695 -0.0390 -0.3986 -0.3821
 2359SOL    HW118536   1.247   0.912   2.757 -0.3481  0.7549  0.9225
 2359SOL    HW218537   1.108   0.949   2.713  0.3414 -0.9079  1.0400
 2360SOL     OW18538   3.099   2.768   2.956 -0.1256  0.2103 -0.3248
 2360SOL    HW118539   3.194   2.767   2.971 -0.1084 -0.0340 -0.4579
 2360SOL    HW218540   3.054   2.756   3.039 -2.7880  0.8267 -1.6689
 2361SOL     OW18541   4.182   4.606   2.227 -0.2874  0.6446  0.4866
 2361SOL    HW118542   4.170   4.640   2.138 -1.7195 -0.4695  0.2641
 2361SOL    HW218543   4.105   4.550   2.234  0.2672 -0.3826 -1.4696
 2362SOL     OW18544   1.772   2.457   5.900  0.0510 -0.5639 -0.2405
 2362SOL    HW118545   1.865   2.478   5.897  0.3214 -1.9305 -1.2875
 2362SOL    HW218546   1.773   2.372   5.945 -1.3623  0.2280  1.3085
 2363SOL     OW18547   4.663   0.306   5.630 -0.2173  0.2827  0.2813
 2363SOL    HW118548   4.643   0.361   5.705  1.2932  1.8652 -0.4899
 2363SOL    HW218549   4.583   0.312   5.576 -0.4201 -0.6867  0.4658
 2364SOL     OW18550   1.752   3.618  17.547  0.6761  0.1043 -0.7218
 2364SOL    HW118551   1.721   3.708  17.536  1.5637  0.6482  1.1294
 2364SOL    HW218552   1.738   3.622  17.642  1.8132  0.1769 -0.5528
 2365SOL     OW18553   2.172   1.392   1.760  0.0167  0.2152 -0.1266
 2365SOL    HW118554   2.116   1.318   1.784 -1.1027  0.6032 -1.5441
 2365SOL    HW218555   2.158   1.446   1.838 -1.9336  1.4671 -1.3536
 2366SOL     OW18556   1.165   2.143   6.320  0.0215  0.4328 -0.0670
 2366SOL    HW118557   1.110   2.215   6.289 -0.3136  1.0141  1.8823
 2366SOL    HW218558   1.143   2.142   6.413  1.5250 -0.4200  0.2846
 2367SOL     OW18559   1.978   3.027  11.118  0.3960 -0.0710 -0.0663
 2367SOL    HW118560   1.891   3.066  11.114 -1.4335 -4.0843  0.7064
 2367SOL    HW218561   2.011   3.054  11.032 -1.2299 -2.8520 -1.5414
 2368SOL     OW18562   4.499   3.746   4.953  0.1774 -0.5611  0.5847
 2368SOL    HW118563   4.449   3.682   4.903  1.3940  0.5923 -2.1291
 2368SOL    HW218564   4.548   3.685   5.008 -1.7353 -1.9316  0.7600
 2369SOL     OW18565   2.758   4.294   6.741  0.4976 -0.0010  0.2889
 2369SOL    HW118566   2.839   4.277   6.789  0.6005 -1.0700 -0.2728
 2369SOL    HW218567   2.773   4.374   6.690 -0.4908  0.8062  1.2610
 2370SOL     OW18568   0.650   4.473  10.719  0.5242  0.1064  0.4960
 2370SOL    HW118569   0.685   4.541  10.776 -1.1054  1.4215 -0.0681
 2370SOL    HW218570   0.641   4.519  10.636 -0.0368 -0.7039  0.1037
 2371SOL     OW18571   1.699   3.835   9.721  0.1355  0.3976 -0.2269
 2371SOL    HW118572   1.735   3.756   9.680 -1.5827 -0.3336 -0.3442
 2371SOL    HW218573   1.618   3.847   9.671 -0.5737 -1.8248  0.3669
 2372SOL     OW18574   3.980   0.711  16.402  0.1142  0.5639  0.2391
 2372SOL    HW118575   4.057   0.675  16.447  1.3541  0.2152 -2.1772
 2372SOL    HW218576   3.922   0.732  16.476 -1.2420  0.0108 -0.6596
 2373SOL     OW18577   4.517   4.674   2.812  0.6512  0.4162 -0.1119
 2373SOL    HW118578   4.574   4.627   2.752 -1.0423 -1.7807 -0.0043
 2373SOL    HW218579   4.557   0.040   2.805  1.4290 -0.0438 -1.2434
 2374SOL     OW18580   2.791   3.971  10.234  0.2464 -0.4877  1.0946
 2374SOL    HW118581   2.705   3.945  10.267 -0.5013  0.6002 -0.0053
 2374SOL    HW218582   2.843   3.890  10.235 -0.3683 -0.9226 -1.7315
 2375SOL     OW18583   0.864   3.548   8.800  0.1913  0.1244  0.1912
 2375SOL    HW118584   0.947   3.564   8.755  0.8375 -0.2733  1.2523
 2375SOL    HW218585   0.803   3.528   8.729  0.1693  0.3301  0.1519
 2376SOL     OW18586   4.576   1.192   4.068  0.5523  0.3087 -0.1340
 2376SOL    HW118587   4.586   1.285   4.050  1.0841  0.3918  0.5784
 2376SOL    HW218588   4.481   1.195   4.079  0.5144 -1.0168 -0.0754
 2377SOL     OW18589   0.521   0.590   7.426 -0.5170 -0.1409  0.5202
 2377SOL    HW118590   0.592   0.647   7.397  0.5702 -1.5660  0.3630
 2377SOL    HW218591   0.449   0.649   7.449 -0.1765  0.4458  0.0665
 2378SOL     OW18592   0.648   2.968   6.201  0.1070 -0.4541  0.2405
 2378SOL    HW118593   0.569   3.022   6.198 -1.0886 -2.1497  1.1762
 2378SOL    HW218594   0.680   2.987   6.289 -0.6200 -0.1329  0.4298
 2379SOL     OW18595   0.203   2.551   3.463  0.2479 -0.0480 -0.0464
 2379SOL    HW118596   0.141   2.560   3.391 -2.7049  0.3237  2.5225
 2379SOL    HW218597   0.222   2.458   3.456 -0.6898  0.1128 -4.3666
 2380SOL     OW18598   3.852   4.222  16.274 -0.2198 -0.0230 -0.5522
 2380SOL    HW118599   3.888   4.176  16.198  0.4399 -0.9288  0.3125
 2380SOL    HW218600   3.846   4.152  16.339  1.8962 -1.0328 -1.4426
 2381SOL     OW18601   2.811   4.024   1.079  0.3358 -0.3841 -0.8588
 2381SOL    HW118602   2.716   4.030   1.081  0.4721  1.1779  1.2275
 2381SOL    HW218603   2.833   3.993   1.166 -1.4172  1.0241  0.0940
 2382SOL     OW18604   4.040   2.661  16.511  0.3011 -0.0191  0.4322
 2382SOL    HW118605   4.041   2.713  16.591  0.6427 -1.4852  1.3805
 2382SOL    HW218606   4.122   2.685  16.468  0.4952  1.6295  1.7140
 2383SOL     OW18607   3.946   0.396   1.171  0.5459 -0.2098 -0.6354
 2383SOL    HW118608   3.975   0.436   1.254  0.6277  2.3703 -1.9053
 2383SOL    HW218609   3.978   0.455   1.103  1.5038  1.3110  1.1040
 2384SOL     OW18610   1.003   2.336   8.543  0.3172 -0.2889  0.1629
 2384SOL    HW118611   1.010   2.350   8.637  1.1179  0.6618 -0.0431
 2384SOL    HW218612   1.001   2.242   8.528  0.0232 -0.3093  0.3293
 2385SOL     OW18613   3.106   1.972   7.241  0.0537 -0.1282 -0.2444
 2385SOL    HW118614   3.051   1.895   7.256 -1.0853  0.2820 -2.3216
 2385SOL    HW218615   3.191   1.931   7.226  0.2778 -0.2773  1.4584
 2386SOL     OW18616   0.241   1.862   9.208  0.0391 -0.2955  0.1688
 2386SOL    HW118617   0.256   1.771   9.182  3.9220 -0.6802  3.7902
 2386SOL    HW218618   0.150   1.879   9.181  0.4861 -0.0105 -1.1928
 2387SOL     OW18619   0.362   2.156  17.176  0.2933  0.8835 -0.4595
 2387SOL    HW118620   0.399   2.071  17.202 -1.2910  0.8333  1.6358
 2387SOL    HW218621   0.341   2.183  17.265  1.4041  1.6757 -0.4386
 2388SOL     OW18622   1.087   1.539   3.466  0.0181 -0.3810  0.2080
 2388SOL    HW118623   1.028   1.469   3.492 -1.7669  0.6217 -1.1703
 2388SOL    HW218624   1.054   1.617   3.511  0.1005  0.6987 -1.5752
 2389SOL     OW18625   3.170   4.173   3.086 -0.3578 -0.1053 -0.2988
 2389SOL    HW118626   3.264   4.153   3.081 -0.4332 -0.9674  1.7694
 2389SOL    HW218627   3.158   4.128   3.170 -0.3537  0.8832  0.2409
 2390SOL     OW18628   3.343   3.319   9.260 -0.3116 -0.3420 -1.5279
 2390SOL    HW118629   3.253   3.320   9.294 -0.1857 -0.7305 -1.1808
 2390SOL    HW218630   3.367   3.231   9.230  0.3406 -1.2769  1.7081
 2391SOL     OW18631   2.409   3.373   4.623  0.1911  0.0115 -0.6184
 2391SOL    HW118632   2.317   3.391   4.641  0.2332 -0.7931  0.4180
 2391SOL    HW218633   2.409   3.282   4.592 -2.9168 -0.2131  0.0565
 2392SOL     OW18634   2.570   3.000  16.201  0.5676  0.1772 -0.1299
 2392SOL    HW118635   2.637   3.038  16.145 -1.2898  1.9703 -1.1210
 2392SOL    HW218636   2.581   2.907  16.183 -4.1449 -0.3923 -0.2475
 2393SOL     OW18637   2.902   1.023   5.314 -0.3895 -0.7968  0.7275
 2393SOL    HW118638   2.887   1.095   5.375 -3.2406 -1.3515  0.6775
 2393SOL    HW218639   2.816   0.982   5.316  0.7232 -3.1330  0.2300
 2394SOL     OW18640   3.244   3.885  12.925  0.4628 -0.4926 -0.4749
 2394SOL    HW118641   3.160   3.865  12.967  0.2561  1.0565 -0.1704
 2394SOL    HW218642   3.221   3.958  12.868  0.0964  1.1787  1.8315
 2395SOL     OW18643   0.139   4.006   6.467  0.0915 -0.2620 -0.0907
 2395SOL    HW118644   0.065   3.950   6.442 -0.8348  0.7701  0.3024
 2395SOL    HW218645   0.197   4.004   6.391  1.4781 -0.2640  0.9722
 2396SOL     OW18646   2.317   1.093   1.287  0.8652 -0.4814 -0.0254
 2396SOL    HW118647   2.302   1.048   1.371  0.0637  0.4962  0.3681
 2396SOL    HW218648   2.405   1.124   1.310  0.1871 -0.1265  2.1760
 2397SOL     OW18649   4.063   0.293   7.016  0.2130  0.2632 -0.7569
 2397SOL    HW118650   4.089   0.213   6.970 -0.0034 -0.6534  0.7162
 2397SOL    HW218651   4.073   0.266   7.107  0.0623  1.7769 -0.2900
 2398SOL     OW18652   0.351   0.337   2.952 -0.9597 -0.5338  0.6858
 2398SOL    HW118653   0.431   0.314   2.905 -0.1577  0.1527  1.6940
 2398SOL    HW218654   0.340   0.261   3.008 -3.0418 -0.9712 -0.3206
 2399SOL     OW18655   0.818   3.669   1.274 -0.1301 -0.5743 -0.1360
 2399SOL    HW118656   0.812   3.682   1.179  0.8276  0.1058 -0.1034
 2399SOL    HW218657   0.894   3.612   1.286  1.5942  1.6633 -0.3518
 2400SOL     OW18658   2.126   3.153  15.549 -0.0667 -0.4040 -0.1921
 2400SOL    HW118659   2.084   3.153  15.463  2.2059  0.9960 -1.3012
 2400SOL    HW218660   2.047   3.132  15.598  1.2685 -2.0542  1.2467
 2401SOL     OW18661   1.826   1.829   4.831 -0.1433 -0.3198 -0.5912
 2401SOL    HW118662   1.863   1.759   4.884 -0.7097 -0.9801 -1.0670
 2401SOL    HW218663   1.892   1.828   4.761  1.6112  4.1326  1.0455
 2402SOL     OW18664   1.465   1.698  12.819  0.2474  0.6193  0.7786
 2402SOL    HW118665   1.545   1.718  12.770 -0.1009 -0.9465 -0.4407
 2402SOL    HW218666   1.494   1.626  12.875  1.4224  1.8957  1.8178
 2403SOL     OW18667   1.786   0.261   6.333  0.2123  1.2755  0.0167
 2403SOL    HW118668   1.692   0.241   6.334  0.1490  1.5962  1.2322
 2403SOL    HW218669   1.825   0.197   6.273 -0.6448 -0.1674  0.9727
 2404SOL     OW18670   4.488   4.065   2.401 -0.5739  0.0988 -0.3617
 2404SOL    HW118671   4.527   3.978   2.390 -0.3238  0.0646  0.7651
 2404SOL    HW218672   4.523   4.100   2.484  0.4818  1.7393 -1.5018
 2405SOL     OW18673   1.303   4.517   4.461  0.2577 -0.6901  0.4696
 2405SOL    HW118674   1.209   4.525   4.446  0.2272 -3.2249 -0.6615
 2405SOL    HW218675   1.337   4.603   4.435  0.4256 -0.8291  0.2279
 2406SOL     OW18676   0.601   1.993   5.533 -0.1786 -0.1046 -0.6578
 2406SOL    HW118677   0.521   1.951   5.500  0.3766 -2.6508  1.2056
 2406SOL    HW218678   0.572   2.025   5.619  2.2250  3.7613 -1.3004
 2407SOL     OW18679   2.917   2.705  12.125  0.1172  0.3476 -0.1275
 2407SOL    HW118680   3.011   2.715  12.109 -0.1494  0.3921 -1.6042
 2407SOL    HW218681   2.921   2.669  12.214  0.5320  2.0409  0.5512
 2408SOL     OW18682   2.596   4.258   8.438 -0.2064  0.3515  0.3909
 2408SOL    HW118683   2.504   4.241   8.458 -0.4093  0.0932 -0.7634
 2408SOL    HW218684   2.637   4.195   8.497 -0.6524  0.2637  0.6116
 2409SOL     OW18685   1.450   0.205   8.073  0.4819 -0.1759  0.1798
 2409SOL    HW118686   1.416   0.117   8.083 -2.8687  0.9834 -0.9609
 2409SOL    HW218687   1.500   0.211   8.154  0.2419  0.8786  0.2516
 2410SOL     OW18688   2.069   2.676  16.035  0.3515  0.1535  0.1457
 2410SOL    HW118689   2.101   2.590  16.063  2.7911  0.5775 -1.3676
 2410SOL    HW218690   2.151   2.719  16.011  1.2181  0.4152  3.4949
 2411SOL     OW18691   2.111   4.615   6.173 -0.6025  0.1966  0.0946
 2411SOL    HW118692   2.121   4.625   6.267  1.1667  0.4026 -0.1122
 2411SOL    HW218693   2.201   4.588   6.153 -1.3203  0.3469 -3.4001
 2412SOL     OW18694   2.302   4.539   1.462  0.3028  0.1861  0.0677
 2412SOL    HW118695   2.308   4.516   1.554 -0.6350  1.2674  0.3996
 2412SOL    HW218696   2.208   4.544   1.447  0.4552 -0.0097 -0.9522
 2413SOL     OW18697   2.511   3.956   4.319  0.6589 -0.4436 -0.0182
 2413SOL    HW118698   2.467   4.005   4.388 -0.6637 -0.4820 -0.8353
 2413SOL    HW218699   2.464   3.874   4.309 -3.3010  1.9524 -1.1997
 2414SOL     OW18700   1.576   2.884  11.173  0.0416 -0.8149  0.1218
 2414SOL    HW118701   1.624   2.863  11.253  1.0903 -0.5060 -0.4264
 2414SOL    HW218702   1.622   2.959  11.134 -0.4417 -1.0716 -0.9455
 2415SOL     OW18703   1.719   1.879   2.314 -0.4188 -0.5074 -0.4216
 2415SOL    HW118704   1.638   1.903   2.359  0.8852  0.3291  1.4627
 2415SOL    HW218705   1.765   1.832   2.383 -1.3135  0.1572  0.6215
 2416SOL     OW18706   4.249   2.130   2.377  0.5633 -0.1319 -0.0784
 2416SOL    HW118707   4.265   2.172   2.462 -0.2371 -0.0566  0.0368
 2416SOL    HW218708   4.275   2.205   2.322  0.8945 -0.8976 -0.9649
 2417SOL     OW18709   2.068   1.739   2.374  0.0887 -0.4566 -0.3240
 2417SOL    HW118710   2.129   1.797   2.420  1.1244 -1.7707 -0.0415
 2417SOL    HW218711   1.984   1.757   2.417 -0.2514  2.4771 -2.2077
 2418SOL     OW18712   3.119   0.240  11.682 -0.4581 -0.0444  0.2868
 2418SOL    HW118713   3.125   0.192  11.764 -0.6581  0.6723  0.7223
 2418SOL    HW218714   3.193   0.300  11.688  1.3110 -2.0555 -1.4245
 2419SOL     OW18715   4.207   2.090   7.840 -0.8414  0.1748 -0.2435
 2419SOL    HW118716   4.209   2.138   7.757 -2.8216 -0.9544 -0.9484
 2419SOL    HW218717   4.295   2.107   7.875 -1.4014 -0.9690  1.7151
 2420SOL     OW18718   2.047   4.219   6.294  0.1922 -0.4579  0.4541
 2420SOL    HW118719   2.130   4.207   6.339 -0.0164 -1.8124  0.4610
 2420SOL    HW218720   1.984   4.215   6.366 -2.5103 -0.9500 -1.9009
 2421SOL     OW18721   4.515   4.243   3.838  0.1274  0.0680 -0.7961
 2421SOL    HW118722   4.475   4.168   3.795 -2.1825  0.3395  0.9106
 2421SOL    HW218723   4.600   4.243   3.794  0.7351 -0.3971  0.3647
 2422SOL     OW18724   3.321   4.067  15.031  0.0488  0.1505 -0.0783
 2422SOL    HW118725   3.250   4.101  15.085  0.1688 -0.8609  0.7109
 2422SOL    HW218726   3.324   3.973  15.049  1.9114  0.0181 -1.0558
 2423SOL     OW18727   0.703   4.491   5.330  0.0516  0.0303 -0.0475
 2423SOL    HW118728   0.663   4.512   5.414 -0.8867 -2.4865  0.1393
 2423SOL    HW218729   0.779   4.549   5.330  1.0486 -1.2810 -3.0450
 2424SOL     OW18730   3.736   4.357   5.321  0.3951 -0.8554 -0.1437
 2424SOL    HW118731   3.715   4.328   5.409 -2.3361 -1.0665 -0.8576
 2424SOL    HW218732   3.785   4.277   5.302  0.2090 -1.0359  0.1499
 2425SOL     OW18733   2.130   0.536   6.707  0.1484 -0.2585  0.4111
 2425SOL    HW118734   2.194   0.589   6.755  2.5310 -0.8818 -2.1469
 2425SOL    HW218735   2.111   0.576   6.622  2.1014  0.6716  0.4270
 2426SOL     OW18736   1.614   2.775   0.929  0.6336 -0.4035 -0.0951
 2426SOL    HW118737   1.656   2.828   0.861 -2.2648 -0.9207 -2.2740
 2426SOL    HW218738   1.683   2.710   0.935  0.2979 -0.5946  1.5453
 2427SOL     OW18739   1.930   4.451   3.726  0.0248 -0.8618  0.7561
 2427SOL    HW118740   1.867   4.521   3.703  0.6346 -1.2540 -2.0741
 2427SOL    HW218741   1.875   4.386   3.770 -1.2637 -0.7387 -0.6494
 2428SOL     OW18742   0.407   2.091   2.911 -0.7791  0.1200 -0.3415
 2428SOL    HW118743   0.343   2.028   2.878 -0.0451 -1.6025  1.5468
 2428SOL    HW218744   0.373   2.109   2.998  0.3595  0.2529  0.0714
 2429SOL     OW18745   1.117   0.726   9.375 -0.6882  0.3088 -0.0573
 2429SOL    HW118746   1.182   0.788   9.342  0.0359 -0.4330 -0.0294
 2429SOL    HW218747   1.117   0.747   9.468  2.6133 -0.2378  0.0830
 2430SOL     OW18748   2.367   4.119   8.799  0.1398  0.3971  0.1999
 2430SOL    HW118749   2.415   4.043   8.766 -0.9536 -0.4790  0.6163
 2430SOL    HW218750   2.283   4.076   8.817 -1.3831  3.8907  1.3698
 2431SOL     OW18751   0.151   4.167   1.322 -0.4202  0.3858 -0.4877
 2431SOL    HW118752   0.139   4.152   1.415  0.6482  0.1911 -0.3786
 2431SOL    HW218753   0.069   4.126   1.298 -2.5752  3.9007  0.8913
 2432SOL     OW18754   1.163   3.326   5.222 -0.0739  0.9137 -0.2579
 2432SOL    HW118755   1.068   3.325   5.208  0.1266 -1.7075 -1.4133
 2432SOL    HW218756   1.168   3.403   5.278  0.2293  0.2948  0.5657
 2433SOL     OW18757   0.057   4.465   5.649  0.3460  0.0359  0.5086
 2433SOL    HW118758   0.063   4.373   5.676  0.0837  0.1628  1.0005
 2433SOL    HW218759   0.118   4.516   5.702 -0.6629  0.4075  1.3132
 2434SOL     OW18760   4.645   1.333   3.706 -0.3423 -1.1786 -0.0507
 2434SOL    HW118761   4.561   1.289   3.720  0.6234 -1.8478  3.5747
 2434SOL    HW218762   4.668   1.301   3.619  0.6105 -1.1980  0.2147
 2435SOL     OW18763   3.847   0.013   7.035 -0.6062 -0.3289  0.4419
 2435SOL    HW118764   3.801   0.050   7.111 -0.5467  0.2460  0.2019
 2435SOL    HW218765   3.935   4.718   7.070 -1.2019 -0.0743  2.0900
 2436SOL     OW18766   0.027   3.563  11.250  0.0732  0.2198  0.4425
 2436SOL    HW118767   0.111   3.589  11.212  0.3809  0.1271  1.0611
 2436SOL    HW218768   0.021   3.618  11.329 -0.7061 -1.7958  1.7892
 2437SOL     OW18769   2.500   0.871   8.927 -0.1985  0.1408  0.0074
 2437SOL    HW118770   2.560   0.943   8.945 -1.8294  1.7061 -0.7851
 2437SOL    HW218771   2.469   0.894   8.840 -1.3508  2.1587  0.9466
 2438SOL     OW18772   3.702   2.790   2.258 -0.5100  0.0206 -0.0162
 2438SOL    HW118773   3.642   2.747   2.318 -1.8764  4.2487  1.5847
 2438SOL    HW218774   3.777   2.730   2.266 -2.1713 -1.8907  1.0816
 2439SOL     OW18775   1.832   3.136   1.713 -0.5971  0.7135  0.2650
 2439SOL    HW118776   1.846   3.229   1.695 -0.2914  0.6132 -0.0111
 2439SOL    HW218777   1.897   3.136   1.783 -0.9014 -1.0755  0.5539
 2440SOL     OW18778   0.086   2.972   6.396  0.7828  0.1638 -0.2856
 2440SOL    HW118779   0.005   3.020   6.379  0.1610 -0.9406 -0.3970
 2440SOL    HW218780   0.051   2.890   6.430 -0.1860  0.7545  0.1185
 2441SOL     OW18781   0.960   3.872   2.564 -0.1782  0.2408 -0.3108
 2441SOL    HW118782   1.052   3.896   2.552 -0.4287 -0.0902 -2.9951
 2441SOL    HW218783   0.918   3.958   2.560  1.8623  1.3065  1.4594
 2442SOL     OW18784   2.618   1.436  16.420  0.3976  0.3573 -0.2842
 2442SOL    HW118785   2.646   1.410  16.508 -1.3465  1.3190  0.5778
 2442SOL    HW218786   2.614   1.356  16.368 -0.5440  0.4689 -0.3980
 2443SOL     OW18787   2.534   2.955  11.581  0.2671  0.0318 -0.3902
 2443SOL    HW118788   2.585   3.034  11.561 -1.1690  0.8384 -0.9362
 2443SOL    HW218789   2.604   2.894  11.558 -0.9384 -1.1026 -1.0652
 2444SOL     OW18790   3.520   2.421   0.172  0.3914  0.1502 -0.1120
 2444SOL    HW118791   3.587   2.484   0.145  2.2253 -1.7480  0.0204
 2444SOL    HW218792   3.576   2.349   0.202  0.8479  1.3176  1.8068
 2445SOL     OW18793   4.070   2.948  17.425  0.2377  1.0802  0.3586
 2445SOL    HW118794   4.065   3.043  17.416  0.4209  1.0146 -0.3845
 2445SOL    HW218795   3.977   2.930  17.442  0.8912 -2.6041 -0.1134
 2446SOL     OW18796   1.664   4.057  11.567 -0.3463 -0.6043  0.7006
 2446SOL    HW118797   1.675   4.019  11.480 -0.4011 -0.0454  0.4492
 2446SOL    HW218798   1.667   3.978  11.621 -1.1565 -1.0786  0.0672
 2447SOL     OW18799   2.888   3.825  11.085 -0.0880 -0.6147 -1.0071
 2447SOL    HW118800   2.872   3.920  11.089  3.8849 -0.1539  3.2019
 2447SOL    HW218801   2.970   3.831  11.036  0.3464 -0.3951 -0.2402
 2448SOL     OW18802   1.118   2.014   2.231 -0.0770 -0.2014  0.2468
 2448SOL    HW118803   1.117   2.067   2.151 -0.8640 -2.3146 -1.1180
 2448SOL    HW218804   1.041   1.959   2.218 -0.0932  0.0330 -0.6172
 2449SOL     OW18805   0.716   2.109   3.197 -0.7097  0.3448 -0.2726
 2449SOL    HW118806   0.788   2.084   3.139 -0.7427 -1.3204  0.3859
 2449SOL    HW218807   0.662   2.033   3.174 -0.4483 -0.2838  1.2117
 2450SOL     OW18808   4.456   0.184   4.460 -0.6474 -0.2290  0.3970
 2450SOL    HW118809   4.440   0.101   4.507  0.3208 -1.9025 -2.2351
 2450SOL    HW218810   4.385   0.186   4.396 -1.2252 -0.7727  1.0155
 2451SOL     OW18811   3.725   3.168   9.998 -0.8338 -0.3688  0.6688
 2451SOL    HW118812   3.779   3.093  10.024  2.9465  3.0088  2.6250
 2451SOL    HW218813   3.782   3.206   9.931 -1.1772 -0.8952  0.0746
 2452SOL     OW18814   3.752   3.893  10.878 -0.1097 -0.1441 -0.4134
 2452SOL    HW118815   3.763   3.986  10.896  1.1629  0.0884 -2.4804
 2452SOL    HW218816   3.656   3.891  10.883 -0.0737 -0.0072  0.4992
 2453SOL     OW18817   0.339   1.670   7.663 -0.3143  0.0792  0.2919
 2453SOL    HW118818   0.349   1.756   7.703 -1.7497  0.7705 -0.8278
 2453SOL    HW218819   0.359   1.605   7.730  1.8454 -1.1448 -1.5417
 2454SOL     OW18820   0.660   3.888   3.487  0.2316 -0.1326  0.0956
 2454SOL    HW118821   0.632   3.932   3.568 -0.1964 -1.5559  0.7161
 2454SOL    HW218822   0.746   3.931   3.491  1.1814 -2.0435 -0.1266
 2455SOL     OW18823   0.635   1.210   2.135 -0.5199 -0.5487 -0.1843
 2455SOL    HW118824   0.547   1.234   2.161 -1.1724 -0.7523 -2.2082
 2455SOL    HW218825   0.638   1.176   2.045  0.0361  0.8470 -0.6925
 2456SOL     OW18826   0.381   3.934  11.178 -0.0929 -0.4527 -0.4976
 2456SOL    HW118827   0.304   3.964  11.226  0.0178 -0.5032 -0.2884
 2456SOL    HW218828   0.411   4.019  11.145 -1.3527  1.4465  3.2553
 2457SOL     OW18829   4.010   1.526   3.219 -0.2348 -0.0790 -0.0604
 2457SOL    HW118830   3.922   1.563   3.213 -1.3485 -2.6818  0.1616
 2457SOL    HW218831   3.994   1.446   3.269  0.0356 -0.3279 -0.3624
 2458SOL     OW18832   2.655   1.680   5.057  0.3667  0.2462 -0.3975
 2458SOL    HW118833   2.603   1.614   5.103 -0.1496  0.0338 -1.2813
 2458SOL    HW218834   2.690   1.619   4.992 -0.4688 -1.5395  0.8139
 2459SOL     OW18835   2.343   3.039  16.709 -0.4194 -0.0184  0.4666
 2459SOL    HW118836   2.391   3.006  16.784 -1.2826  0.3386  1.1784
 2459SOL    HW218837   2.396   3.117  16.699 -1.5132  0.5666 -0.8717
 2460SOL     OW18838   0.824   0.886   6.220  0.6936  0.3537  0.0683
 2460SOL    HW118839   0.836   0.824   6.149  2.2564  1.1409 -0.3592
 2460SOL    HW218840   0.873   0.962   6.189  1.5047 -0.1087  0.2346
 2461SOL     OW18841   4.139   3.095   3.299 -0.5633 -0.2520  0.2526
 2461SOL    HW118842   4.136   3.093   3.203 -1.5312 -0.7403  0.2924
 2461SOL    HW218843   4.198   3.170   3.306 -2.2698  0.9716  1.1881
 2462SOL     OW18844   3.796   0.772  12.174 -0.2670 -0.0143  0.5970
 2462SOL    HW118845   3.818   0.857  12.211  0.1291 -0.2226  0.8500
 2462SOL    HW218846   3.808   0.708  12.244  0.0048  0.3912  0.9156
 2463SOL     OW18847   1.281   0.829   9.035  0.6474  0.3325 -0.4899
 2463SOL    HW118848   1.218   0.899   9.052  1.4290  0.1566  3.1757
 2463SOL    HW218849   1.227   0.781   8.972  3.2948 -0.7466 -1.9197
 2464SOL     OW18850   4.452   0.439  10.329 -0.6330 -0.0637 -0.0979
 2464SOL    HW118851   4.497   0.473  10.406 -0.2920 -0.5582 -0.0737
 2464SOL    HW218852   4.406   0.368  10.375  0.1864  1.4248  3.0631
 2465SOL     OW18853   2.587   1.749  11.369  0.1725 -0.2048 -0.1214
 2465SOL    HW118854   2.501   1.778  11.340 -0.0891 -1.0481 -0.1727
 2465SOL    HW218855   2.629   1.731  11.284  0.8137  2.6956 -0.4165
 2466SOL     OW18856   1.244   1.917   4.666 -0.1022 -0.2574 -0.6480
 2466SOL    HW118857   1.284   1.944   4.583 -1.1685  2.1435 -0.3957
 2466SOL    HW218858   1.305   1.962   4.725 -0.6300  1.6050 -1.5006
 2467SOL     OW18859   4.306   2.784  17.402 -0.2043 -0.6125 -0.2582
 2467SOL    HW118860   4.236   2.849  17.393 -0.8374 -1.0530  1.5635
 2467SOL    HW218861   4.272   2.736  17.477 -0.9523  0.3166 -0.0022
 2468SOL     OW18862   2.787   3.019   8.836  0.5622  0.3837  0.1191
 2468SOL    HW118863   2.800   3.086   8.768  0.1826  1.4943  1.1395
 2468SOL    HW218864   2.831   3.072   8.902  0.7426 -0.6602  0.8334
 2469SOL     OW18865   1.482   4.403  10.101 -0.0329  0.4511  0.5225
 2469SOL    HW118866   1.468   4.360  10.185  0.5336  2.4788  1.6576
 2469SOL    HW218867   1.412   4.359  10.052  1.9062 -2.4553  0.3605
 2470SOL     OW18868   2.693   3.397  12.298 -0.1999  0.0217  0.4780
 2470SOL    HW118869   2.711   3.307  12.270  1.9039  0.2339  1.1083
 2470SOL    HW218870   2.598   3.404  12.297 -0.1549  0.7571  3.1853
 2471SOL     OW18871   3.217   2.396   3.422 -0.1917  0.3182  0.6144
 2471SOL    HW118872   3.256   2.397   3.335 -0.7138  0.0085  0.3810
 2471SOL    HW218873   3.215   2.302   3.442  0.2679  0.3585  0.8829
 2472SOL     OW18874   0.480   1.569   5.941 -0.0044  0.0981 -0.1289
 2472SOL    HW118875   0.551   1.633   5.932  2.1163 -2.5918 -2.4586
 2472SOL    HW218876   0.437   1.612   6.015 -0.5881 -0.8570  0.0854
 2473SOL     OW18877   3.240   2.923   6.552 -0.0940 -0.7987 -0.2736
 2473SOL    HW118878   3.279   2.880   6.628  0.4433 -0.2087 -0.2148
 2473SOL    HW218879   3.265   3.012   6.577 -0.4221 -0.7564 -0.0879
 2474SOL     OW18880   3.975   3.968   5.952 -0.0348 -0.0841  0.3642
 2474SOL    HW118881   3.976   4.042   5.892  0.6893 -1.7625 -1.6660
 2474SOL    HW218882   3.964   3.896   5.890  0.5274  1.6661 -1.7447
 2475SOL     OW18883   2.977   3.603   8.671 -0.8577 -0.0788 -0.2397
 2475SOL    HW118884   3.032   3.618   8.748  0.6105 -1.6384 -0.9923
 2475SOL    HW218885   2.935   3.690   8.670  0.9099  0.7912  0.3073
 2476SOL     OW18886   1.311   3.974   0.603  0.4084  0.5170  0.2475
 2476SOL    HW118887   1.257   3.968   0.682  0.3595 -0.9895  0.0864
 2476SOL    HW218888   1.281   3.892   0.564  1.6976  0.1208  0.0829
 2477SOL     OW18889   4.179   1.484   0.905  0.2369  0.0751 -0.2665
 2477SOL    HW118890   4.242   1.511   0.972 -0.4187  0.5792  0.1554
 2477SOL    HW218891   4.154   1.565   0.860  1.1805 -0.2495 -1.3536
 2478SOL     OW18892   2.836   2.862  10.921  0.3395  0.1908  0.1649
 2478SOL    HW118893   2.761   2.913  10.889  0.9127  0.4014 -0.8691
 2478SOL    HW218894   2.804   2.773  10.911 -2.4321  1.4507 -2.1820
 2479SOL     OW18895   0.837   0.504  15.093  0.8180  0.2969 -0.0524
 2479SOL    HW118896   0.748   0.539  15.092  0.0843 -1.5614 -0.5440
 2479SOL    HW218897   0.848   0.481  15.185  0.6467 -3.1241 -0.8940
 2480SOL     OW18898   0.558   1.650   9.027  0.5569 -0.0230 -0.1172
 2480SOL    HW118899   0.605   1.633   9.109 -1.2011 -1.4939  0.5868
 2480SOL    HW218900   0.508   1.570   9.013 -0.3455  0.1082  2.3590
 2481SOL     OW18901   1.912   3.898  13.053 -0.0899  0.3260  0.0059
 2481SOL    HW118902   1.973   3.832  13.088 -0.8757  0.3937  1.4919
 2481SOL    HW218903   1.884   3.954  13.125  0.8918  0.2873  0.4222
 2482SOL     OW18904   1.594   0.650  15.312  0.1784 -0.4542  0.1669
 2482SOL    HW118905   1.535   0.638  15.386 -1.8439  1.3691 -1.1229
 2482SOL    HW218906   1.530   0.679  15.246  1.0139  1.3638  0.1642
 2483SOL     OW18907   4.475   1.881   6.814 -0.3066 -0.4218 -0.3979
 2483SOL    HW118908   4.507   1.928   6.737 -0.1633  1.1026  0.5949
 2483SOL    HW218909   4.382   1.881   6.790 -0.2849 -1.7869 -0.4681
 2484SOL     OW18910   4.554   2.043   3.689 -0.1354 -0.0740  0.3604
 2484SOL    HW118911   4.556   2.137   3.703 -0.3706 -0.0366  0.1579
 2484SOL    HW218912   4.522   2.047   3.598  0.8901  2.1402  0.0993
 2485SOL     OW18913   1.560   0.383   7.825  0.0115  0.8215  0.0012
 2485SOL    HW118914   1.548   0.291   7.804  0.5634  1.1136 -1.6418
 2485SOL    HW218915   1.499   0.400   7.896 -0.8399 -2.5071  0.0234
 2486SOL     OW18916   2.212   0.422   5.177 -0.7038  0.2426 -0.2503
 2486SOL    HW118917   2.153   0.373   5.120 -1.2746  1.0777 -0.3828
 2486SOL    HW218918   2.178   0.415   5.266  1.2349  0.8017  0.5530
 2487SOL     OW18919   0.759   1.591   5.323 -0.2681  0.0472  0.1044
 2487SOL    HW118920   0.735   1.639   5.401 -2.0514 -0.6487 -0.0158
 2487SOL    HW218921   0.676   1.584   5.277 -0.0325  1.3127 -0.4956
 2488SOL     OW18922   0.161   2.552   4.183 -0.0783  0.2562 -0.2357
 2488SOL    HW118923   0.170   2.459   4.163  1.5412  0.5801 -1.0433
 2488SOL    HW218924   0.086   2.574   4.127 -0.7172 -1.2168  0.0457
 2489SOL     OW18925   0.046   1.384   1.205  0.0187  0.6121 -0.1839
 2489SOL    HW118926   0.106   1.455   1.225 -1.6254  1.7553  0.6140
 2489SOL    HW218927   0.048   1.326   1.281 -1.1509 -1.7346 -1.9222
 2490SOL     OW18928   1.002   4.397   2.944 -0.5016  0.1952 -0.4409
 2490SOL    HW118929   1.070   4.433   2.887 -0.2560  1.1564  0.4509
 2490SOL    HW218930   0.977   4.482   2.981  0.1981  0.6170 -0.9169
 2491SOL     OW18931   0.272   1.455   8.864  0.5006  0.3205  0.2579
 2491SOL    HW118932   0.360   1.415   8.866 -0.0650 -0.8616  1.4486
 2491SOL    HW218933   0.218   1.391   8.910 -0.7024  1.9932  1.1302
 2492SOL     OW18934   1.862   4.488  11.707  0.2711  0.1322  0.1356
 2492SOL    HW118935   1.852   4.535  11.790  0.5048  1.2127 -0.4399
 2492SOL    HW218936   1.955   4.470  11.719  0.6211  2.2555  0.6045
 2493SOL     OW18937   3.455   3.753   6.636 -0.4580 -0.4199  0.5196
 2493SOL    HW118938   3.383   3.797   6.680 -1.2935 -0.8976 -0.3853
 2493SOL    HW218939   3.491   3.806   6.565  1.0056 -2.0638  0.0356
 2494SOL     OW18940   0.337   1.965   9.940 -0.3789 -0.2444  0.2498
 2494SOL    HW118941   0.268   1.986  10.004 -0.8649 -0.0069 -0.3538
 2494SOL    HW218942   0.412   1.984   9.996  0.1652 -1.0410 -0.2210
 2495SOL     OW18943   3.666   0.840   6.358 -0.1832  0.4414 -0.2892
 2495SOL    HW118944   3.573   0.820   6.365 -0.7411  2.8148 -0.9914
 2495SOL    HW218945   3.677   0.809   6.268 -0.7171 -1.0450  0.1560
 2496SOL     OW18946   1.348   4.059   8.985  0.0573 -0.0651  0.5933
 2496SOL    HW118947   1.415   3.997   9.013 -0.3457 -0.2492  1.1411
 2496SOL    HW218948   1.313   4.096   9.066  1.1023 -0.3975  1.1986
 2497SOL     OW18949   0.859   2.377  15.627  0.9039  0.3303 -0.0809
 2497SOL    HW118950   0.936   2.434  15.629 -0.6243  2.4142 -0.6089
 2497SOL    HW218951   0.895   2.300  15.670 -1.9546 -2.1471 -2.1823
 2498SOL     OW18952   3.833   2.066   2.233  0.1588 -0.5760  0.5767
 2498SOL    HW118953   3.795   2.101   2.153  0.2328 -1.5926  0.0922
 2498SOL    HW218954   3.780   2.097   2.306 -0.2995 -1.8383  0.7729
 2499SOL     OW18955   1.577   2.768   7.330 -0.3282  0.1909  0.2228
 2499SOL    HW118956   1.542   2.712   7.400 -0.5088 -0.2900 -0.2562
 2499SOL    HW218957   1.668   2.767   7.360  0.1502  0.0275 -1.2568
 2500SOL     OW18958   0.733   1.112  16.534 -0.5046  0.5482  0.5426
 2500SOL    HW118959   0.699   1.028  16.564 -0.7004 -0.4615 -2.5223
 2500SOL    HW218960   0.786   1.149  16.605 -0.5786 -0.4701  1.1344
 2501SOL     OW18961   1.933   2.357   3.738 -0.4001  0.2653 -0.4808
 2501SOL    HW118962   1.863   2.308   3.694 -0.4806  0.9706 -1.1277
 2501SOL    HW218963   1.918   2.325   3.827  0.2312 -0.0834 -0.4998
 2502SOL     OW18964   1.623   4.045   0.006 -0.3540 -0.3609 -0.1476
 2502SOL    HW118965   1.548   4.032   0.063 -0.4291  1.3600  0.1333
 2502SOL    HW218966   1.610   4.135  17.661  2.6811 -0.1832 -0.9766
 2503SOL     OW18967   3.327   2.409   0.687  0.4030  0.4291 -0.3241
 2503SOL    HW118968   3.325   2.470   0.614 -2.2249  0.3164 -0.3558
 2503SOL    HW218969   3.256   2.347   0.668 -0.1562  0.2442  2.3530
 2504SOL     OW18970   4.440   2.098  14.723 -0.0466 -0.1443 -0.3860
 2504SOL    HW118971   4.346   2.107  14.738  0.4097  2.4136  1.0335
 2504SOL    HW218972   4.473   2.182  14.755  0.4047  0.2672 -1.9344
 2505SOL     OW18973   1.062   3.322   0.610  0.5804  0.1274 -0.5862
 2505SOL    HW118974   1.079   3.305   0.702 -3.0009 -1.5058 -0.2241
 2505SOL    HW218975   1.017   3.239   0.597  0.3081  0.5135 -2.1068
 2506SOL     OW18976   1.634   0.820   3.232 -0.2431  0.2665 -0.0948
 2506SOL    HW118977   1.584   0.740   3.217  1.2129 -0.9306  1.2904
 2506SOL    HW218978   1.592   0.881   3.172 -1.6729 -1.1523 -0.5157
 2507SOL     OW18979   1.067   3.442   2.875  0.1160  0.3926 -0.5489
 2507SOL    HW118980   1.063   3.381   2.802  0.8899  2.0864 -1.9945
 2507SOL    HW218981   1.125   3.511   2.843 -0.4147  1.9237  1.7554
 2508SOL     OW18982   3.009   4.644   1.142  0.3807 -0.1865  0.3189
 2508SOL    HW118983   3.026   4.644   1.237 -0.0410 -0.1887  0.3958
 2508SOL    HW218984   2.931   4.589   1.152 -0.8594  1.4250 -0.5367
 2509SOL     OW18985   1.915   0.460   0.843  1.0259  0.6050  0.5995
 2509SOL    HW118986   1.997   0.462   0.892  2.3852 -0.1065 -1.6743
 2509SOL    HW218987   1.898   0.549   0.811 -1.0997 -0.0362 -0.0523
 2510SOL     OW18988   4.408   3.012   4.617 -0.4277  0.7067 -0.0161
 2510SOL    HW118989   4.433   3.017   4.709  2.4977  1.7273 -0.8594
 2510SOL    HW218990   4.367   2.926   4.612 -0.1166  0.6259 -1.1466
 2511SOL     OW18991   1.169   4.649   6.453  0.1222 -0.4951 -0.2106
 2511SOL    HW118992   1.129   4.653   6.539 -1.3143 -0.5984 -0.8705
 2511SOL    HW218993   1.155   4.560   6.421  0.4856 -0.3267 -0.8425
 2512SOL     OW18994   4.230   1.982   2.629 -0.2405  0.0608 -0.3258
 2512SOL    HW118995   4.311   1.932   2.639  0.8229  1.7054 -0.8130
 2512SOL    HW218996   4.205   1.993   2.720  0.7736  0.7086 -0.1362
 2513SOL     OW18997   0.716   1.569  12.980  0.4614 -0.0477  0.6530
 2513SOL    HW118998   0.810   1.559  12.961 -0.0548  0.6041 -2.2496
 2513SOL    HW218999   0.708   1.661  12.954  2.5341  0.4840  1.8755
 2514SOL     OW19000   1.662   3.917   9.408  0.3443 -0.4913 -0.5539
 2514SOL    HW119001   1.589   3.875   9.454  0.6293  1.1726  1.4580
 2514SOL    HW219002   1.697   3.835   9.373 -0.7084 -2.0313  1.9726
 2515SOL     OW19003   1.644   4.556   4.317  0.5673 -0.4614 -0.8081
 2515SOL    HW119004   1.590   4.478   4.328  1.4381 -0.6249  2.2844
 2515SOL    HW219005   1.644   4.564   4.222  1.5987 -1.8347 -0.9211
 2516SOL     OW19006   3.401   2.023  15.270 -0.5835 -0.0466  0.2567
 2516SOL    HW119007   3.430   1.958  15.205  1.4098 -0.0939  1.1823
 2516SOL    HW219008   3.308   2.009  15.252  0.0202 -1.9862 -1.3128
 2517SOL     OW19009   0.994   3.813   5.678 -0.0105  0.1470 -0.4656
 2517SOL    HW119010   1.043   3.815   5.760  0.7860  1.6472 -0.9932
 2517SOL    HW219011   1.069   3.780   5.628  0.8120  0.6958  0.4110
 2518SOL     OW19012   2.253   0.581   8.097  0.0483 -0.7229  0.3661
 2518SOL    HW119013   2.243   0.589   8.191 -0.4300 -2.5086  0.4794
 2518SOL    HW219014   2.162   0.598   8.072  0.2248 -0.9607 -0.4423
 2519SOL     OW19015   2.464   3.506   7.214 -0.2679 -0.2597  0.2791
 2519SOL    HW119016   2.409   3.510   7.292  0.0182  1.7678  0.3740
 2519SOL    HW219017   2.404   3.520   7.140  1.8624 -0.4791 -1.4732
 2520SOL     OW19018   1.391   4.385   2.941  0.0203 -0.2761  0.4226
 2520SOL    HW119019   1.317   4.415   2.887  0.2094  0.2789  0.4678
 2520SOL    HW219020   1.367   4.416   3.028 -1.5409 -1.1602  0.2987
 2521SOL     OW19021   3.226   2.833  10.960 -0.1821  0.3196 -0.6092
 2521SOL    HW119022   3.197   2.755  10.913  1.1751  0.5392 -1.7785
 2521SOL    HW219023   3.273   2.794  11.033 -1.4928 -1.6575 -0.8262
 2522SOL     OW19024   1.007   1.724  10.631 -0.0272 -0.2084  0.2785
 2522SOL    HW119025   0.914   1.745  10.636 -0.4255 -2.2564  1.3523
 2522SOL    HW219026   1.039   1.736  10.721  0.8099 -0.2428 -0.0113
 2523SOL     OW19027   2.767   3.568   9.605  0.4165  0.3169 -0.3230
 2523SOL    HW119028   2.721   3.565   9.689  1.1209  1.2807  0.0880
 2523SOL    HW219029   2.795   3.658   9.591  0.5898  0.6654  2.4024
 2524SOL     OW19030   3.277   4.456   4.010  0.4636  0.3835 -0.2222
 2524SOL    HW119031   3.235   4.382   3.966 -0.8607  0.0414  1.6045
 2524SOL    HW219032   3.246   4.525   3.951  0.5554 -0.3247 -1.0849
 2525SOL     OW19033   2.290   4.054   8.476 -0.6205 -0.2739 -0.1462
 2525SOL    HW119034   2.247   4.109   8.542 -0.4343 -0.2440 -0.0517
 2525SOL    HW219035   2.223   4.053   8.408 -0.6957 -0.0904 -0.0756
 2526SOL     OW19036   1.880   0.321   7.341 -0.3191 -0.5813 -0.1739
 2526SOL    HW119037   1.786   0.337   7.337 -0.4119 -1.5540 -2.0311
 2526SOL    HW219038   1.900   0.319   7.434 -2.5985  0.2541  0.3274
 2527SOL     OW19039   3.861   1.205  14.277  0.0101  0.0131 -0.0647
 2527SOL    HW119040   3.769   1.180  14.265  0.0033 -0.2786  0.5788
 2527SOL    HW219041   3.898   1.190  14.190 -0.5943 -1.6481 -0.0437
 2528SOL     OW19042   3.465   4.364   2.653  0.6409  0.2252 -0.4848
 2528SOL    HW119043   3.454   4.365   2.748 -1.2664  0.6430 -0.6977
 2528SOL    HW219044   3.560   4.369   2.645  0.7733  0.3932  1.1134
 2529SOL     OW19045   2.410   1.000   3.077  0.7972 -0.2682  0.1002
 2529SOL    HW119046   2.413   0.986   2.982 -0.5621  0.6498 -0.0824
 2529SOL    HW219047   2.485   0.946   3.101 -0.4564 -1.9688  0.2775
 2530SOL     OW19048   2.280   3.245   8.202  0.0524 -0.0317  0.2792
 2530SOL    HW119049   2.354   3.197   8.238 -0.2695 -1.0960 -0.4822
 2530SOL    HW219050   2.237   3.267   8.285  0.7879  0.2559  0.5808
 2531SOL     OW19051   1.232   0.768   0.947  0.1694  0.0176 -0.0169
 2531SOL    HW119052   1.257   0.805   0.862 -0.8216 -2.4342 -1.3606
 2531SOL    HW219053   1.138   0.779   0.958  0.1475 -0.9658  0.7920
 2532SOL     OW19054   0.525   1.753  13.371  0.1139 -0.0196  0.0787
 2532SOL    HW119055   0.523   1.840  13.330 -0.1286  0.4826  1.1437
 2532SOL    HW219056   0.430   1.741  13.370  0.0764  0.2348  0.3838
 2533SOL     OW19057   4.518   2.584   5.499  0.4347 -0.0183  0.0831
 2533SOL    HW119058   4.529   2.489   5.508  2.6819  0.2157 -0.1096
 2533SOL    HW219059   4.585   2.603   5.433 -0.8429 -0.7041 -1.4179
 2534SOL     OW19060   1.757   2.295   1.544 -0.5659  0.5654  0.1712
 2534SOL    HW119061   1.792   2.365   1.488 -1.0470  0.8932  0.2839
 2534SOL    HW219062   1.676   2.268   1.503  0.1434  0.0342 -0.8661
 2535SOL     OW19063   1.358   0.184   4.261 -0.3775  0.2584  0.0626
 2535SOL    HW119064   1.328   0.137   4.183  0.2248 -0.9366  0.5593
 2535SOL    HW219065   1.348   0.278   4.246  0.9651 -0.0080 -2.4413
 2536SOL     OW19066   2.205   3.502  11.111 -0.1939  0.5602  0.3156
 2536SOL    HW119067   2.190   3.438  11.042  0.2787  0.2497  0.4968
 2536SOL    HW219068   2.221   3.442  11.185  0.3496  0.5645  0.1995
 2537SOL     OW19069   1.896   4.388   6.125  0.1269  0.1789 -0.5106
 2537SOL    HW119070   1.960   4.450   6.161  3.1954 -2.1133 -2.0434
 2537SOL    HW219071   1.938   4.311   6.163 -0.9071  1.1653  2.6266
 2538SOL     OW19072   4.663   4.683   2.558  0.1868  0.5960  0.6137
 2538SOL    HW119073   4.658   4.668   2.463  0.5003 -0.6821  0.7893
 2538SOL    HW219074   4.570   4.704   2.572  0.4336  1.1107  1.4466
 2539SOL     OW19075   2.640   1.232  11.908  0.1965  0.1626  0.1087
 2539SOL    HW119076   2.726   1.248  11.868 -0.6212 -1.6178 -2.3648
 2539SOL    HW219077   2.655   1.281  11.989 -1.6269  1.4799 -0.3467
 2540SOL     OW19078   1.478   1.348   1.717 -0.4322 -0.2435  0.1756
 2540SOL    HW119079   1.544   1.365   1.651 -0.9320  1.5936  0.1652
 2540SOL    HW219080   1.445   1.260   1.696 -1.1741  0.1502 -0.2903
 2541SOL     OW19081   0.473   2.406   0.996 -0.1289  0.8782  0.2024
 2541SOL    HW119082   0.517   2.341   0.942 -0.0117  0.8530  0.3270
 2541SOL    HW219083   0.469   2.471   0.926  1.0050  1.3488  0.5743
 2542SOL     OW19084   0.977   0.797   2.714  0.1967 -0.0620 -0.6836
 2542SOL    HW119085   1.006   0.757   2.632 -2.9257 -0.5549 -1.5623
 2542SOL    HW219086   0.906   0.743   2.749  1.0629  0.6837  2.2184
 2543SOL     OW19087   0.037   0.337   9.297  0.1382  0.1696 -0.8670
 2543SOL    HW119088   0.101   0.325   9.226 -0.2305 -1.8671 -0.8324
 2543SOL    HW219089   0.066   0.420   9.335  0.4762 -0.7694  0.9114
 2544SOL     OW19090   2.400   4.186  14.669  0.4163 -0.2788  0.0374
 2544SOL    HW119091   2.377   4.248  14.738  1.6552 -1.7219  1.7596
 2544SOL    HW219092   2.331   4.121  14.682 -1.1501  1.2732 -0.5328
 2545SOL     OW19093   2.079   4.306   2.274  0.6167  0.5189 -0.0025
 2545SOL    HW119094   2.114   4.276   2.191  1.7008 -0.5178  0.8178
 2545SOL    HW219095   1.986   4.302   2.253  0.6448  0.4413 -0.1069
 2546SOL     OW19096   3.893   0.719   3.519  0.1646  0.0374  0.1501
 2546SOL    HW119097   3.837   0.753   3.449  0.8132  1.2203  0.1978
 2546SOL    HW219098   3.978   0.701   3.480  1.0256  2.8772  0.6928
 2547SOL     OW19099   3.831   2.255   8.601  0.0667  0.0505  0.3930
 2547SOL    HW119100   3.779   2.192   8.651 -2.1311 -0.0555 -2.0229
 2547SOL    HW219101   3.914   2.209   8.591 -0.0632  0.0127 -0.4729
 2548SOL     OW19102   3.171   1.132  10.891 -0.3676 -0.6608 -0.0283
 2548SOL    HW119103   3.211   1.086  10.965  1.0546  1.2702  0.4176
 2548SOL    HW219104   3.092   1.080  10.877 -0.4352 -0.4203 -0.5546
 2549SOL     OW19105   3.577   4.577   4.296 -0.5874 -0.0881  0.2433
 2549SOL    HW119106   3.648   4.523   4.262 -0.2109 -0.5903  1.8437
 2549SOL    HW219107   3.597   4.587   4.389  1.8359  1.9207 -0.5038
 2550SOL     OW19108   3.951   2.069   5.104 -0.0974 -0.1731 -0.7183
 2550SOL    HW119109   3.962   2.056   5.198  3.4181 -0.7349 -1.2427
 2550SOL    HW219110   3.905   1.996   5.063 -0.1213 -0.7360  0.3047
 2551SOL     OW19111   1.328   0.420   0.737  0.2236  0.5069 -0.4845
 2551SOL    HW119112   1.285   0.484   0.681 -0.4219 -0.5796 -1.2291
 2551SOL    HW219113   1.317   0.340   0.685 -1.3360  0.7076 -0.4509
 2552SOL     OW19114   2.181   3.172   9.719 -0.8513  0.1876  0.3220
 2552SOL    HW119115   2.158   3.261   9.746 -0.4781  0.2145  0.5522
 2552SOL    HW219116   2.241   3.184   9.645 -0.7034  1.3342  0.6212
 2553SOL     OW19117   4.243   1.934   7.207 -0.0602 -0.0480  0.1120
 2553SOL    HW119118   4.312   2.000   7.211 -1.1367  1.2531 -2.9781
 2553SOL    HW219119   4.276   1.857   7.254  2.4603  0.3685 -0.9401
 2554SOL     OW19120   1.088   4.045  13.148  0.0973  0.5270 -0.0833
 2554SOL    HW119121   1.151   3.974  13.141 -1.0946 -0.7568  2.4341
 2554SOL    HW219122   1.116   4.113  13.086  2.0114  0.2654  0.4961
 2555SOL     OW19123   4.376   2.498   9.308  0.1926 -0.3026 -0.1607
 2555SOL    HW119124   4.343   2.586   9.325 -1.9858 -1.1081 -0.3324
 2555SOL    HW219125   4.303   2.451   9.269  0.0649 -0.9315  0.8377
 2556SOL     OW19126   2.001   2.030  16.577  0.2524 -0.0542 -0.2170
 2556SOL    HW119127   1.938   2.102  16.573  1.1378  0.8685  2.5187
 2556SOL    HW219128   2.038   2.044  16.490 -1.5804  1.9191 -0.7052
 2557SOL     OW19129   3.551   1.609  17.147  0.1664 -0.1786 -0.0420
 2557SOL    HW119130   3.526   1.688  17.194 -1.7432  0.0797 -1.5149
 2557SOL    HW219131   3.473   1.611  17.092 -0.3665  0.5734  0.7315
 2558SOL     OW19132   4.580   1.453   8.936  0.5543  0.1450 -0.6489
 2558SOL    HW119133   4.609   1.450   8.845 -1.4275  2.1159 -1.3496
 2558SOL    HW219134   4.655   1.404   8.970 -0.6535 -0.5061  1.1061
 2559SOL     OW19135   0.250   3.696  11.123 -0.3868 -0.1323  0.0776
 2559SOL    HW119136   0.295   3.780  11.132  0.8458 -0.8050  0.3375
 2559SOL    HW219137   0.329   3.645  11.144 -0.9459 -1.6642 -1.4856
 2560SOL     OW19138   2.082   3.161   7.962 -0.3181 -0.5554 -0.0001
 2560SOL    HW119139   2.035   3.244   7.963  0.0878 -0.2467 -3.7409
 2560SOL    HW219140   2.156   3.184   8.017 -1.2260  2.5084 -0.0269
 2561SOL     OW19141   0.249   0.695  15.374 -0.1653 -0.2881 -0.8060
 2561SOL    HW119142   0.342   0.674  15.362 -0.0701 -2.9982  4.5841
 2561SOL    HW219143   0.237   0.734  15.287 -3.6980 -0.2175 -0.2858
 2562SOL     OW19144   3.667   1.975   7.439  0.2451  0.4225 -0.1497
 2562SOL    HW119145   3.609   2.051   7.432 -0.1029  0.2515  0.9469
 2562SOL    HW219146   3.675   1.970   7.534 -0.6296  1.3772 -0.0305
 2563SOL     OW19147   0.491   1.973   6.005 -0.6549 -0.2265  0.3044
 2563SOL    HW119148   0.470   2.029   6.080  0.4173 -0.1127  0.5179
 2563SOL    HW219149   0.409   1.928   5.986 -0.4088 -0.8158  0.6330
 2564SOL     OW19150   0.901   0.254   9.212  0.2885  0.4062  0.2160
 2564SOL    HW119151   0.819   0.301   9.198 -0.8779 -1.9406 -0.8978
 2564SOL    HW219152   0.956   0.329   9.233 -0.2915  0.7628  0.4518
 2565SOL     OW19153   0.484   3.429   1.042 -0.6161  0.4976  1.1046
 2565SOL    HW119154   0.526   3.491   0.982 -1.0954 -0.1855  0.0703
 2565SOL    HW219155   0.421   3.487   1.085 -0.7737 -0.1806  1.7809
 2566SOL     OW19156   3.374   3.570   8.527 -0.9091 -0.0967 -0.2029
 2566SOL    HW119157   3.445   3.544   8.585 -0.9128  0.2542 -0.0368
 2566SOL    HW219158   3.302   3.512   8.552 -1.2072  0.6668  0.7292
 2567SOL     OW19159   2.778   1.503   5.301 -0.2415 -0.1752 -0.2177
 2567SOL    HW119160   2.760   1.475   5.211 -0.3928  1.6783 -0.7772
 2567SOL    HW219161   2.689   1.518   5.333  1.5231  2.5848  3.3341
 2568SOL     OW19162   1.327   1.800   1.561 -0.2685 -0.5698 -0.2545
 2568SOL    HW119163   1.281   1.838   1.636 -0.9843 -1.3669 -0.2870
 2568SOL    HW219164   1.369   1.723   1.599 -0.4774 -1.0484 -1.0057
 2569SOL     OW19165   3.737   2.833   5.958 -0.0230 -0.3128 -0.2974
 2569SOL    HW119166   3.739   2.745   5.920 -1.3640 -1.3342  1.9940
 2569SOL    HW219167   3.645   2.860   5.951  0.4875  1.8740  1.4710
 2570SOL     OW19168   2.440   2.370   1.394 -0.6517 -0.3519 -0.0067
 2570SOL    HW119169   2.391   2.433   1.342  1.3496  1.1946 -0.0011
 2570SOL    HW219170   2.364   2.313   1.411 -1.4745  0.8448  0.2927
 2571SOL     OW19171   0.218   2.959  13.357 -0.6639  0.5590  0.3196
 2571SOL    HW119172   0.201   3.027  13.292  1.5030 -0.8715 -1.7364
 2571SOL    HW219173   0.232   3.010  13.437  1.6247  0.4710 -0.0306
 2572SOL     OW19174   2.370   2.584   2.142 -0.0199 -0.6853 -0.5571
 2572SOL    HW119175   2.352   2.574   2.048  0.0185 -0.2397 -0.6097
 2572SOL    HW219176   2.387   2.492   2.163  2.0127  0.3035  2.0276
 2573SOL     OW19177   2.012   4.671  10.931  0.7907 -0.1539 -0.2857
 2573SOL    HW119178   1.946   4.717  10.982  1.8709  0.2026  0.8045
 2573SOL    HW219179   1.945   4.626  10.880  1.4851 -0.7184 -0.7038
 2574SOL     OW19180   4.227   2.206   3.509  0.2923  0.5164 -0.7044
 2574SOL    HW119181   4.156   2.250   3.463  2.7988  0.0384 -5.0237
 2574SOL    HW219182   4.218   2.117   3.473 -0.4027  0.6865 -0.9598
 2575SOL     OW19183   0.532   0.877   7.321 -0.2142  0.0344 -0.9189
 2575SOL    HW119184   0.467   0.866   7.389  1.3548  0.3427  0.6228
 2575SOL    HW219185   0.477   0.848   7.248 -0.7469 -1.3395  0.0256
 2576SOL     OW19186   0.412   1.452   8.195  0.4504  0.3052 -0.0955
 2576SOL    HW119187   0.504   1.446   8.170 -0.0605  1.3145 -2.2084
 2576SOL    HW219188   0.407   1.392   8.270 -2.1071 -0.9199 -1.2123
 2577SOL     OW19189   0.784   0.154   1.753 -0.0622  0.6451 -0.1900
 2577SOL    HW119190   0.863   0.107   1.780  0.6230  1.0373 -1.5113
 2577SOL    HW219191   0.813   0.186   1.667 -0.5790  0.9569 -0.2502
 2578SOL     OW19192   0.972   0.822   4.082 -0.0771 -0.1206  0.4337
 2578SOL    HW119193   1.068   0.827   4.082 -0.1007  0.4250 -0.7727
 2578SOL    HW219194   0.956   0.768   4.159  0.2789  2.0866  2.0801
 2579SOL     OW19195   1.609   3.785   3.945 -0.2440 -0.2025  0.5183
 2579SOL    HW119196   1.514   3.778   3.935 -0.3322  1.1038  0.4031
 2579SOL    HW219197   1.633   3.752   3.858 -1.3411  2.4594 -0.8107
 2580SOL     OW19198   4.640   4.450  14.613  0.5123 -1.0020 -0.4139
 2580SOL    HW119199   4.720   4.440  14.664 -0.3009 -1.1174  0.8393
 2580SOL    HW219200   4.582   4.484  14.681  0.8849 -0.3735 -0.4144
 2581SOL     OW19201   1.983   0.439   4.338  0.1190  0.1161 -0.2662
 2581SOL    HW119202   2.054   0.378   4.320  1.9993  1.0801  3.9165
 2581SOL    HW219203   1.939   0.393   4.409  1.7745  0.5501  1.0373
 2582SOL     OW19204   1.149   4.132   7.467  0.4178 -0.4098  0.1091
 2582SOL    HW119205   1.109   4.203   7.417 -1.1809 -0.6445  1.0419
 2582SOL    HW219206   1.166   4.079   7.389 -1.0496 -0.2856 -0.3015
 2583SOL     OW19207   3.325   1.934   8.675  0.4512 -0.2882  0.1063
 2583SOL    HW119208   3.361   2.021   8.655  2.1607 -0.6931  1.4918
 2583SOL    HW219209   3.313   1.907   8.584  2.1850  1.7636 -0.7298
 2584SOL     OW19210   3.140   2.768  10.510  0.0099 -0.4482 -0.1371
 2584SOL    HW119211   3.135   2.701  10.579 -2.5513 -0.8676 -0.7032
 2584SOL    HW219212   3.049   2.794  10.493  0.3348  1.5639  1.2313
 2585SOL     OW19213   0.790   4.061   4.854 -0.1417  0.1176  0.3198
 2585SOL    HW119214   0.792   4.064   4.949 -0.0468  0.0640  0.3202
 2585SOL    HW219215   0.881   4.086   4.835 -0.1932 -0.6489 -0.9875
 2586SOL     OW19216   2.039   3.824   1.668  0.0499 -0.6720  0.1096
 2586SOL    HW119217   2.006   3.764   1.735  1.0236 -0.9464  0.3344
 2586SOL    HW219218   1.961   3.819   1.613 -0.1957 -0.1204  0.4055
 2587SOL     OW19219   4.546   2.104   5.442 -0.0123  0.2361 -0.0595
 2587SOL    HW119220   4.546   2.176   5.379 -1.2401 -0.2421 -0.6253
 2587SOL    HW219221   4.619   2.053   5.407  0.3340  0.2275  0.6988
 2588SOL     OW19222   1.494   3.131  12.880  0.1242  0.2130  0.6280
 2588SOL    HW119223   1.549   3.068  12.834  0.1246  0.0419  0.8596
 2588SOL    HW219224   1.545   3.152  12.959  3.1941  1.4195 -1.6653
 2589SOL     OW19225   0.146   0.077  11.911  0.3422 -0.3171 -0.4161
 2589SOL    HW119226   0.226   0.107  11.955  0.5157 -1.9522  0.3733
 2589SOL    HW219227   0.088   0.057  11.984  2.4152  0.8659  1.5479
 2590SOL     OW19228   0.881   2.670  13.270 -0.1345 -0.1212  0.5213
 2590SOL    HW119229   0.955   2.672  13.332 -0.1118 -1.2652  0.5164
 2590SOL    HW219230   0.915   2.732  13.205 -2.7080  0.1741 -0.5326
 2591SOL     OW19231   1.112   3.013   7.319 -0.0344 -0.3411 -0.3387
 2591SOL    HW119232   1.188   2.982   7.269  0.4630 -0.6956  0.6229
 2591SOL    HW219233   1.129   3.106   7.327 -2.1694 -0.0283  0.5424
 2592SOL     OW19234   3.404   1.824  12.809  0.4765  0.0269 -0.1437
 2592SOL    HW119235   3.330   1.790  12.758 -0.1512  1.8712 -0.4608
 2592SOL    HW219236   3.454   1.871  12.741 -0.0161  1.1925  0.2942
 2593SOL     OW19237   0.352   2.181   0.386 -0.2342  0.2791 -0.1923
 2593SOL    HW119238   0.428   2.203   0.440 -0.1670  1.7393 -0.8845
 2593SOL    HW219239   0.294   2.134   0.446 -1.1727  0.1877 -1.1751
 2594SOL     OW19240   4.228   2.243   0.079 -0.4895  0.1994  0.0422
 2594SOL    HW119241   4.242   2.152   0.051 -0.9910 -0.2077  1.1243
 2594SOL    HW219242   4.189   2.237   0.166 -1.6610  0.2726 -0.4784
 2595SOL     OW19243   2.905   0.361  12.632 -0.0291 -0.0342 -0.0737
 2595SOL    HW119244   2.908   0.348  12.537  2.0546 -0.5408  0.0667
 2595SOL    HW219245   2.924   0.271  12.659 -0.7239  0.0978  0.8338
 2596SOL     OW19246   4.423   2.134   7.131  0.3756 -0.0466  0.6662
 2596SOL    HW119247   4.491   2.189   7.091  0.5612  0.0700  1.1352
 2596SOL    HW219248   4.360   2.137   7.059 -1.3045  1.7123  2.2164
 2597SOL     OW19249   3.431   1.122   0.801 -0.6064  0.9550 -0.1203
 2597SOL    HW119250   3.385   1.053   0.849  0.5746  0.3808  0.1744
 2597SOL    HW219251   3.510   1.138   0.852 -0.1311 -1.4488 -0.0948
 2598SOL     OW19252   2.680   2.997   3.799  0.2004  0.0211 -0.2072
 2598SOL    HW119253   2.648   3.081   3.830  0.7366 -1.1492  3.5270
 2598SOL    HW219254   2.710   2.946   3.874  1.3171  0.1821 -0.5501
 2599SOL     OW19255   1.874   4.252  10.903 -0.2317  0.1151  0.0867
 2599SOL    HW119256   1.901   4.340  10.876  1.0254 -0.4092 -0.3647
 2599SOL    HW219257   1.875   4.262  10.998  1.8759 -1.7014  0.2358
 2600SOL     OW19258   3.367   3.665   7.978  0.5627 -0.7021 -0.4439
 2600SOL    HW119259   3.357   3.739   7.919 -0.3560 -1.1767 -0.8820
 2600SOL    HW219260   3.283   3.668   8.023  1.1695  1.7986  0.5378
 2601SOL     OW19261   4.525   4.283   6.930 -0.0774 -0.0161  0.1912
 2601SOL    HW119262   4.497   4.291   6.839  0.1746  0.4277  0.1542
 2601SOL    HW219263   4.512   4.371   6.965  0.2283 -1.2318  3.4324
 2602SOL     OW19264   1.500   1.603   9.869  0.0136 -0.2629  0.0782
 2602SOL    HW119265   1.585   1.629   9.834  0.1522 -1.0199 -0.1444
 2602SOL    HW219266   1.510   1.635   9.958 -1.2387 -1.3123  0.6003
 2603SOL     OW19267   2.493   1.501   6.736  0.1097 -0.0014  0.2056
 2603SOL    HW119268   2.587   1.506   6.720  0.7003 -1.9045  3.1068
 2603SOL    HW219269   2.457   1.572   6.684  2.2225 -0.2358 -1.5901
 2604SOL     OW19270   4.197   0.451   7.718 -0.1394  0.2077 -0.0785
 2604SOL    HW119271   4.201   0.359   7.741 -1.8454  0.2204  0.2058
 2604SOL    HW219272   4.108   0.479   7.739  0.0769 -0.9717  2.3919
 2605SOL     OW19273   1.567   3.148   4.487  0.1016 -0.1903 -0.2662
 2605SOL    HW119274   1.533   3.197   4.412 -1.3789  1.9211  1.8002
 2605SOL    HW219275   1.602   3.075   4.436  1.1073  0.5398 -0.6270
 2606SOL     OW19276   2.869   3.326   9.490  0.1687 -0.0030 -0.1808
 2606SOL    HW119277   2.897   3.389   9.556  1.4614 -0.3140 -0.4223
 2606SOL    HW219278   2.799   3.286   9.541 -2.0461  0.5839 -2.7369
 2607SOL     OW19279   1.379   4.268   8.714  0.2601  0.0207  0.1627
 2607SOL    HW119280   1.472   4.246   8.702 -0.0305 -1.1024 -0.1310
 2607SOL    HW219281   1.366   4.236   8.803  1.5131  0.5402  0.5269
 2608SOL     OW19282   2.096   1.914   7.855  0.4896  0.2817 -0.2225
 2608SOL    HW119283   2.136   1.830   7.876  0.5836 -0.0612 -1.7815
 2608SOL    HW219284   2.178   1.962   7.841 -0.4938  1.7757 -0.8470
 2609SOL     OW19285   3.426   2.934   6.791 -0.1814 -0.5114  0.6100
 2609SOL    HW119286   3.494   2.936   6.859 -0.4801  1.6519  0.8560
 2609SOL    HW219287   3.487   2.950   6.718  0.2774 -4.0336  0.2353
 2610SOL     OW19288   2.596   2.135   1.285 -0.0696 -0.2440  0.7279
 2610SOL    HW119289   2.566   2.225   1.296  0.7841 -0.2821  3.6106
 2610SOL    HW219290   2.511   2.097   1.306 -0.5571  0.0281 -0.7898
 2611SOL     OW19291   2.308   4.040   6.196  0.1377 -0.3748  0.7183
 2611SOL    HW119292   2.398   4.008   6.200  0.0852 -0.5046  0.8845
 2611SOL    HW219293   2.318   4.109   6.131 -1.7153  0.5020  1.3555
 2612SOL     OW19294   0.668   2.493  14.956  0.3512  0.2619  0.4598
 2612SOL    HW119295   0.694   2.446  15.036 -0.5208 -1.2691 -0.1439
 2612SOL    HW219296   0.748   2.482  14.904 -0.4735  0.3078 -0.8135
 2613SOL     OW19297   1.942   0.781   9.715  0.3778 -0.0742 -0.8289
 2613SOL    HW119298   1.859   0.809   9.678  0.5340 -1.2133 -2.0355
 2613SOL    HW219299   1.907   0.692   9.723  3.1740 -1.1083  0.0003
 2614SOL     OW19300   3.304   1.588   2.736 -0.4106  0.3393 -0.1935
 2614SOL    HW119301   3.378   1.611   2.679  0.7921 -1.1085  0.7576
 2614SOL    HW219302   3.333   1.599   2.827  2.4415 -1.8005 -0.8192
 2615SOL     OW19303   2.758   0.818  10.439 -0.2306  0.1179  0.6616
 2615SOL    HW119304   2.693   0.749  10.452 -0.4158 -0.2577 -2.2943
 2615SOL    HW219305   2.704   0.889  10.475 -0.9192  1.2524 -2.5651
 2616SOL     OW19306   3.150   3.474  11.671  0.2786 -0.1004 -0.8142
 2616SOL    HW119307   3.056   3.487  11.664  0.3309  0.9353  0.4884
 2616SOL    HW219308   3.178   3.549  11.619  0.8373  0.6288  0.5396
 2617SOL     OW19309   1.585   2.506   5.485  0.0307  0.3221  0.5982
 2617SOL    HW119310   1.625   2.554   5.558 -0.3486  0.7489  0.5212
 2617SOL    HW219311   1.558   2.430   5.537 -0.6450  0.7326  0.8512
 2618SOL     OW19312   2.470   3.502  14.428 -0.9160  0.2086 -0.1201
 2618SOL    HW119313   2.544   3.443  14.435 -0.2574  0.7844 -2.1454
 2618SOL    HW219314   2.504   3.582  14.389  1.0733 -0.7005 -0.2485
 2619SOL     OW19315   3.508   3.574   5.975  0.2089  0.1119 -0.5732
 2619SOL    HW119316   3.432   3.622   6.007 -1.5487 -3.2040  0.1976
 2619SOL    HW219317   3.500   3.494   6.027  0.7942 -0.7492 -1.7995
 2620SOL     OW19318   1.442   1.680   5.565 -0.1450  0.2303 -0.2506
 2620SOL    HW119319   1.499   1.625   5.511 -0.0486  1.4383 -1.3847
 2620SOL    HW219320   1.378   1.686   5.494 -0.0546  1.2894 -0.2467
 2621SOL     OW19321   1.223   0.263   2.834 -0.1884 -0.5137 -0.1591
 2621SOL    HW119322   1.262   0.193   2.886  1.6308  0.5530 -0.0840
 2621SOL    HW219323   1.284   0.256   2.761 -0.5509 -1.3550 -0.3810
 2622SOL     OW19324   3.481   3.822   6.268  0.5486 -0.2592  0.0150
 2622SOL    HW119325   3.557   3.766   6.253  0.7189 -0.2578  0.8433
 2622SOL    HW219326   3.442   3.806   6.182 -0.6280  0.0725  0.4831
 2623SOL     OW19327   3.398   3.929  10.457  0.0205  0.1352  0.3586
 2623SOL    HW119328   3.398   4.007  10.402  1.2957 -0.7408 -0.8978
 2623SOL    HW219329   3.459   3.964  10.522  0.7750 -0.2943 -0.1121
 2624SOL     OW19330   4.092   0.125  12.463  0.7118  0.6408 -0.2306
 2624SOL    HW119331   4.037   0.060  12.506 -1.1850  1.2592 -1.7193
 2624SOL    HW219332   4.075   0.206  12.512 -1.2387 -0.7706  1.4293
 2625SOL     OW19333   3.922   2.613   4.507  0.1826  0.3348 -0.7347
 2625SOL    HW119334   3.952   2.569   4.428 -1.3326 -2.9291  0.5178
 2625SOL    HW219335   4.006   2.633   4.549  0.4201  1.5476 -1.7946
 2626SOL     OW19336   0.538   0.211   2.798  0.0897 -0.1136 -0.8476
 2626SOL    HW119337   0.593   0.226   2.721  1.2379 -0.0266 -0.0229
 2626SOL    HW219338   0.604   0.197   2.866  0.5585 -0.6137 -1.4042
 2627SOL     OW19339   4.544   1.830   4.140  0.7731  0.5011  0.1411
 2627SOL    HW119340   4.607   1.760   4.122  1.4717  0.7383  1.6974
 2627SOL    HW219341   4.559   1.898   4.074  1.4031 -1.1939 -1.4522
 2628SOL     OW19342   3.779   4.257  14.058  0.2167 -0.2040  0.0719
 2628SOL    HW119343   3.820   4.227  13.977 -0.1862 -0.2661 -0.1072
 2628SOL    HW219344   3.750   4.172  14.089 -1.1640 -0.2508 -1.3278
 2629SOL     OW19345   2.519   1.392   0.963 -0.3895 -0.6493  0.9265
 2629SOL    HW119346   2.441   1.419   1.013 -0.9853  0.3551 -0.5464
 2629SOL    HW219347   2.569   1.355   1.035  0.5050 -0.6174  0.3151
 2630SOL     OW19348   2.609   4.235   4.562  0.1141  0.0622  0.4844
 2630SOL    HW119349   2.646   4.254   4.648 -0.3417  0.3835  0.6062
 2630SOL    HW219350   2.687   4.229   4.506  0.9555 -0.6265  1.7345
 2631SOL     OW19351   4.365   1.520   0.088 -0.1427 -0.1049 -0.8944
 2631SOL    HW119352   4.440   1.492   0.140 -0.4578  0.4716 -0.1270
 2631SOL    HW219353   4.357   1.614   0.106  0.1313 -0.3390  0.4561
 2632SOL     OW19354   2.512   2.689  15.521  0.3590  0.1737  0.1268
 2632SOL    HW119355   2.551   2.765  15.478  0.5206 -0.0802 -0.1732
 2632SOL    HW219356   2.417   2.703  15.520 -0.0022 -2.2687  0.1735
 2633SOL     OW19357   0.887   3.011  13.411  0.3690  0.0357  0.1091
 2633SOL    HW119358   0.851   2.976  13.492  0.7521 -3.5185 -1.2537
 2633SOL    HW219359   0.811   3.059  13.378  1.5179  2.1573  0.5048
 2634SOL     OW19360   3.702   0.337  10.394  0.2070  0.5404  0.1389
 2634SOL    HW119361   3.675   0.247  10.375  0.2901  0.9656 -1.9253
 2634SOL    HW219362   3.736   0.337  10.484 -0.7031 -1.2748  0.4949
 2635SOL     OW19363   2.906   0.609   4.439  0.1372  0.2412  0.2437
 2635SOL    HW119364   2.881   0.528   4.394 -0.6594  1.7700 -2.0894
 2635SOL    HW219365   2.990   0.578   4.474  0.2580  0.2669 -0.0186
 2636SOL     OW19366   0.006   0.816   9.386  0.2301 -0.2942 -0.0287
 2636SOL    HW119367   4.633   0.830   9.375 -0.2055 -1.3761  2.3156
 2636SOL    HW219368   0.045   0.860   9.311 -0.8721  0.4892 -0.1459
 2637SOL     OW19369   4.068   4.257   7.096  0.3952 -0.2397 -0.1883
 2637SOL    HW119370   4.133   4.201   7.054  0.8613 -1.1601  1.7738
 2637SOL    HW219371   3.997   4.193   7.102  0.4271 -0.1241  1.3972
 2638SOL     OW19372   1.755   4.627   5.786  0.2703 -0.3150  0.1855
 2638SOL    HW119373   1.811   4.650   5.713  1.0668 -0.6752  0.6767
 2638SOL    HW219374   1.777   4.536   5.810  1.3830  0.4918  2.2571
 2639SOL     OW19375   3.399   1.222   7.595 -0.0475 -1.2308  0.4747
 2639SOL    HW119376   3.490   1.234   7.622  0.6666 -3.3485 -0.9434
 2639SOL    HW219377   3.400   1.154   7.527  1.8257  0.6538 -1.3992
 2640SOL     OW19378   2.725   3.299  14.142  0.0863 -0.3901 -0.0694
 2640SOL    HW119379   2.780   3.315  14.218  3.2761 -1.1871 -2.2285
 2640SOL    HW219380   2.784   3.261  14.078 -2.0601  0.4335 -2.5583
 2641SOL     OW19381   0.020   3.278   5.428 -0.3071 -0.6954 -0.0720
 2641SOL    HW119382   0.107   3.241   5.444  0.1962  1.5831  2.4541
 2641SOL    HW219383   4.700   3.198   5.394 -0.2455 -0.1664 -1.3902
 2642SOL     OW19384   1.033   2.360   7.919  0.0600 -0.1398  0.2092
 2642SOL    HW119385   1.108   2.301   7.912  0.0060 -0.4053  2.0448
 2642SOL    HW219386   0.976   2.333   7.847  0.5977  0.4158 -0.4437
 2643SOL     OW19387   0.095   3.999   4.621  0.2035  0.4736  0.0565
 2643SOL    HW119388   0.127   4.018   4.533 -0.3043  0.8491 -0.0474
 2643SOL    HW219389   0.001   3.993   4.608  0.3920 -1.6201 -0.2548
 2644SOL     OW19390   1.384   4.074   8.500 -0.4433 -0.5737  0.3408
 2644SOL    HW119391   1.359   3.997   8.551 -0.7137 -1.5246 -1.2184
 2644SOL    HW219392   1.386   4.144   8.565  0.9762 -0.1526 -0.1651
 2645SOL     OW19393   0.142   0.979   8.341 -0.1749 -0.0434 -0.0683
 2645SOL    HW119394   0.182   0.941   8.263 -0.1258 -1.7520  0.8063
 2645SOL    HW219395   0.100   1.056   8.303 -0.7547 -1.1502 -1.6553
 2646SOL     OW19396   3.684   0.873  12.454 -0.8537  0.6702  0.4486
 2646SOL    HW119397   3.603   0.919  12.429  0.8601  3.2994 -0.1782
 2646SOL    HW219398   3.648   0.784  12.445  1.0546  0.1454 -2.1064
 2647SOL     OW19399   4.290   1.893   4.803 -0.1789 -0.6920  0.4026
 2647SOL    HW119400   4.345   1.910   4.726  3.0899 -1.6251  2.5768
 2647SOL    HW219401   4.206   1.932   4.778  0.2954 -0.0209 -0.1412
 2648SOL     OW19402   3.965   2.082   7.026  0.2667 -0.5394  0.3324
 2648SOL    HW119403   3.928   2.010   7.077 -0.5296 -1.8528 -2.1265
 2648SOL    HW219404   3.897   2.094   6.960  1.3366 -0.4919 -0.7737
 2649SOL     OW19405   1.116   0.045   8.034  0.2711 -0.1489  0.2658
 2649SOL    HW119406   1.188   4.719   8.077  1.0003  1.5623  0.9286
 2649SOL    HW219407   1.129   0.044   7.939  1.4095  0.6794  0.4173
 2650SOL     OW19408   3.165   3.526   7.384  0.1687  0.0047  0.8545
 2650SOL    HW119409   3.122   3.449   7.346 -0.4274  0.3022  0.9145
 2650SOL    HW219410   3.160   3.497   7.475 -0.3769  0.8346  1.0934
 2651SOL     OW19411   1.245   4.126   2.200 -0.6352  0.2836 -0.1827
 2651SOL    HW119412   1.310   4.075   2.152 -0.7051  0.4011 -0.4036
 2651SOL    HW219413   1.302   4.141   2.276 -0.1979  1.2404 -0.7034
 2652SOL     OW19414   0.460   1.923   6.847 -0.0319 -0.2091  0.1027
 2652SOL    HW119415   0.404   1.989   6.889  1.5546  1.1281  0.0911
 2652SOL    HW219416   0.507   1.895   6.926 -1.6765 -1.7000  0.5742
 2653SOL     OW19417   3.981   2.327  16.206  0.5717  0.0117  0.4241
 2653SOL    HW119418   4.021   2.270  16.271 -0.5748  0.7355  1.7424
 2653SOL    HW219419   3.991   2.289  16.118  0.0867  1.5613 -0.2855
 2654SOL     OW19420   3.309   4.252   0.411 -0.4395 -0.5125  0.1348
 2654SOL    HW119421   3.224   4.263   0.369 -0.6346  2.8471  1.3479
 2654SOL    HW219422   3.277   4.209   0.490  0.1958  0.3258  0.8560
 2655SOL     OW19423   0.824   0.357   4.014  0.1773 -0.9798 -0.2519
 2655SOL    HW119424   0.814   0.451   3.999  1.2655 -0.4663  2.2234
 2655SOL    HW219425   0.731   0.335   4.020 -0.4898  1.9653  0.5134
 2656SOL     OW19426   4.409   1.654   6.992 -0.2968 -1.0393 -0.9511
 2656SOL    HW119427   4.501   1.648   6.966 -0.5243 -0.4964 -1.8485
 2656SOL    HW219428   4.404   1.745   6.964 -1.0303 -0.2708  1.7152
 2657SOL     OW19429   3.636   0.210   4.273  0.0036  0.1107  0.6773
 2657SOL    HW119430   3.676   0.165   4.347  0.2892 -0.7696 -0.0093
 2657SOL    HW219431   3.693   0.191   4.199  1.4754 -1.3576  2.2083
 2658SOL     OW19432   3.156   2.775   4.577 -0.1529 -0.3026 -0.4010
 2658SOL    HW119433   3.094   2.847   4.586  0.8455  0.5904 -0.7210
 2658SOL    HW219434   3.235   2.829   4.564 -0.9025  0.5725 -1.2975
 2659SOL     OW19435   1.572   1.164  15.601 -0.2141 -0.1861  0.6907
 2659SOL    HW119436   1.621   1.146  15.521  0.1869  1.3424  0.5925
 2659SOL    HW219437   1.624   1.117  15.666 -0.6448  0.7629  1.7277
 2660SOL     OW19438   1.165   0.437   3.058  0.2433  0.7723  0.5049
 2660SOL    HW119439   1.176   0.391   2.975 -1.7420  0.6139  0.3185
 2660SOL    HW219440   1.148   0.527   3.030  1.5225  1.1460  0.9229
 2661SOL     OW19441   1.008   4.215   7.738  0.5144 -1.3187 -0.0966
 2661SOL    HW119442   0.989   4.183   7.826 -0.2704  1.0642  0.5976
 2661SOL    HW219443   0.986   4.139   7.684  1.0995 -0.4122 -1.5927
 2662SOL     OW19444   0.617   1.483   1.648  0.3454  0.1804 -0.2369
 2662SOL    HW119445   0.589   1.567   1.685  1.5148  0.2063  0.5859
 2662SOL    HW219446   0.600   1.497   1.555 -0.3002 -3.3707 -0.6534
 2663SOL     OW19447   3.102   2.906   7.941 -0.0480  0.0611 -0.0237
 2663SOL    HW119448   3.042   2.833   7.925 -0.1811  0.4835 -1.4980
 2663SOL    HW219449   3.054   2.954   8.009 -1.3030 -0.0326 -0.8425
 2664SOL     OW19450   4.689   1.991  12.306  0.1341 -0.2411 -0.6630
 2664SOL    HW119451   0.055   2.027  12.294 -0.3713  0.2960 -2.5460
 2664SOL    HW219452   4.708   1.924  12.373  0.0048  2.5916  2.2189
 2665SOL     OW19453   1.676   3.254   5.238 -0.3867 -0.5623 -0.0608
 2665SOL    HW119454   1.614   3.194   5.196 -1.4128 -0.3340  1.1110
 2665SOL    HW219455   1.617   3.327   5.255  0.7652  0.7168 -1.5241
 2666SOL     OW19456   0.251   2.190   5.218 -0.2497 -0.3526 -0.0411
 2666SOL    HW119457   0.346   2.188   5.213 -0.3513 -3.5509 -1.1600
 2666SOL    HW219458   0.233   2.197   5.124  1.2377  0.6106 -0.2497
 2667SOL     OW19459   2.505   0.199   0.027  0.6811 -0.2258  0.2113
 2667SOL    HW119460   2.524   0.162   0.113  0.2654 -0.4309  0.2095
 2667SOL    HW219461   2.597   0.219   0.007 -0.4365  2.1974 -2.6294
 2668SOL     OW19462   0.416   2.507  10.653  0.2676  0.1804 -0.2896
 2668SOL    HW119463   0.408   2.434  10.715 -0.6159  1.6865  1.3409
 2668SOL    HW219464   0.512   2.503  10.643  0.2388 -2.3916  0.4982
 2669SOL     OW19465   0.025   2.680   8.857  0.4638  0.1873 -0.4181
 2669SOL    HW119466   0.008   2.768   8.891 -1.8472 -0.2576 -0.3721
 2669SOL    HW219467   0.120   2.681   8.854  0.4911 -2.0478  0.0320
 2670SOL     OW19468   0.134   4.482   8.568 -0.2128  0.8224 -0.3256
 2670SOL    HW119469   0.056   4.447   8.525 -0.5215  0.4529  0.5296
 2670SOL    HW219470   0.094   4.519   8.647  1.0101  0.0409  0.6567
 2671SOL     OW19471   3.840   1.253   7.477  0.3731  0.0275  0.1627
 2671SOL    HW119472   3.786   1.197   7.532 -1.6211  2.8708  1.0438
 2671SOL    HW219473   3.828   1.206   7.395  0.7655  1.5193 -0.7331
 2672SOL     OW19474   0.409   2.033   5.739  0.6634 -0.4986  0.0922
 2672SOL    HW119475   0.443   2.042   5.828  1.4340  0.6729 -0.3322
 2672SOL    HW219476   0.358   2.112   5.722  2.1324  0.4618  0.1540
 2673SOL     OW19477   3.620   2.881   4.914  0.1500  0.1383 -0.5881
 2673SOL    HW119478   3.702   2.923   4.940 -0.1065  0.8049 -0.8485
 2673SOL    HW219479   3.631   2.866   4.820 -0.1959  0.7607 -0.7321
 2674SOL     OW19480   2.514   3.900   6.506  0.0758 -0.3138 -0.1087
 2674SOL    HW119481   2.493   3.815   6.465  2.5786  0.0431 -2.1251
 2674SOL    HW219482   2.432   3.917   6.553  1.4876 -0.6667  2.4825
 2675SOL     OW19483   1.402   3.434   9.370 -0.3861  0.2241  0.2973
 2675SOL    HW119484   1.370   3.463   9.455 -1.0942 -0.3738  0.2412
 2675SOL    HW219485   1.360   3.503   9.318  0.8766 -0.2767 -1.3799
 2676SOL     OW19486   4.658   4.316   2.363 -0.3705 -0.7058 -0.9218
 2676SOL    HW119487   4.605   4.295   2.440  1.6370 -1.7424  0.1667
 2676SOL    HW219488   4.676   4.225   2.341  1.3905 -0.7891  0.8849
 2677SOL     OW19489   3.115   4.486   5.862  0.1858  0.2789  0.0993
 2677SOL    HW119490   3.090   4.407   5.911 -0.0977 -0.9952 -2.1104
 2677SOL    HW219491   3.091   4.470   5.771 -1.9986 -0.0712  0.7314
 2678SOL     OW19492   1.203   3.506   5.425  0.0455 -0.1654 -0.1019
 2678SOL    HW119493   1.261   3.452   5.478 -1.8230 -2.3582 -0.3139
 2678SOL    HW219494   1.197   3.587   5.475  1.3738 -0.6928  0.8881
 2679SOL     OW19495   0.092   4.131  15.722  0.1328  0.1680 -0.0393
 2679SOL    HW119496   0.093   4.202  15.786 -1.2457 -1.7401  2.1389
 2679SOL    HW219497   0.135   4.060  15.770 -2.1544 -0.8866  0.4686
 2680SOL     OW19498   4.135   3.258   5.746 -0.3684  0.1557  0.1620
 2680SOL    HW119499   4.179   3.261   5.662 -0.7466  1.3802  0.0111
 2680SOL    HW219500   4.046   3.250   5.712 -0.9512  3.1122  1.0143
 2681SOL     OW19501   2.134   3.924   7.396  1.0023  0.1790  0.3367
 2681SOL    HW119502   2.065   3.912   7.461  1.0850  0.3803  0.4612
 2681SOL    HW219503   2.155   4.017   7.397  0.8601  0.2229 -1.1569
 2682SOL     OW19504   2.742   1.836   4.023 -0.0187  0.3770  0.0470
 2682SOL    HW119505   2.821   1.812   4.072  0.9582 -0.2337 -1.8149
 2682SOL    HW219506   2.722   1.913   4.076  1.5537  2.0814 -1.8691
 2683SOL     OW19507   2.174   1.458   3.373 -0.5363 -0.0622 -0.1007
 2683SOL    HW119508   2.200   1.501   3.454 -0.2387 -0.7140  0.1517
 2683SOL    HW219509   2.126   1.382   3.405  0.1188 -0.1299  0.7044
 2684SOL     OW19510   3.628   1.790   8.044 -0.6450 -0.3374  0.1422
 2684SOL    HW119511   3.613   1.704   8.082 -1.2841 -1.0271 -1.6799
 2684SOL    HW219512   3.547   1.837   8.065 -0.6954  0.3382 -1.5766
 2685SOL     OW19513   3.670   2.085  15.333 -0.2068  0.0709  0.4102
 2685SOL    HW119514   3.698   2.118  15.248 -1.7060  1.0367  0.2924
 2685SOL    HW219515   3.577   2.074  15.315  0.0641  1.5518 -1.9170
 2686SOL     OW19516   0.748   1.504   1.896 -0.0675  0.6754  0.7716
 2686SOL    HW119517   0.792   1.546   1.822 -0.6646  0.2095  0.1422
 2686SOL    HW219518   0.713   1.419   1.867  1.2762  0.6495 -0.7823
 2687SOL     OW19519   2.942   3.894   6.317  0.1507 -0.0060 -0.1285
 2687SOL    HW119520   2.937   3.835   6.393 -0.3485  1.2742  0.8343
 2687SOL    HW219521   3.032   3.924   6.323  0.5967 -1.5105  0.9677
 2688SOL     OW19522   1.566   1.230   3.376 -0.8012  0.2944  0.0483
 2688SOL    HW119523   1.620   1.155   3.401  2.7082  2.3013 -1.5595
 2688SOL    HW219524   1.635   1.295   3.364 -1.8649  1.8693  2.4832
 2689SOL     OW19525   0.366   1.902   6.333  0.5335 -0.0041  0.7273
 2689SOL    HW119526   0.373   1.888   6.428  0.2042 -0.7919  0.6369
 2689SOL    HW219527   0.280   1.941   6.323  0.7131 -0.1764 -1.5108
 2690SOL     OW19528   4.396   3.669  13.353 -0.3527 -0.1538  0.3687
 2690SOL    HW119529   4.465   3.667  13.419 -1.1202 -0.5009  1.1553
 2690SOL    HW219530   4.392   3.576  13.333 -1.2405 -0.3285  1.3470
 2691SOL     OW19531   3.308   0.939   3.839  0.1635  0.1492 -0.1247
 2691SOL    HW119532   3.302   0.898   3.753 -0.2689  0.3879 -0.2081
 2691SOL    HW219533   3.280   0.860   3.886 -1.7278 -0.0280 -1.5703
 2692SOL     OW19534   1.216   0.910   6.761 -0.4714  0.1648 -0.2813
 2692SOL    HW119535   1.236   0.817   6.772 -1.3167  0.1386  1.0192
 2692SOL    HW219536   1.121   0.911   6.772 -0.6465 -0.2099 -1.8016
 2693SOL     OW19537   2.498   2.963   8.088 -0.3639  0.2302 -0.5125
 2693SOL    HW119538   2.441   3.008   8.026 -1.6555  0.0622  0.5478
 2693SOL    HW219539   2.526   2.891   8.031  0.6905 -1.6889  2.4033
 2694SOL     OW19540   4.517   0.931   7.221 -0.1094  0.8606 -0.2193
 2694SOL    HW119541   4.543   1.023   7.218  0.9330  0.4945 -2.1848
 2694SOL    HW219542   4.429   0.933   7.259  0.3127  1.1227  0.7525
 2695SOL     OW19543   3.284   3.593  10.900 -0.3594 -0.5184  0.5781
 2695SOL    HW119544   3.293   3.498  10.898  0.5884 -0.3853 -1.4418
 2695SOL    HW219545   3.334   3.606  10.980  1.1149  2.0020 -0.7484
 2696SOL     OW19546   4.510   2.087   8.322  0.3645 -0.0825 -0.6863
 2696SOL    HW119547   4.488   1.994   8.309  4.6853 -0.9093 -1.9820
 2696SOL    HW219548   4.519   2.096   8.417  0.4439 -1.9351 -0.5019
 2697SOL     OW19549   4.594   4.225  15.589  0.9937 -0.5193  0.1240
 2697SOL    HW119550   4.673   4.213  15.640  0.8443  1.6412  0.8992
 2697SOL    HW219551   4.615   4.177  15.509  1.4563 -0.3089  0.1164
 2698SOL     OW19552   1.164   1.022   5.818 -0.1180  0.6835 -0.1104
 2698SOL    HW119553   1.186   0.948   5.876  0.7123  0.3856 -0.8026
 2698SOL    HW219554   1.082   1.051   5.857  2.4006  3.9449  2.7674
 2699SOL     OW19555   2.376   0.941   6.543 -0.0123 -0.3866  0.3407
 2699SOL    HW119556   2.454   0.976   6.585 -1.5951 -0.0643  2.9816
 2699SOL    HW219557   2.416   0.879   6.481 -1.4465 -1.4482  0.4857
 2700SOL     OW19558   0.966   3.997   9.035  0.4407  0.0007 -0.2129
 2700SOL    HW119559   0.925   3.939   9.100 -1.1552  0.0489 -1.1703
 2700SOL    HW219560   0.929   4.083   9.055  3.7061  1.2466  0.3861
 2701SOL     OW19561   0.229   1.818   0.458  0.5216 -0.6283  0.3637
 2701SOL    HW119562   0.218   1.772   0.541 -2.9047  2.3947  1.6007
 2701SOL    HW219563   0.197   1.903   0.488  0.6959  0.6825 -3.2198
 2702SOL     OW19564   1.694   2.616   8.480  0.4563 -0.2851  0.4931
 2702SOL    HW119565   1.777   2.624   8.432 -1.0905  1.5179 -1.8996
 2702SOL    HW219566   1.717   2.640   8.570  1.7718  0.0985  0.0607
 2703SOL     OW19567   1.956   3.305  10.125  0.4668  0.1102  0.6891
 2703SOL    HW119568   1.989   3.245  10.192 -1.3833 -2.3701 -0.6103
 2703SOL    HW219569   1.962   3.389  10.170  0.2749  0.5567 -0.1216
 2704SOL     OW19570   2.745   2.192   0.019  0.2390  0.2498  0.2948
 2704SOL    HW119571   2.731   2.271   0.070 -0.3865 -0.7572  1.6907
 2704SOL    HW219572   2.677   2.198  17.638 -0.7056 -1.5490  1.1004
 2705SOL     OW19573   2.200   0.795   8.709 -0.2503  0.6515  0.0925
 2705SOL    HW119574   2.169   0.815   8.797  1.1307  0.8878  0.5200
 2705SOL    HW219575   2.291   0.826   8.711  0.4592 -1.4943  0.8037
 2706SOL     OW19576   2.001   4.237  11.175 -0.1351 -0.2405 -0.4082
 2706SOL    HW119577   2.023   4.305  11.239  0.4271 -0.5947 -0.2204
 2706SOL    HW219578   2.003   4.159  11.230  1.2656 -1.4153 -2.1313
 2707SOL     OW19579   1.328   2.572   5.412 -0.1706  0.0192  0.3414
 2707SOL    HW119580   1.332   2.607   5.501 -0.7869  0.2454  0.2753
 2707SOL    HW219581   1.416   2.533   5.421  0.3983  0.7108 -2.1133
 2708SOL     OW19582   3.891   3.120  13.438  0.1195  0.1671 -0.6078
 2708SOL    HW119583   3.859   3.094  13.524 -2.3910  0.2298 -1.5334
 2708SOL    HW219584   3.918   3.042  13.388  1.2179 -0.0912  0.3953
 2709SOL     OW19585   3.137   3.178   4.321 -0.0568  0.6217  0.1387
 2709SOL    HW119586   3.076   3.249   4.302  1.9800  1.7989 -1.9213
 2709SOL    HW219587   3.068   3.112   4.325  1.0815 -0.5681  0.0983
 2710SOL     OW19588   3.899   4.544   5.196  0.5708  0.4461  0.5671
 2710SOL    HW119589   3.966   4.488   5.237  0.7531  0.8154  0.7740
 2710SOL    HW219590   3.819   4.514   5.238 -0.3450  0.5830 -1.1042
 2711SOL     OW19591   3.681   2.078   5.763 -0.3729 -0.0360 -0.1949
 2711SOL    HW119592   3.625   2.051   5.836 -0.3083 -0.2349 -0.2175
 2711SOL    HW219593   3.620   2.095   5.690 -0.8551 -1.3299 -0.1032
 2712SOL     OW19594   3.766   3.607   9.981 -0.2289  0.3795 -0.0502
 2712SOL    HW119595   3.703   3.629   9.912 -1.3390 -1.4680  0.3655
 2712SOL    HW219596   3.840   3.649   9.938  1.8378 -3.2415 -0.0585
 2713SOL     OW19597   0.425   0.882   5.716 -0.2461 -0.0191  0.5829
 2713SOL    HW119598   0.425   0.796   5.758 -0.0412 -0.9082 -1.1931
 2713SOL    HW219599   0.372   0.936   5.774  0.7308  1.6487 -0.0885
 2714SOL     OW19600   0.291   2.268   7.256  0.0132 -0.6013  0.2087
 2714SOL    HW119601   0.238   2.331   7.206  1.1893  1.0754  1.0701
 2714SOL    HW219602   0.281   2.182   7.215  1.0347 -1.1002  1.0060
 2715SOL     OW19603   0.458   2.976   3.555 -0.2044  0.1023  0.5053
 2715SOL    HW119604   0.501   3.034   3.492  1.6092 -2.7096 -0.8604
 2715SOL    HW219605   0.434   2.898   3.504  1.0088 -0.2117  0.4201
 2716SOL     OW19606   1.513   0.242   1.076 -0.4594 -0.4197  0.7171
 2716SOL    HW119607   1.554   0.329   1.083  1.9444 -1.5779  1.0703
 2716SOL    HW219608   1.423   0.263   1.052 -0.2251  0.6580  0.7608
 2717SOL     OW19609   3.898   1.998   2.626  0.2335 -0.1434  0.2178
 2717SOL    HW119610   3.880   2.083   2.586  1.7492 -0.6133 -1.4474
 2717SOL    HW219611   3.944   1.962   2.550  0.4499  0.4366  0.0781
 2718SOL     OW19612   1.772   2.046   9.318 -0.2341 -0.4458  0.2316
 2718SOL    HW119613   1.729   1.972   9.359 -1.1628  0.3334  0.6708
 2718SOL    HW219614   1.805   2.003   9.239  1.3448  0.9629  0.1297
 2719SOL     OW19615   0.584   0.637   5.921 -0.0085  0.0539 -0.1346
 2719SOL    HW119616   0.498   0.616   5.884 -0.3677 -0.9125  1.2283
 2719SOL    HW219617   0.580   0.591   6.005  0.0166  1.4157  0.6037
 2720SOL     OW19618   0.541   0.630   8.319  0.0127 -0.3469 -0.3384
 2720SOL    HW119619   0.474   0.639   8.251  1.0597  4.5232 -0.7443
 2720SOL    HW219620   0.514   0.697   8.382  1.1417  1.3659 -1.6416
 2721SOL     OW19621   0.147   1.745   6.705  0.3140 -0.3070  0.3100
 2721SOL    HW119622   0.157   1.708   6.617  1.7896  1.5958 -0.3127
 2721SOL    HW219623   0.162   1.838   6.694  0.8247 -0.3566  0.5816
 2722SOL     OW19624   1.663   3.197  12.456 -1.1251 -0.3194  0.0063
 2722SOL    HW119625   1.695   3.209  12.546  2.8687 -0.3798 -1.4354
 2722SOL    HW219626   1.654   3.102  12.451  1.3898 -0.6159  1.3931
 2723SOL     OW19627   1.425   3.584   5.904 -0.3853 -0.0054 -0.9503
 2723SOL    HW119628   1.371   3.507   5.925  0.1805  0.3182  1.7389
 2723SOL    HW219629   1.506   3.536   5.889 -0.3660  0.1625 -1.3830
 2724SOL     OW19630   3.988   2.420   6.134 -0.3472  0.1616 -0.1215
 2724SOL    HW119631   3.916   2.459   6.185 -0.4220  0.5729 -0.5349
 2724SOL    HW219632   4.026   2.364   6.201  0.1135  1.6546  0.8746
 2725SOL     OW19633   1.565   2.711   1.693 -0.2649 -0.4388  0.1568
 2725SOL    HW119634   1.549   2.799   1.727 -0.8696  0.3144 -2.0480
 2725SOL    HW219635   1.610   2.725   1.610 -0.6860  1.0552  0.1803
 2726SOL     OW19636   1.670   0.408  12.619 -0.3111 -0.1479  0.0464
 2726SOL    HW119637   1.656   0.315  12.599 -0.2195 -0.3622  0.9898
 2726SOL    HW219638   1.694   0.399  12.711 -2.4950  2.0929  0.8040
 2727SOL     OW19639   0.025   2.471  14.735 -0.2573  0.2894  0.0756
 2727SOL    HW119640   4.675   2.453  14.797  0.9665  0.5310  1.5120
 2727SOL    HW219641   0.066   2.386  14.749 -0.7807  0.0050 -0.1139
 2728SOL     OW19642   2.590   1.311   5.703 -0.0821 -0.3399 -0.5715
 2728SOL    HW119643   2.507   1.311   5.750 -0.8025 -0.5947 -1.8533
 2728SOL    HW219644   2.572   1.271   5.618 -3.7862  0.3338 -0.1130
 2729SOL     OW19645   0.863   1.050   5.870  0.3649 -0.3673 -0.2727
 2729SOL    HW119646   0.770   1.070   5.864  0.7621  1.1511 -1.4036
 2729SOL    HW219647   0.853   0.958   5.843  0.3495 -0.2830 -0.5573
 2730SOL     OW19648   1.962   2.746   3.440 -0.1813 -0.2657 -0.1892
 2730SOL    HW119649   1.918   2.805   3.501  2.4425 -1.1057  2.5235
 2730SOL    HW219650   1.967   2.666   3.492 -2.0583 -0.3331 -0.1238
 2731SOL     OW19651   2.635   4.212   9.033  0.4045  0.5674  0.6360
 2731SOL    HW119652   2.562   4.208   9.095  0.0171  1.8402  0.2534
 2731SOL    HW219653   2.677   4.131   9.064  0.0640 -0.5634 -1.8097
 2732SOL     OW19654   0.954   3.999   8.286 -0.1703 -0.6186  0.4580
 2732SOL    HW119655   1.024   3.943   8.321  1.3271  1.4982  0.8678
 2732SOL    HW219656   0.938   4.053   8.363 -0.5207 -0.4145  0.2404
 2733SOL     OW19657   4.221   3.648   5.346 -0.8660 -0.2499  0.3315
 2733SOL    HW119658   4.310   3.661   5.378 -0.9603 -2.2486  1.4013
 2733SOL    HW219659   4.232   3.591   5.270  0.4098  0.2557  0.1391
 2734SOL     OW19660   0.390   0.639   8.101 -1.0270  0.3077  0.8612
 2734SOL    HW119661   0.300   0.605   8.103 -0.1580 -2.0322  0.3084
 2734SOL    HW219662   0.420   0.589   8.025 -0.4636  3.0406 -0.7285
 2735SOL     OW19663   0.596   3.647  13.105 -0.1423  0.7224 -0.1174
 2735SOL    HW119664   0.504   3.622  13.119  0.2746 -0.2311  0.9019
 2735SOL    HW219665   0.596   3.742  13.104  3.8871  0.7233 -0.5660
 2736SOL     OW19666   2.380   1.892  16.510  0.2428  0.1838 -0.3584
 2736SOL    HW119667   2.340   1.806  16.519  0.8304  0.1802  2.2049
 2736SOL    HW219668   2.469   1.866  16.533 -0.1857 -0.8554  0.1077
 2737SOL     OW19669   3.798   1.047   3.347  0.4522 -0.1705  0.3275
 2737SOL    HW119670   3.743   0.973   3.372  2.3513 -1.6565  0.0915
 2737SOL    HW219671   3.760   1.066   3.262 -0.0855  1.6552  0.9588
 2738SOL     OW19672   3.135   3.378  13.904  0.2454 -0.2276  0.4444
 2738SOL    HW119673   3.194   3.311  13.869 -1.2920 -0.8853 -0.8945
 2738SOL    HW219674   3.105   3.424  13.825  1.7415  0.5711  0.3358
 2739SOL     OW19675   3.252   4.133  12.858 -0.4338 -0.0966 -0.5452
 2739SOL    HW119676   3.245   4.198  12.788 -0.2128  0.7445  0.2308
 2739SOL    HW219677   3.347   4.142  12.870 -0.2429 -2.5642 -0.1305
 2740SOL     OW19678   1.302   3.282  14.335 -0.1862 -1.2529  0.2922
 2740SOL    HW119679   1.270   3.192  14.328 -0.8867 -0.8804 -1.3764
 2740SOL    HW219680   1.392   3.264  14.362 -1.7164 -2.9729  4.2120
 2741SOL     OW19681   0.200   3.315   8.542  0.4522 -0.2458 -0.1163
 2741SOL    HW119682   0.282   3.364   8.541  1.1064 -1.4125 -1.7561
 2741SOL    HW219683   0.143   3.375   8.493  1.4129  1.5545  0.9557
 2742SOL     OW19684   1.098   4.019  15.841 -0.1942  0.2199 -0.1438
 2742SOL    HW119685   1.154   3.949  15.872  1.5424  0.4670 -2.7003
 2742SOL    HW219686   1.014   3.975  15.833  0.1021 -0.5152  0.8750
 2743SOL     OW19687   1.632   4.095  15.381 -0.3940 -0.1394 -0.0605
 2743SOL    HW119688   1.629   4.001  15.364  2.1677 -0.2440  0.1140
 2743SOL    HW219689   1.553   4.129  15.340  0.7994  0.8524 -1.5268
 2744SOL     OW19690   0.798   1.347   7.915 -0.3021 -0.1893 -0.2276
 2744SOL    HW119691   0.865   1.412   7.934 -1.9816  1.3084  0.6116
 2744SOL    HW219692   0.852   1.281   7.873  2.1223  1.5909  0.0729
 2745SOL     OW19693   1.460   3.711   6.476 -0.3173  0.1302 -0.5442
 2745SOL    HW119694   1.396   3.667   6.531  1.1592  0.8071  1.7315
 2745SOL    HW219695   1.485   3.781   6.537 -3.2407 -0.2558  1.0793
 2746SOL     OW19696   1.228   0.818   1.937  0.3982  0.4491  0.4196
 2746SOL    HW119697   1.274   0.869   2.004  1.3203 -1.0243  0.8919
 2746SOL    HW219698   1.226   0.877   1.861 -0.2217 -1.0294 -0.6986
 2747SOL     OW19699   0.371   2.492   9.075 -0.0685 -0.0019  0.1352
 2747SOL    HW119700   0.427   2.496   9.152  0.8893  0.7927 -0.5977
 2747SOL    HW219701   0.293   2.534   9.111 -0.4237  1.7181 -2.6497
 2748SOL     OW19702   2.036   4.614   0.008 -0.1461  0.1329 -0.2304
 2748SOL    HW119703   1.948   4.626  17.657 -0.2319  1.1462  0.3155
 2748SOL    HW219704   2.073   4.697  17.664 -0.7231  0.3674 -0.3025
 2749SOL     OW19705   0.657   0.839  15.202 -0.0546 -0.4242 -0.4100
 2749SOL    HW119706   0.611   0.872  15.279  0.6561 -3.0425  1.1104
 2749SOL    HW219707   0.722   0.909  15.195  0.2483 -0.7463 -0.7859
 2750SOL     OW19708   0.237   3.801   4.336 -0.2756  0.0023 -0.1480
 2750SOL    HW119709   0.141   3.804   4.329 -0.1370  2.3147 -1.2041
 2750SOL    HW219710   0.271   3.890   4.347  0.2053 -0.2499  0.3817
 2751SOL     OW19711   0.979   2.730   8.458  0.3487  0.3823  0.2940
 2751SOL    HW119712   1.032   2.759   8.532 -0.4838 -3.0572  2.2259
 2751SOL    HW219713   0.898   2.747   8.506 -0.6244  1.3511 -1.6614
 2752SOL     OW19714   3.682   4.713   5.465  0.2119 -0.3420 -0.5019
 2752SOL    HW119715   3.621   4.643   5.442 -0.8861 -0.5105  2.9775
 2752SOL    HW219716   3.755   4.655   5.485  0.2653  0.4889  1.6686
 2753SOL     OW19717   0.105   2.534   9.178  0.3016  0.0721  0.2327
 2753SOL    HW119718   0.085   2.494   9.263 -2.2914 -1.0225 -0.9017
 2753SOL    HW219719   0.086   2.466   9.114  0.4082  0.8734 -0.6516
 2754SOL     OW19720   2.594   0.663  16.714 -0.1420  0.4195  0.2781
 2754SOL    HW119721   2.579   0.747  16.757 -0.0132  0.7274 -0.2861
 2754SOL    HW219722   2.648   0.689  16.640  0.6475  0.6771  0.9522
 2755SOL     OW19723   1.892   0.705   8.921 -0.2958  0.6482  0.1603
 2755SOL    HW119724   1.880   0.616   8.889  1.2439  0.6693 -0.4593
 2755SOL    HW219725   1.842   0.698   9.003 -1.9786  0.7795 -0.8602
 2756SOL     OW19726   0.454   3.477   0.636 -0.1936  0.0345  0.3131
 2756SOL    HW119727   0.500   3.492   0.719 -0.6186 -0.3932  0.6302
 2756SOL    HW219728   0.366   3.488   0.671 -0.0475  0.6985  0.4798
 2757SOL     OW19729   2.643   1.963   5.037  0.1427  0.6200  0.1948
 2757SOL    HW119730   2.665   1.870   5.041 -1.0224  0.2487 -1.8037
 2757SOL    HW219731   2.674   1.992   5.122  0.7350  1.7048 -0.4022
 2758SOL     OW19732   0.464   3.187   7.665  0.2823 -0.2355  0.1597
 2758SOL    HW119733   0.537   3.229   7.620  0.2024  0.1894  0.4320
 2758SOL    HW219734   0.432   3.251   7.729  1.9009  2.0343 -1.3122
 2759SOL     OW19735   3.578   4.689   4.802 -0.7269  0.1491  0.1564
 2759SOL    HW119736   3.622   4.620   4.851 -0.8318  1.7835  2.5371
 2759SOL    HW219737   3.605   0.052   4.840  3.9312 -0.5648 -1.5820
 2760SOL     OW19738   2.723   2.903  12.035 -0.3029 -0.3503  0.2509
 2760SOL    HW119739   2.634   2.877  12.056 -0.1592  0.3857  1.7666
 2760SOL    HW219740   2.777   2.829  12.061 -0.1798  0.2357  1.6825
 2761SOL     OW19741   3.984   2.999   8.012  0.8108  0.3930 -0.4276
 2761SOL    HW119742   3.973   3.092   7.994  2.2498  0.1129 -2.7289
 2761SOL    HW219743   4.074   2.971   7.993  0.8138 -1.0175  1.5225
 2762SOL     OW19744   2.143   2.157  14.243 -0.0071 -0.6660  0.2269
 2762SOL    HW119745   2.136   2.146  14.338 -1.1887 -1.5513  0.0444
 2762SOL    HW219746   2.236   2.177  14.234 -0.0340 -1.8548 -2.6776
 2763SOL     OW19747   2.259   2.215   8.780 -0.1736 -0.2379 -0.0503
 2763SOL    HW119748   2.276   2.238   8.871 -0.5586  0.6325 -0.2019
 2763SOL    HW219749   2.208   2.291   8.753  1.3995  0.4267 -1.1471
 2764SOL     OW19750   1.939   0.773   3.476 -0.3745 -0.0264 -0.1714
 2764SOL    HW119751   2.013   0.737   3.428 -1.3645 -1.2071 -0.8216
 2764SOL    HW219752   1.961   0.866   3.471  1.2576 -0.4055  0.0655
 2765SOL     OW19753   0.813   2.331   7.745 -0.0656 -0.1405  0.3916
 2765SOL    HW119754   0.733   2.321   7.694  1.6986 -3.6444 -1.7083
 2765SOL    HW219755   0.861   2.251   7.721  0.6412  0.7052 -1.0151
 2766SOL     OW19756   4.085   0.668   3.290 -0.0743 -0.5071 -0.4686
 2766SOL    HW119757   4.029   0.617   3.231 -1.6171 -1.0148  1.4134
 2766SOL    HW219758   4.134   0.727   3.233  0.5283 -0.7539 -0.2086
 2767SOL     OW19759   2.915   1.399  13.163 -0.4801 -0.1621 -0.0661
 2767SOL    HW119760   2.979   1.469  13.171  0.2843 -0.8694  0.0368
 2767SOL    HW219761   2.873   1.430  13.084  0.0373 -0.9215 -0.6427
 2768SOL     OW19762   4.367   1.945   9.333  0.2851 -0.3602  0.1426
 2768SOL    HW119763   4.334   1.882   9.269 -1.0810  0.2390  0.2575
 2768SOL    HW219764   4.283   1.982   9.358  1.3005  1.4882  0.8412
 2769SOL     OW19765   3.905   0.643  10.348  1.0375  0.4913  0.2797
 2769SOL    HW119766   3.955   0.709  10.396  1.4476  0.0378  0.4776
 2769SOL    HW219767   3.819   0.680  10.330 -0.2364 -1.2647  2.8689
 2770SOL     OW19768   4.312   0.832   0.894 -0.4025 -0.0226  0.0194
 2770SOL    HW119769   4.229   0.790   0.874 -0.1162 -0.2797 -0.6262
 2770SOL    HW219770   4.283   0.893   0.961 -3.5866 -1.4121 -0.0992
 2771SOL     OW19771   0.941   1.745  13.199 -0.3247  0.1949 -0.6610
 2771SOL    HW119772   0.962   1.686  13.127 -0.0932  2.2216 -2.2569
 2771SOL    HW219773   0.879   1.694  13.251 -2.4420  0.6664 -2.6799
 2772SOL     OW19774   3.356   0.210  11.985 -0.4653 -0.3762 -0.7413
 2772SOL    HW119775   3.420   0.164  11.930 -3.0843 -2.5514 -2.0194
 2772SOL    HW219776   3.280   0.154  11.966  1.1319 -2.1899 -1.7326
 2773SOL     OW19777   2.606   3.258   3.842 -0.0881  0.4351  0.5301
 2773SOL    HW119778   2.642   3.271   3.754  1.4139 -1.8446  0.8097
 2773SOL    HW219779   2.597   3.346   3.879  0.0326  0.4065  0.6293
 2774SOL     OW19780   0.397   3.464   6.753 -0.2762  0.0433  0.0095
 2774SOL    HW119781   0.438   3.377   6.755  0.9721  0.6533  1.2841
 2774SOL    HW219782   0.403   3.486   6.660 -0.1222 -1.5172 -0.3422
 2775SOL     OW19783   4.182   1.807  13.518 -0.6259 -0.2100  0.4512
 2775SOL    HW119784   4.210   1.824  13.428 -0.4315 -0.8170  0.3986
 2775SOL    HW219785   4.267   1.783  13.555 -0.9204  1.1381  1.9981
 2776SOL     OW19786   4.094   2.123  15.628 -0.1548 -0.1304 -0.7652
 2776SOL    HW119787   4.098   2.154  15.537  1.3672  0.3571 -0.5208
 2776SOL    HW219788   4.016   2.168  15.662 -0.3823 -0.7348 -0.4880
 2777SOL     OW19789   1.369   2.652   3.759  0.3770 -0.0379 -0.2098
 2777SOL    HW119790   1.423   2.706   3.817  0.9874  0.9936 -1.7181
 2777SOL    HW219791   1.344   2.703   3.681  0.3406  1.1154  0.5493
 2778SOL     OW19792   3.470   2.379   3.736 -0.2779  0.4094 -0.1205
 2778SOL    HW119793   3.475   2.324   3.658  0.9414 -0.5855  0.6590
 2778SOL    HW219794   3.378   2.406   3.740  0.0957  1.6071  0.3203
 2779SOL     OW19795   3.974   4.687   9.078 -0.2067 -0.0639  0.3358
 2779SOL    HW119796   4.035   4.692   9.152  0.8663  1.0577 -0.6165
 2779SOL    HW219797   3.959   4.592   9.083  1.9644 -0.3948  0.7763
 2780SOL     OW19798   3.067   1.288   5.247 -0.1243 -0.3643 -0.0049
 2780SOL    HW119799   3.019   1.206   5.243  0.6734 -0.8726  0.9663
 2780SOL    HW219800   3.024   1.330   5.173 -0.7009 -0.1502  0.4529
 2781SOL     OW19801   0.526   3.765   6.223  0.2340 -0.0617  0.0264
 2781SOL    HW119802   0.573   3.820   6.160  0.8462  0.3460  0.8375
 2781SOL    HW219803   0.605   3.735   6.267 -0.3622 -1.4304  0.1804
 2782SOL     OW19804   0.600   1.932   3.435 -0.6867 -0.1819 -0.2090
 2782SOL    HW119805   0.541   2.003   3.408 -0.6859 -0.1948 -0.2450
 2782SOL    HW219806   0.677   1.988   3.445 -0.1044 -1.1865  1.0030
 2783SOL     OW19807   4.636   2.688   3.386  0.1507 -0.0325 -0.2940
 2783SOL    HW119808   4.637   2.649   3.299  1.2383 -2.2201  0.6990
 2783SOL    HW219809   4.543   2.674   3.401 -0.1112  1.5388 -0.4476
 2784SOL     OW19810   2.183   2.760  17.276  0.2825 -0.4264 -0.2101
 2784SOL    HW119811   2.264   2.811  17.284  0.5071 -0.6940 -0.7662
 2784SOL    HW219812   2.143   2.791  17.357 -3.1779 -0.0178 -2.0737
 2785SOL     OW19813   0.290   0.931  13.010 -0.9325  0.4707 -0.3200
 2785SOL    HW119814   0.365   0.991  13.012 -1.8828  1.7039 -1.9938
 2785SOL    HW219815   0.311   0.889  12.926  0.1938  1.1213 -0.3756
 2786SOL     OW19816   3.905   3.957   4.216 -0.0554  0.1833  0.0740
 2786SOL    HW119817   3.856   3.925   4.292 -0.1917  1.2380  0.4292
 2786SOL    HW219818   3.845   3.924   4.149  0.3231 -1.6297  0.6249
 2787SOL     OW19819   1.437   4.123   7.470  0.4938 -0.4084 -0.1641
 2787SOL    HW119820   1.374   4.065   7.513 -1.5450  0.4439 -1.9873
 2787SOL    HW219821   1.398   4.134   7.383 -1.3256  1.3287  0.8669
 2788SOL     OW19822   0.836   1.946   6.396 -0.2135 -0.1242  0.7210
 2788SOL    HW119823   0.763   1.991   6.352  1.9357  2.2907 -0.3971
 2788SOL    HW219824   0.872   2.014   6.454 -0.1727  1.6486 -1.3599
 2789SOL     OW19825   1.146   1.305   3.045  0.0877  0.0741  0.1119
 2789SOL    HW119826   1.052   1.320   3.046  0.1846  0.6807 -0.1867
 2789SOL    HW219827   1.146   1.242   2.973 -0.3576  1.0289 -0.7233
 2790SOL     OW19828   1.322   3.859   8.638  0.3358  0.7607  0.1330
 2790SOL    HW119829   1.250   3.881   8.697  1.3392 -0.6422  1.8482
 2790SOL    HW219830   1.376   3.803   8.692 -0.1496  0.1614 -0.0001
 2791SOL     OW19831   2.689   0.698  10.208 -0.0343 -0.4717 -0.1933
 2791SOL    HW119832   2.754   0.630  10.195  0.0031 -0.9293  2.3378
 2791SOL    HW219833   2.731   0.758  10.270 -0.7554 -1.1217  0.9280
 2792SOL     OW19834   3.441   2.789   5.544  0.0189  0.0245 -0.1899
 2792SOL    HW119835   3.416   2.875   5.510 -1.8346 -1.3248 -2.2550
 2792SOL    HW219836   3.531   2.816   5.562 -0.8116  2.7745 -0.1357
 2793SOL     OW19837   1.183   4.280   4.214 -0.2516 -0.0985  0.5704
 2793SOL    HW119838   1.140   4.351   4.166  0.1972  0.0925  0.4457
 2793SOL    HW219839   1.142   4.202   4.177 -0.4188  0.3498 -0.1901
 2794SOL     OW19840   1.717   3.593   5.048 -0.0809 -0.2584 -0.0223
 2794SOL    HW119841   1.688   3.626   5.133  1.6618  1.0434  0.0924
 2794SOL    HW219842   1.635   3.611   5.002 -1.0105 -1.5469  1.1482
 2795SOL     OW19843   2.434   0.591   4.617  0.3153  0.1939  0.2076
 2795SOL    HW119844   2.416   0.563   4.527 -1.6193  1.3088  0.2509
 2795SOL    HW219845   2.500   0.659   4.605 -0.6825  1.2726  0.9442
 2796SOL     OW19846   3.563   2.013   6.774 -0.7513  1.1903  0.7064
 2796SOL    HW119847   3.557   1.956   6.698  1.1132  0.9340  0.7415
 2796SOL    HW219848   3.506   1.961   6.831 -1.9201  2.2740  0.5425
 2797SOL     OW19849   2.539   1.168  16.268 -0.3901  0.1930  0.2248
 2797SOL    HW119850   2.517   1.229  16.198  2.1896  0.5632 -0.2724
 2797SOL    HW219851   2.571   1.096  16.213 -0.3892  0.3076  0.0746
 2798SOL     OW19852   4.178   1.810   7.981 -0.1643 -0.5834 -0.4553
 2798SOL    HW119853   4.234   1.888   7.972  1.4041 -1.5160  1.1568
 2798SOL    HW219854   4.213   1.759   7.908  0.7234  0.0806 -0.4969
 2799SOL     OW19855   4.503   4.716  13.498 -0.0996 -0.0232 -0.1374
 2799SOL    HW119856   4.563   4.647  13.528  1.3114  1.7182  1.1015
 2799SOL    HW219857   4.417   4.678  13.515  0.4774 -0.2023  2.4470
 2800SOL     OW19858   1.555   2.569   3.209  0.3872  0.1064 -0.7758
 2800SOL    HW119859   1.592   2.654   3.234 -1.1084  1.0440 -1.8022
 2800SOL    HW219860   1.606   2.548   3.131 -1.0437 -1.2948 -1.3325
 2801SOL     OW19861   3.171   2.851   9.246  0.0855  0.3641  0.0096
 2801SOL    HW119862   3.130   2.845   9.159  3.5431 -2.9045 -1.3758
 2801SOL    HW219863   3.140   2.933   9.285  1.3227  0.7248  0.2199
 2802SOL     OW19864   3.240   3.619  17.015 -0.4399  1.0413  0.0307
 2802SOL    HW119865   3.309   3.683  17.034 -0.4287  0.9218  0.3941
 2802SOL    HW219866   3.201   3.629  17.101 -0.8175  1.0941 -0.1484
 2803SOL     OW19867   2.660   1.591   5.670  0.3588  0.2606 -0.1338
 2803SOL    HW119868   2.637   1.578   5.762 -1.6589 -0.6838 -0.7844
 2803SOL    HW219869   2.733   1.531   5.653  2.2527  2.7463 -0.8880
 2804SOL     OW19870   1.313   2.403   7.312  0.6984 -0.0528 -0.0316
 2804SOL    HW119871   1.284   2.387   7.402  0.5825  0.8236  0.0859
 2804SOL    HW219872   1.391   2.455   7.335  1.6819 -0.7880 -1.7817
 2805SOL     OW19873   2.329   0.081  13.821  0.3965 -0.1906 -0.0485
 2805SOL    HW119874   2.381   0.160  13.807 -0.7586  0.4533 -0.7498
 2805SOL    HW219875   2.390   0.009  13.808  0.7614 -0.1518  1.4759
 2806SOL     OW19876   0.208   1.309   0.716  0.5366 -0.0026 -0.0360
 2806SOL    HW119877   0.152   1.320   0.639 -0.8757  1.6043  1.2179
 2806SOL    HW219878   0.250   1.223   0.709 -0.9217 -0.8240  1.2118
 2807SOL     OW19879   4.482   0.358  17.308  0.0596 -0.0841 -0.0355
 2807SOL    HW119880   4.487   0.453  17.318 -4.4052  0.1034  0.3036
 2807SOL    HW219881   4.575   0.332  17.311 -0.5746 -2.4539 -0.8262
 2808SOL     OW19882   2.829   0.946   8.700 -0.2840  0.0188  0.2098
 2808SOL    HW119883   2.793   0.879   8.758 -0.8546  1.4108  1.4472
 2808SOL    HW219884   2.818   1.028   8.748  2.6690  0.1412  0.6579
 2809SOL     OW19885   2.399   4.192   1.820  0.0062 -0.2626  0.0203
 2809SOL    HW119886   2.390   4.245   1.740  0.9817  0.6251  0.4858
 2809SOL    HW219887   2.494   4.179   1.830  0.2011  0.9487 -0.2384
 2810SOL     OW19888   4.291   3.299   7.244 -0.2679  0.4007 -0.0413
 2810SOL    HW119889   4.259   3.324   7.157  1.7931 -1.7248 -1.4268
 2810SOL    HW219890   4.386   3.302   7.227  0.0997  1.7710  2.2652
 2811SOL     OW19891   3.718   0.475   6.337 -0.2145 -0.2190 -0.6660
 2811SOL    HW119892   3.714   0.380   6.351 -0.5057 -0.3004 -1.3050
 2811SOL    HW219893   3.756   0.503   6.420 -0.0728 -0.6333 -0.5905
 2812SOL     OW19894   2.201   3.885   0.122  0.0026  0.0453 -0.0649
 2812SOL    HW119895   2.200   3.857   0.214 -0.7771  2.6277  0.7242
 2812SOL    HW219896   2.293   3.901   0.101  0.5429 -0.8645  1.5970
 2813SOL     OW19897   2.462   3.082  10.381 -0.2354 -0.3464 -0.1682
 2813SOL    HW119898   2.427   3.045  10.300  2.4879  0.3974 -1.6718
 2813SOL    HW219899   2.414   3.027  10.442  1.9015  1.6746  3.3479
 2814SOL     OW19900   2.755   2.802   6.983 -0.0899 -0.6183 -0.7524
 2814SOL    HW119901   2.740   2.771   6.894  0.4185  0.3925 -1.1903
 2814SOL    HW219902   2.720   2.890   6.972 -0.1040 -0.3894  1.0455
 2815SOL     OW19903   2.409   4.275  16.341  0.8176 -0.0103  0.0659
 2815SOL    HW119904   2.432   4.196  16.390  0.5997  0.1051  0.3579
 2815SOL    HW219905   2.499   4.307  16.345 -0.2619  3.2720 -2.7543
 2816SOL     OW19906   0.681   2.579   2.523  0.0268  0.5921 -0.1344
 2816SOL    HW119907   0.684   2.545   2.613  1.0835 -2.5236 -1.3637
 2816SOL    HW219908   0.761   2.539   2.490 -0.0685 -1.1080  1.6744
 2817SOL     OW19909   2.328   4.452   9.146  0.3568  0.3624 -0.1842
 2817SOL    HW119910   2.340   4.546   9.131 -1.2678  0.6710  0.5249
 2817SOL    HW219911   2.417   4.421   9.163 -0.8857 -1.1384  3.5010
 2818SOL     OW19912   1.496   0.198   5.298  0.4606  0.0052  0.1613
 2818SOL    HW119913   1.562   0.252   5.341 -0.3062 -0.2830  1.7090
 2818SOL    HW219914   1.543   0.178   5.217 -2.4255 -1.2913 -1.1911
 2819SOL     OW19915   4.035   2.248   1.268  0.1467 -0.1346 -0.4154
 2819SOL    HW119916   3.991   2.200   1.198 -1.5495 -0.0255  0.6033
 2819SOL    HW219917   4.119   2.203   1.257  1.4596  1.9589  0.9448
 2820SOL     OW19918   2.318   4.608   1.181 -0.9494  0.8683 -0.1857
 2820SOL    HW119919   2.296   4.701   1.177 -0.0377  1.0954  0.0533
 2820SOL    HW219920   2.294   4.584   1.270 -0.7613 -0.3561 -0.4654
 2821SOL     OW19921   2.312   1.100  11.196  0.2258  0.0344  0.2299
 2821SOL    HW119922   2.275   1.182  11.228 -0.0737  0.4332 -1.1551
 2821SOL    HW219923   2.235   1.043  11.188  0.6521 -0.7360  1.5716
 2822SOL     OW19924   3.361   0.797   4.684  0.1024  0.0817 -0.4884
 2822SOL    HW119925   3.300   0.857   4.725  0.3805 -0.1318  0.2326
 2822SOL    HW219926   3.441   0.847   4.693 -0.3987  0.5364  1.3757
 2823SOL     OW19927   2.676   0.492   5.189 -0.0197  0.3899  0.0696
 2823SOL    HW119928   2.767   0.460   5.191  0.4942  1.8820  0.3903
 2823SOL    HW219929   2.641   0.439   5.261 -0.8042 -1.1872 -1.4750
 2824SOL     OW19930   0.253   3.027   5.860 -0.5699  0.5921  0.4097
 2824SOL    HW119931   0.169   2.985   5.840  0.3106 -2.2271  2.6517
 2824SOL    HW219932   0.312   2.980   5.801 -2.6511 -0.8788 -0.5084
 2825SOL     OW19933   2.906   2.343   7.770 -0.3853  0.2549 -0.4352
 2825SOL    HW119934   2.819   2.382   7.767 -0.1580  0.8367  0.6137
 2825SOL    HW219935   2.926   2.366   7.680 -0.5424  1.4216 -0.1643
 2826SOL     OW19936   2.443   1.253   6.388  0.5092  0.1676  0.3281
 2826SOL    HW119937   2.454   1.253   6.483 -0.8154  2.7198  0.4951
 2826SOL    HW219938   2.478   1.164   6.377  2.9933  1.0799  0.7686
 2827SOL     OW19939   2.034   4.175   7.620  0.3651  0.1130 -0.1956
 2827SOL    HW119940   2.014   4.083   7.638  0.8860 -0.2849 -1.6287
 2827SOL    HW219941   2.126   4.181   7.647  0.7877 -0.1036 -1.5628
 2828SOL     OW19942   3.415   0.941  16.883 -0.6522  0.1612 -0.4867
 2828SOL    HW119943   3.331   0.900  16.903 -0.0640 -1.1187 -0.6456
 2828SOL    HW219944   3.384   1.030  16.869  0.9271  0.4316 -2.1926
 2829SOL     OW19945   0.664   4.179   7.823  0.1340  0.1484 -0.0023
 2829SOL    HW119946   0.625   4.139   7.745  0.2082 -0.1596  0.1166
 2829SOL    HW219947   0.656   4.109   7.888 -2.0974 -0.5202 -1.0056
 2830SOL     OW19948   0.842   0.012  10.366 -0.1149 -0.5702 -0.3087
 2830SOL    HW119949   0.914   0.035  10.423 -0.5969 -1.8447  0.7969
 2830SOL    HW219950   0.867   4.646  10.335 -1.0137 -0.9065 -0.1095
 2831SOL     OW19951   4.133   0.202   8.200  0.7671  0.0256  0.1797
 2831SOL    HW119952   4.063   0.179   8.138  0.4032  1.8017 -0.0612
 2831SOL    HW219953   4.122   0.141   8.273  0.4750 -1.0324 -0.7404
 2832SOL     OW19954   4.008   2.911   5.642  0.0664 -0.2401  0.3632
 2832SOL    HW119955   4.036   2.926   5.733  0.9324  1.8986 -0.2714
 2832SOL    HW219956   4.003   2.816   5.656  0.4897 -0.3315 -0.0990
 2833SOL     OW19957   4.123   4.023   5.409 -0.1142  0.4043  0.0956
 2833SOL    HW119958   4.130   3.962   5.482 -2.6404 -1.9008 -1.5893
 2833SOL    HW219959   4.174   4.100   5.434  0.0438 -0.1258  1.3928
 2834SOL     OW19960   0.122   3.715   9.285 -0.5210  0.5279  0.0579
 2834SOL    HW119961   0.214   3.693   9.273 -0.1889  2.1073 -0.3609
 2834SOL    HW219962   0.116   3.770   9.363 -1.0065 -0.0217  0.4095
 2835SOL     OW19963   3.951   1.585  10.373  0.0478  0.0415  0.1489
 2835SOL    HW119964   3.959   1.537  10.291 -2.2236 -0.9622  0.5019
 2835SOL    HW219965   3.871   1.548  10.411  0.7838 -2.8827 -1.1433
 2836SOL     OW19966   1.752   4.582   6.926 -0.3957 -0.7002  0.7854
 2836SOL    HW119967   1.692   4.580   7.000  2.7332  0.3624  3.3191
 2836SOL    HW219968   1.780   4.491   6.932 -1.7384 -1.1622  0.2520
 2837SOL     OW19969   2.567   1.587  16.038  0.5398  0.0644 -0.1571
 2837SOL    HW119970   2.660   1.606  16.046  0.4792  0.0307  0.6396
 2837SOL    HW219971   2.526   1.672  16.054 -1.1290 -0.3249 -2.3252
 2838SOL     OW19972   2.386   3.633  15.692 -0.4335 -0.2481  0.2709
 2838SOL    HW119973   2.407   3.663  15.781 -0.2546  0.9668 -0.1846
 2838SOL    HW219974   2.471   3.643  15.651 -0.1616  0.7115  1.0697
 2839SOL     OW19975   0.435   0.451   6.873 -0.8444  0.6920 -0.5937
 2839SOL    HW119976   0.423   0.379   6.935  0.9326 -1.2748 -2.5633
 2839SOL    HW219977   0.495   0.513   6.912  0.1920 -0.8233  0.2065
 2840SOL     OW19978   2.327   3.899   2.502  0.7878  0.0186 -0.3948
 2840SOL    HW119979   2.291   3.861   2.422 -1.8695  0.9873  0.3688
 2840SOL    HW219980   2.313   3.837   2.573  0.7705 -0.2614 -0.6443
 2841SOL     OW19981   2.094   1.685   7.224 -0.2153  0.0164  0.7481
 2841SOL    HW119982   2.000   1.683   7.242 -0.6666 -0.6463 -1.7541
 2841SOL    HW219983   2.103   1.619   7.156 -0.1984  1.9219 -1.0864
 2842SOL     OW19984   3.937   1.900  13.300  0.2585 -0.1543 -0.5502
 2842SOL    HW119985   3.922   1.961  13.373  0.5437 -2.0203  1.0811
 2842SOL    HW219986   4.029   1.923  13.283 -0.0075  0.5002 -1.0921
 2843SOL     OW19987   0.374   0.366   4.788  0.1808  0.3033  0.0340
 2843SOL    HW119988   0.416   0.347   4.704 -0.5556  0.6447 -0.4069
 2843SOL    HW219989   0.360   0.460   4.794 -0.2466  0.2323  0.1045
 2844SOL     OW19990   1.430   0.919   9.553  0.5618 -0.1434  0.0496
 2844SOL    HW119991   1.428   0.827   9.578  0.2331 -0.0167  0.4874
 2844SOL    HW219992   1.335   0.932   9.553  0.8951  2.2415  1.4478
 2845SOL     OW19993   1.034   2.991  14.798  0.5019  0.7286 -0.5514
 2845SOL    HW119994   1.063   2.916  14.745 -0.7324 -1.5598  2.0220
 2845SOL    HW219995   0.954   2.955  14.836  0.7012 -0.2777 -1.0763
 2846SOL     OW19996   1.007   4.617  13.536  0.0380  0.5484  0.0444
 2846SOL    HW119997   0.964   4.680  13.593  2.4492  2.6198 -0.4737
 2846SOL    HW219998   1.078   4.662  13.490  0.4781  0.0338  0.2169
 2847SOL     OW19999   3.592   2.848   7.601  0.3637 -0.3007 -0.4011
 2847SOL    HW120000   3.639   2.925   7.633 -1.6165  0.5890  0.3070
 2847SOL    HW220001   3.516   2.890   7.561 -0.7381 -1.6577  0.2742
 2848SOL     OW20002   3.314   1.622   7.915  0.1068 -0.0076  0.1152
 2848SOL    HW120003   3.296   1.709   7.950 -0.8340 -0.1503 -0.0047
 2848SOL    HW220004   3.280   1.630   7.826  1.2757  1.0338 -0.2381
 2849SOL     OW20005   2.098   3.251   0.514  0.7727  0.0307 -0.0375
 2849SOL    HW120006   2.125   3.284   0.429 -3.0192 -0.8772 -1.5992
 2849SOL    HW220007   2.082   3.331   0.564 -0.3194 -0.0915 -0.1867
 2850SOL     OW20008   3.489   3.730  12.218  0.4649  0.0055  0.5618
 2850SOL    HW120009   3.482   3.752  12.311 -0.5751  2.4414 -0.0989
 2850SOL    HW220010   3.404   3.761  12.186  0.7469  0.1760 -0.0324
 2851SOL     OW20011   1.772   3.787   1.573  0.2531 -0.3898  0.0444
 2851SOL    HW120012   1.761   3.848   1.645 -1.7263 -2.2004  1.2715
 2851SOL    HW220013   1.687   3.746   1.559  2.2806 -3.2699 -3.9461
 2852SOL     OW20014   0.266   3.036   5.107 -0.1344 -0.0962 -0.1452
 2852SOL    HW120015   0.233   3.091   5.036  0.2132  0.6711  0.2804
 2852SOL    HW220016   0.196   2.970   5.105 -0.5928  0.3962 -0.3875
 2853SOL     OW20017   1.174   2.581   6.892  0.3883  0.0453 -0.2390
 2853SOL    HW120018   1.194   2.664   6.935 -2.5002 -0.2464  1.6855
 2853SOL    HW220019   1.235   2.518   6.931  0.5329  2.7587  3.9129
 2854SOL     OW20020   2.840   3.640   7.117  0.1459 -0.0269 -0.7530
 2854SOL    HW120021   2.910   3.694   7.080 -0.3251 -0.5787 -2.4359
 2854SOL    HW220022   2.842   3.576   7.045 -0.2470 -0.5444 -0.3034
 2855SOL     OW20023   0.392   3.218   1.230 -0.0207  0.2726 -0.0410
 2855SOL    HW120024   0.365   3.252   1.316 -1.8314 -1.0934 -0.0771
 2855SOL    HW220025   0.425   3.294   1.183 -0.0976 -0.0344 -0.5845
 2856SOL     OW20026   2.524   3.480   7.818 -0.2706 -0.3086  0.3580
 2856SOL    HW120027   2.573   3.514   7.892 -0.2805 -0.5506  0.4777
 2856SOL    HW220028   2.588   3.427   7.769 -0.9634 -0.4064 -0.4572
 2857SOL     OW20029   1.901   1.054   8.905  0.4701  0.5295  0.1255
 2857SOL    HW120030   1.885   1.067   8.811  1.0884  1.3749  0.1334
 2857SOL    HW220031   1.828   1.104   8.940  0.6419  1.0910 -0.3022
 2858SOL     OW20032   0.893   3.471   0.813  0.7717  0.6440  0.0124
 2858SOL    HW120033   0.812   3.470   0.762  1.4902  2.9815 -1.1831
 2858SOL    HW220034   0.954   3.422   0.758 -0.1845  0.8276 -1.2037
 2859SOL     OW20035   3.159   4.352  16.312 -0.5607 -0.1790 -0.4736
 2859SOL    HW120036   3.126   4.418  16.372 -0.5454 -0.1266 -0.5228
 2859SOL    HW220037   3.193   4.413  16.247 -0.8511  0.6342  0.1443
 2860SOL     OW20038   4.317   3.002   3.830  0.2654  0.0113  0.1918
 2860SOL    HW120039   4.404   2.987   3.868  0.8849 -0.7370 -1.5072
 2860SOL    HW220040   4.304   2.924   3.776 -0.5867 -0.2919  0.8553
 2861SOL     OW20041   3.758   2.545  12.288  0.1549 -0.7163 -0.1499
 2861SOL    HW120042   3.746   2.622  12.344 -2.7660 -1.9916  0.9578
 2861SOL    HW220043   3.850   2.561  12.270 -0.6205  2.8570 -1.0861
 2862SOL     OW20044   1.914   1.840   1.170 -0.1872  0.1133  0.4312
 2862SOL    HW120045   1.877   1.814   1.255  4.0130 -3.2319  1.2268
 2862SOL    HW220046   1.975   1.906   1.202  0.0140  0.7062 -1.1856
 2863SOL     OW20047   1.585   1.491  12.978  0.2254 -0.0772  0.2170
 2863SOL    HW120048   1.616   1.400  12.973 -1.0788 -0.5331  0.3720
 2863SOL    HW220049   1.554   1.491  13.069 -0.0206  0.7756  0.1339
 2864SOL     OW20050   1.573   4.195   3.067 -0.3744  0.4007 -0.0997
 2864SOL    HW120051   1.523   4.121   3.032  0.7298 -1.1382  1.5711
 2864SOL    HW220052   1.510   4.257   3.031 -0.6890 -0.3259 -0.7954
 2865SOL     OW20053   0.016   0.876   5.125 -0.5321 -0.3567  0.4516
 2865SOL    HW120054   0.062   0.952   5.162 -0.8388 -0.4515  1.0360
 2865SOL    HW220055   4.670   0.848   5.188  1.1247 -1.0498  1.8913
 2866SOL     OW20056   1.535   0.489   5.357 -0.3586 -0.2492 -0.2336
 2866SOL    HW120057   1.450   0.465   5.394  0.6337 -0.2181  2.0563
 2866SOL    HW220058   1.537   0.579   5.390 -1.1478 -0.0479 -0.7405
 2867SOL     OW20059   0.715   4.249   7.191  0.2625 -0.1944  0.0622
 2867SOL    HW120060   0.731   4.218   7.280  1.7730 -0.0700 -0.1657
 2867SOL    HW220061   0.768   4.192   7.135  0.3766  1.3657 -1.4381
 2868SOL     OW20062   0.667   4.461   5.067 -0.0110 -0.0348  0.3022
 2868SOL    HW120063   0.719   4.381   5.058 -2.9948 -2.1010  1.3406
 2868SOL    HW220064   0.666   4.467   5.163  1.2742 -0.4844  0.3458
 2869SOL     OW20065   4.205   0.441   9.235  0.7831  0.0575  0.1170
 2869SOL    HW120066   4.154   0.498   9.294  2.5382  2.3266 -0.5677
 2869SOL    HW220067   4.294   0.438   9.271 -0.3533 -0.7392  2.9166
 2870SOL     OW20068   2.057   4.333  17.682  0.0987 -0.0079  0.2350
 2870SOL    HW120069   2.005   4.300  17.609  2.6554  0.8645 -2.0036
 2870SOL    HW220070   2.054   4.428  17.671 -0.4968 -0.0735 -0.1393
 2871SOL     OW20071   4.160   0.359   6.279 -0.5141  0.2091  0.0755
 2871SOL    HW120072   4.255   0.355   6.266 -0.2972  3.4916  0.4961
 2871SOL    HW220073   4.142   0.448   6.309 -3.5123 -0.8930  1.6058
 2872SOL     OW20074   0.510   4.237  10.686 -0.0791 -0.6904 -0.4390
 2872SOL    HW120075   0.547   4.325  10.687 -0.4349 -0.5075 -2.6894
 2872SOL    HW220076   0.517   4.216  10.593 -2.4404 -3.2670 -0.0276
 2873SOL     OW20077   2.780   1.115   4.308  0.4012  0.7366  0.1820
 2873SOL    HW120078   2.687   1.111   4.285  0.2488  1.2975  0.7208
 2873SOL    HW220079   2.814   1.070   4.231 -1.0616 -0.6899  0.3657
 2874SOL     OW20080   4.286   2.026   0.399 -0.2691 -0.0150  0.4298
 2874SOL    HW120081   4.214   2.088   0.410  0.6823  1.0418  0.6887
 2874SOL    HW220082   4.354   2.091   0.380  0.0901 -0.7471 -0.7863
 2875SOL     OW20083   3.154   1.754   0.794 -0.1443  0.1944 -0.2603
 2875SOL    HW120084   3.181   1.833   0.840 -1.8818  1.1154 -0.8276
 2875SOL    HW220085   3.199   1.684   0.840  0.6922  0.6308 -0.4095
 2876SOL     OW20086   2.846   3.029  17.487 -0.3213  0.1552  0.5919
 2876SOL    HW120087   2.825   2.940  17.514  0.0996 -0.2611 -0.4653
 2876SOL    HW220088   2.937   3.016  17.462 -0.7948 -2.1605  0.1206
 2877SOL     OW20089   0.134   0.823  16.205 -0.4875  0.0019  1.0480
 2877SOL    HW120090   0.044   0.794  16.219 -0.1582 -1.3539  0.3986
 2877SOL    HW220091   0.156   0.799  16.115 -2.2755  1.9410  0.0969
 2878SOL     OW20092   1.950   0.100   7.123  0.4440  0.0971 -0.1586
 2878SOL    HW120093   1.954   0.161   7.197 -2.0746  0.1533 -0.0477
 2878SOL    HW220094   1.875   0.142   7.080 -0.2458 -2.0120 -0.9894
 2879SOL     OW20095   2.506   0.559   6.014 -0.5597  1.3228  0.0270
 2879SOL    HW120096   2.509   0.484   5.955  0.9574 -0.3947  2.3290
 2879SOL    HW220097   2.484   0.631   5.954 -0.3966  0.0199 -1.6134
 2880SOL     OW20098   2.761   2.685   8.633 -0.0192 -0.3592 -0.1721
 2880SOL    HW120099   2.795   2.642   8.555 -1.1698  1.0552 -1.4693
 2880SOL    HW220100   2.709   2.616   8.674 -1.0809  0.2211 -0.5152
 2881SOL     OW20101   3.745   0.126   8.276  0.0611  0.0196  0.3366
 2881SOL    HW120102   3.735   0.125   8.180 -1.4894  0.5757  0.4869
 2881SOL    HW220103   3.731   0.217   8.300 -3.1456 -1.1433  2.9429
 2882SOL     OW20104   1.143   1.485   5.513 -0.1777 -0.1716  0.1228
 2882SOL    HW120105   1.098   1.569   5.523 -0.7469 -0.3705 -0.7685
 2882SOL    HW220106   1.083   1.447   5.448  1.6337  0.4252 -1.8861
 2883SOL     OW20107   2.971   3.376   2.648 -0.1683 -0.3510  0.1498
 2883SOL    HW120108   3.034   3.436   2.688 -0.4790 -0.0353  0.1670
 2883SOL    HW220109   2.888   3.412   2.681 -0.0865 -1.7211  1.8929
 2884SOL     OW20110   2.238   3.328   3.220 -0.2554  0.1923 -0.0878
 2884SOL    HW120111   2.283   3.328   3.304 -0.2649  0.2879 -0.0830
 2884SOL    HW220112   2.148   3.303   3.242  0.4378 -1.5593  0.7018
 2885SOL     OW20113   0.948   1.666   9.149  0.0079 -0.0979  0.5263
 2885SOL    HW120114   0.875   1.611   9.177 -0.7751  0.5175 -0.2993
 2885SOL    HW220115   0.990   1.602   9.092 -2.0009 -1.3859  0.4797
 2886SOL     OW20116   4.623   1.336   6.275 -0.4894  0.1349  0.4753
 2886SOL    HW120117   4.689   1.405   6.280 -0.9639  0.5431  1.0190
 2886SOL    HW220118   4.644   1.280   6.350  1.1226  0.1849  0.0635
 2887SOL     OW20119   0.471   1.702   1.432 -0.2979  0.5977 -0.2206
 2887SOL    HW120120   0.413   1.655   1.492  0.2088  2.3478  1.6619
 2887SOL    HW220121   0.458   1.653   1.351 -1.5606 -0.2912  0.5181
 2888SOL     OW20122   4.443   2.413  10.768 -0.3578  0.0988 -0.3413
 2888SOL    HW120123   4.388   2.353  10.718 -0.4972 -1.4424  1.6523
 2888SOL    HW220124   4.495   2.453  10.698 -0.7455  0.5671 -0.3641
 2889SOL     OW20125   3.916   1.692   4.516 -0.1337 -0.1010 -0.5031
 2889SOL    HW120126   3.847   1.637   4.480  0.0161  0.8271 -2.2162
 2889SOL    HW220127   3.993   1.635   4.512  0.1055  0.2275 -0.6380
 2890SOL     OW20128   3.077   1.372   2.851  0.1407  0.2687  0.1953
 2890SOL    HW120129   2.990   1.399   2.881 -0.3953 -1.0184 -0.1806
 2890SOL    HW220130   3.130   1.451   2.854 -0.9965  0.9895  1.4161
 2891SOL     OW20131   2.004   3.412   6.412  0.2532  0.0600 -0.0329
 2891SOL    HW120132   1.922   3.460   6.397 -0.4220 -1.9602 -2.6911
 2891SOL    HW220133   2.066   3.462   6.359 -0.9912  1.6829  0.0493
 2892SOL     OW20134   3.099   4.639  16.409 -0.3182 -0.7727  0.6087
 2892SOL    HW120135   3.132   4.659  16.497  0.7980 -0.3133  0.1003
 2892SOL    HW220136   3.029   4.704  16.400  1.7434  1.4120  0.1373
 2893SOL     OW20137   1.290   3.752   0.972  0.0508  0.1161 -0.0966
 2893SOL    HW120138   1.263   3.706   1.051  0.8103 -1.2152 -0.6149
 2893SOL    HW220139   1.318   3.840   0.998  0.5749 -0.4381  1.2199
 2894SOL     OW20140   4.229   3.723   4.626  0.1620  0.1188 -0.6618
 2894SOL    HW120141   4.168   3.742   4.697  1.2297 -2.6282  0.9946
 2894SOL    HW220142   4.187   3.752   4.545  0.4212 -1.1378 -1.2534
 2895SOL     OW20143   4.584   3.045   8.768 -0.3177 -0.5524 -0.0640
 2895SOL    HW120144   4.530   3.118   8.735  1.1378  1.0201  1.0571
 2895SOL    HW220145   4.538   3.028   8.850  0.4613  3.5697  1.2493
 2896SOL     OW20146   4.335   2.925  14.138  0.5325  0.0575 -0.1551
 2896SOL    HW120147   4.292   2.841  14.155  1.2374 -0.6723 -2.0726
 2896SOL    HW220148   4.293   2.981  14.204  0.3644  1.0928 -1.1492
 2897SOL     OW20149   2.159   0.407   7.232 -0.0042  0.0141 -0.2240
 2897SOL    HW120150   2.080   0.390   7.284 -0.0937 -0.7907 -0.6327
 2897SOL    HW220151   2.127   0.477   7.175 -0.2745  0.5928  0.6349
 2898SOL     OW20152   2.615   0.276  12.445 -0.1440 -0.4875  0.1118
 2898SOL    HW120153   2.711   0.279  12.440 -0.1176 -0.0302  0.8954
 2898SOL    HW220154   2.600   0.207  12.510  2.7156 -1.0282  0.2095
 2899SOL     OW20155   3.014   0.324   6.878 -0.0398 -0.1298 -0.1146
 2899SOL    HW120156   3.071   0.325   6.801  0.6048 -0.3933  0.3596
 2899SOL    HW220157   2.988   0.416   6.871 -1.8234 -0.3490  3.8954
 2900SOL     OW20158   4.139   3.832   2.994  0.1466  0.1824 -0.1330
 2900SOL    HW120159   4.180   3.841   2.908  1.6980  0.8009  0.6585
 2900SOL    HW220160   4.208   3.872   3.047  0.6400 -1.9120  0.8022
 2901SOL     OW20161   3.862   3.807  12.890  0.0572 -0.3108  0.2881
 2901SOL    HW120162   3.800   3.786  12.819 -2.6616  1.4070  2.1517
 2901SOL    HW220163   3.812   3.856  12.955  0.5563  1.7333 -0.8666
 2902SOL     OW20164   3.656   2.524   7.973 -0.5022 -0.0140  0.0668
 2902SOL    HW120165   3.702   2.607   7.986 -1.3456  0.8057 -2.2190
 2902SOL    HW220166   3.669   2.517   7.878 -0.1391  0.9803  0.0364
 2903SOL     OW20167   3.130   0.517   9.779 -0.1771  0.3212  0.0570
 2903SOL    HW120168   3.084   0.502   9.697  2.6879  0.1282 -1.4795
 2903SOL    HW220169   3.058   0.494   9.838 -0.2205  2.3783  0.8040
 2904SOL     OW20170   0.347   0.323   3.665 -0.0793  0.1604  0.1972
 2904SOL    HW120171   0.331   0.372   3.745  1.5399  0.1301  0.5294
 2904SOL    HW220172   0.407   0.382   3.620  1.3014  0.5886  2.6581
 2905SOL     OW20173   1.962   0.580   1.996 -0.2564  0.2394  0.3931
 2905SOL    HW120174   1.881   0.617   1.963 -0.0689  1.6172  1.4665
 2905SOL    HW220175   1.939   0.489   1.980  0.0460  0.0633  0.9329
 2906SOL     OW20176   2.766   4.305   6.095  0.4626  0.6438 -0.8841
 2906SOL    HW120177   2.792   4.307   6.003 -0.0588  1.9324 -1.0011
 2906SOL    HW220178   2.834   4.249   6.132  0.3714  0.9325 -0.2843
 2907SOL     OW20179   2.856   1.755   9.121 -0.9558 -0.3638  0.2277
 2907SOL    HW120180   2.829   1.729   9.209  0.7363  0.2875  0.9408
 2907SOL    HW220181   2.774   1.755   9.072 -0.7787 -0.0418 -0.0717
 2908SOL     OW20182   1.330   2.995  14.266 -0.2948  0.4331 -0.2004
 2908SOL    HW120183   1.281   2.986  14.184 -1.4327 -1.5790  0.7111
 2908SOL    HW220184   1.417   3.017  14.230 -2.3208  2.7023 -3.7636
 2909SOL     OW20185   3.032   4.031   4.521  0.0472 -0.1429 -0.6099
 2909SOL    HW120186   3.046   4.002   4.431 -0.5974 -0.6634 -0.5475
 2909SOL    HW220187   2.976   4.107   4.507  0.2608 -0.0893 -1.1519
 2910SOL     OW20188   0.051   3.065   8.382 -0.8600 -0.0399  0.0460
 2910SOL    HW120189   0.084   3.077   8.472  0.2622  4.2982 -0.9557
 2910SOL    HW220190   4.703   3.131   8.377 -0.7771 -0.0413 -1.1311
 2911SOL     OW20191   1.908   2.844   0.358 -0.4751 -0.0390  0.6901
 2911SOL    HW120192   1.952   2.764   0.328 -2.8388 -0.1548 -2.3984
 2911SOL    HW220193   1.978   2.909   0.358  1.1211 -1.7413  0.8489
 2912SOL     OW20194   1.204   2.413  13.000 -0.0729  0.4547 -0.0024
 2912SOL    HW120195   1.114   2.381  12.995 -0.8275  2.8675 -1.8921
 2912SOL    HW220196   1.241   2.395  12.914  1.0500  1.8238  0.1912
 2913SOL     OW20197   3.412   3.459   3.084  0.4624 -0.1177  0.0774
 2913SOL    HW120198   3.392   3.370   3.113 -0.1949  0.3304  1.0129
 2913SOL    HW220199   3.420   3.433   2.992  0.4794 -0.1623  0.0914
 2914SOL     OW20200   4.446   1.715   9.609 -0.2260 -0.0484 -0.1171
 2914SOL    HW120201   4.365   1.713   9.659  0.0957  1.8618  0.4976
 2914SOL    HW220202   4.510   1.713   9.681 -0.5971  2.1312  0.2864
 2915SOL     OW20203   1.385   0.292  12.158 -0.2328  0.6760  0.0778
 2915SOL    HW120204   1.473   0.331  12.161  0.4209 -0.6969 -0.9996
 2915SOL    HW220205   1.403   0.214  12.211 -3.8381  0.5454  1.0665
 2916SOL     OW20206   4.339   4.295   8.917 -0.2592 -0.3754 -0.3728
 2916SOL    HW120207   4.380   4.212   8.943 -1.1456 -0.1982  1.5571
 2916SOL    HW220208   4.293   4.309   8.999 -0.7926  0.4617 -0.8162
 2917SOL     OW20209   3.379   2.461  12.528 -0.3763 -0.2043  0.6603
 2917SOL    HW120210   3.299   2.412  12.547 -0.0548 -0.8741  0.2959
 2917SOL    HW220211   3.407   2.498  12.612 -0.4477 -1.8687  1.4110
 2918SOL     OW20212   0.121   1.515   3.100  0.3571  0.1950  0.1661
 2918SOL    HW120213   0.170   1.451   3.049  1.1328  0.5921  0.4243
 2918SOL    HW220214   0.185   1.519   3.171 -0.3370  0.2006  0.7942
 2919SOL     OW20215   1.333   3.975   1.119  0.3252  0.2919  0.0699
 2919SOL    HW120216   1.360   3.970   1.211  2.4084 -0.7877 -0.6119
 2919SOL    HW220217   1.397   4.041   1.095  0.9772 -0.5894 -0.6029
 2920SOL     OW20218   2.582   4.512   2.230 -0.0033  0.1270 -0.5133
 2920SOL    HW120219   2.559   4.448   2.297  0.3571  1.1907  0.6293
 2920SOL    HW220220   2.577   4.586   2.290 -2.3877 -1.0003  0.6902
 2921SOL     OW20221   3.155   1.949  11.872 -0.5071  0.0195  0.2771
 2921SOL    HW120222   3.136   1.907  11.788 -1.8578  1.6195 -0.2192
 2921SOL    HW220223   3.249   1.968  11.862 -0.4863  0.0726  0.5758
 2922SOL     OW20224   0.579   0.935  15.444 -0.2186  0.1419 -0.5425
 2922SOL    HW120225   0.657   0.984  15.470 -1.2443  2.3970 -1.6163
 2922SOL    HW220226   0.506   0.991  15.473 -0.0244 -0.2558  0.6892
 2923SOL     OW20227   2.453   0.497  11.583  0.5326 -0.0319 -0.0978
 2923SOL    HW120228   2.509   0.420  11.580  0.2645 -0.2266 -0.1534
 2923SOL    HW220229   2.372   0.454  11.610  0.6238 -1.0632 -1.4529
 2924SOL     OW20230   0.251   3.320   3.164  0.0846 -0.0890  0.8253
 2924SOL    HW120231   0.195   3.333   3.088 -0.1829  0.4375  1.1105
 2924SOL    HW220232   0.315   3.257   3.130 -0.9644 -1.7060  1.8251
 2925SOL     OW20233   2.611   2.418  10.718  0.4549 -0.4084  1.2499
 2925SOL    HW120234   2.538   2.465  10.758  0.2731  0.0590  0.3577
 2925SOL    HW220235   2.582   2.327  10.732  2.3895 -1.1457  0.5424
 2926SOL     OW20236   3.328   4.004   5.798 -0.0087  0.6459  0.2295
 2926SOL    HW120237   3.264   4.054   5.849  0.3232  1.5879 -0.2790
 2926SOL    HW220238   3.269   3.968   5.732  0.3253 -2.0276  1.4146
 2927SOL     OW20239   2.734   3.519   8.878 -0.0899  0.1338 -0.3324
 2927SOL    HW120240   2.791   3.588   8.845  0.0518 -0.4544 -1.3136
 2927SOL    HW220241   2.673   3.574   8.926  0.3232 -0.0771  0.4443
 2928SOL     OW20242   3.084   0.913  14.833  0.1139  0.4592  0.0674
 2928SOL    HW120243   3.005   0.966  14.838  0.4429  1.0439 -0.9811
 2928SOL    HW220244   3.059   0.823  14.811 -1.1235  0.7340  0.3373
 2929SOL     OW20245   2.683   1.085   6.373  0.7012 -0.1226 -0.0497
 2929SOL    HW120246   2.745   1.157   6.376 -1.2245  1.5853 -0.8759
 2929SOL    HW220247   2.678   1.048   6.461 -1.4979 -0.7832 -0.4422
 2930SOL     OW20248   0.029   2.836   5.724 -0.1392  0.1435  0.7161
 2930SOL    HW120249   0.056   2.744   5.725 -0.8657 -0.0560  1.2965
 2930SOL    HW220250   0.077   2.869   5.647  0.0878  0.0179  0.8048
 2931SOL     OW20251   1.533   1.210   5.398 -0.0723  0.2083 -0.2983
 2931SOL    HW120252   1.446   1.180   5.371 -0.0347 -0.7230  0.6123
 2931SOL    HW220253   1.584   1.135   5.368  0.3157  0.2258  0.3140
 2932SOL     OW20254   0.164   4.711   8.117 -0.0806  0.1471 -0.0300
 2932SOL    HW120255   0.194   0.051   8.049  3.1307  0.2711  1.4951
 2932SOL    HW220256   0.200   4.626   8.090  0.0280  0.8990 -2.2352
 2933SOL     OW20257   1.029   3.218   5.581  0.3086 -0.3182  0.0837
 2933SOL    HW120258   1.005   3.209   5.488 -0.0193  2.6788 -0.1168
 2933SOL    HW220259   0.954   3.180   5.628  0.0016  0.8097  0.4894
 2934SOL     OW20260   3.693   0.111  16.233  0.3218  0.3060  0.0244
 2934SOL    HW120261   3.708   0.182  16.171  0.3073  1.1928  1.0526
 2934SOL    HW220262   3.719   0.034  16.182  0.1832  0.5537 -0.4158
 2935SOL     OW20263   1.464   2.771   1.186  0.0359 -0.4788  0.5250
 2935SOL    HW120264   1.474   2.795   1.093 -1.8165  0.1973  0.5125
 2935SOL    HW220265   1.371   2.756   1.202 -0.5115  2.4527  0.2409
 2936SOL     OW20266   2.665   3.185   6.232 -0.2420 -0.4583  0.9668
 2936SOL    HW120267   2.609   3.123   6.186 -2.8016  1.1155  1.9843
 2936SOL    HW220268   2.603   3.258   6.233 -2.6185 -2.4628 -1.2597
 2937SOL     OW20269   0.452   2.632   4.031 -0.7742 -0.2181  0.1993
 2937SOL    HW120270   0.529   2.674   3.993 -2.7169  0.3461 -3.1803
 2937SOL    HW220271   0.494   2.600   4.111  2.3314  0.3601 -1.2193
 2938SOL     OW20272   2.038   1.290   5.476 -0.6458  0.6076  0.2276
 2938SOL    HW120273   2.108   1.355   5.471 -0.5860  0.4668 -0.6500
 2938SOL    HW220274   2.059   1.229   5.405 -0.1726 -0.3882  1.2127
 2939SOL     OW20275   1.956   0.730   7.451 -0.7881  0.0689  0.3769
 2939SOL    HW120276   2.020   0.716   7.520  1.6838  0.7134 -1.7734
 2939SOL    HW220277   1.888   0.673   7.486  0.1278  0.1311  2.2818
 2940SOL     OW20278   0.936   0.565   7.776 -0.1078 -0.2605  0.0871
 2940SOL    HW120279   0.863   0.554   7.837  0.7276  0.9872  1.3294
 2940SOL    HW220280   0.968   0.651   7.806 -0.7470  0.1472 -0.4156
 2941SOL     OW20281   0.152   1.653   8.685 -0.7308 -0.0385 -0.8258
 2941SOL    HW120282   0.085   1.593   8.717  2.0515 -2.1752  1.0101
 2941SOL    HW220283   0.103   1.731   8.659 -0.9623  0.0515 -0.1036
 2942SOL     OW20284   1.893   0.379   6.548 -0.4891 -0.2565 -0.4541
 2942SOL    HW120285   1.988   0.372   6.557 -0.5201  0.7857  0.6551
 2942SOL    HW220286   1.886   0.340   6.461  0.0830 -0.5350 -0.3705
 2943SOL     OW20287   3.395   4.305   7.586 -0.2894  0.3709 -0.0354
 2943SOL    HW120288   3.429   4.381   7.539  3.8922 -1.5732 -0.1711
 2943SOL    HW220289   3.324   4.343   7.638  0.4972  3.0533 -0.9199
 2944SOL     OW20290   1.256   4.606   7.231  0.3908 -0.1758  0.0151
 2944SOL    HW120291   1.226   4.686   7.187  0.3854 -0.8870 -1.2713
 2944SOL    HW220292   1.352   4.613   7.227  0.1252  2.9831 -0.9130
 2945SOL     OW20293   3.985   2.173   9.821 -0.0747 -0.4309  0.6662
 2945SOL    HW120294   3.915   2.238   9.830  0.1562 -0.3587  1.8785
 2945SOL    HW220295   3.927   2.108   9.781 -1.3823  0.9821  0.2522
 2946SOL     OW20296   3.599   1.097   9.590 -0.1679  0.0906 -0.4575
 2946SOL    HW120297   3.538   1.171   9.579  0.3329  0.8594  2.0055
 2946SOL    HW220298   3.661   1.142   9.648 -0.4591 -0.7554  0.5067
 2947SOL     OW20299   4.013   0.081   6.602  0.4831  0.4741 -0.0936
 2947SOL    HW120300   3.942   0.084   6.666  0.9335  1.5388  0.3417
 2947SOL    HW220301   4.019   4.706   6.596 -1.6087  0.2436  1.4320
 2948SOL     OW20302   0.256   0.353   5.828 -0.3140 -0.7464  0.3518
 2948SOL    HW120303   0.179   0.301   5.804 -2.2913  1.2874  2.3651
 2948SOL    HW220304   0.322   0.283   5.824 -0.6452 -0.9789 -1.1500
 2949SOL     OW20305   3.853   3.525  15.379  0.1029  0.6521 -0.1576
 2949SOL    HW120306   3.892   3.583  15.444  1.6903  0.5752 -1.0668
 2949SOL    HW220307   3.802   3.587  15.327 -1.2043  0.9783  1.5072
 2950SOL     OW20308   4.341   2.166   4.445  0.1839 -0.0337  0.0482
 2950SOL    HW120309   4.364   2.126   4.361  0.7980  1.2708 -0.4076
 2950SOL    HW220310   4.389   2.099   4.493  2.6565  1.3847 -0.4145
 2951SOL     OW20311   2.078   4.133   8.669  0.0313  0.3208 -0.1090
 2951SOL    HW120312   2.017   4.081   8.616 -1.9280  1.1643  1.3540
 2951SOL    HW220313   2.072   4.086   8.752 -1.4846  0.6530 -0.0448
 2952SOL     OW20314   0.316   1.251  13.670  0.4121 -0.4999 -0.7421
 2952SOL    HW120315   0.407   1.220  13.672  1.7977  3.5286  0.3011
 2952SOL    HW220316   0.338   1.344  13.680  0.4164 -0.4904 -0.8343
 2953SOL     OW20317   0.560   1.600   4.876  0.1695 -0.2958 -0.2201
 2953SOL    HW120318   0.644   1.591   4.920 -1.4051  0.1902  2.8603
 2953SOL    HW220319   0.558   1.508   4.849  1.3632 -0.4359  0.2027
 2954SOL     OW20320   1.819   1.218   2.339 -0.3893  0.4206 -0.7605
 2954SOL    HW120321   1.830   1.289   2.402 -0.8585 -0.6650  0.5397
 2954SOL    HW220322   1.767   1.154   2.387  0.1023 -0.3800 -1.2773
 2955SOL     OW20323   3.806   1.836  10.603  0.0573 -0.4158  0.5400
 2955SOL    HW120324   3.779   1.763  10.659 -2.2234  0.6348  0.8198
 2955SOL    HW220325   3.724   1.885  10.591 -0.1737 -0.9026  0.1265
 2956SOL     OW20326   3.368   2.213   4.791  0.0053 -0.0441 -0.2268
 2956SOL    HW120327   3.341   2.146   4.854  0.1872  1.0961  1.0433
 2956SOL    HW220328   3.446   2.179   4.747  0.5118  2.6771 -1.4134
 2957SOL     OW20329   4.037   2.618   5.630 -0.4280  0.0485 -0.0994
 2957SOL    HW120330   4.031   2.588   5.721  3.1170 -1.5361 -0.4124
 2957SOL    HW220331   3.999   2.542   5.587 -0.2400 -0.3513  0.4385
 2958SOL     OW20332   3.648   2.975  16.460 -0.2503  0.2735 -0.4073
 2958SOL    HW120333   3.591   2.958  16.536 -1.2362  3.2051 -0.4937
 2958SOL    HW220334   3.583   2.962  16.391  0.1829 -3.7493 -0.0628
 2959SOL     OW20335   3.527   2.018  12.653  0.7283 -0.2526  0.0922
 2959SOL    HW120336   3.558   2.051  12.569 -1.0484 -2.2921 -1.3688
 2959SOL    HW220337   3.610   2.012  12.701  0.5098  3.0554  0.9024
 2960SOL     OW20338   1.619   4.307   7.629 -0.2847  0.0032  0.3304
 2960SOL    HW120339   1.700   4.292   7.579  0.0408  2.1679  0.2175
 2960SOL    HW220340   1.561   4.242   7.589 -1.4364  0.5964  1.0337
 2961SOL     OW20341   3.934   0.841   7.095 -0.3610 -0.1938  0.1187
 2961SOL    HW120342   3.985   0.920   7.114 -0.5484 -0.3021  1.0761
 2961SOL    HW220343   3.979   0.771   7.142 -0.7300 -0.7189 -0.3157
 2962SOL     OW20344   4.176   2.942   5.870 -0.9409  0.0665 -0.2998
 2962SOL    HW120345   4.148   2.936   5.961  0.4527  0.9457  0.1754
 2962SOL    HW220346   4.170   3.037   5.872 -0.7860  0.0389  1.8306
 2963SOL     OW20347   3.159   0.428   2.563 -0.3043 -0.2625 -0.0929
 2963SOL    HW120348   3.234   0.443   2.621  1.2929 -2.0771 -1.6878
 2963SOL    HW220349   3.111   0.510   2.566 -0.8818 -0.5725 -0.8275
 2964SOL     OW20350   1.213   1.360   9.416 -0.4403 -0.1696 -0.1300
 2964SOL    HW120351   1.262   1.286   9.451  1.6447  1.4158  0.2438
 2964SOL    HW220352   1.279   1.428   9.406 -0.7801 -0.0133 -1.3456
 2965SOL     OW20353   3.457   2.366   8.068 -0.2708 -0.0959 -0.1791
 2965SOL    HW120354   3.520   2.435   8.052  2.0320 -1.7052  1.9563
 2965SOL    HW220355   3.502   2.292   8.027 -1.5993 -0.0543 -1.7069
 2966SOL     OW20356   1.056   1.790   8.190  0.1467  0.5816  0.4903
 2966SOL    HW120357   1.026   1.877   8.216  0.6111 -0.0073  3.0151
 2966SOL    HW220358   0.982   1.734   8.213  2.2810 -2.1147  0.8471
 2967SOL     OW20359   1.568   2.534   1.075 -0.2586 -0.3338  0.1200
 2967SOL    HW120360   1.648   2.507   1.120 -1.3153 -1.5618  1.2593
 2967SOL    HW220361   1.548   2.617   1.119 -0.8256 -1.2539  1.5837
 2968SOL     OW20362   0.922   4.118   8.015  0.1592  0.4398  0.1027
 2968SOL    HW120363   0.832   4.084   8.014  0.0498  0.7139  0.3853
 2968SOL    HW220364   0.935   4.103   8.109 -1.4264  1.7053  0.5382
 2969SOL     OW20365   4.568   2.210  13.064 -0.4332 -0.7390  0.1908
 2969SOL    HW120366   4.513   2.238  13.137 -0.7671  1.8326 -1.0496
 2969SOL    HW220367   4.638   2.153  13.097 -0.2333 -0.4970  0.1808
 2970SOL     OW20368   0.548   0.737   8.666 -0.0671 -0.7075  0.0895
 2970SOL    HW120369   0.636   0.698   8.658 -0.2413 -1.4270  1.6263
 2970SOL    HW220370   0.497   0.661   8.693 -0.1663 -0.4187  0.7245
 2971SOL     OW20371   2.228   1.988   2.122 -0.2906  0.4874 -0.1035
 2971SOL    HW120372   2.318   1.960   2.106 -0.2561 -0.3513  1.5562
 2971SOL    HW220373   2.249   2.076   2.154 -0.9291  0.5469  0.1514
 2972SOL     OW20374   2.234   1.567   5.754  0.0077  0.1911 -0.0895
 2972SOL    HW120375   2.288   1.489   5.765 -2.6997 -1.7802 -0.6069
 2972SOL    HW220376   2.193   1.544   5.671  1.0645  0.1266 -0.5936
 2973SOL     OW20377   1.656   1.315  10.570  0.2100 -0.6087  0.0965
 2973SOL    HW120378   1.624   1.345  10.485  0.7750 -2.0723 -0.6362
 2973SOL    HW220379   1.650   1.222  10.547 -1.5233 -0.9283  1.8842
 2974SOL     OW20380   3.869   0.726   5.305  0.1501 -0.4427  0.5004
 2974SOL    HW120381   3.788   0.769   5.330 -0.2020 -0.9527  0.2413
 2974SOL    HW220382   3.850   0.632   5.302  1.2849 -0.6351 -1.0981
 2975SOL     OW20383   0.540   0.033  13.870 -0.3098  0.3433  0.3527
 2975SOL    HW120384   0.625   0.076  13.867  0.4456 -1.2827 -1.5514
 2975SOL    HW220385   0.509   0.039  13.780  0.1167 -1.0942  0.1025
 2976SOL     OW20386   3.535   3.480   4.131 -0.0418  0.2043 -0.5304
 2976SOL    HW120387   3.551   3.409   4.069 -0.1107 -0.6974  0.4846
 2976SOL    HW220388   3.576   3.453   4.213 -1.4348 -1.3973 -0.3521
 2977SOL     OW20389   3.002   0.941  10.440  0.3301  0.0262 -0.0072
 2977SOL    HW120390   3.031   0.925  10.529  0.4024 -0.1800 -0.0687
 2977SOL    HW220391   2.914   0.905  10.440  0.6566 -0.8049 -2.8455
 2978SOL     OW20392   1.169   0.997   9.745  0.1966  0.2026  0.2178
 2978SOL    HW120393   1.247   1.046   9.770  0.8808 -0.6134 -0.3019
 2978SOL    HW220394   1.103   1.039   9.799 -0.5727 -0.5985 -0.0914
 2979SOL     OW20395   4.252   1.312  10.196 -0.1497 -0.1152 -0.0264
 2979SOL    HW120396   4.334   1.361  10.198  1.4304 -2.7154 -1.2720
 2979SOL    HW220397   4.290   1.225  10.201  1.7422  0.7370  0.1936
 2980SOL     OW20398   3.658   3.534   7.577  0.0016  0.1957 -0.6993
 2980SOL    HW120399   3.721   3.542   7.505  0.6054  2.2113  0.0444
 2980SOL    HW220400   3.623   3.623   7.573 -0.9981 -0.2404 -1.7989
 2981SOL     OW20401   2.891   2.776   4.812 -0.4872  0.2670 -0.5451
 2981SOL    HW120402   2.969   2.731   4.844 -2.3611 -2.0631  0.6797
 2981SOL    HW220403   2.826   2.728   4.863  0.9675 -1.7177 -0.5607
 2982SOL     OW20404   1.614   1.722   7.323 -0.7868 -0.1996 -0.3474
 2982SOL    HW120405   1.532   1.673   7.320 -1.8900  1.6841 -0.9930
 2982SOL    HW220406   1.657   1.698   7.406  1.5645 -0.2181 -1.5643
 2983SOL     OW20407   2.362   3.757   7.398 -0.4224 -0.3134 -0.1508
 2983SOL    HW120408   2.317   3.685   7.443 -0.8517 -1.6857 -2.7353
 2983SOL    HW220409   2.294   3.824   7.398  0.0915  0.1948 -2.6079
 2984SOL     OW20410   4.598   3.329   6.181  0.2608  0.1432  0.1467
 2984SOL    HW120411   4.515   3.320   6.134  0.6449  1.0518 -0.7034
 2984SOL    HW220412   4.561   3.318   6.268 -1.6442 -0.6722 -0.7570
 2985SOL     OW20413   1.614   0.842   8.690 -0.6774 -0.2637  0.1901
 2985SOL    HW120414   1.524   0.863   8.665 -0.8382  1.2102  1.9394
 2985SOL    HW220415   1.585   0.792   8.766  0.3560  0.3722  1.0124
 2986SOL     OW20416   4.299   3.682   9.013  0.0033 -0.3686  0.0970
 2986SOL    HW120417   4.391   3.668   8.989 -0.0545 -0.4363 -0.0809
 2986SOL    HW220418   4.302   3.622   9.088 -3.1378 -1.0049 -0.3101
 2987SOL     OW20419   1.012   4.534   4.425  0.8096 -0.3939 -0.2944
 2987SOL    HW120420   0.975   4.527   4.337 -0.2449 -2.3370  0.2985
 2987SOL    HW220421   0.946   4.579   4.477  1.5244 -0.0730  0.3402
 2988SOL     OW20422   4.030   3.574  11.905  0.6320  0.0301  0.5438
 2988SOL    HW120423   4.118   3.582  11.868  0.7357 -0.0713  0.7695
 2988SOL    HW220424   4.049   3.635  11.976  2.2061 -0.1376  0.2874
 2989SOL     OW20425   1.643   0.869   0.755  0.4733  0.6284  0.2215
 2989SOL    HW120426   1.554   0.866   0.789  0.3053 -0.0243 -0.2729
 2989SOL    HW220427   1.639   0.802   0.687  2.3903 -0.2118  0.9497
 2990SOL     OW20428   3.189   2.828   6.905 -0.2822 -0.1152 -0.3510
 2990SOL    HW120429   3.281   2.850   6.887  0.0727 -0.6186  0.7999
 2990SOL    HW220430   3.162   2.919   6.916 -0.7549 -0.4597  1.2620
 2991SOL     OW20431   3.746   3.784   8.994 -0.1999 -0.0677  0.1412
 2991SOL    HW120432   3.687   3.752   9.062  1.3129 -2.9730  0.1032
 2991SOL    HW220433   3.691   3.839   8.939 -1.5061 -1.9507 -0.4460
 2992SOL     OW20434   3.612   4.352   8.119  0.2823 -0.7331 -0.3132
 2992SOL    HW120435   3.665   4.283   8.159  0.7217 -1.4137 -2.0930
 2992SOL    HW220436   3.534   4.338   8.173 -0.8344  2.2942 -1.1301
 2993SOL     OW20437   1.419   4.536   8.060 -0.4699 -0.1101 -0.0376
 2993SOL    HW120438   1.418   4.502   7.970  1.0342  1.9238 -0.8090
 2993SOL    HW220439   1.492   4.597   8.058 -0.4202 -0.1432  0.7948
 2994SOL     OW20440   0.102   4.629  14.339  0.3091 -0.3521  0.5355
 2994SOL    HW120441   0.173   4.571  14.367 -1.8667 -3.5635 -0.6026
 2994SOL    HW220442   0.143   4.715  14.330 -0.1260 -0.1399  0.5622
 2995SOL     OW20443   2.007   0.448  15.930 -0.0331  0.6070  0.6341
 2995SOL    HW120444   2.010   0.425  15.838  1.7107 -0.5649  0.9733
 2995SOL    HW220445   2.094   0.446  15.971  0.2478  0.3080  0.0205
 2996SOL     OW20446   0.312   0.412  17.102 -0.0668  0.4590 -0.1074
 2996SOL    HW120447   0.381   0.409  17.035 -0.7616 -0.1359 -0.7960
 2996SOL    HW220448   0.377   0.402  17.171 -1.4583 -1.2893  0.9544
 2997SOL     OW20449   3.076   3.056  11.007 -0.1507  0.4515 -0.5527
 2997SOL    HW120450   3.155   3.010  10.980 -0.5249  0.6113 -1.9060
 2997SOL    HW220451   3.013   3.008  10.954 -0.7491  0.6690 -0.0414
 2998SOL     OW20452   3.958   3.953   8.915  0.3855  0.3048 -0.0579
 2998SOL    HW120453   4.007   3.887   8.866 -3.2230 -1.6837 -0.9577
 2998SOL    HW220454   3.891   3.893   8.948  0.8105 -0.3081 -0.3146
 2999SOL     OW20455   0.967   2.962  14.070  0.2700  0.7727  0.2058
 2999SOL    HW120456   0.998   2.982  14.159 -0.1295 -0.5944  0.6430
 2999SOL    HW220457   0.881   3.000  14.088  0.7432  1.5852  0.7559
 3000SOL     OW20458   2.924   4.464   8.744  0.5995  0.4394  0.0678
 3000SOL    HW120459   2.965   4.488   8.661 -0.5496  0.7039 -0.4295
 3000SOL    HW220460   2.836   4.493   8.721  0.9751  0.9293 -0.7461
 3001SOL     OW20461   1.108   2.677   7.649  0.1073  0.2471 -0.6505
 3001SOL    HW120462   1.094   2.720   7.564 -2.4424 -0.8685 -0.7874
 3001SOL    HW220463   1.022   2.686   7.690 -0.1874 -0.0804 -1.1927
 3002SOL     OW20464   4.573   2.975   6.825  0.2410  0.5450 -0.4029
 3002SOL    HW120465   4.616   2.979   6.911  0.7852  0.8920 -0.6962
 3002SOL    HW220466   4.658   2.983   6.783  1.2198  1.5098  1.7488
 3003SOL     OW20467   2.090   2.051   4.932  0.2978  0.0793 -0.3916
 3003SOL    HW120468   1.996   2.069   4.937  0.2261 -0.7592  1.1733
 3003SOL    HW220469   2.134   2.131   4.902 -1.9620  1.7929  0.8819
 3004SOL     OW20470   4.414   3.554   5.941  0.4632 -0.6423  0.4002
 3004SOL    HW120471   4.427   3.635   5.990 -0.2329 -0.0021 -0.4803
 3004SOL    HW220472   4.504   3.526   5.923  0.6817 -0.3590  1.0466
 3005SOL     OW20473   4.396   3.734  12.031 -0.5106 -0.4835  0.1889
 3005SOL    HW120474   4.384   3.822  11.997  2.3376 -0.4946 -0.8921
 3005SOL    HW220475   4.305   3.704  12.036 -0.0917 -1.5907  1.1948
 3006SOL     OW20476   1.106   1.136   4.877  0.7469 -0.6177 -0.5938
 3006SOL    HW120477   1.191   1.104   4.848 -0.7800 -2.9834 -2.3542
 3006SOL    HW220478   1.114   1.099   4.965  2.4477  1.1835  0.0081
 3007SOL     OW20479   3.101   3.719   7.725  0.0053 -0.2715  0.0323
 3007SOL    HW120480   3.027   3.780   7.725 -0.3465 -0.6985  0.8851
 3007SOL    HW220481   3.176   3.775   7.743 -1.5949  1.9729 -0.3672
 3008SOL     OW20482   0.053   0.210   5.331 -0.2435 -0.3926  0.0231
 3008SOL    HW120483   0.041   0.126   5.375 -0.4180 -0.7048 -0.6251
 3008SOL    HW220484   0.021   0.191   5.243 -1.2213 -0.2287  0.3464
 3009SOL     OW20485   1.844   0.392  14.708 -0.0340 -0.3027  0.3144
 3009SOL    HW120486   1.859   0.468  14.765  1.2950  1.3244 -2.1985
 3009SOL    HW220487   1.784   0.420  14.638 -2.6084 -0.2331  2.5690
 3010SOL     OW20488   1.163   2.695   2.750 -0.3777 -0.2741 -0.3733
 3010SOL    HW120489   1.100   2.764   2.772 -1.9491 -1.9426  0.3274
 3010SOL    HW220490   1.146   2.630   2.818 -2.7889 -0.6523 -1.3428
 3011SOL     OW20491   3.724   2.794   3.596 -0.3483  0.2153  0.2031
 3011SOL    HW120492   3.684   2.739   3.529 -1.4834  0.6957  0.4901
 3011SOL    HW220493   3.775   2.730   3.645  0.6907  0.2461 -0.8355
 3012SOL     OW20494   1.137   4.108   0.027 -0.5344 -0.5737 -0.2094
 3012SOL    HW120495   1.202   4.088   0.094 -0.0175 -1.7536 -1.0751
 3012SOL    HW220496   1.180   4.079  17.633  0.9236 -0.9116  0.6998
 3013SOL     OW20497   2.611   4.527  10.553 -0.8807 -0.3407 -0.3578
 3013SOL    HW120498   2.626   4.599  10.493 -0.8193  0.1025  0.1849
 3013SOL    HW220499   2.657   4.459  10.504  0.8890  1.1729 -0.8038
 3014SOL     OW20500   3.734   2.190   8.213  0.3261 -0.3364 -0.3428
 3014SOL    HW120501   3.803   2.139   8.255  1.1904 -1.6069 -3.2825
 3014SOL    HW220502   3.769   2.275   8.240  0.8229  0.4745 -3.5989
 3015SOL     OW20503   3.755   2.402  14.189  0.0413 -0.0662 -0.2448
 3015SOL    HW120504   3.811   2.362  14.256 -0.7192  2.2245  1.7389
 3015SOL    HW220505   3.670   2.392  14.231 -0.4606 -0.7129 -1.4418
 3016SOL     OW20506   2.261   0.106   3.021 -0.2845 -0.1502  0.3124
 3016SOL    HW120507   2.261   0.070   2.932 -1.3848 -1.3446  0.7897
 3016SOL    HW220508   2.291   0.193   2.997  0.6700 -0.3472  0.7521
 3017SOL     OW20509   3.803   2.418   8.345  0.1863 -0.6962  0.2985
 3017SOL    HW120510   3.766   2.497   8.384 -1.4032 -0.6092 -1.4366
 3017SOL    HW220511   3.815   2.369   8.427 -0.7320  0.5241  1.1607
 3018SOL     OW20512   1.843   3.418   4.355 -0.1528  0.7222 -0.8925
 3018SOL    HW120513   1.779   3.395   4.423 -0.8270 -0.1038 -1.8222
 3018SOL    HW220514   1.840   3.340   4.300  0.7988  0.3349 -0.3893
 3019SOL     OW20515   3.885   1.477   8.180 -0.5998 -0.2499  0.0350
 3019SOL    HW120516   3.918   1.444   8.263  0.1969  0.6991  0.0833
 3019SOL    HW220517   3.952   1.542   8.160 -1.6747  1.2980  1.4558
 3020SOL     OW20518   3.144   0.924   8.136 -0.1030 -0.4968 -0.4551
 3020SOL    HW120519   3.079   0.964   8.193  1.0177  1.5861 -0.6040
 3020SOL    HW220520   3.171   0.997   8.080  0.0540 -0.6032 -0.5187
 3021SOL     OW20521   2.424   0.355   7.230  0.0746 -0.0705 -0.2639
 3021SOL    HW120522   2.443   0.422   7.296 -0.5737 -0.8081  0.6775
 3021SOL    HW220523   2.329   0.361   7.218 -0.0402 -0.2048  0.5283
 3022SOL     OW20524   2.544   3.383  10.992  0.7404 -0.3530  0.2165
 3022SOL    HW120525   2.542   3.416  10.902 -1.7608 -0.6389  0.1683
 3022SOL    HW220526   2.624   3.331  10.995  0.0979 -1.3061  0.5733
 3023SOL     OW20527   0.245   4.445   1.106  0.1955 -0.2431 -0.2550
 3023SOL    HW120528   0.193   4.525   1.105  0.1220 -0.2948 -0.5541
 3023SOL    HW220529   0.261   4.432   1.200 -1.3601  2.5890  0.4039
 3024SOL     OW20530   1.258   0.439  11.172 -0.1521  0.5953  0.0712
 3024SOL    HW120531   1.196   0.372  11.144 -1.0153  1.0632  0.8833
 3024SOL    HW220532   1.320   0.441  11.099 -0.9474 -0.6387 -0.6232
 3025SOL     OW20533   0.626   1.339  17.339  0.1854  0.2543  0.2842
 3025SOL    HW120534   0.567   1.285  17.391 -2.3097  1.7518 -0.9526
 3025SOL    HW220535   0.680   1.264  17.317  1.5709  1.3445 -0.0139
 3026SOL     OW20536   0.110   4.046   3.891  0.1817  0.6273  0.1057
 3026SOL    HW120537   0.078   3.993   3.817 -1.4410  0.6967  0.7425
 3026SOL    HW220538   0.103   4.133   3.851 -2.8680 -0.3487 -1.5494
 3027SOL     OW20539   0.528   0.445   3.513  0.2015 -0.1152  0.2446
 3027SOL    HW120540   0.587   0.415   3.444  0.7661  0.7762  0.3277
 3027SOL    HW220541   0.449   0.484   3.475 -0.2126 -2.5618 -1.3996
 3028SOL     OW20542   0.437   2.332  11.271  0.3387  0.4623 -0.4145
 3028SOL    HW120543   0.517   2.382  11.288  0.9344 -0.0557 -1.6940
 3028SOL    HW220544   0.443   2.260  11.334  0.7485  0.5265 -0.3767
 3029SOL     OW20545   2.359   0.360   2.928  0.2556 -0.2736  0.1809
 3029SOL    HW120546   2.348   0.399   2.842  2.4611 -0.8139 -0.3372
 3029SOL    HW220547   2.454   0.348   2.926 -0.0486 -2.3919 -1.5173
 3030SOL     OW20548   1.823   2.067   4.963  0.2480  0.1167  0.1169
 3030SOL    HW120549   1.742   2.117   4.966  0.3917  0.3538  0.1179
 3030SOL    HW220550   1.817   1.998   4.897  2.3011  0.6884 -0.6867
 3031SOL     OW20551   2.896   4.372   3.822  0.4638  0.1349 -0.1752
 3031SOL    HW120552   2.989   4.365   3.843  0.2169 -0.6335  0.6861
 3031SOL    HW220553   2.883   4.464   3.844  1.6238  0.4582 -0.8805
 3032SOL     OW20554   4.128   2.135   8.423  0.0761  0.5522  0.1138
 3032SOL    HW120555   4.070   2.070   8.385  2.1576 -1.1619 -0.1032
 3032SOL    HW220556   4.149   2.183   8.343  0.1913  0.6079  0.1766
 3033SOL     OW20557   2.387   4.406   7.348  0.4538  0.1631 -0.1757
 3033SOL    HW120558   2.368   4.493   7.384 -1.5228 -0.1282 -0.5251
 3033SOL    HW220559   2.417   4.425   7.260  0.5609 -2.9961 -0.8216
 3034SOL     OW20560   2.713   0.081   7.734 -0.0483  0.6381  0.2419
 3034SOL    HW120561   2.711   0.153   7.671 -1.4323 -1.2866 -1.8675
 3034SOL    HW220562   2.724   0.135   7.813  0.5870 -0.7145  1.0647
 3035SOL     OW20563   2.289   2.902   4.890 -0.2231 -0.4705  0.5113
 3035SOL    HW120564   2.358   2.843   4.920  1.4751  0.5988 -1.2652
 3035SOL    HW220565   2.323   2.990   4.901  0.8054 -0.5167 -2.4000
 3036SOL     OW20566   1.006   1.157   8.162 -0.1443 -0.5499  0.4936
 3036SOL    HW120567   1.036   1.092   8.098  0.8971 -0.4507  0.8840
 3036SOL    HW220568   1.072   1.221   8.137  0.4387 -0.5197  2.1496
 3037SOL     OW20569   2.262   2.487   3.884  0.4197  0.4675 -0.5354
 3037SOL    HW120570   2.228   2.503   3.797 -1.1092  1.2298  0.2084
 3037SOL    HW220571   2.326   2.558   3.882 -0.5964  1.3715 -0.5748
 3038SOL     OW20572   0.992   1.757   1.126  0.4671 -0.2943  0.0143
 3038SOL    HW120573   0.911   1.776   1.079  1.3488 -1.0150 -1.7804
 3038SOL    HW220574   0.968   1.797   1.210  1.4442 -2.4705  1.3324
 3039SOL     OW20575   3.135   4.205   9.005 -0.3199  0.0063  0.6596
 3039SOL    HW120576   3.057   4.251   9.038 -0.8243  0.2264 -0.8301
 3039SOL    HW220577   3.101   4.134   8.951  0.5881 -0.0536  0.1738
 3040SOL     OW20578   3.128   0.518  13.320 -0.0610  0.0341 -0.5370
 3040SOL    HW120579   3.191   0.447  13.308  2.6723  2.2524  0.4646
 3040SOL    HW220580   3.075   0.503  13.242 -0.7314 -2.3757  0.3938
 3041SOL     OW20581   3.960   3.072   8.516 -0.0480 -0.0615 -0.3696
 3041SOL    HW120582   3.927   3.126   8.444  0.6327  1.0169  0.1341
 3041SOL    HW220583   3.933   2.991   8.472 -1.0081  0.1065 -0.0831
 3042SOL     OW20584   3.663   2.340   9.576 -0.3876 -0.0417 -0.7895
 3042SOL    HW120585   3.735   2.320   9.516 -0.1466 -0.3819 -0.3812
 3042SOL    HW220586   3.605   2.264   9.568  0.5096 -0.6979 -0.9312
 3043SOL     OW20587   0.640   2.158   8.137 -0.0906  0.0604  0.2372
 3043SOL    HW120588   0.632   2.202   8.221  3.4443  1.9341 -0.4125
 3043SOL    HW220589   0.599   2.073   8.155  1.4711 -0.2577  2.2123
 3044SOL     OW20590   1.229   3.828   7.423 -0.2459 -0.2708 -0.2068
 3044SOL    HW120591   1.157   3.791   7.473 -0.6948  1.3165  0.3080
 3044SOL    HW220592   1.178   3.858   7.348  0.3143 -0.5497 -0.6992
 3045SOL     OW20593   4.547   1.580   3.777 -0.1844  0.1220 -0.3432
 3045SOL    HW120594   4.611   1.644   3.747 -0.7781  0.1687 -1.4906
 3045SOL    HW220595   4.576   1.501   3.732 -0.4512 -1.3505  2.0456
 3046SOL     OW20596   2.467   2.779   9.568  0.6583  0.6915  0.1447
 3046SOL    HW120597   2.422   2.809   9.490 -2.8559  0.6291  2.1342
 3046SOL    HW220598   2.511   2.862   9.588 -0.0953  0.9100  0.8929
 3047SOL     OW20599   1.066   2.849   3.951  0.5244 -0.1567 -0.4548
 3047SOL    HW120600   1.146   2.797   3.956  2.0941  2.3568  0.7287
 3047SOL    HW220601   1.063   2.855   3.855 -0.2329 -0.8066 -0.4716
 3048SOL     OW20602   2.952   1.255  13.420 -0.3288 -0.1057 -0.3468
 3048SOL    HW120603   2.948   1.330  13.479  1.0532 -1.3778  1.3515
 3048SOL    HW220604   2.964   1.300  13.336 -2.3038  5.2654  2.2401
 3049SOL     OW20605   3.457   3.559   5.128 -0.2059 -0.1911 -0.1216
 3049SOL    HW120606   3.414   3.500   5.065 -0.9300  0.5891 -0.3529
 3049SOL    HW220607   3.528   3.596   5.075 -0.2889 -0.5970 -0.5218
 3050SOL     OW20608   2.445   1.241   0.754 -0.4789 -0.2116  0.5559
 3050SOL    HW120609   2.494   1.287   0.822 -0.0325 -0.1069  0.1577
 3050SOL    HW220610   2.506   1.171   0.730  1.6763  1.3533  1.5775
 3051SOL     OW20611   2.713   4.437   2.596  0.3860  0.2057 -0.1125
 3051SOL    HW120612   2.758   4.493   2.532  1.1549 -0.6247 -0.3083
 3051SOL    HW220613   2.764   4.461   2.673 -0.0873 -2.8819  1.1600
 3052SOL     OW20614   2.919   4.355  10.664 -0.3033 -0.3442 -0.1786
 3052SOL    HW120615   2.886   4.416  10.598 -1.2267 -0.5789  0.0698
 3052SOL    HW220616   2.944   4.285  10.604  0.0380  0.3635 -0.8662
 3053SOL     OW20617   3.370   1.193   3.585 -0.1806  0.5418 -0.4749
 3053SOL    HW120618   3.436   1.243   3.537  0.2515  2.2051  1.8755
 3053SOL    HW220619   3.290   1.226   3.545 -0.0019  1.3896 -0.1236
 3054SOL     OW20620   0.165   3.623   2.191  0.2053 -0.4284  0.1445
 3054SOL    HW120621   0.099   3.570   2.147 -0.5996 -0.3628  1.2582
 3054SOL    HW220622   0.197   3.680   2.121  1.6230 -0.0665  1.0862
 3055SOL     OW20623   3.826   3.866  15.320 -0.3870  0.8539  0.1577
 3055SOL    HW120624   3.773   3.793  15.289 -0.0218  0.1462  1.1934
 3055SOL    HW220625   3.862   3.903  15.240  1.0314 -1.1599 -0.1351
 3056SOL     OW20626   1.597   2.753  13.881 -0.1524  0.0538 -0.0376
 3056SOL    HW120627   1.525   2.810  13.853  0.5241  2.1667  2.5215
 3056SOL    HW220628   1.601   2.692  13.808  1.0091 -0.0996  0.1443
 3057SOL     OW20629   3.828   4.469  11.985 -0.6321 -0.2001  0.5956
 3057SOL    HW120630   3.792   4.542  12.036 -1.5447  0.7431 -1.4071
 3057SOL    HW220631   3.921   4.484  12.001 -0.8517  1.8352 -0.0841
 3058SOL     OW20632   0.194   1.442   0.953 -0.5924 -0.5081 -0.1530
 3058SOL    HW120633   0.188   1.408   0.863  0.5664 -2.4043  0.4750
 3058SOL    HW220634   0.110   1.413   0.988  0.5721 -2.1312  1.2794
 3059SOL     OW20635   0.688   4.084   4.530 -0.5653 -0.2344  0.0213
 3059SOL    HW120636   0.713   4.166   4.572  0.7839 -1.0165  0.7359
 3059SOL    HW220637   0.633   4.055   4.603  1.1905 -1.2618  0.9323
 3060SOL     OW20638   1.828   1.781   6.490 -0.7258 -0.4705  0.1336
 3060SOL    HW120639   1.805   1.856   6.544  1.3326  1.7606 -2.1474
 3060SOL    HW220640   1.890   1.738   6.549  0.6556 -0.0408 -1.0103
 3061SOL     OW20641   2.227   0.987  12.511  0.2009  0.1017 -0.2900
 3061SOL    HW120642   2.235   1.069  12.463 -0.5600  0.9048  0.9620
 3061SOL    HW220643   2.314   0.948  12.499 -0.5055 -1.3184 -0.7850
 3062SOL     OW20644   0.712   0.974   0.964  0.0297 -0.2587 -0.3083
 3062SOL    HW120645   0.752   0.898   1.004 -0.8917 -1.5279 -1.7962
 3062SOL    HW220646   0.785   0.993   0.905  0.4365  1.9635  0.9321
 3063SOL     OW20647   4.039   4.464  14.331  0.4330 -0.0445 -0.0330
 3063SOL    HW120648   3.998   4.528  14.389  1.5283  0.0067  0.6781
 3063SOL    HW220649   4.013   4.491  14.243  1.1708  1.4077  0.1893
 3064SOL     OW20650   3.260   3.383   3.386 -0.1721  0.8578 -0.4323
 3064SOL    HW120651   3.178   3.414   3.347 -0.3764  0.7656 -0.0692
 3064SOL    HW220652   3.282   3.318   3.318  0.9081  2.0475 -1.2261
 3065SOL     OW20653   0.928   0.627   3.118  0.0594  0.6246  0.1682
 3065SOL    HW120654   0.910   0.609   3.210  1.4763 -0.7701  0.1715
 3065SOL    HW220655   0.956   0.718   3.123  1.2070  0.2587  0.5292
 3066SOL     OW20656   0.214   4.077   4.411  0.2012  0.1563 -0.4739
 3066SOL    HW120657   0.186   4.156   4.365 -2.1969 -0.9018 -0.8497
 3066SOL    HW220658   0.294   4.114   4.446 -0.7347  0.0487  1.7452
 3067SOL     OW20659   2.160   1.460   7.058  0.1254  0.5780 -0.1438
 3067SOL    HW120660   2.147   1.467   6.964  2.7602  1.3741 -0.4538
 3067SOL    HW220661   2.134   1.370   7.077 -1.3791  1.3085  1.2920
 3068SOL     OW20662   4.271   4.508   0.084 -0.0414  0.4248  0.1114
 3068SOL    HW120663   4.334   4.572   0.119  0.3505  0.4045 -0.5581
 3068SOL    HW220664   4.218   4.579   0.048 -2.0789 -0.9539  0.4043
 3069SOL     OW20665   2.105   2.993   9.342 -0.3371 -0.5999  0.1461
 3069SOL    HW120666   2.081   2.983   9.250  2.4405 -0.7984 -0.5638
 3069SOL    HW220667   2.200   2.982   9.331 -0.1939  0.4654  0.3194
 3070SOL     OW20668   0.367   2.020   7.498  0.1012  0.4587  0.0686
 3070SOL    HW120669   0.393   1.993   7.586 -1.5427 -1.3694 -0.0015
 3070SOL    HW220670   0.426   2.093   7.479  0.2858  0.2405 -0.1751
 3071SOL     OW20671   0.763   0.932   3.365  0.6288 -0.3243  0.0274
 3071SOL    HW120672   0.851   0.896   3.352  1.1779  0.4272  1.5770
 3071SOL    HW220673   0.716   0.869   3.418 -1.5790 -0.0854 -1.6669
 3072SOL     OW20674   4.668   2.531   7.762  0.2341  0.2107 -0.1046
 3072SOL    HW120675   4.708   2.583   7.832  0.4467  1.6700 -1.3095
 3072SOL    HW220676   4.590   2.502   7.810  0.9844 -1.9978 -0.2265
 3073SOL     OW20677   4.551   1.042   4.325  0.1120  0.3633 -0.3758
 3073SOL    HW120678   4.599   0.963   4.348 -1.0030 -0.1708  0.1500
 3073SOL    HW220679   4.582   1.046   4.235 -1.2738 -2.2292 -0.9948
 3074SOL     OW20680   3.895   3.624   4.130  0.2284  0.2391  0.3146
 3074SOL    HW120681   3.978   3.595   4.092 -0.4484  0.0720 -1.0359
 3074SOL    HW220682   3.918   3.629   4.223  1.1236 -1.5291  0.1837
 3075SOL     OW20683   0.113   4.168   4.916  0.5983  0.5013  0.6141
 3075SOL    HW120684   0.064   4.177   4.834  1.1096 -2.6598 -0.0391
 3075SOL    HW220685   0.165   4.088   4.905 -1.6022 -0.3702 -3.6631
 3076SOL     OW20686   1.507   4.503  12.718 -0.0278 -0.5643  0.6516
 3076SOL    HW120687   1.571   4.438  12.746  0.5183 -0.0263  0.6493
 3076SOL    HW220688   1.563   4.566  12.673  1.2714 -3.2632 -1.4503
 3077SOL     OW20689   0.527   1.875   1.199  0.3196  0.4849 -0.6592
 3077SOL    HW120690   0.439   1.910   1.211  0.6862  0.5768  1.7686
 3077SOL    HW220691   0.513   1.804   1.262 -1.4530  0.2099 -1.3626
 3078SOL     OW20692   2.973   0.857   3.303 -0.0496  0.3177 -0.5888
 3078SOL    HW120693   2.980   0.923   3.234  1.2893  0.1034 -0.6445
 3078SOL    HW220694   2.951   0.916   3.374  1.5045 -0.2089  0.3248
 3079SOL     OW20695   0.733   3.107   4.207 -0.4081 -0.0518 -0.2644
 3079SOL    HW120696   0.700   3.150   4.128 -0.6930  1.7961  0.8710
 3079SOL    HW220697   0.649   3.071   4.237  0.7248 -2.9549 -0.5758
 3080SOL     OW20698   1.909   2.285   5.125 -0.8212 -0.4974  0.4047
 3080SOL    HW120699   1.961   2.251   5.198 -1.0265 -0.0631  0.7516
 3080SOL    HW220700   1.858   2.211   5.094 -0.2787 -1.3997  1.6706
 3081SOL     OW20701   2.923   2.974   8.168 -0.0789  0.2270 -0.6769
 3081SOL    HW120702   2.983   2.927   8.226  0.4670  1.6449 -0.1137
 3081SOL    HW220703   2.842   2.931   8.195  0.7323 -1.6410 -1.1820
 3082SOL     OW20704   1.682   1.885   3.426 -0.7115 -0.4852  0.0908
 3082SOL    HW120705   1.645   1.973   3.435 -0.5826 -0.5798  1.6618
 3082SOL    HW220706   1.689   1.859   3.518 -0.7541 -0.2037  0.1729
 3083SOL     OW20707   2.076   1.426   5.954 -0.2498 -0.3701 -0.0152
 3083SOL    HW120708   2.124   1.442   5.873 -1.0803  1.3684 -0.1525
 3083SOL    HW220709   1.984   1.428   5.926  0.0933 -1.6618 -1.2200
 3084SOL     OW20710   3.877   4.236  14.417  0.3472  0.4688  0.7512
 3084SOL    HW120711   3.918   4.319  14.391  1.3859  0.7640  3.3484
 3084SOL    HW220712   3.828   4.205  14.341  0.1785  1.6845  0.3712
 3085SOL     OW20713   0.715   4.323   8.147  0.0622  0.0649 -0.1348
 3085SOL    HW120714   0.669   4.393   8.194 -0.2413 -1.2730  1.5606
 3085SOL    HW220715   0.656   4.299   8.076 -1.8206  1.3345  0.9601
 3086SOL     OW20716   2.329   3.539  11.437  0.1750 -0.5118  0.3745
 3086SOL    HW120717   2.353   3.462  11.387 -0.2935  0.1562 -0.8754
 3086SOL    HW220718   2.397   3.540  11.504  1.3219  1.7806 -0.8186
 3087SOL     OW20719   4.369   3.352   0.463  0.2447 -0.4851 -0.2168
 3087SOL    HW120720   4.296   3.345   0.525 -1.1553 -1.1984 -1.9152
 3087SOL    HW220721   4.367   3.266   0.420 -1.7987 -1.5240  1.9603
 3088SOL     OW20722   4.386   4.494   9.557  0.1425 -0.0834  0.2095
 3088SOL    HW120723   4.440   4.567   9.526 -1.0675  1.3151  1.3717
 3088SOL    HW220724   4.367   4.516   9.649 -1.5700  1.0453 -0.4258
 3089SOL     OW20725   4.321   0.195   9.466 -0.5424 -0.0667 -0.2973
 3089SOL    HW120726   4.407   0.238   9.460 -0.8924  0.6489 -0.2121
 3089SOL    HW220727   4.354   0.117   9.510 -0.8339  0.4143  0.7539
 3090SOL     OW20728   0.329   0.464   9.447  0.2679 -0.2701 -0.5443
 3090SOL    HW120729   0.421   0.446   9.430  0.7858  1.5407  0.3554
 3090SOL    HW220730   0.299   0.463   9.356  0.4564 -1.4323 -0.5945
 3091SOL     OW20731   0.297   4.412  17.132  0.1115 -0.2847  0.0943
 3091SOL    HW120732   0.381   4.371  17.154 -0.6289 -0.5053  2.5048
 3091SOL    HW220733   0.325   4.482  17.074  1.0323 -0.6597  0.0809
 3092SOL     OW20734   0.749   0.268   5.986 -0.0735  0.1315 -0.0023
 3092SOL    HW120735   0.792   0.292   5.904  0.6384  3.7065  1.4139
 3092SOL    HW220736   0.782   0.334   6.047  0.0818  0.7510 -0.7613
 3093SOL     OW20737   4.415   4.268   2.189  0.1199  0.8749 -0.1389
 3093SOL    HW120738   4.465   4.268   2.108  0.2553 -0.3617 -0.0494
 3093SOL    HW220739   4.493   4.237   2.235 -0.6575  0.9666  1.2527
 3094SOL     OW20740   1.500   3.677   4.937  0.0912 -0.4414  0.3500
 3094SOL    HW120741   1.439   3.680   4.864  1.3170 -0.9834 -0.6951
 3094SOL    HW220742   1.550   3.756   4.914 -0.9264 -0.5351 -2.1361
 3095SOL     OW20743   0.435   4.248   3.400 -0.0398 -0.0393  0.7944
 3095SOL    HW120744   0.420   4.342   3.407 -0.2952  0.0792 -1.1721
 3095SOL    HW220745   0.487   4.250   3.480 -1.2272  0.4468  1.5470
 3096SOL     OW20746   0.264   1.700  15.428 -0.0043  0.0532  0.0572
 3096SOL    HW120747   0.196   1.675  15.366  0.2537 -1.8416  0.5469
 3096SOL    HW220748   0.328   1.721  15.360 -1.5070  0.6982 -1.1418
 3097SOL     OW20749   3.949   2.732  15.241  1.1011  0.4142 -0.4175
 3097SOL    HW120750   3.926   2.723  15.148 -0.0137  0.2944 -0.1202
 3097SOL    HW220751   3.946   2.639  15.262  1.0756  0.8561  1.5175
 3098SOL     OW20752   0.002   1.892   6.324  0.5508 -0.2248  0.1531
 3098SOL    HW120753   0.053   1.960   6.279  0.6756 -0.2492  0.2593
 3098SOL    HW220754   4.643   1.912   6.275  0.3580  0.7555  0.8541
 3099SOL     OW20755   3.585   1.050   8.036 -0.8658 -0.3128 -0.3111
 3099SOL    HW120756   3.556   0.959   8.036 -0.1852 -0.5385  1.5922
 3099SOL    HW220757   3.523   1.089   8.099 -0.9304 -0.2688 -0.4019
 3100SOL     OW20758   4.662   4.056   6.992 -0.5155  0.9998  0.1417
 3100SOL    HW120759   4.602   4.131   6.996  1.8542  2.9705 -1.2295
 3100SOL    HW220760   0.013   4.098   6.945  1.0242 -1.4897  0.2685
 3101SOL     OW20761   0.853   2.872   6.857 -0.1713  0.2972 -0.8970
 3101SOL    HW120762   0.893   2.793   6.819 -2.1215 -2.0986  1.9568
 3101SOL    HW220763   0.818   2.840   6.941  0.9006  1.4355 -0.0117
 3102SOL     OW20764   1.701   0.378  12.921 -0.0215 -0.4209  1.3051
 3102SOL    HW120765   1.774   0.344  12.973  1.4968  2.1744  0.8652
 3102SOL    HW220766   1.641   0.303  12.919 -0.5869  0.0919 -0.4430
 3103SOL     OW20767   2.693   1.018   6.631 -0.2346 -0.2096  0.1907
 3103SOL    HW120768   2.742   0.943   6.596  1.1464  1.7446 -2.0767
 3103SOL    HW220769   2.666   0.981   6.715 -0.3530  3.0861  1.5906
 3104SOL     OW20770   2.268   2.846  16.970 -0.3174 -0.1540 -0.1527
 3104SOL    HW120771   2.341   2.791  16.943 -1.6389 -2.3347  0.7451
 3104SOL    HW220772   2.296   2.875  17.057 -0.5978 -3.5222  1.0399
 3105SOL     OW20773   4.232   0.219   3.443  0.5619  0.2993  0.1968
 3105SOL    HW120774   4.165   0.221   3.374 -0.5357  0.6020  1.2753
 3105SOL    HW220775   4.257   0.310   3.455  3.3407 -0.4759  0.3035
 3106SOL     OW20776   3.721   3.848   5.274  0.2089  0.2492 -0.9463
 3106SOL    HW120777   3.770   3.808   5.202  1.1698  0.2739 -0.3011
 3106SOL    HW220778   3.738   3.793   5.350 -0.7574  1.3836  0.0996
 3107SOL     OW20779   2.705   3.314   8.301  0.0632 -0.0517 -0.6581
 3107SOL    HW120780   2.788   3.289   8.341 -0.2459 -0.0328  0.0022
 3107SOL    HW220781   2.641   3.296   8.371  1.7766  0.1186  0.9582
 3108SOL     OW20782   0.369   1.237   3.214  0.2344 -0.0060 -0.0042
 3108SOL    HW120783   0.429   1.312   3.210  0.3212 -0.1157 -0.6268
 3108SOL    HW220784   0.426   1.162   3.232  0.3503  0.1007  0.0758
 3109SOL     OW20785   0.477   1.112  16.771  0.5722  0.8800 -0.0331
 3109SOL    HW120786   0.542   1.167  16.727 -0.0044  0.1224 -1.8445
 3109SOL    HW220787   0.487   1.136  16.863  1.5203  2.0570 -0.4388
 3110SOL     OW20788   4.235   2.783  15.327  0.1340 -0.0202  0.1847
 3110SOL    HW120789   4.193   2.860  15.365 -0.0433 -0.4497  0.8548
 3110SOL    HW220790   4.185   2.772  15.246  0.1659  1.2412  0.0014
 3111SOL     OW20791   0.508   3.211  11.369 -0.6017  0.4435 -0.2672
 3111SOL    HW120792   0.527   3.142  11.305 -1.4559 -0.2562  0.2229
 3111SOL    HW220793   0.542   3.287  11.324  0.5124 -0.2196 -0.5387
 3112SOL     OW20794   0.540   3.061   5.630 -0.2211  0.2198 -0.0510
 3112SOL    HW120795   0.592   3.064   5.549  0.7578 -1.5117  0.5231
 3112SOL    HW220796   0.513   2.970   5.631  2.1531 -0.4740  1.2479
 3113SOL     OW20797   1.459   0.544  17.497  0.0360  0.1941 -0.6666
 3113SOL    HW120798   1.430   0.569  17.409  4.1008  1.7367 -1.5499
 3113SOL    HW220799   1.403   0.601  17.549  0.1602 -0.9194  0.6945
 3114SOL     OW20800   0.176   3.174   7.335  0.1889 -0.1117  0.0128
 3114SOL    HW120801   0.165   3.229   7.257 -2.2185  1.4792  1.4756
 3114SOL    HW220802   0.198   3.086   7.304  0.3458  0.2901 -1.0355
 3115SOL     OW20803   2.708   1.841   1.618  0.2115  0.6685  0.0030
 3115SOL    HW120804   2.683   1.893   1.694 -0.3591 -1.4808  1.2929
 3115SOL    HW220805   2.795   1.881   1.610  1.1916 -1.0190  1.9672
 3116SOL     OW20806   1.368   4.699   5.469 -0.3038  0.3540  0.0787
 3116SOL    HW120807   1.294   0.002   5.525 -0.3099  1.0560 -0.2200
 3116SOL    HW220808   1.406   0.066   5.476  1.5918 -0.3531 -1.3612
 3117SOL     OW20809   2.420   1.749   4.589 -0.0363 -0.2152 -0.1677
 3117SOL    HW120810   2.454   1.694   4.659 -0.6951 -0.3280  0.0678
 3117SOL    HW220811   2.390   1.685   4.524  3.9402  0.4417 -2.6343
 3118SOL     OW20812   1.421   2.341   6.660 -0.2349  0.3292 -0.1032
 3118SOL    HW120813   1.440   2.392   6.739 -0.8167 -0.3987  0.5174
 3118SOL    HW220814   1.454   2.257   6.692 -0.9467 -0.3617 -1.1755
 3119SOL     OW20815   3.460   0.963  17.209  0.2292  0.0891  0.1026
 3119SOL    HW120816   3.460   0.904  17.284  1.9926 -1.4226 -1.0961
 3119SOL    HW220817   3.366   0.950  17.195  0.5161  1.1112 -2.6934
 3120SOL     OW20818   2.571   4.488  11.274 -0.4832  0.3257 -0.2460
 3120SOL    HW120819   2.619   4.489  11.190  0.5216  1.8617  0.3508
 3120SOL    HW220820   2.491   4.526  11.239  0.0354  0.4971 -1.2751
 3121SOL     OW20821   1.466   4.575   8.552  0.1128  0.7477  0.8798
 3121SOL    HW120822   1.440   4.643   8.491  2.9944 -0.2048 -1.4409
 3121SOL    HW220823   1.389   4.521   8.566  1.2054 -1.7889 -2.7277
 3122SOL     OW20824   1.342   0.224  10.831  0.0444  0.0695 -0.3202
 3122SOL    HW120825   1.381   0.308  10.808 -2.8284  1.2094 -0.9237
 3122SOL    HW220826   1.260   0.245  10.875 -0.1692 -0.4430 -0.4749
 3123SOL     OW20827   1.252   2.217   1.418 -0.1979 -0.2954 -0.0484
 3123SOL    HW120828   1.163   2.229   1.384 -0.6310  1.3657  1.6934
 3123SOL    HW220829   1.238   2.176   1.503  0.3654 -2.1421 -0.8331
 3124SOL     OW20830   3.531   2.339   5.127  0.2934 -0.7548 -0.3673
 3124SOL    HW120831   3.559   2.259   5.172 -0.5214 -0.5783  0.4696
 3124SOL    HW220832   3.559   2.328   5.036 -1.5107  3.0937 -1.3744
 3125SOL     OW20833   2.000   2.021   1.393  0.8217 -0.5923 -0.0067
 3125SOL    HW120834   2.089   1.985   1.388  1.4848  1.0626  0.0806
 3125SOL    HW220835   1.961   1.979   1.470  0.0485  0.8175  0.3767
 3126SOL     OW20836   4.569   4.627   6.606  0.0605 -0.4543  1.1892
 3126SOL    HW120837   4.479   4.618   6.573  0.1273  1.0198  0.6330
 3126SOL    HW220838   4.611   4.550   6.567  0.5046  0.1660  0.4661
 3127SOL     OW20839   3.572   0.605   1.797 -0.2295 -0.2234  0.8892
 3127SOL    HW120840   3.524   0.581   1.717  3.7300 -0.3010 -1.4425
 3127SOL    HW220841   3.503   0.642   1.853 -0.7045 -0.7486  0.6557
 3128SOL     OW20842   1.150   2.399   5.296 -0.0894 -0.2678  0.4411
 3128SOL    HW120843   1.101   2.379   5.376 -0.8964 -2.0653 -0.5022
 3128SOL    HW220844   1.209   2.468   5.325  1.1950 -1.2953  0.3047
 3129SOL     OW20845   4.487   0.745   6.985 -0.0231 -0.0654  0.2584
 3129SOL    HW120846   4.529   0.793   7.057 -0.2435  1.8609 -0.9051
 3129SOL    HW220847   4.559   0.723   6.927 -0.8879 -1.0872 -0.4233
 3130SOL     OW20848   3.955   0.215  13.259 -0.3395  0.1124 -0.4664
 3130SOL    HW120849   3.879   0.237  13.312  0.3698  2.3561 -0.4031
 3130SOL    HW220850   4.014   0.285  13.287 -0.3202  0.4080 -1.2661
 3131SOL     OW20851   0.254   2.861   9.167 -0.4478 -0.2172  0.3838
 3131SOL    HW120852   0.281   2.845   9.257  0.2323  0.5555  0.3151
 3131SOL    HW220853   0.328   2.832   9.114  0.8214  0.6961  1.6456
 3132SOL     OW20854   4.634   1.173   9.673 -0.0268  0.1781 -0.1406
 3132SOL    HW120855   4.632   1.260   9.713 -5.1107 -0.6954  1.5801
 3132SOL    HW220856   4.543   1.147   9.659  0.2574 -1.9893  1.9653
 3133SOL     OW20857   4.330   1.015  11.924  0.3829 -0.1756  0.1669
 3133SOL    HW120858   4.269   0.942  11.937 -3.1367  2.7737 -0.1089
 3133SOL    HW220859   4.398   0.963  11.881  0.6275  0.1816  0.1288
 3134SOL     OW20860   1.182   2.674   8.982  0.5473  0.5172  0.6036
 3134SOL    HW120861   1.106   2.619   9.003  1.3279 -0.8233 -0.0694
 3134SOL    HW220862   1.258   2.616   8.981  0.6067  0.6206 -1.4205
 3135SOL     OW20863   4.441   0.124   4.028 -0.1594  0.6148  0.0924
 3135SOL    HW120864   4.380   0.056   4.001 -1.1999  0.4028  2.8891
 3135SOL    HW220865   4.456   0.178   3.951  2.2473 -0.6822 -0.3505
 3136SOL     OW20866   3.100   0.304  17.654  0.0362  0.0522 -0.1405
 3136SOL    HW120867   3.134   0.393  17.661  1.7688 -0.6493  0.3965
 3136SOL    HW220868   3.056   0.299   0.053 -0.5327  1.0119 -0.3774
 3137SOL     OW20869   2.226   2.943   6.652 -0.2330  0.2226 -0.7871
 3137SOL    HW120870   2.170   3.003   6.602  0.2095  2.8702  1.9232
 3137SOL    HW220871   2.307   2.954   6.603  1.4474 -2.0596  1.5063
 3138SOL     OW20872   2.136   4.623   8.133 -0.3008 -0.0824 -0.3564
 3138SOL    HW120873   2.221   4.585   8.113 -0.5941 -1.0461  0.2538
 3138SOL    HW220874   2.158   4.671   8.213 -1.8720  0.4847 -0.2627
 3139SOL     OW20875   2.234   1.985   7.279  0.1706 -0.0015  0.4471
 3139SOL    HW120876   2.329   1.996   7.280  0.3440 -1.7428  3.7669
 3139SOL    HW220877   2.231   1.891   7.292 -1.6139  0.1571  1.1256
 3140SOL     OW20878   1.748   2.368  17.051  0.1093  0.3180 -0.0110
 3140SOL    HW120879   1.671   2.371  16.994  0.3885  1.4242 -0.3299
 3140SOL    HW220880   1.764   2.460  17.073  0.6423  0.7958 -2.3168
 3141SOL     OW20881   2.784   2.515  15.546  0.1602 -0.5103  0.2264
 3141SOL    HW120882   2.751   2.571  15.475  3.2647  2.5774  1.2112
 3141SOL    HW220883   2.757   2.583  15.609 -2.1743 -1.6506  0.4359
 3142SOL     OW20884   4.183   2.583   5.368 -0.0694 -0.3894 -0.3496
 3142SOL    HW120885   4.172   2.617   5.457 -2.1994 -1.4015 -0.2428
 3142SOL    HW220886   4.263   2.634   5.350 -0.1608  0.1986  0.8840
 3143SOL     OW20887   1.651   0.010  10.151 -0.0024  0.1139 -0.4560
 3143SOL    HW120888   1.680   4.641  10.133  3.6529  0.6602  2.7146
 3143SOL    HW220889   1.714   0.025  10.222  1.3617 -0.1280 -1.6043
 3144SOL     OW20890   0.689   0.346   5.327 -0.6916 -0.0602 -0.2905
 3144SOL    HW120891   0.611   0.368   5.276 -1.4045 -0.0459  0.7850
 3144SOL    HW220892   0.701   0.425   5.380  1.2227  0.7802 -2.0129
 3145SOL     OW20893   3.327   1.191   5.784 -0.2436 -0.0093 -0.1240
 3145SOL    HW120894   3.369   1.154   5.862 -0.2276  1.2264  0.4477
 3145SOL    HW220895   3.303   1.280   5.808  0.3753  0.1339 -0.0354
 3146SOL     OW20896   3.339   1.873   8.109 -1.0309  0.1593  0.3114
 3146SOL    HW120897   3.247   1.857   8.130 -1.3713 -0.4758 -1.6742
 3146SOL    HW220898   3.322   1.949   8.054  1.5925 -0.5728 -1.5039
 3147SOL     OW20899   0.991   2.839  10.717 -0.6771 -0.7804 -0.4870
 3147SOL    HW120900   0.943   2.916  10.687  0.4432  0.3520  0.6839
 3147SOL    HW220901   1.064   2.885  10.757 -0.1859 -2.4385  0.5357
 3148SOL     OW20902   3.532   1.282  17.353 -0.2308  0.1176 -0.3480
 3148SOL    HW120903   3.514   1.215  17.287  1.1648 -1.1744  0.6150
 3148SOL    HW220904   3.472   1.249  17.420  0.6710 -1.0637 -0.1338
 3149SOL     OW20905   1.680   2.598   5.221  0.0497  0.2405  0.3659
 3149SOL    HW120906   1.710   2.680   5.260  1.5811  0.5699 -1.5435
 3149SOL    HW220907   1.650   2.540   5.291 -0.8750  0.4538  0.1463
 3150SOL     OW20908   1.543   3.086   1.356  0.4669  0.3846 -0.1122
 3150SOL    HW120909   1.506   3.020   1.415 -1.4437  1.6771  0.1398
 3150SOL    HW220910   1.631   3.083   1.392  1.2978 -0.0196 -2.1765
 3151SOL     OW20911   0.849   2.721  14.132  0.3210 -0.7004  0.1457
 3151SOL    HW120912   0.757   2.746  14.122  0.3917 -0.1198  0.9632
 3151SOL    HW220913   0.895   2.805  14.130 -0.1579 -0.4476 -0.4366
 3152SOL     OW20914   4.490   2.993   6.092  0.4359 -0.4453 -0.0146
 3152SOL    HW120915   4.501   2.993   5.997 -1.9905 -0.9043 -0.2975
 3152SOL    HW220916   4.521   2.903   6.104  1.1414 -0.4503 -1.8073
 3153SOL     OW20917   4.424   2.737   7.646  0.0828 -0.3877 -0.1146
 3153SOL    HW120918   4.413   2.675   7.717  0.7023 -0.5948 -0.1994
 3153SOL    HW220919   4.498   2.694   7.601  0.5221 -0.4356  0.6521
 3154SOL     OW20920   0.764   3.728   6.803  0.7766 -0.9164 -0.1205
 3154SOL    HW120921   0.838   3.693   6.851  2.0082  2.0144  0.1156
 3154SOL    HW220922   0.802   3.760   6.721  0.1189  1.5736  0.5207
 3155SOL     OW20923   2.251   2.266   4.880  0.4829 -0.2153  0.2471
 3155SOL    HW120924   2.334   2.240   4.920  0.3966 -3.3238 -1.6101
 3155SOL    HW220925   2.247   2.362   4.874 -2.5513 -0.2979  0.9625
 3156SOL     OW20926   2.097   3.687  12.085  0.5650  0.1370 -0.2958
 3156SOL    HW120927   2.030   3.641  12.035  0.4386  0.5783 -0.5333
 3156SOL    HW220928   2.089   3.777  12.054  0.2312 -0.2251 -1.2393
 3157SOL     OW20929   3.229   4.342  16.984  0.0724 -0.0246  0.0421
 3157SOL    HW120930   3.313   4.385  16.999  0.0164  0.7423 -1.9691
 3157SOL    HW220931   3.176   4.416  16.956 -0.2529 -0.3611 -0.2204
 3158SOL     OW20932   4.150   2.335   2.575  0.4386  0.5301  0.4380
 3158SOL    HW120933   4.181   2.275   2.643  1.8153  1.7896  0.9418
 3158SOL    HW220934   4.135   2.415   2.627  0.8801 -1.0452  2.9945
 3159SOL     OW20935   3.195   3.519  11.311  0.2682 -0.8476  0.3991
 3159SOL    HW120936   3.188   3.577  11.387 -0.7453 -1.6019  0.8798
 3159SOL    HW220937   3.283   3.544  11.283  0.6096 -1.5586  0.8333
 3160SOL     OW20938   3.377   0.236  15.209 -0.5789  0.2036  0.3229
 3160SOL    HW120939   3.405   0.180  15.281  2.8333  0.4975 -0.7622
 3160SOL    HW220940   3.457   0.257  15.159 -1.9733  2.1284 -1.0835
 3161SOL     OW20941   3.959   2.233  17.317 -0.0883  0.0231  0.4005
 3161SOL    HW120942   3.912   2.309  17.281  1.5024  0.5980 -0.4478
 3161SOL    HW220943   4.009   2.270  17.390  3.1284 -0.6267 -1.4834
 3162SOL     OW20944   1.588   2.439   4.541  0.3120  0.7464  0.2002
 3162SOL    HW120945   1.660   2.375   4.542  0.2173  0.6366  0.0600
 3162SOL    HW220946   1.633   2.523   4.544  1.4887  0.0970  0.8604
 3163SOL     OW20947   4.615   4.469   6.040  0.2662 -0.6973  0.2257
 3163SOL    HW120948   4.560   4.484   5.963 -3.1567 -0.1026  2.7873
 3163SOL    HW220949   4.573   4.527   6.104  1.8997  1.4132 -0.6338
 3164SOL     OW20950   0.960   0.296  11.113 -0.6128  0.4440  0.1113
 3164SOL    HW120951   1.010   0.313  11.033  0.6985  0.8023  0.9987
 3164SOL    HW220952   1.035   0.280  11.170 -1.0080  2.4936  1.1977
 3165SOL     OW20953   3.827   1.509   6.084 -0.0450  0.1689  0.1337
 3165SOL    HW120954   3.898   1.468   6.134 -0.4075  1.3058  1.5831
 3165SOL    HW220955   3.828   1.469   5.997 -1.1336 -0.4315  0.3997
 3166SOL     OW20956   1.894   2.863   9.184  0.8505  0.9143  0.4432
 3166SOL    HW120957   1.886   2.955   9.209 -0.0109  0.7335  0.8271
 3166SOL    HW220958   1.893   2.818   9.268  0.6496  2.2542  1.1585
 3167SOL     OW20959   3.921   0.179  15.685  0.0243 -0.1973  0.4738
 3167SOL    HW120960   3.892   0.201  15.596  1.2646  1.4771  0.4816
 3167SOL    HW220961   3.995   0.238  15.701 -0.2599  0.8270 -1.9715
 3168SOL     OW20962   3.171   4.114  11.630  0.3239  0.2060  0.4162
 3168SOL    HW120963   3.118   4.091  11.707  0.6999 -1.3205  0.2140
 3168SOL    HW220964   3.203   4.030  11.598 -2.0428 -0.1329 -1.0970
 3169SOL     OW20965   3.563   4.669  16.063  0.3591  0.0383 -0.3982
 3169SOL    HW120966   3.531   0.032  16.030  0.5580  0.2464 -0.0616
 3169SOL    HW220967   3.486   4.652  16.118  0.1537  0.0114 -0.6899
 3170SOL     OW20968   2.365   0.195   3.969  0.2436  0.2011  0.3223
 3170SOL    HW120969   2.280   0.181   3.929 -0.8519  1.5527  2.1878
 3170SOL    HW220970   2.361   0.137   4.046 -0.7978 -0.3856 -0.1696
 3171SOL     OW20971   3.454   3.759  12.492 -0.0839  0.1258  0.0638
 3171SOL    HW120972   3.477   3.764  12.585  0.1269 -1.8846  0.1188
 3171SOL    HW220973   3.372   3.807  12.502 -1.1729 -1.3061 -2.0565
 3172SOL     OW20974   0.767   4.675   3.887  0.0313 -0.7160  0.6107
 3172SOL    HW120975   0.804   4.655   3.801  0.0580  1.4942  0.1119
 3172SOL    HW220976   0.830   0.020   3.915 -0.0387 -0.4575  0.1603
 3173SOL     OW20977   2.934   3.555   8.405  0.4165 -0.1140 -0.3195
 3173SOL    HW120978   2.980   3.625   8.359  1.9318 -0.5535  0.5315
 3173SOL    HW220979   2.948   3.585   8.495  0.3398 -0.1757 -0.2862
 3174SOL     OW20980   3.568   4.344   0.967  0.2226 -0.9142 -0.4386
 3174SOL    HW120981   3.498   4.363   1.029  0.7766  2.7160 -0.9101
 3174SOL    HW220982   3.581   4.435   0.942  0.9633 -0.6131  1.0517
 3175SOL     OW20983   2.583   2.004  11.789 -0.0771  0.0565 -0.2497
 3175SOL    HW120984   2.574   2.094  11.758 -0.4128 -0.7901 -2.6131
 3175SOL    HW220985   2.667   1.986  11.748 -0.7983 -0.1408 -1.6256
 3176SOL     OW20986   2.248   2.504   8.160 -0.6151 -0.2202 -0.1371
 3176SOL    HW120987   2.251   2.418   8.119  1.1203 -0.3270  0.2234
 3176SOL    HW220988   2.290   2.492   8.245 -2.7243  0.6845  1.0462
 3177SOL     OW20989   3.414   4.697   5.048  0.2394  0.2904 -0.3357
 3177SOL    HW120990   3.499   4.654   5.043  1.4666  2.6840 -0.3729
 3177SOL    HW220991   3.390   4.676   5.138 -0.7290  1.3307 -0.3507
 3178SOL     OW20992   4.689   3.333  13.216  0.1757  0.1580 -0.0810
 3178SOL    HW120993   0.012   3.409  13.253 -0.5399  0.8316 -0.6066
 3178SOL    HW220994   4.598   3.338  13.245 -0.2282 -2.8209 -0.7513
 3179SOL     OW20995   1.637   0.593  10.736  0.5743  0.5285 -0.2077
 3179SOL    HW120996   1.664   0.685  10.745  0.8921  0.4088  0.0306
 3179SOL    HW220997   1.713   0.544  10.705  1.0601  0.8565  0.4814
 3180SOL     OW20998   1.602   1.479   6.726  0.1857  0.1661 -0.2807
 3180SOL    HW120999   1.664   1.443   6.662 -1.7655 -1.2242 -1.3859
 3180SOL    HW221000   1.629   1.427   6.802  2.6331  0.9863 -0.5936
 3181SOL     OW21001   0.802   2.344  15.152 -0.4322  0.3071  0.2174
 3181SOL    HW121002   0.873   2.405  15.166 -0.3041  0.0143  0.8528
 3181SOL    HW221003   0.842   2.257  15.147  0.6842  0.9433 -1.6672
 3182SOL     OW21004   3.651   0.167  15.030  0.0548  0.0461  0.4595
 3182SOL    HW121005   3.578   0.167  14.969  0.0474 -2.2669  0.4826
 3182SOL    HW221006   3.653   0.088  15.084 -0.2133  1.1486  2.0618
 3183SOL     OW21007   3.559   0.434   1.299  0.3900 -0.4187  0.0787
 3183SOL    HW121008   3.477   0.478   1.318 -0.2105 -2.1862  1.6228
 3183SOL    HW221009   3.536   0.347   1.267 -0.7316 -0.1193  0.0745
 3184SOL     OW21010   1.699   4.676  11.133  0.7557 -0.3589 -0.6739
 3184SOL    HW121011   1.661   4.683  11.045 -0.3084  1.2217 -0.0747
 3184SOL    HW221012   1.622   4.680  11.190  0.3503 -1.7891 -1.1093
 3185SOL     OW21013   4.281   4.718  17.180 -0.2432  0.2664  0.6756
 3185SOL    HW121014   4.314   4.645  17.128  1.0874  0.4458  1.2553
 3185SOL    HW221015   4.301   4.691  17.270 -1.3999  0.5496  1.0202
 3186SOL     OW21016   1.586   3.431  17.090  0.4790 -0.4624 -0.3273
 3186SOL    HW121017   1.539   3.514  17.082  0.2963 -0.5454 -0.0956
 3186SOL    HW221018   1.612   3.435  17.182  2.2474 -0.1027 -0.8282
 3187SOL     OW21019   4.668   3.327  10.649  0.6007  0.0192 -0.0183
 3187SOL    HW121020   4.668   3.402  10.589 -0.9010  0.3537  0.3844
 3187SOL    HW221021   0.029   3.297  10.610  1.2895  1.3260  0.4249
 3188SOL     OW21022   0.831   2.779   4.134 -0.2576 -0.4548 -0.1257
 3188SOL    HW121023   0.763   2.809   4.075 -1.2995 -1.2367  0.6810
 3188SOL    HW221024   0.911   2.796   4.084  0.6381  0.5514  1.6564
 3189SOL     OW21025   4.374   3.226   8.704 -0.0382 -0.5587  0.3336
 3189SOL    HW121026   4.321   3.148   8.686 -2.0493  0.7828  0.3906
 3189SOL    HW221027   4.326   3.302   8.671 -0.3272  0.1792  2.3984
 3190SOL     OW21028   2.803   2.410  14.367  0.7885  1.2953 -0.4849
 3190SOL    HW121029   2.869   2.372  14.309 -1.2501 -3.7638  0.5161
 3190SOL    HW221030   2.724   2.373  14.328  1.7051 -0.3729 -0.7670
 3191SOL     OW21031   3.524   4.388   0.597  0.4644  0.0199  0.1639
 3191SOL    HW121032   3.475   4.315   0.636  0.6956  1.0721  2.3696
 3191SOL    HW221033   3.605   4.402   0.646  0.2943  1.2952  0.0712
 3192SOL     OW21034   4.367   2.981   8.206 -0.2734  0.5092 -0.4798
 3192SOL    HW121035   4.341   2.958   8.117  1.5791  1.4713 -1.2697
 3192SOL    HW221036   4.318   3.063   8.215  1.6220  1.4797  0.9194
 3193SOL     OW21037   4.503   3.831  15.384 -0.1643 -0.3270 -0.1214
 3193SOL    HW121038   4.530   3.851  15.473 -0.0978  0.9622 -0.4365
 3193SOL    HW221039   4.482   3.916  15.345 -2.3908 -1.1595 -0.7452
 3194SOL     OW21040   3.654   0.122  13.995 -0.1873 -0.2026  0.4044
 3194SOL    HW121041   3.596   0.177  13.942 -0.3842 -0.0330  0.7922
 3194SOL    HW221042   3.592   0.057  14.028  1.8401 -1.4850  1.7136
 3195SOL     OW21043   3.766   4.547  17.042 -0.5525  0.2066  0.0814
 3195SOL    HW121044   3.803   4.469  17.002  1.2851  0.7013  0.8207
 3195SOL    HW221045   3.839   4.575  17.097 -1.3066  2.0863  0.1058
 3196SOL     OW21046   4.335   3.180   3.617 -0.3325 -0.1764 -0.2795
 3196SOL    HW121047   4.321   3.133   3.699 -0.8571  0.0647 -0.2305
 3196SOL    HW221048   4.293   3.115   3.560 -1.6500  0.9178 -0.5661
 3197SOL     OW21049   2.821   0.069   5.246  0.2357 -0.2603  0.3917
 3197SOL    HW121050   2.829   0.127   5.170 -2.2602 -0.9959 -0.4076
 3197SOL    HW221051   2.735   0.095   5.279  0.2678 -1.8141  1.6995
 3198SOL     OW21052   3.092   2.549   6.225 -0.6205 -0.9587 -0.4164
 3198SOL    HW121053   3.025   2.487   6.253  0.5640 -2.8404 -1.6817
 3198SOL    HW221054   3.105   2.591   6.309 -2.5360  1.0735 -1.1706
 3199SOL     OW21055   4.050   3.742   7.841 -0.6693 -0.2872  0.7069
 3199SOL    HW121056   3.970   3.690   7.848 -0.1573 -0.7027  3.4242
 3199SOL    HW221057   4.119   3.677   7.835 -0.2220  0.2436  0.0987
 3200SOL     OW21058   2.491   3.148   7.250 -0.1728 -0.1182 -0.3638
 3200SOL    HW121059   2.436   3.193   7.314  0.5396  4.1998 -2.8114
 3200SOL    HW221060   2.476   3.054   7.260  0.7729 -0.4990 -2.4819
 3201SOL     OW21061   4.423   1.003  15.577  0.2694 -0.0242 -0.1142
 3201SOL    HW121062   4.332   0.978  15.586  0.3715 -0.0338  0.8883
 3201SOL    HW221063   4.415   1.094  15.548 -2.1782 -0.4405 -0.7395
 3202SOL     OW21064   2.785   1.935   5.980  0.1104  0.4854  0.0854
 3202SOL    HW121065   2.704   1.913   5.935 -0.0681  0.7924  0.2595
 3202SOL    HW221066   2.752   2.017   6.017  0.5648  1.1986 -1.0565
 3203SOL     OW21067   4.170   3.050   6.136  0.2201 -0.0023  0.1959
 3203SOL    HW121068   4.265   3.042   6.125  0.3776  0.3685  1.2960
 3203SOL    HW221069   4.164   3.125   6.195  0.8671  0.0620  0.1831
 3204SOL     OW21070   4.106   1.989   4.076  0.0790  0.4531 -0.0174
 3204SOL    HW121071   4.099   1.933   4.152 -1.7196 -0.3693 -0.7787
 3204SOL    HW221072   4.193   2.020   4.100  0.2543 -2.4954  3.0496
 3205SOL     OW21073   0.478   3.315  16.408  0.8996 -0.0295 -0.1731
 3205SOL    HW121074   0.554   3.262  16.387  0.2160 -2.3096  3.1701
 3205SOL    HW221075   0.430   3.244  16.450 -2.5932  1.4139 -1.7063
 3206SOL     OW21076   1.130   4.288   2.647 -0.2683  0.5869 -0.8123
 3206SOL    HW121077   1.142   4.365   2.702  0.0365  1.0824 -1.5662
 3206SOL    HW221078   1.207   4.238   2.672 -0.3572  0.4798 -0.7552
 3207SOL     OW21079   2.581   3.601   5.943  0.2675 -0.2487 -0.1353
 3207SOL    HW121080   2.554   3.573   5.855  2.4610  0.9698 -1.1917
 3207SOL    HW221081   2.667   3.641   5.934 -0.1626  0.7691  0.3596
 3208SOL     OW21082   4.367   4.125  12.178  0.3415  0.3140  0.5731
 3208SOL    HW121083   4.414   4.084  12.106 -0.9514 -0.2846  0.0792
 3208SOL    HW221084   4.392   4.067  12.250  4.1040 -1.1261 -1.8914
 3209SOL     OW21085   3.873   4.641   1.070 -0.4335 -0.4082 -0.0097
 3209SOL    HW121086   3.810   4.674   1.133 -1.0251  0.5266 -1.0932
 3209SOL    HW221087   3.838   4.671   0.986 -1.5434 -0.3780  0.4618
 3210SOL     OW21088   3.512   2.705  13.786 -0.3500 -0.2708  0.0084
 3210SOL    HW121089   3.521   2.649  13.863  2.4020 -0.0107 -0.1224
 3210SOL    HW221090   3.590   2.760  13.798  1.1123 -2.4463  0.4163
 3211SOL     OW21091   1.470   1.281   8.927 -0.2047  0.3685 -0.5245
 3211SOL    HW121092   1.407   1.263   8.857  2.0727 -0.3551 -2.4000
 3211SOL    HW221093   1.537   1.213   8.912 -0.0267 -0.0239  2.1172
 3212SOL     OW21094   2.321   2.654   9.230  0.0434  0.0158  0.0548
 3212SOL    HW121095   2.356   2.565   9.230  1.5361  0.5810  2.4955
 3212SOL    HW221096   2.277   2.649   9.315 -1.9486  3.2054 -0.7714
 3213SOL     OW21097   3.929   1.651  13.568  0.8691  0.4729 -0.1203
 3213SOL    HW121098   3.980   1.719  13.525  0.5320  0.5938 -0.3284
 3213SOL    HW221099   3.879   1.712  13.622  0.6287  0.9396 -0.8704
 3214SOL     OW21100   4.605   1.405   0.842 -0.4295  0.9406 -0.3262
 3214SOL    HW121101   4.515   1.437   0.832 -0.7033  1.0922  2.5650
 3214SOL    HW221102   4.658   1.464   0.790  2.5023 -1.8620 -0.5236
 3215SOL     OW21103   2.261   4.228   2.775  0.8259 -0.1571 -0.1904
 3215SOL    HW121104   2.255   4.195   2.686  2.9004  3.8669 -1.7946
 3215SOL    HW221105   2.217   4.313   2.770  2.0515  0.3829 -1.8390
 3216SOL     OW21106   2.347   4.552   0.909  0.2925 -0.2599  0.1452
 3216SOL    HW121107   2.296   4.630   0.883  1.2018  0.8202  1.6015
 3216SOL    HW221108   2.332   4.555   1.003  0.3563  0.8578  0.1252
 3217SOL     OW21109   3.901   0.961   6.417  0.1003 -0.3817 -0.1090
 3217SOL    HW121110   3.819   0.924   6.384  0.3388  0.3648 -1.5475
 3217SOL    HW221111   3.877   1.052   6.433 -2.9164 -1.1007 -0.5999
 3218SOL     OW21112   3.478   0.492   7.148  0.2456  0.4425  0.0280
 3218SOL    HW121113   3.438   0.578   7.158 -0.8871  0.0362 -1.0195
 3218SOL    HW221114   3.570   0.511   7.166  0.6230 -1.3433  0.0125
 3219SOL     OW21115   3.176   4.391  10.033  0.1462 -0.2991 -0.1052
 3219SOL    HW121116   3.271   4.378  10.028  0.2130  1.3794 -3.7007
 3219SOL    HW221117   3.155   4.368  10.123  1.0516  3.5260  1.0686
 3220SOL     OW21118   3.052   2.739  11.381 -0.1342  0.0017  0.9804
 3220SOL    HW121119   3.059   2.824  11.339  0.9451 -0.4717  0.2059
 3220SOL    HW221120   3.122   2.735  11.446  2.1530  1.9284 -1.3965
 3221SOL     OW21121   1.867   0.028   8.536 -0.2527  0.0107  0.1926
 3221SOL    HW121122   1.898   4.659   8.543 -0.8704 -0.2591 -0.5989
 3221SOL    HW221123   1.824   0.024   8.451 -0.3071  0.7335  0.1812
 3222SOL     OW21124   0.683   3.309   2.408  0.9097 -0.1120  0.3297
 3222SOL    HW121125   0.594   3.275   2.415  1.0677 -0.4506  0.7077
 3222SOL    HW221126   0.721   3.247   2.346  1.6371  0.2608  0.4073
 3223SOL     OW21127   4.443   0.391  13.225  0.4249 -0.2969 -0.3639
 3223SOL    HW121128   4.458   0.418  13.316  0.0904  0.4117 -0.5155
 3223SOL    HW221129   4.483   0.304  13.225  0.3830 -0.3028 -2.9846
 3224SOL     OW21130   1.611   0.487   2.267 -0.1491 -0.0160 -0.3322
 3224SOL    HW121131   1.685   0.439   2.304 -1.0112 -1.5386 -0.5665
 3224SOL    HW221132   1.554   0.476   2.343 -0.7401  2.2445 -0.4447
 3225SOL     OW21133   1.747   4.612   0.283 -0.6026 -0.2662 -0.0835
 3225SOL    HW121134   1.777   4.689   0.332  2.1872 -0.1962 -1.8776
 3225SOL    HW221135   1.809   4.541   0.301  0.0530 -0.4602 -3.1677
 3226SOL     OW21136   0.017   3.571  13.350  0.2875  0.3094 -0.0225
 3226SOL    HW121137   0.013   3.654  13.302 -0.1568 -0.8203 -1.9527
 3226SOL    HW221138   4.656   3.574  13.399  1.1395 -0.3419  1.4258
 3227SOL     OW21139   1.604   2.899  12.700 -0.4666  0.4507  0.4437
 3227SOL    HW121140   1.601   2.885  12.605 -0.2999 -0.4717  0.5821
 3227SOL    HW221141   1.677   2.962  12.703 -2.3232  2.6280 -0.1101
 3228SOL     OW21142   0.468   0.541   5.536 -0.0639 -0.0593 -0.5639
 3228SOL    HW121143   0.419   0.568   5.614 -0.0167  0.1053 -0.5914
 3228SOL    HW221144   0.509   0.463   5.573  2.8610  1.5172 -0.5257
 3229SOL     OW21145   2.936   3.735   6.743  0.1902  0.0470  0.5853
 3229SOL    HW121146   2.979   3.758   6.825 -2.2081  1.9097  1.3087
 3229SOL    HW221147   2.890   3.815   6.719  0.5880  0.0812 -0.0507
 3230SOL     OW21148   3.549   2.773  17.408  0.3933 -0.4408 -0.2341
 3230SOL    HW121149   3.516   2.786  17.497 -2.3524  1.2752 -1.5007
 3230SOL    HW221150   3.614   2.843  17.410  1.0502 -1.1137  1.6574
 3231SOL     OW21151   3.976   3.396  14.008  0.0747  0.7335 -0.0567
 3231SOL    HW121152   4.060   3.386  13.963  0.4782  0.6210  0.7260
 3231SOL    HW221153   3.977   3.327  14.074  0.3776 -1.1036 -2.0104
 3232SOL     OW21154   4.547   1.654  10.927  0.4295  0.0629 -0.5308
 3232SOL    HW121155   4.489   1.702  10.869 -0.8120 -0.3477  0.3664
 3232SOL    HW221156   4.510   1.654  11.015  1.1767  1.2444 -0.2146
 3233SOL     OW21157   3.245   3.799  16.741 -0.0512  0.2020 -0.2489
 3233SOL    HW121158   3.337   3.779  16.723  0.2079  0.9742  0.1997
 3233SOL    HW221159   3.245   3.758  16.827  0.1788  1.6078  0.4107
 3234SOL     OW21160   1.689   1.779   5.211  0.3859 -0.6686 -0.5116
 3234SOL    HW121161   1.650   1.739   5.289  0.2621  0.6144  0.1048
 3234SOL    HW221162   1.674   1.872   5.230  0.5749 -0.6390 -0.5122
 3235SOL     OW21163   3.391   0.524  10.851 -0.5510  0.1512 -0.3925
 3235SOL    HW121164   3.369   0.439  10.813 -1.6435  0.5287 -0.5929
 3235SOL    HW221165   3.409   0.487  10.938  0.4172  1.6723  0.0514
 3236SOL     OW21166   0.163   4.405   6.296 -0.2889  0.3200 -0.5895
 3236SOL    HW121167   0.147   4.434   6.206 -0.7924 -1.3665 -1.0366
 3236SOL    HW221168   0.232   4.342   6.278  1.3565  1.7670  0.7810
 3237SOL     OW21169   3.676   4.570   3.902  0.3715  0.3944  0.3240
 3237SOL    HW121170   3.761   4.527   3.907  2.2082  3.7234 -2.0568
 3237SOL    HW221171   3.619   4.501   3.869  2.3017 -1.6486  1.2344
 3238SOL     OW21172   4.663   2.011   3.959 -0.7128  0.6978 -0.0604
 3238SOL    HW121173   4.612   2.010   3.877 -1.4981 -0.0334  0.4338
 3238SOL    HW221174   0.026   2.047   3.930  0.6546 -0.6242  2.2910
 3239SOL     OW21175   0.869   0.686   0.284 -0.2586  0.2753  0.3479
 3239SOL    HW121176   0.892   0.765   0.235 -1.2875 -0.5281 -1.4067
 3239SOL    HW221177   0.943   0.630   0.259  0.7679  1.6849  0.1886
 3240SOL     OW21178   4.595   3.238   4.204 -0.2934 -0.0704 -0.2541
 3240SOL    HW121179   4.605   3.152   4.244 -0.0009 -0.4269 -1.0998
 3240SOL    HW221180   4.665   3.230   4.140 -0.4596  1.5308 -0.6377
 3241SOL     OW21181   3.986   2.249   6.346  0.4227  0.2381 -0.2410
 3241SOL    HW121182   4.024   2.164   6.369  2.7135  0.5519 -2.9214
 3241SOL    HW221183   4.028   2.308   6.409  0.7443  1.6722 -1.8032
 3242SOL     OW21184   3.253   0.119   7.476 -0.5623  0.2402  0.1605
 3242SOL    HW121185   3.283   0.195   7.427  0.0832  0.8592  1.5100
 3242SOL    HW221186   3.230   0.168   7.555  0.2354  0.4515  0.2522
 3243SOL     OW21187   1.739   0.909   9.578  0.5743 -0.0306 -0.1761
 3243SOL    HW121188   1.649   0.907   9.546  0.3509  0.3908  0.4214
 3243SOL    HW221189   1.724   0.959   9.659  0.1456 -1.1874  0.4567
 3244SOL     OW21190   3.204   3.979  11.278 -0.3507 -0.9656  0.1294
 3244SOL    HW121191   3.113   4.006  11.286  0.3065  1.5075 -1.0201
 3244SOL    HW221192   3.222   3.960  11.371  2.7598 -0.7727 -0.4234
 3245SOL     OW21193   0.613   3.321  17.419 -0.1064 -0.0140  0.4330
 3245SOL    HW121194   0.709   3.322  17.427 -0.0547  0.6826 -0.3268
 3245SOL    HW221195   0.599   3.405  17.376 -1.1886 -0.1492  0.5141
 3246SOL     OW21196   4.622   2.602   4.428  0.3390  0.3854 -0.4125
 3246SOL    HW121197   4.636   2.646   4.344  1.2777  1.1496  0.1485
 3246SOL    HW221198   4.557   2.540   4.396 -1.1852  1.7122  0.1073
 3247SOL     OW21199   2.732   3.178   7.101 -0.4601 -0.3309  0.2022
 3247SOL    HW121200   2.685   3.107   7.057  0.3894  1.2777 -3.2446
 3247SOL    HW221201   2.665   3.215   7.159 -0.6184  0.9319 -0.7869
 3248SOL     OW21202   2.863   3.569   7.399  0.3591  0.4227  0.2334
 3248SOL    HW121203   2.865   3.574   7.303  1.2064  1.1636  0.2877
 3248SOL    HW221204   2.823   3.652   7.423 -2.2961 -0.6973 -0.3065
 3249SOL     OW21205   0.336   0.926   9.119 -0.4924  0.4415 -0.4823
 3249SOL    HW121206   0.428   0.948   9.099 -0.9243  1.2293 -1.6506
 3249SOL    HW221207   0.290   0.956   9.040 -1.6624 -0.6138 -0.1958
 3250SOL     OW21208   3.661   0.326   7.399  0.2781  0.1407  0.3506
 3250SOL    HW121209   3.584   0.293   7.353  1.3832 -1.0222 -0.6507
 3250SOL    HW221210   3.630   0.416   7.408  2.9416  0.9677  1.1391
 3251SOL     OW21211   1.100   3.260   0.856  0.4129  0.1975 -0.4995
 3251SOL    HW121212   1.085   3.283   0.948 -0.8581 -1.4755 -0.2882
 3251SOL    HW221213   1.174   3.203   0.874 -1.0637 -1.5806 -0.0714
 3252SOL     OW21214   2.589   1.048  15.803  0.0295 -0.6201  0.0606
 3252SOL    HW121215   2.498   1.059  15.831 -1.0359 -1.1607 -3.2623
 3252SOL    HW221216   2.608   1.134  15.767  1.4014 -0.4933  1.1049
 3253SOL     OW21217   0.912   1.336   9.056 -0.1475 -0.8207  0.2602
 3253SOL    HW121218   0.942   1.335   9.147  3.5074  1.7916 -0.9084
 3253SOL    HW221219   0.837   1.393   9.066  0.2339 -0.0688 -1.3187
 3254SOL     OW21220   0.753   0.803   5.777  0.0456  0.3287 -0.3769
 3254SOL    HW121221   0.818   0.758   5.723 -0.0964 -0.4417  0.0932
 3254SOL    HW221222   0.694   0.732   5.803  0.4048  1.2616  2.9497
 3255SOL     OW21223   0.096   4.659   0.552 -0.2564  0.0014  0.9782
 3255SOL    HW121224   0.149   0.012   0.525 -0.0010 -0.7913 -0.6398
 3255SOL    HW221225   0.162   4.590   0.541  1.1208  1.6619 -0.9682
 3256SOL     OW21226   1.616   2.620   2.009 -0.6111  0.2169 -0.0804
 3256SOL    HW121227   1.598   2.557   1.939 -2.0165  2.1127 -1.4538
 3256SOL    HW221228   1.704   2.657   1.994 -0.5023 -0.9487 -2.3619
 3257SOL     OW21229   1.147   2.131   5.980  0.2584 -0.1808 -0.0961
 3257SOL    HW121230   1.143   2.118   6.075 -1.3941  0.1874 -0.1252
 3257SOL    HW221231   1.058   2.108   5.953  0.2891 -0.6679  0.2161
 3258SOL     OW21232   3.568   4.337   9.263  0.1126  0.0987 -0.0232
 3258SOL    HW121233   3.519   4.305   9.187  2.0307 -1.0092 -0.7911
 3258SOL    HW221234   3.618   4.415   9.239 -1.3311  0.6606 -1.2640
 3259SOL     OW21235   0.311   2.138   6.917 -0.2329 -0.2468  0.2354
 3259SOL    HW121236   0.266   2.085   6.983  1.1091 -0.2008  1.1962
 3259SOL    HW221237   0.246   2.154   6.849  0.8995 -0.1554 -0.8267
 3260SOL     OW21238   3.016   0.162   5.665  0.1892  0.1116  0.5146
 3260SOL    HW121239   3.022   0.204   5.578  2.3156 -0.1616  0.5225
 3260SOL    HW221240   3.071   0.083   5.662  2.7343  1.8548  1.1107
 3261SOL     OW21241   0.711   3.529  11.415  0.4756  0.2011 -0.0872
 3261SOL    HW121242   0.686   3.449  11.369  2.7488  1.3885 -3.4031
 3261SOL    HW221243   0.627   3.572  11.432 -0.5715 -2.4056  1.3129
 3262SOL     OW21244   0.684   2.671  17.062  0.1747  0.1502 -1.1475
 3262SOL    HW121245   0.637   2.740  17.016 -0.3540 -0.2566 -1.2182
 3262SOL    HW221246   0.680   2.712  17.148  0.3061 -2.6635  0.2132
 3263SOL     OW21247   0.149   0.202   1.143  0.2708 -0.0750  0.3773
 3263SOL    HW121248   0.207   0.261   1.190 -0.0541  1.1088 -0.7101
 3263SOL    HW221249   0.144   0.251   1.061  0.5146 -0.2003  0.2852
 3264SOL     OW21250   3.452   1.229  12.217  0.3483 -0.3671  0.1922
 3264SOL    HW121251   3.427   1.219  12.125 -1.4021  2.7831  0.3189
 3264SOL    HW221252   3.546   1.247  12.223  0.1574  1.2785 -1.5836
 3265SOL     OW21253   3.678   4.627   4.552 -0.4181 -0.9852 -0.1553
 3265SOL    HW121254   3.692   4.544   4.597 -0.4500  0.6565  2.8900
 3265SOL    HW221255   3.616   4.657   4.619  2.5720  1.3305  1.5897
 3266SOL     OW21256   4.524   3.048   3.252  0.1301  0.0292 -0.1178
 3266SOL    HW121257   4.459   3.011   3.311 -0.1505  0.3720 -0.2078
 3266SOL    HW221258   4.467   3.044   3.175  0.4115  1.8027 -0.4153
 3267SOL     OW21259   1.715   0.757   1.932 -0.3388  0.6715 -0.2625
 3267SOL    HW121260   1.625   0.774   1.903 -0.3899  2.4170  0.8931
 3267SOL    HW221261   1.687   0.713   2.013  0.6993  0.1477 -0.1915
 3268SOL     OW21262   1.302   0.418   6.860  0.1267 -0.1005 -0.2003
 3268SOL    HW121263   1.292   0.490   6.799  2.4586  1.0040  0.7159
 3268SOL    HW221264   1.264   0.339   6.822 -1.2005 -0.1985  1.3188
 3269SOL     OW21265   1.583   3.902   4.819 -0.3596 -0.3243  0.3511
 3269SOL    HW121266   1.542   3.986   4.798  0.6560  0.3819  1.2354
 3269SOL    HW221267   1.643   3.941   4.882 -1.1991  3.0254 -0.9397
 3270SOL     OW21268   2.819   1.351   4.148 -0.6670 -0.0411  0.5135
 3270SOL    HW121269   2.773   1.414   4.204 -0.5239  2.8338 -2.5599
 3270SOL    HW221270   2.875   1.317   4.218  0.4184  1.9016  0.6184
 3271SOL     OW21271   2.837   2.580  12.453 -0.1871 -0.1644 -0.7845
 3271SOL    HW121272   2.834   2.488  12.427 -0.0715  0.0939 -1.7127
 3271SOL    HW221273   2.788   2.573  12.535  0.3131  1.2154 -0.3704
 3272SOL     OW21274   4.645   3.001   8.124  0.5623  0.0523 -0.5395
 3272SOL    HW121275   4.582   3.001   8.195 -0.3476  1.4004 -1.3445
 3272SOL    HW221276   4.707   2.936   8.157  0.3601  0.8286  1.3626
 3273SOL     OW21277   0.334   1.146   4.089  0.2194  0.0928  0.1425
 3273SOL    HW121278   0.387   1.068   4.103  0.2225 -0.0005 -0.3709
 3273SOL    HW221279   0.358   1.168   3.999  1.3599 -1.3963  0.0769
 3274SOL     OW21280   1.414   2.416   4.334 -0.1670 -0.1827  0.0207
 3274SOL    HW121281   1.357   2.483   4.370  1.9374  1.1332  0.9044
 3274SOL    HW221282   1.487   2.420   4.396  0.4935  0.7590 -0.8253
 3275SOL     OW21283   4.550   0.308   9.531  0.0789  0.5417 -0.0950
 3275SOL    HW121284   4.640   0.297   9.499 -0.3664 -0.5100 -1.0311
 3275SOL    HW221285   4.555   0.267   9.617  1.0136 -1.4098 -1.0690
 3276SOL     OW21286   1.119   3.816   8.403  0.2732 -0.0349 -0.0375
 3276SOL    HW121287   1.210   3.822   8.433  0.9428  0.5018 -2.2304
 3276SOL    HW221288   1.128   3.735   8.352 -0.6217  0.8310 -1.5513
 3277SOL     OW21289   1.215   0.856   4.481  0.0101  0.2641  0.3750
 3277SOL    HW121290   1.157   0.926   4.511 -0.5323  1.4617 -3.4513
 3277SOL    HW221291   1.301   0.897   4.486 -0.1066  0.4791  0.6534
 3278SOL     OW21292   0.257   0.695   3.782  0.2166 -0.6203  0.2339
 3278SOL    HW121293   0.190   0.677   3.716  0.1129 -0.9614  0.4329
 3278SOL    HW221294   0.196   0.705   3.855 -1.7500 -1.0529 -1.3425
 3279SOL     OW21295   0.406   2.631   6.161 -0.0109  0.1866  0.3196
 3279SOL    HW121296   0.379   2.627   6.252  0.4220  0.8705  0.4791
 3279SOL    HW221297   0.499   2.646   6.172  0.2920 -1.7254  0.3648
 3280SOL     OW21298   1.748   1.521  11.634 -0.2603  0.5687 -0.5417
 3280SOL    HW121299   1.769   1.599  11.686 -0.1304  0.0482  0.1741
 3280SOL    HW221300   1.656   1.536  11.611 -0.8733 -1.0247  0.8713
 3281SOL     OW21301   2.420   3.199   6.826  0.3849 -0.1256 -0.2094
 3281SOL    HW121302   2.409   3.259   6.900 -0.5164  2.6210 -2.5492
 3281SOL    HW221303   2.333   3.201   6.786  0.0197 -1.4817  0.5270
 3282SOL     OW21304   3.405   0.383  14.050 -0.1105  0.1781 -0.4937
 3282SOL    HW121305   3.347   0.382  13.974 -0.5637  2.7058 -0.1998
 3282SOL    HW221306   3.341   0.404  14.118 -0.0088  2.4816 -1.1004
 3283SOL     OW21307   0.693   3.917   3.180  0.1574  0.1500 -0.2534
 3283SOL    HW121308   0.737   3.848   3.130  1.4767  1.0778 -0.3519
 3283SOL    HW221309   0.714   3.883   3.267 -0.6681  0.2802 -0.0061
 3284SOL     OW21310   2.120   2.996   0.388  0.3185 -1.1340 -0.4332
 3284SOL    HW121311   2.199   2.982   0.335  0.2191 -0.0818 -0.8508
 3284SOL    HW221312   2.161   3.058   0.448 -1.0901 -0.3579 -0.2775
 3285SOL     OW21313   4.328   1.533   9.009 -0.4137 -0.5623  1.0285
 3285SOL    HW121314   4.250   1.489   8.974 -0.4902  0.7239 -0.4232
 3285SOL    HW221315   4.390   1.503   8.942 -0.1052  0.6584  0.7625
 3286SOL     OW21316   3.162   1.278   3.813  0.0148  0.0981  0.0014
 3286SOL    HW121317   3.122   1.313   3.734  0.7143 -0.2609 -0.5156
 3286SOL    HW221318   3.091   1.294   3.875 -1.0342 -1.1472 -0.8987
 3287SOL     OW21319   3.459   4.662  12.551  0.2043 -0.0306 -0.1261
 3287SOL    HW121320   3.445   4.707  12.468 -0.4176  1.5952  0.8725
 3287SOL    HW221321   3.371   4.633  12.578  1.1096 -0.9118  1.9404
 3288SOL     OW21322   3.595   0.039   8.521  0.1695 -0.1518  0.3604
 3288SOL    HW121323   3.661   0.080   8.466 -1.2800  1.8921  0.1510
 3288SOL    HW221324   3.565   4.697   8.455  0.8298 -2.1189  1.9542
 3289SOL     OW21325   3.999   0.002   1.775  0.3477  0.2814  0.2059
 3289SOL    HW121326   3.958   4.676   1.702 -0.2686 -1.3837  1.6047
 3289SOL    HW221327   3.978   0.092   1.752 -0.5390 -0.4415 -1.8148
 3290SOL     OW21328   0.479   3.897  14.585 -0.5420 -0.0218 -0.3484
 3290SOL    HW121329   0.397   3.900  14.634 -0.8882 -0.3611 -0.9073
 3290SOL    HW221330   0.534   3.850  14.646 -1.2246 -1.1360 -0.5911
 3291SOL     OW21331   3.457   3.875   0.156 -0.4769  0.2810 -0.5325
 3291SOL    HW121332   3.390   3.812   0.128 -0.2319 -1.0818  1.9522
 3291SOL    HW221333   3.537   3.837   0.120  0.6146  2.0141  0.1077
 3292SOL     OW21334   2.570   2.000   7.740 -0.1614 -0.3805  0.4815
 3292SOL    HW121335   2.529   1.922   7.703 -3.4048  1.5078  0.0850
 3292SOL    HW221336   2.570   2.060   7.665  1.0287 -0.1198  0.6909
 3293SOL     OW21337   3.184   2.220   5.359  0.4151  0.1678 -0.2339
 3293SOL    HW121338   3.172   2.173   5.442 -0.6285  1.6607  0.4651
 3293SOL    HW221339   3.265   2.270   5.370  0.5513 -0.2055  0.4722
 3294SOL     OW21340   3.982   1.111   0.968  0.0546  0.0456 -0.6433
 3294SOL    HW121341   3.893   1.128   0.937  0.4227  0.3254 -1.5416
 3294SOL    HW221342   4.009   1.193   1.008 -0.2835  0.4858 -1.3015
 3295SOL     OW21343   3.311   0.003   7.744 -0.1427 -0.2209  0.6010
 3295SOL    HW121344   3.215   0.000   7.751 -0.1173 -3.9087 -0.4494
 3295SOL    HW221345   3.331   4.671   7.667  0.8897  1.5243 -0.3090
 3296SOL     OW21346   3.161   2.352   4.649  0.3899  0.3557  0.5872
 3296SOL    HW121347   3.236   2.314   4.693  1.2468  3.8088  2.1462
 3296SOL    HW221348   3.083   2.331   4.701 -0.7970  1.5979 -0.6619
 3297SOL     OW21349   1.907   1.912   1.644 -0.1149  0.1892  0.2024
 3297SOL    HW121350   1.814   1.928   1.624  0.3707  0.0114 -2.3048
 3297SOL    HW221351   1.926   1.951   1.729  1.3963 -4.2492  1.9102
 3298SOL     OW21352   0.311   3.097   6.577  0.4424  0.0886 -1.1364
 3298SOL    HW121353   0.398   3.137   6.576  0.2391  0.5054 -2.0116
 3298SOL    HW221354   0.313   3.040   6.500  1.5075 -0.3491 -0.7893
 3299SOL     OW21355   4.012   1.115   5.883 -0.0025 -0.1260 -0.7058
 3299SOL    HW121356   4.071   1.161   5.943  2.4128 -1.9284 -1.7073
 3299SOL    HW221357   3.935   1.101   5.938  0.7727 -2.1646 -0.1566
 3300SOL     OW21358   3.230   1.369  12.278  0.5067  1.1251 -0.2937
 3300SOL    HW121359   3.184   1.325  12.206 -3.1201  2.2704  1.3052
 3300SOL    HW221360   3.321   1.341  12.269  0.7016  0.7429  2.7723
 3301SOL     OW21361   1.195   0.423  17.140 -0.0611  0.4126 -0.0703
 3301SOL    HW121362   1.207   0.492  17.205  0.7489 -0.3297  0.5547
 3301SOL    HW221363   1.119   0.450  17.089 -0.5789 -2.1460 -0.6640
 3302SOL     OW21364   3.809   2.191   3.177 -0.2460 -0.2572  0.1365
 3302SOL    HW121365   3.848   2.184   3.265  0.6752 -0.2302 -0.2657
 3302SOL    HW221366   3.814   2.103   3.142  0.0837 -0.5834  0.9833
 3303SOL     OW21367   1.860   3.683   0.826 -0.9327 -0.1311  0.1480
 3303SOL    HW121368   1.808   3.757   0.793 -1.3124 -0.6400 -0.3901
 3303SOL    HW221369   1.814   3.612   0.782  0.2244  0.0237 -1.3326
 3304SOL     OW21370   4.004   1.007   3.103  0.3909 -0.1573  0.2054
 3304SOL    HW121371   4.089   1.006   3.058  0.8475  1.8877  1.0131
 3304SOL    HW221372   3.969   0.919   3.095  2.5194 -1.1584  1.8824
 3305SOL     OW21373   2.900   2.243   3.039  0.4611 -0.2518  0.8099
 3305SOL    HW121374   2.807   2.267   3.033  0.5044 -0.2373  0.2176
 3305SOL    HW221375   2.923   2.217   2.950 -0.6647  0.3319  0.3411
 3306SOL     OW21376   0.338   0.771   4.485 -0.3728 -0.4572 -0.6842
 3306SOL    HW121377   0.392   0.766   4.406 -1.4931  1.1168 -1.5347
 3306SOL    HW221378   0.276   0.699   4.475 -1.0899  0.1703 -0.7029
 3307SOL     OW21379   2.176   2.869  12.075  0.1687 -0.1302  0.5643
 3307SOL    HW121380   2.183   2.824  12.159  0.2155 -1.5560 -0.1969
 3307SOL    HW221381   2.204   2.796  12.019 -0.1657  0.2217 -0.0633
 3308SOL     OW21382   2.298   4.549   8.764 -0.4778 -0.3894 -0.0694
 3308SOL    HW121383   2.257   4.495   8.696 -0.8112  0.1037 -0.2588
 3308SOL    HW221384   2.360   4.487   8.802 -0.7624 -1.0971 -0.7512
 3309SOL     OW21385   3.918   2.088   9.562 -0.3504 -0.0499 -0.1681
 3309SOL    HW121386   3.889   2.171   9.525  0.2519  0.2712  0.0649
 3309SOL    HW221387   3.905   2.028   9.489 -2.1803 -0.1620  0.2555
 3310SOL     OW21388   4.281   4.320   6.178 -0.1321 -0.4762 -0.5222
 3310SOL    HW121389   4.309   4.410   6.197  0.0189 -0.2842 -1.6443
 3310SOL    HW221390   4.351   4.270   6.221 -1.1754 -0.8889  0.6916
 3311SOL     OW21391   3.318   0.197  11.451  0.8329  0.0797  0.0843
 3311SOL    HW121392   3.308   0.232  11.363 -0.2620 -0.6710 -0.0829
 3311SOL    HW221393   3.229   0.169  11.470  0.8891  0.2114  0.5537
 3312SOL     OW21394   4.009   2.942  11.293  0.3806 -0.1438 -0.2983
 3312SOL    HW121395   4.093   2.944  11.247  1.3213 -0.3439  1.3710
 3312SOL    HW221396   4.040   2.898  11.373  0.6729  0.9043  0.1659
 3313SOL     OW21397   4.078   3.994   4.677  0.3480  0.1427  0.7141
 3313SOL    HW121398   4.114   3.959   4.595 -0.7677 -0.1510  0.3552
 3313SOL    HW221399   4.144   3.974   4.744  1.3642 -1.5094 -0.7712
 3314SOL     OW21400   1.190   2.546   8.025 -0.3695 -0.2681 -0.7580
 3314SOL    HW121401   1.156   2.478   7.967  2.7805 -0.9874 -1.7485
 3314SOL    HW221402   1.116   2.579   8.077  1.0407  0.8130  0.5400
 3315SOL     OW21403   2.747   3.785  15.856  0.4779 -0.1720 -0.1180
 3315SOL    HW121404   2.820   3.733  15.823  0.6114 -0.7891  1.1318
 3315SOL    HW221405   2.681   3.716  15.859 -1.0145  1.3315  2.2800
 3316SOL     OW21406   1.733   2.268   4.171 -0.0543  0.2501 -0.4055
 3316SOL    HW121407   1.758   2.292   4.260 -0.1685  2.5925 -1.0031
 3316SOL    HW221408   1.711   2.175   4.178  1.9119  0.0488  3.0143
 3317SOL     OW21409   2.421   3.912  11.951  0.5744  0.0927 -0.1567
 3317SOL    HW121410   2.326   3.911  11.936  0.8605 -0.6659 -1.7915
 3317SOL    HW221411   2.431   3.988  12.009  3.0414 -1.6732  1.7152
 3318SOL     OW21412   2.516   0.818   1.564  0.0850 -0.0356 -0.5274
 3318SOL    HW121413   2.520   0.783   1.654 -0.1058 -1.7463 -1.1789
 3318SOL    HW221414   2.609   0.840   1.560 -0.0974  0.8953  0.5306
 3319SOL     OW21415   3.646   1.782   9.496 -0.0528  0.2198  0.2725
 3319SOL    HW121416   3.701   1.859   9.489 -1.8930  1.2599 -2.6504
 3319SOL    HW221417   3.594   1.812   9.570 -4.8560 -3.7565 -1.4520
 3320SOL     OW21418   2.840   0.367  11.723 -0.1788 -0.0141  0.5308
 3320SOL    HW121419   2.916   0.320  11.690 -1.0834 -0.5163 -0.8559
 3320SOL    HW221420   2.858   0.373  11.817 -3.3705 -2.6336  1.3511
 3321SOL     OW21421   0.532   3.786  16.849 -0.2144 -0.6361  0.0692
 3321SOL    HW121422   0.599   3.735  16.895  2.2067  1.4626 -1.1512
 3321SOL    HW221423   0.569   3.874  16.849 -1.5098 -0.0936 -1.9021
 3322SOL     OW21424   0.831   1.053  15.206 -0.0725  0.4689 -0.0967
 3322SOL    HW121425   0.909   1.107  15.191  0.4176 -0.1701  0.1271
 3322SOL    HW221426   0.809   1.050  15.113  1.3000 -1.9510 -0.3330
 3323SOL     OW21427   4.108   3.269   8.021  0.9207 -0.0231 -0.6094
 3323SOL    HW121428   4.194   3.241   7.988 -0.1509 -2.8790 -1.0129
 3323SOL    HW221429   4.130   3.259   8.113 -1.9063 -2.6417 -0.2239
 3324SOL     OW21430   2.552   2.733   5.847 -0.3968  0.4845  0.2691
 3324SOL    HW121431   2.609   2.773   5.913  0.8212 -0.7378 -0.0374
 3324SOL    HW221432   2.500   2.682   5.910 -3.4427  2.0794 -0.9556
 3325SOL     OW21433   4.564   0.371   5.882 -0.1178  0.4367 -0.0627
 3325SOL    HW121434   4.471   0.360   5.861 -0.0709  0.8444 -0.4587
 3325SOL    HW221435   4.561   0.437   5.951  1.0274 -0.2943  0.6854
 3326SOL     OW21436   2.927   1.039   1.706  0.1078 -0.5808  0.3365
 3326SOL    HW121437   2.941   1.116   1.762 -0.5102 -0.0408 -0.2569
 3326SOL    HW221438   3.000   1.049   1.645 -0.4017 -5.5655 -1.1130
 3327SOL     OW21439   3.653   4.241   5.569 -0.4860  0.6171 -0.4983
 3327SOL    HW121440   3.658   4.163   5.625 -0.7991  1.8458  1.2513
 3327SOL    HW221441   3.559   4.235   5.549 -0.4376 -0.3919 -0.4414
 3328SOL     OW21442   0.091   4.568   4.772  0.0139  0.1546  0.5166
 3328SOL    HW121443   0.097   4.573   4.677  0.9827  1.1633  0.6395
 3328SOL    HW221444   0.101   4.662   4.784  2.2700  0.3611 -3.0702
 3329SOL     OW21445   4.337   1.698  12.416 -0.5645  0.7990 -0.0195
 3329SOL    HW121446   4.401   1.627  12.420  0.7143  2.0456  1.6473
 3329SOL    HW221447   4.261   1.643  12.437 -0.5358  0.3216 -1.1569
 3330SOL     OW21448   1.552   1.826   6.904  0.6616  0.4649  0.3516
 3330SOL    HW121449   1.536   1.863   6.991  0.2270 -0.8589  0.8302
 3330SOL    HW221450   1.521   1.738   6.923  0.4591  0.2971 -0.7773
 3331SOL     OW21451   4.699   2.809   9.128  0.3719  0.1404  0.5307
 3331SOL    HW121452   0.034   2.884   9.110  1.5298 -0.1816  2.7943
 3331SOL    HW221453   0.051   2.748   9.133 -0.3137 -0.7370 -0.1293
 3332SOL     OW21454   2.217   2.877   1.681 -0.1855  0.2671 -0.4841
 3332SOL    HW121455   2.291   2.857   1.738 -0.6088 -0.7284 -0.2815
 3332SOL    HW221456   2.236   2.965   1.650 -1.4600  0.7736  0.1482
 3333SOL     OW21457   2.619   0.917   3.418  0.0049  0.1397 -0.5773
 3333SOL    HW121458   2.617   0.900   3.324 -1.4542 -0.6935 -0.3813
 3333SOL    HW221459   2.695   0.867   3.449 -0.2394  0.9324  1.3332
 3334SOL     OW21460   2.256   2.700   2.923  0.0697  0.0153 -0.1313
 3334SOL    HW121461   2.347   2.674   2.934 -0.0202 -0.0221  0.5302
 3334SOL    HW221462   2.227   2.647   2.848 -1.7349 -0.3292  0.8022
 3335SOL     OW21463   2.096   2.482   1.643 -0.1942 -0.0307 -0.2836
 3335SOL    HW121464   2.183   2.485   1.603 -0.0632  1.8962  0.1424
 3335SOL    HW221465   2.059   2.405   1.599 -2.1606 -0.0491  1.4560
 3336SOL     OW21466   3.833   4.150  10.910  0.5251 -0.4994 -0.7214
 3336SOL    HW121467   3.814   4.229  10.860 -1.6730  0.8656  2.3144
 3336SOL    HW221468   3.833   4.176  11.002  0.0908 -1.2095 -0.5251
 3337SOL     OW21469   0.108   4.197   5.734  0.3957 -0.1380  0.3439
 3337SOL    HW121470   0.015   4.206   5.758  0.7034  3.4208  0.1807
 3337SOL    HW221471   0.117   4.113   5.779 -1.8592 -0.3536  0.4010
 3338SOL     OW21472   3.350   1.171   8.135 -0.3002  0.6690  0.4934
 3338SOL    HW121473   3.360   1.245   8.075  1.0985 -1.1580 -1.5141
 3338SOL    HW221474   3.378   1.206   8.220  1.3516  0.6649 -0.0434
 3339SOL     OW21475   1.055   2.999   7.981 -0.1682 -0.0582  0.2988
 3339SOL    HW121476   1.046   2.960   8.067 -0.3770  0.2947  0.4358
 3339SOL    HW221477   0.964   3.024   7.967 -0.5402 -1.6277 -0.1102
 3340SOL     OW21478   0.940   2.811   4.690  0.1005 -0.6568  0.3734
 3340SOL    HW121479   0.995   2.844   4.620 -1.9390 -0.3926 -1.1077
 3340SOL    HW221480   0.978   2.723   4.698 -0.5169 -0.9053  0.5701
 3341SOL     OW21481   2.220   0.537   5.549 -0.0701 -0.1526 -0.0673
 3341SOL    HW121482   2.162   0.473   5.508  0.6883 -0.8389 -0.0831
 3341SOL    HW221483   2.301   0.485   5.549 -0.2350 -0.4146  0.8197
 3342SOL     OW21484   0.049   0.553   9.479  0.1121 -0.0519 -0.0895
 3342SOL    HW121485   0.039   0.646   9.459 -0.0838  0.0548  0.4914
 3342SOL    HW221486   0.141   0.535   9.495  0.9192  3.8214 -0.5567
 3343SOL     OW21487   4.223   2.649   7.160  0.1476 -0.3477 -0.0484
 3343SOL    HW121488   4.237   2.582   7.228 -2.3161 -0.1543  0.6372
 3343SOL    HW221489   4.153   2.702   7.198 -1.6447 -0.3954 -3.2208
 3344SOL     OW21490   0.141   0.215   8.507 -0.0024  0.0597 -0.3602
 3344SOL    HW121491   0.212   0.206   8.444  0.3672 -1.0237  0.2087
 3344SOL    HW221492   0.062   0.201   8.455 -0.2505  1.6292 -0.3970
 3345SOL     OW21493   0.946   1.813   4.766  0.1843  0.1807 -0.0700
 3345SOL    HW121494   0.993   1.794   4.847  0.0156  1.0617  0.2369
 3345SOL    HW221495   0.858   1.831   4.800 -0.6022 -0.4974 -1.7743
 3346SOL     OW21496   4.224   3.767   2.139 -0.3526  0.2402  0.0135
 3346SOL    HW121497   4.319   3.761   2.128 -0.2457  2.1245 -0.1054
 3346SOL    HW221498   4.204   3.755   2.232  0.8074  1.1625  0.3830
 3347SOL     OW21499   2.354   0.227   0.946 -0.0492  0.3324  0.9555
 3347SOL    HW121500   2.441   0.189   0.932 -1.3193 -1.8867 -0.9500
 3347SOL    HW221501   2.317   0.163   0.885  0.6166  1.4315 -0.6189
 3348SOL     OW21502   0.349   1.162  10.972 -0.0706  0.2365 -0.0949
 3348SOL    HW121503   0.420   1.154  11.037 -0.6517  0.6735  0.5922
 3348SOL    HW221504   0.281   1.190  11.033  0.8190  0.5042  0.7965
 3349SOL     OW21505   1.721   1.802   1.367 -0.3794 -0.6129  0.1293
 3349SOL    HW121506   1.665   1.858   1.313 -0.6946 -0.6038  0.4670
 3349SOL    HW221507   1.702   1.841   1.452  0.2061 -1.7818  0.7971
 3350SOL     OW21508   4.480   2.147  13.363  0.1312 -0.4519  0.1463
 3350SOL    HW121509   4.531   2.228  13.353 -0.2960 -0.4978 -2.2826
 3350SOL    HW221510   4.395   2.184  13.386  0.1919  0.0735 -0.4843
 3351SOL     OW21511   0.206   0.389   2.637 -0.5703  0.1411 -0.4377
 3351SOL    HW121512   0.220   0.300   2.670  1.2434  1.0684  1.2946
 3351SOL    HW221513   0.110   0.396   2.638 -0.6474 -0.8593 -0.7721
 3352SOL     OW21514   3.096   4.656   1.413 -0.7968  0.1335  0.3714
 3352SOL    HW121515   3.033   0.006   1.428 -0.2387  0.4208  1.4422
 3352SOL    HW221516   3.072   4.585   1.472  2.0922 -2.7476 -1.9322
 3353SOL     OW21517   4.112   2.447   5.145 -0.0689  0.3400  0.0702
 3353SOL    HW121518   4.027   2.462   5.186  0.0508 -1.9430  1.1290
 3353SOL    HW221519   4.158   2.504   5.208  0.0977 -0.8463  1.0283
 3354SOL     OW21520   1.352   0.116   6.500  0.1149 -0.5417 -0.6433
 3354SOL    HW121521   1.294   0.186   6.530  2.0208  0.9018 -0.3731
 3354SOL    HW221522   1.293   0.046   6.471 -0.1477 -0.4962 -0.2164
 3355SOL     OW21523   2.898   4.551   4.796  0.0623  0.0623 -0.1822
 3355SOL    HW121524   2.962   4.622   4.781 -0.2628  0.4148  0.1056
 3355SOL    HW221525   2.812   4.590   4.783 -0.2975 -0.8022 -0.4018
 3356SOL     OW21526   3.421   2.866   0.357 -0.0055  0.6382 -0.2230
 3356SOL    HW121527   3.438   2.950   0.314  4.6058  0.2174  0.8155
 3356SOL    HW221528   3.504   2.820   0.340 -0.0794 -0.1764  1.6619
 3357SOL     OW21529   3.169   0.043  16.664  0.1075  0.0159 -0.3883
 3357SOL    HW121530   3.107   0.082  16.725  1.8268 -1.4808  2.2691
 3357SOL    HW221531   3.194   4.684  16.710 -0.7101 -0.5346 -0.8977
 3358SOL     OW21532   0.409   4.076   5.010 -0.5302 -0.7269 -0.0972
 3358SOL    HW121533   0.398   4.141   5.079 -0.5855  2.7894 -3.4774
 3358SOL    HW221534   0.449   3.998   5.050 -2.9676 -0.8073  2.1917
 3359SOL     OW21535   3.675   1.170   0.441 -0.5356 -0.2709  0.4885
 3359SOL    HW121536   3.707   1.201   0.357 -0.5215 -1.4455  0.0627
 3359SOL    HW221537   3.669   1.255   0.485 -1.2149 -0.0870  0.0548
 3360SOL     OW21538   3.949   4.036   8.329  0.2447  0.1133 -0.1358
 3360SOL    HW121539   4.000   3.991   8.262 -1.8916 -0.8761 -1.0705
 3360SOL    HW221540   4.010   4.103   8.361  1.6383 -1.3232  0.2356
 3361SOL     OW21541   4.230   4.600   7.522  0.4730  0.1545 -0.7077
 3361SOL    HW121542   4.234   4.696   7.524 -2.5189  0.2860 -1.1148
 3361SOL    HW221543   4.137   4.583   7.533  0.5650  0.6678  0.9171
 3362SOL     OW21544   3.755   1.271  13.101 -0.4411  0.0827  0.6231
 3362SOL    HW121545   3.672   1.318  13.095 -0.2953  0.1466 -0.9160
 3362SOL    HW221546   3.748   1.203  13.034  2.4615  0.4153  0.0042
 3363SOL     OW21547   3.295   1.646   3.334  0.2216 -0.2280 -0.2988
 3363SOL    HW121548   3.336   1.561   3.348 -0.0661 -0.3962 -0.4803
 3363SOL    HW221549   3.375   1.699   3.337 -1.4413  2.0955  2.4722
 3364SOL     OW21550   2.395   4.229  12.376  1.1327 -0.0823  0.0667
 3364SOL    HW121551   2.371   4.245  12.467  2.0006 -0.0885  0.2970
 3364SOL    HW221552   2.488   4.205  12.384  1.7098  1.6999 -1.3478
 3365SOL     OW21553   2.177   3.853   5.000  0.2437  0.0627 -0.6244
 3365SOL    HW121554   2.174   3.857   4.905 -0.6640  0.6231 -0.5674
 3365SOL    HW221555   2.174   3.758   5.008 -1.1437  0.2138  0.7311
 3366SOL     OW21556   1.844   0.329  13.882  0.5396  0.1722  0.3879
 3366SOL    HW121557   1.878   0.244  13.908  1.6625 -0.4978 -3.4050
 3366SOL    HW221558   1.921   0.366  13.839  0.1066  0.1174 -0.4263
 3367SOL     OW21559   0.501   1.345   2.585 -0.4585 -0.1319  0.0038
 3367SOL    HW121560   0.466   1.434   2.578  1.5986  0.6497 -0.3880
 3367SOL    HW221561   0.531   1.326   2.496 -0.8647 -0.3874 -0.0821
 3368SOL     OW21562   1.779   3.220   2.022  0.4063 -0.4996  0.3925
 3368SOL    HW121563   1.760   3.127   2.033  0.9670 -1.0063 -2.8674
 3368SOL    HW221564   1.762   3.220   1.928  2.6368  1.2876 -0.0100
 3369SOL     OW21565   2.691   3.236   4.280 -0.3599 -0.2341 -0.4666
 3369SOL    HW121566   2.656   3.324   4.270 -3.5157 -1.7109 -2.3432
 3369SOL    HW221567   2.781   3.269   4.287 -0.5167  0.2585 -0.7498
 3370SOL     OW21568   3.417   0.210   4.875 -0.2885 -0.6124  0.4749
 3370SOL    HW121569   3.487   0.267   4.905  0.6878 -1.0159 -1.0283
 3370SOL    HW221570   3.431   0.130   4.926  0.6174 -1.2859 -0.8271
 3371SOL     OW21571   2.258   3.595  14.236 -0.4886  0.1258  0.2444
 3371SOL    HW121572   2.268   3.502  14.218 -1.3328 -0.1270  1.1082
 3371SOL    HW221573   2.267   3.585  14.331 -0.6536  1.8388  0.4381
 3372SOL     OW21574   0.347   3.949   9.117 -0.4907  0.0993 -0.5361
 3372SOL    HW121575   0.332   3.858   9.141  1.0735 -0.4957 -1.8384
 3372SOL    HW221576   0.380   3.950   9.028 -2.7247  1.4547 -1.3710
 3373SOL     OW21577   2.747   1.598   6.607 -0.9367 -0.3555 -0.2124
 3373SOL    HW121578   2.782   1.549   6.532 -2.8512 -0.9654 -0.7101
 3373SOL    HW221579   2.738   1.686   6.571 -1.3078 -0.1244  0.4354
 3374SOL     OW21580   2.451   0.502  11.260  0.5145  0.4673 -0.0820
 3374SOL    HW121581   2.418   0.416  11.287 -0.7880  0.4558 -1.7095
 3374SOL    HW221582   2.540   0.472  11.241  0.6863  0.4966  0.6705
 3375SOL     OW21583   0.574   2.324   8.364 -0.0993 -0.1697 -0.4144
 3375SOL    HW121584   0.506   2.387   8.341  0.5035 -0.0351 -1.8091
 3375SOL    HW221585   0.637   2.374   8.417 -1.6395  0.1108  1.1754
 3376SOL     OW21586   0.954   3.108   7.660  0.2505  0.4507  0.2941
 3376SOL    HW121587   0.998   3.028   7.689  0.1912  0.7317  1.1487
 3376SOL    HW221588   0.891   3.118   7.732 -1.0313 -1.0667 -0.6180
 3377SOL     OW21589   3.827   1.672   7.071 -0.1198 -0.2690 -0.2139
 3377SOL    HW121590   3.764   1.601   7.079  1.2275 -1.4222  0.2292
 3377SOL    HW221591   3.785   1.749   7.110 -2.6908 -0.6469 -2.2556
 3378SOL     OW21592   3.021   2.420   7.538  0.1560  0.1737 -0.1871
 3378SOL    HW121593   3.096   2.376   7.498  0.7848  0.7867  0.3124
 3378SOL    HW221594   3.031   2.511   7.513  0.4851  0.0847 -0.3748
 3379SOL     OW21595   2.048   4.645   6.930  0.6728 -0.2005 -0.3433
 3379SOL    HW121596   2.054   0.011   6.972  0.0466 -1.5563  2.5452
 3379SOL    HW221597   1.956   4.623   6.948  0.0194  0.9167 -2.2705
 3380SOL     OW21598   2.507   2.561   2.999 -0.2774 -0.0307 -0.0576
 3380SOL    HW121599   2.511   2.571   2.904  0.6751 -0.6455 -0.0875
 3380SOL    HW221600   2.535   2.651   3.014  0.8369 -0.1353 -1.4760
 3381SOL     OW21601   2.614   3.126   8.484  0.3135 -0.3122  0.0852
 3381SOL    HW121602   2.584   3.072   8.557 -1.1677  1.1101  0.5315
 3381SOL    HW221603   2.689   3.072   8.461  1.9970  1.4621  1.4288
 3382SOL     OW21604   3.844   0.489  14.937 -0.1355  0.1133  0.3870
 3382SOL    HW121605   3.932   0.518  14.912  0.5366 -2.5530 -0.3269
 3382SOL    HW221606   3.789   0.501  14.859  0.2248  3.4133  0.6542
 3383SOL     OW21607   2.590   2.837   4.707 -0.7161  0.2987  0.0784
 3383SOL    HW121608   2.608   2.916   4.655 -0.2879  0.0741 -0.1103
 3383SOL    HW221609   2.646   2.776   4.658  0.1442  0.8821  0.3408
 3384SOL     OW21610   3.484   2.972  16.247  0.0370  0.0366  0.4057
 3384SOL    HW121611   3.563   2.984  16.195 -0.0912  1.7778  0.6055
 3384SOL    HW221612   3.413   3.012  16.196 -0.7193  1.5397  2.6291
 3385SOL     OW21613   1.373   0.730  12.786  0.1288 -0.2051  0.1900
 3385SOL    HW121614   1.368   0.825  12.797 -2.3053 -0.3783  0.5710
 3385SOL    HW221615   1.443   0.712  12.848 -0.7575  0.0349  1.2603
 3386SOL     OW21616   3.505   3.307   7.287  0.2984 -0.1407 -0.2075
 3386SOL    HW121617   3.595   3.328   7.313 -0.5762  0.3491  2.4300
 3386SOL    HW221618   3.469   3.395   7.300  2.5343  0.3546  2.6197
 3387SOL     OW21619   4.449   0.617  15.749  0.5166 -0.6545 -0.2516
 3387SOL    HW121620   4.444   0.534  15.702 -1.9223  0.1261 -1.3490
 3387SOL    HW221621   4.371   0.656  15.709  1.8104 -0.1765 -2.3281
 3388SOL     OW21622   4.070   0.654  14.481 -0.5074  0.4081  0.0469
 3388SOL    HW121623   4.041   0.734  14.525 -2.6018 -1.0350  1.2876
 3388SOL    HW221624   4.071   0.589  14.551 -1.4414  1.6570  1.2386
 3389SOL     OW21625   0.130   0.572   6.200  0.1006  0.2080 -0.0763
 3389SOL    HW121626   0.073   0.637   6.159 -0.0098 -0.1007 -0.4117
 3389SOL    HW221627   0.136   0.596   6.293  2.5331  0.0699 -0.1980
 3390SOL     OW21628   2.099   3.402   7.237  0.3963  0.2674 -0.2430
 3390SOL    HW121629   2.004   3.400   7.230  0.3969 -0.7525  0.0598
 3390SOL    HW221630   2.114   3.308   7.242 -0.8041  0.0779 -0.2461
 3391SOL     OW21631   3.597   3.925   3.346  0.2629 -0.3779 -0.3019
 3391SOL    HW121632   3.591   3.994   3.280  3.7310  0.7746  0.5927
 3391SOL    HW221633   3.648   3.967   3.415  0.9759 -1.9485  0.1352
 3392SOL     OW21634   3.948   2.156   4.497  0.1717 -0.3882 -0.3530
 3392SOL    HW121635   3.862   2.176   4.534  0.3314 -1.5787  0.6414
 3392SOL    HW221636   3.913   2.138   4.410  1.7323 -1.3315 -0.7749
 3393SOL     OW21637   3.407   2.982   1.176 -0.3171  0.5687 -0.2953
 3393SOL    HW121638   3.363   2.897   1.181 -0.4444  0.8547  3.7137
 3393SOL    HW221639   3.489   2.955   1.136 -0.0885  0.7697  0.0290
 3394SOL     OW21640   4.379   4.216   5.348  0.1525 -0.6873  0.2710
 3394SOL    HW121641   4.442   4.146   5.368  0.9858  0.1196  0.5060
 3394SOL    HW221642   4.444   4.285   5.334 -1.4941  0.6953 -0.5358
 3395SOL     OW21643   2.820   1.889  15.099  0.1836  0.7492  0.5576
 3395SOL    HW121644   2.742   1.847  15.061  2.5950 -3.0117 -0.2043
 3395SOL    HW221645   2.811   1.982  15.076 -1.5523  0.3408 -0.4334
 3396SOL     OW21646   1.392   3.386   3.481  0.0433 -0.0225 -0.0452
 3396SOL    HW121647   1.306   3.386   3.524  0.5929 -0.5198  1.0250
 3396SOL    HW221648   1.372   3.347   3.395 -1.5932 -2.3333  1.3764
 3397SOL     OW21649   4.098   1.965   4.642 -0.4815  0.1753  0.0335
 3397SOL    HW121650   4.038   2.035   4.617  0.1956  0.2598 -1.3482
 3397SOL    HW221651   4.045   1.886   4.656  0.7984 -0.6614  0.2065
 3398SOL     OW21652   2.492   0.387   3.849 -0.1322 -0.8254 -0.3605
 3398SOL    HW121653   2.468   0.337   3.771 -1.9514  0.3703 -0.5934
 3398SOL    HW221654   2.458   0.326   3.914  0.1971 -1.2067 -0.5444
 3399SOL     OW21655   0.904   3.471  16.608 -0.2481 -0.2642 -0.0615
 3399SOL    HW121656   0.948   3.421  16.540 -1.9538 -0.2441 -1.1820
 3399SOL    HW221657   0.966   3.544  16.609  1.6341 -1.8522 -2.6325
 3400SOL     OW21658   0.100   4.446   7.089  0.3002  0.0369 -0.4329
 3400SOL    HW121659   0.166   4.382   7.066 -1.8846 -0.7914 -4.4637
 3400SOL    HW221660   0.139   4.499   7.158  1.6447 -1.4329 -0.0798
 3401SOL     OW21661   1.842   4.186   1.038 -0.2189 -0.0125  0.0594
 3401SOL    HW121662   1.909   4.192   1.107 -1.3496 -0.0642  1.1601
 3401SOL    HW221663   1.890   4.146   0.965  1.1279  0.2204  0.8100
 3402SOL     OW21664   1.171   0.906  15.042 -0.1384 -0.4194  0.6218
 3402SOL    HW121665   1.188   0.913  15.136  3.1083  1.0549 -0.0766
 3402SOL    HW221666   1.178   0.995  15.009 -0.6143 -0.9692 -0.9669
 3403SOL     OW21667   1.755   2.322   8.407 -0.1398 -0.0399 -0.3200
 3403SOL    HW121668   1.687   2.297   8.469 -0.8781 -0.7937 -1.4220
 3403SOL    HW221669   1.765   2.416   8.426  0.6263  0.1077 -1.3975
 3404SOL     OW21670   0.289   2.060   4.779 -0.4385  0.9091 -0.0542
 3404SOL    HW121671   0.278   1.967   4.796 -2.4892  1.0988 -0.2856
 3404SOL    HW221672   0.274   2.062   4.685 -2.6910 -0.6657  0.2643
 3405SOL     OW21673   3.981   1.968   8.589 -0.6257 -0.3719 -0.1061
 3405SOL    HW121674   4.076   1.965   8.603 -0.3026  2.3781 -1.7301
 3405SOL    HW221675   3.954   1.893   8.642  0.1842 -1.4611 -1.2506
 3406SOL     OW21676   3.415   3.349   2.822  0.2465  0.2033 -0.4996
 3406SOL    HW121677   3.345   3.376   2.762  0.3750 -2.4878 -1.8691
 3406SOL    HW221678   3.380   3.265   2.852 -0.5772 -0.5581 -3.5225
 3407SOL     OW21679   0.557   3.247   6.748 -0.3832  0.3638  0.4850
 3407SOL    HW121680   0.642   3.290   6.757 -0.3809  0.3204  0.6624
 3407SOL    HW221681   0.581   3.157   6.726  2.3604  1.7825 -2.3985
 3408SOL     OW21682   4.455   4.165  17.448 -0.0610 -0.8613 -0.5708
 3408SOL    HW121683   4.448   4.202  17.536  2.8532 -2.0392  0.1602
 3408SOL    HW221684   4.547   4.190  17.434 -0.2204  0.8193  1.3649
 3409SOL     OW21685   3.688   0.925  10.780  0.2251 -0.0899  0.0048
 3409SOL    HW121686   3.646   0.842  10.756  0.2095 -0.1596  0.2701
 3409SOL    HW221687   3.625   0.986  10.743 -1.1316 -0.9169  0.9650
 3410SOL     OW21688   0.678   0.313   4.358  0.1790 -0.3659 -0.0354
 3410SOL    HW121689   0.768   0.302   4.388  0.5133  0.5348 -0.7003
 3410SOL    HW221690   0.656   0.228   4.319  2.6355 -0.3910 -1.3159
 3411SOL     OW21691   2.865   0.374   1.013  0.6159  0.0888  0.1276
 3411SOL    HW121692   2.797   0.339   1.071  0.0944  1.7205  0.5150
 3411SOL    HW221693   2.884   0.287   0.978  0.8458  0.3808 -0.4681
 3412SOL     OW21694   0.791   4.656   6.033 -0.3909 -0.0380 -0.2759
 3412SOL    HW121695   0.742   4.715   6.091 -0.9676  0.7911 -1.6126
 3412SOL    HW221696   0.837   4.604   6.098  1.9959  1.3994 -0.8118
 3413SOL     OW21697   2.970   0.222   8.810  0.1856  0.3870  0.4636
 3413SOL    HW121698   3.063   0.200   8.802  0.6017  1.8454  1.2285
 3413SOL    HW221699   2.954   0.248   8.720  0.3613 -0.5715  0.1541
 3414SOL     OW21700   4.694   2.530   9.620  0.0424 -0.5114 -0.6078
 3414SOL    HW121701   4.662   2.532   9.710 -2.9370 -1.2999 -1.6764
 3414SOL    HW221702   4.644   2.602   9.581  1.1396  0.9277  0.6236
 3415SOL     OW21703   4.067   0.276   4.838 -0.2931 -0.3536  0.2709
 3415SOL    HW121704   4.036   0.363   4.814  1.5439  0.1161 -0.3816
 3415SOL    HW221705   4.146   0.269   4.784 -1.7199  0.6943 -1.9782
 3416SOL     OW21706   1.813   0.587  11.972  0.0949 -0.5405 -0.2522
 3416SOL    HW121707   1.870   0.663  11.967  1.9110 -1.8469  0.9306
 3416SOL    HW221708   1.787   0.577  11.880 -0.7521  3.0115 -0.4059
 3417SOL     OW21709   1.585   0.727  11.676  0.0064  0.2503 -0.0367
 3417SOL    HW121710   1.584   0.789  11.749  1.7359 -1.0618  1.1136
 3417SOL    HW221711   1.669   0.682  11.688  0.4937  1.1069 -0.2289
 3418SOL     OW21712   0.204   3.751   8.550  0.1415 -0.3944 -0.2983
 3418SOL    HW121713   0.192   3.753   8.646 -1.2620 -1.2383 -0.4506
 3418SOL    HW221714   0.153   3.823   8.513  0.9516 -0.4194 -1.4344
 3419SOL     OW21715   2.943   3.242   6.695  0.2378  0.1716  0.2571
 3419SOL    HW121716   2.890   3.322   6.697  1.1078  0.7491  0.4031
 3419SOL    HW221717   2.872   3.178   6.688 -0.9374  1.2851  1.9537
 3420SOL     OW21718   0.981   4.709   5.011 -0.0138 -0.3658  0.3045
 3420SOL    HW121719   0.925   0.062   4.990 -0.8494 -1.6602 -2.0452
 3420SOL    HW221720   0.954   4.701   5.103  0.2101 -1.8248  0.2542
 3421SOL     OW21721   1.114   2.664  13.390 -0.5622 -0.1015 -0.1848
 3421SOL    HW121722   1.179   2.614  13.341 -0.8079 -0.5946 -0.0100
 3421SOL    HW221723   1.156   2.750  13.392 -2.1322  0.6618 -1.0485
 3422SOL     OW21724   4.275   1.610   9.337  0.1527 -0.3436  0.1762
 3422SOL    HW121725   4.277   1.560   9.256  2.0833 -2.2685  1.4111
 3422SOL    HW221726   4.192   1.577   9.370 -0.6490 -0.4989 -2.0343
 3423SOL     OW21727   2.770   2.856   5.986 -0.0678  0.2645  0.2713
 3423SOL    HW121728   2.827   2.884   6.057  0.2628  1.3217 -0.4146
 3423SOL    HW221729   2.780   2.934   5.932  1.8105  1.7279  2.7300
 3424SOL     OW21730   0.664   1.892   4.300 -0.0461  0.3628 -0.7405
 3424SOL    HW121731   0.607   1.880   4.224 -2.0792  1.7916  0.5697
 3424SOL    HW221732   0.703   1.804   4.306  2.6018  1.6211  0.4201
 3425SOL     OW21733   0.814   0.645   8.606 -0.2232 -0.3489 -0.0517
 3425SOL    HW121734   0.808   0.730   8.563 -0.4101 -0.9423 -1.1996
 3425SOL    HW221735   0.907   0.626   8.593  0.1639  1.4208  0.0670
 3426SOL     OW21736   2.047   3.924   6.572  0.3407  0.0567  0.3840
 3426SOL    HW121737   2.135   3.933   6.606  1.7774 -2.5008 -2.6780
 3426SOL    HW221738   2.004   3.851   6.616  2.4144 -2.2043 -1.3437
 3427SOL     OW21739   2.837   2.712   5.276  0.6749  0.5130  0.2337
 3427SOL    HW121740   2.861   2.791   5.227 -3.1479  2.1415  1.0369
 3427SOL    HW221741   2.761   2.751   5.318  0.2556 -0.4762  0.4015
 3428SOL     OW21742   0.362   3.374   7.840  0.2619  0.4196  0.4027
 3428SOL    HW121743   0.280   3.354   7.884  0.0930  0.0248 -0.0967
 3428SOL    HW221744   0.368   3.468   7.856  0.3785  1.3200 -4.7532
 3429SOL     OW21745   0.006   2.013   6.971 -0.5179  0.4446  0.1328
 3429SOL    HW121746   0.005   2.091   6.916 -1.6097  0.9719  0.8931
 3429SOL    HW221747   4.663   1.956   6.928  0.9513 -0.9393 -0.2060
 3430SOL     OW21748   3.582   3.414  10.591  0.5330 -0.6993  1.0256
 3430SOL    HW121749   3.593   3.508  10.577 -0.0830 -0.7328  0.3219
 3430SOL    HW221750   3.594   3.386  10.501 -1.6712 -1.3904  0.9389
 3431SOL     OW21751   0.414   2.924   8.165  0.2695  0.3006 -0.6183
 3431SOL    HW121752   0.398   3.013   8.196 -0.4432  0.1837 -0.6442
 3431SOL    HW221753   0.442   2.880   8.246  0.7298  0.7860 -0.5108
 3432SOL     OW21754   1.455   3.504   0.942 -0.2589  0.3244  0.2698
 3432SOL    HW121755   1.503   3.541   1.016 -0.9164 -0.4248  1.0729
 3432SOL    HW221756   1.386   3.570   0.931 -0.9519 -0.4188  0.1373
 3433SOL     OW21757   3.637   0.370   2.926 -0.3653  0.1138  0.1600
 3433SOL    HW121758   3.574   0.301   2.949 -0.0720  0.0658  0.8119
 3433SOL    HW221759   3.710   0.312   2.905 -0.8297 -1.0851  1.8418
 3434SOL     OW21760   2.688   2.504   7.675  0.3326  0.2182 -0.3758
 3434SOL    HW121761   2.753   2.570   7.698  0.7009  0.2942 -1.6040
 3434SOL    HW221762   2.631   2.553   7.615  1.7478  2.1711 -0.0963
 3435SOL     OW21763   3.059   3.983   4.253  0.2491  0.0602 -0.3463
 3435SOL    HW121764   3.060   3.918   4.182 -0.5575 -0.9944  0.6045
 3435SOL    HW221765   3.026   4.060   4.206 -0.1187 -1.3978 -2.5158
 3436SOL     OW21766   2.750   0.277   0.204  0.5137 -0.4365  0.1632
 3436SOL    HW121767   2.715   0.321   0.281 -1.8934  0.6587 -1.5829
 3436SOL    HW221768   2.724   0.185   0.213  2.1840 -0.7825  1.5146
 3437SOL     OW21769   3.665   1.533  14.879  0.2636 -0.1123  0.4967
 3437SOL    HW121770   3.622   1.484  14.948 -2.3794  0.6722 -0.6173
 3437SOL    HW221771   3.727   1.469  14.842 -2.4906 -1.5606 -1.5876
 3438SOL     OW21772   1.615   4.187  11.145 -0.2257  0.6628  0.3249
 3438SOL    HW121773   1.652   4.273  11.164  1.4654 -0.2455  1.1275
 3438SOL    HW221774   1.533   4.216  11.105 -0.4782  1.3204  1.3152
 3439SOL     OW21775   3.236   4.303   6.828 -0.1313  0.2729  0.6039
 3439SOL    HW121776   3.290   4.235   6.868 -0.1198 -2.4718 -4.0222
 3439SOL    HW221777   3.258   4.379   6.882 -1.1728  1.3792 -0.5459
 3440SOL     OW21778   3.914   1.921   7.240  0.5101  0.1964 -0.0452
 3440SOL    HW121779   3.854   1.914   7.314 -1.0329  2.5062 -1.0785
 3440SOL    HW221780   4.000   1.939   7.279  1.7788 -1.9862 -1.7702
 3441SOL     OW21781   3.913   2.923   1.543 -0.0663  0.1801 -0.0412
 3441SOL    HW121782   3.875   2.836   1.548  1.7444 -0.5444  1.0454
 3441SOL    HW221783   3.989   2.927   1.601  0.8702 -0.0421 -1.2401
 3442SOL     OW21784   0.679   1.264   8.175 -0.3952 -0.3792 -0.1423
 3442SOL    HW121785   0.600   1.218   8.148 -1.5257  1.6710 -0.3007
 3442SOL    HW221786   0.727   1.272   8.092 -0.7514 -2.0748 -0.5115
 3443SOL     OW21787   4.054   2.127   6.696  0.3481  1.0070 -0.7467
 3443SOL    HW121788   3.967   2.097   6.668  0.3636  1.6345 -1.4611
 3443SOL    HW221789   4.061   2.206   6.642 -0.3387  1.6190  0.0568
 3444SOL     OW21790   0.230   2.573   8.097 -0.8538 -0.0935 -0.0069
 3444SOL    HW121791   0.168   2.503   8.081 -1.2258 -0.1013  1.5307
 3444SOL    HW221792   0.286   2.568   8.019 -0.8387  1.5741 -0.1165
 3445SOL     OW21793   1.041   1.067   4.539  0.7934 -0.1350 -0.4092
 3445SOL    HW121794   1.004   1.036   4.621  0.6016  0.5969 -0.2191
 3445SOL    HW221795   1.072   1.155   4.562  0.7079 -0.2555  0.1566
 3446SOL     OW21796   4.705   2.586   3.970  0.7975  0.0965 -0.3628
 3446SOL    HW121797   0.013   2.638   3.895 -0.7933 -0.2900 -1.2475
 3446SOL    HW221798   4.621   2.554   3.937  1.1973 -0.8256 -0.4825
 3447SOL     OW21799   3.634   2.007   9.189 -0.2770 -0.5872 -0.0549
 3447SOL    HW121800   3.599   2.057   9.115 -0.6139  1.5080  1.4936
 3447SOL    HW221801   3.558   1.977   9.238 -0.5022  0.7485  0.4046
 3448SOL     OW21802   1.000   2.446   5.053  0.2400  0.5312  0.5095
 3448SOL    HW121803   1.032   2.363   5.016 -2.6176 -1.3558  2.3051
 3448SOL    HW221804   1.037   2.440   5.141  1.3522  1.2374  0.0941
 3449SOL     OW21805   1.885   1.283   4.883  0.0415  0.1228 -0.6967
 3449SOL    HW121806   1.953   1.334   4.840 -0.5183  0.6558 -0.9509
 3449SOL    HW221807   1.922   1.264   4.969  1.7832 -2.9727 -2.1228
 3450SOL     OW21808   2.250   3.059   7.555  0.4271 -0.8140  0.1087
 3450SOL    HW121809   2.328   3.089   7.602 -1.0206  2.4166  0.4053
 3450SOL    HW221810   2.174   3.107   7.586 -0.0157 -0.3932 -1.6149
 3451SOL     OW21811   3.382   0.708  13.894 -0.1665 -0.1299 -0.3262
 3451SOL    HW121812   3.291   0.682  13.887  0.4760 -1.4207 -3.5693
 3451SOL    HW221813   3.379   0.783  13.835  1.9378  2.1278  2.3987
 3452SOL     OW21814   4.207   3.250   8.300  0.1988 -0.6959  0.1457
 3452SOL    HW121815   4.145   3.263   8.372  0.7365  0.7454  0.3505
 3452SOL    HW221816   4.259   3.330   8.307  1.5900 -1.6406  0.4667
 3453SOL     OW21817   1.207   0.285   7.448  0.5637  0.0523 -0.3588
 3453SOL    HW121818   1.157   0.230   7.508  1.5099  0.7794  1.0956
 3453SOL    HW221819   1.280   0.227   7.428  0.0807 -0.6551 -0.0624
 3454SOL     OW21820   3.341   4.616  16.201  0.3211 -0.2994  0.0452
 3454SOL    HW121821   3.300   4.581  16.281  2.6304 -0.0691  1.3460
 3454SOL    HW221822   3.279   4.684  16.174  0.5308  1.1077  3.0283
 3455SOL     OW21823   3.325   0.706   3.131 -0.0081  0.1744  0.0531
 3455SOL    HW121824   3.395   0.664   3.081 -0.7515 -1.0550  0.0431
 3455SOL    HW221825   3.387   0.755   3.185 -0.3121 -0.1745  0.7197
 3456SOL     OW21826   0.315   2.580  14.828  0.2558  0.2308  0.4275
 3456SOL    HW121827   0.395   2.550  14.786 -0.5280 -1.2393 -0.0369
 3456SOL    HW221828   0.272   2.634  14.762 -1.2281 -0.2102  1.0276
 3457SOL     OW21829   4.560   4.429   0.499  0.3955 -0.2246  0.0695
 3457SOL    HW121830   4.589   4.516   0.525 -1.8060 -0.2082  2.4807
 3457SOL    HW221831   4.469   4.451   0.478  0.8267  1.1416 -0.3715
 3458SOL     OW21832   3.817   1.169   8.762  0.6084  0.0076  0.2900
 3458SOL    HW121833   3.885   1.236   8.767  0.4055  0.1049  1.7390
 3458SOL    HW221834   3.753   1.206   8.700  1.5262 -0.5199 -0.9553
 3459SOL     OW21835   3.724   2.864   4.215 -0.1497 -1.1026 -0.3797
 3459SOL    HW121836   3.756   2.791   4.163  0.9878 -0.7582 -0.1790
 3459SOL    HW221837   3.655   2.911   4.168  0.2082  0.9785  1.1440
 3460SOL     OW21838   2.478   0.714   1.822  0.4413 -0.5062 -0.0593
 3460SOL    HW121839   2.392   0.704   1.862  1.6123  0.8698  2.8278
 3460SOL    HW221840   2.533   0.676   1.891  0.9068  1.4749  0.6795
 3461SOL     OW21841   2.207   1.005  11.506 -0.2769 -0.4021  0.2302
 3461SOL    HW121842   2.206   1.071  11.575 -1.4738  0.0066 -0.1829
 3461SOL    HW221843   2.262   0.936  11.544  0.4135  0.3304  0.5509
 3462SOL     OW21844   2.752   1.462   4.861 -0.0210  0.2942  0.1194
 3462SOL    HW121845   2.811   1.511   4.804  1.3224  0.3739  1.5829
 3462SOL    HW221846   2.798   1.379   4.877  0.3866  0.4887 -0.0342
 3463SOL     OW21847   2.331   3.426   4.943  0.0340  0.5126  0.0657
 3463SOL    HW121848   2.250   3.473   4.923 -0.8902 -1.2445 -0.3224
 3463SOL    HW221849   2.401   3.489   4.925  0.3063  0.0930 -0.3466
 3464SOL     OW21850   2.544   3.895   8.788 -0.1536 -0.0877  0.2749
 3464SOL    HW121851   2.545   3.882   8.883 -1.0468  1.3374  0.4780
 3464SOL    HW221852   2.510   3.809   8.764  3.9099 -1.7827  0.5805
 3465SOL     OW21853   2.831   0.751   6.674 -0.0398 -0.1323 -0.2564
 3465SOL    HW121854   2.747   0.726   6.713  0.5625 -1.4906  0.1812
 3465SOL    HW221855   2.889   0.695   6.726  1.2984  2.0231  0.5776
 3466SOL     OW21856   4.717   0.993  12.896 -1.1690 -0.3491  0.1548
 3466SOL    HW121857   4.660   1.068  12.912  0.8051  1.3604 -0.7820
 3466SOL    HW221858   0.024   0.990  12.988 -1.2920 -1.3456  0.1546
 3467SOL     OW21859   4.215   3.571   3.094  0.3173  0.1807  0.1450
 3467SOL    HW121860   4.201   3.658   3.056 -2.0111  0.3683  1.3985
 3467SOL    HW221861   4.125   3.546   3.116  0.5414 -1.2359 -0.6159
 3468SOL     OW21862   1.594   2.983  15.338  0.2795 -0.1076 -0.4989
 3468SOL    HW121863   1.629   2.916  15.396 -0.4002 -0.3525 -0.3680
 3468SOL    HW221864   1.527   3.033  15.385  0.9006 -1.2281  1.5271
 3469SOL     OW21865   2.693   1.459  14.562 -0.1674 -0.1073  0.0469
 3469SOL    HW121866   2.613   1.468  14.510 -1.5448 -2.8499  1.7344
 3469SOL    HW221867   2.720   1.549  14.580 -1.0816  0.0289  0.7258
 3470SOL     OW21868   0.786   3.106   7.878 -0.7433  0.2778 -0.2543
 3470SOL    HW121869   0.715   3.154   7.920 -0.4547 -0.4136  0.9988
 3470SOL    HW221870   0.776   3.017   7.914 -0.9058  0.8092  1.0043
 3471SOL     OW21871   1.431   1.076   1.636 -0.0766  0.3175 -0.1470
 3471SOL    HW121872   1.448   1.071   1.730 -0.1796 -0.2450 -0.1642
 3471SOL    HW221873   1.351   1.024   1.639 -0.3242  0.6978 -0.0470
 3472SOL     OW21874   1.224   2.933  14.015  0.3301  0.4654  0.3080
 3472SOL    HW121875   1.133   2.961  14.022  0.4484  1.2196 -1.2487
 3472SOL    HW221876   1.229   2.927  13.920 -1.4158  2.5717  0.0908
 3473SOL     OW21877   1.442   1.198   9.498  0.0034  0.7618 -0.1430
 3473SOL    HW121878   1.491   1.197   9.415 -0.5963  2.7301 -0.5032
 3473SOL    HW221879   1.442   1.105   9.522  0.5517  0.2068 -2.2366
 3474SOL     OW21880   2.259   2.562   9.465  0.2549  0.0101 -0.0098
 3474SOL    HW121881   2.337   2.578   9.518 -0.5021 -1.2295  1.4660
 3474SOL    HW221882   2.189   2.565   9.530  1.0779 -0.9073  0.9056
 3475SOL     OW21883   2.880   3.511   7.895 -0.2223  0.0729 -0.2161
 3475SOL    HW121884   2.911   3.511   7.804 -0.2883  0.6794 -0.2368
 3475SOL    HW221885   2.888   3.604   7.915 -0.3713  0.2796 -1.1241
 3476SOL     OW21886   3.871   0.148  12.999  0.3117  0.2287 -0.2322
 3476SOL    HW121887   3.883   0.164  13.092 -1.7387  0.8540 -0.0767
 3476SOL    HW221888   3.934   0.077  12.984  0.1088  0.0461 -0.2205
 3477SOL     OW21889   2.110   3.289   2.660 -0.0176 -0.0563  0.4793
 3477SOL    HW121890   2.184   3.229   2.672  0.3672  0.0711 -1.3169
 3477SOL    HW221891   2.118   3.347   2.736 -2.1588  0.0692  0.6139
 3478SOL     OW21892   3.966   0.640  12.011 -0.2677  0.2631 -0.7339
 3478SOL    HW121893   3.894   0.683  12.057  0.7575  1.0887  0.1150
 3478SOL    HW221894   4.009   0.588  12.079 -0.4451  2.4296  1.0639
 3479SOL     OW21895   2.250   4.259   9.329 -0.1905  0.6506  0.2506
 3479SOL    HW121896   2.292   4.315   9.264 -0.9304  0.1980 -0.6101
 3479SOL    HW221897   2.263   4.310   9.410 -2.0717  0.0188  0.9676
 3480SOL     OW21898   0.967   1.348   9.328  0.2756  0.0885 -0.1328
 3480SOL    HW121899   0.923   1.298   9.397  1.8520 -1.3338 -0.1649
 3480SOL    HW221900   1.055   1.355   9.365 -0.4374  0.4537  1.5034
 3481SOL     OW21901   0.488   3.961   6.926  0.1972 -0.6841  0.5123
 3481SOL    HW121902   0.522   3.872   6.930  0.3058 -0.6430  0.5057
 3481SOL    HW221903   0.397   3.932   6.923  0.2864 -0.8154 -0.8392
 3482SOL     OW21904   4.306   1.879   2.953 -0.4289  0.2457 -0.2309
 3482SOL    HW121905   4.319   1.851   2.863  1.9812  0.5072  0.0286
 3482SOL    HW221906   4.369   1.952   2.952 -4.0991  3.4365 -0.0983
 3483SOL     OW21907   4.489   3.852   3.930 -0.0350 -0.6646  0.7827
 3483SOL    HW121908   4.405   3.893   3.951 -0.8195 -2.7855  1.7837
 3483SOL    HW221909   4.497   3.862   3.835  0.2335  1.3703  1.0191
 3484SOL     OW21910   1.936   0.913   1.890  0.1032  0.0461  0.2128
 3484SOL    HW121911   1.894   0.838   1.932 -0.2695  0.5395  0.7368
 3484SOL    HW221912   1.861   0.954   1.847  2.0705  1.9604 -1.4109
 3485SOL     OW21913   0.746   1.935   1.096  0.2945 -0.6960  0.3206
 3485SOL    HW121914   0.729   1.957   1.005  0.5589 -0.8195  0.2391
 3485SOL    HW221915   0.660   1.912   1.131  1.1688 -1.5529  1.9143
 3486SOL     OW21916   0.202   0.324  13.465 -0.2905 -0.0188  0.0287
 3486SOL    HW121917   0.251   0.319  13.383 -0.4640 -0.7625 -0.0231
 3486SOL    HW221918   0.273   0.335  13.528 -0.0145  1.5119 -0.5486
 3487SOL     OW21919   3.051   1.287   1.395 -0.3720 -0.2234  0.1289
 3487SOL    HW121920   3.030   1.194   1.397  1.6076 -0.6399  0.9750
 3487SOL    HW221921   3.143   1.280   1.419  0.2436  4.0867 -0.9814
 3488SOL     OW21922   3.729   4.198  13.338  0.4086 -0.0330 -0.2764
 3488SOL    HW121923   3.815   4.176  13.301 -0.0724 -0.2484 -1.2802
 3488SOL    HW221924   3.724   4.293  13.325  3.3553  0.2765  0.8137
 3489SOL     OW21925   4.430   2.331   6.236  0.0030  0.2753  0.4002
 3489SOL    HW121926   4.436   2.326   6.332 -0.6004 -0.9627  0.3853
 3489SOL    HW221927   4.438   2.426   6.230 -3.2591  0.2495 -4.3241
 3490SOL     OW21928   3.639   3.660   8.022  0.3397 -0.1776  0.5451
 3490SOL    HW121929   3.656   3.567   8.004 -0.5754 -0.0502 -0.9229
 3490SOL    HW221930   3.550   3.668   7.988  1.1667 -1.3166 -1.9133
 3491SOL     OW21931   3.534   3.020   4.099  0.0800 -0.0448  0.1113
 3491SOL    HW121932   3.585   3.073   4.038  1.1477 -0.3494  0.7340
 3491SOL    HW221933   3.469   3.086   4.125 -0.3873 -0.0906 -0.9556
 3492SOL     OW21934   3.490   0.609   8.788 -0.6920 -0.6277  0.4484
 3492SOL    HW121935   3.415   0.550   8.786  0.0226 -1.5662  1.1178
 3492SOL    HW221936   3.452   0.671   8.850 -1.5163  0.0747 -0.7465
 3493SOL     OW21937   4.596   0.276   0.910  0.0357 -0.0463  0.2013
 3493SOL    HW121938   4.635   0.189   0.924 -0.5817 -0.4033 -0.3053
 3493SOL    HW221939   4.671   0.330   0.885 -0.3082 -0.3401 -1.4147
 3494SOL     OW21940   1.108   3.698   9.352  0.1560 -0.2308 -0.6053
 3494SOL    HW121941   1.164   3.762   9.308 -0.0923  0.3432 -0.0924
 3494SOL    HW221942   1.043   3.755   9.394  0.2355 -3.0574  3.3220
 3495SOL     OW21943   3.149   2.940   2.663 -0.1578  0.0523 -0.1884
 3495SOL    HW121944   3.122   2.910   2.750  1.2819 -0.2256  0.1618
 3495SOL    HW221945   3.080   2.999   2.633 -0.1868  0.9952  1.7427
 3496SOL     OW21946   2.798   2.004   7.379  0.0968  0.7546 -0.1757
 3496SOL    HW121947   2.795   2.055   7.460  0.9883  2.1827 -1.0513
 3496SOL    HW221948   2.824   2.070   7.315 -0.0011  0.9950  0.0316
 3497SOL     OW21949   3.299   2.814  15.138  0.2775  0.3236  0.2071
 3497SOL    HW121950   3.242   2.775  15.071  1.1166 -0.7013  0.0966
 3497SOL    HW221951   3.243   2.794  15.213  0.6169  0.3132  0.4566
 3498SOL     OW21952   1.148   4.326  17.407  0.5794  0.4000  0.4252
 3498SOL    HW121953   1.225   4.347  17.459  0.9722 -1.6494  0.6671
 3498SOL    HW221954   1.090   4.283  17.470  0.2691 -1.7158 -1.2815
 3499SOL     OW21955   4.528   1.920   6.135 -0.3639  0.0930  0.0929
 3499SOL    HW121956   4.544   1.956   6.048 -0.4666 -1.5915 -0.6207
 3499SOL    HW221957   4.495   1.833   6.111 -0.6966 -0.1174  1.3262
 3500SOL     OW21958   2.665   3.568  14.221  0.6939  0.6467  0.4559
 3500SOL    HW121959   2.641   3.631  14.152  2.2770  0.1262 -0.5719
 3500SOL    HW221960   2.695   3.495  14.167  0.7986  1.1260 -0.1378
 3501SOL     OW21961   4.053   0.401   5.746 -0.1796  0.2744  0.2685
 3501SOL    HW121962   3.979   0.411   5.806 -0.5603 -0.3605 -0.0957
 3501SOL    HW221963   3.996   0.382   5.672  0.8189 -1.2545 -0.1148
 3502SOL     OW21964   2.775   4.545   7.742 -0.5482  0.0403  0.0439
 3502SOL    HW121965   2.800   4.631   7.711  0.3173  0.7369  2.6255
 3502SOL    HW221966   2.803   4.556   7.833  0.1124  1.0589 -0.2874
 3503SOL     OW21967   2.557   1.683  16.602  0.1062 -0.3894 -0.2907
 3503SOL    HW121968   2.588   1.712  16.688 -1.3509 -0.7860  0.3758
 3503SOL    HW221969   2.618   1.611  16.587  0.5108  0.0482 -0.6994
 3504SOL     OW21970   3.103   3.344   0.945 -0.8563 -0.2061  0.0719
 3504SOL    HW121971   3.140   3.265   0.904  1.0134  1.5728 -1.6884
 3504SOL    HW221972   3.092   3.321   1.037  0.8878 -0.5228  0.1904
 3505SOL     OW21973   0.603   3.531   1.446  0.0649 -0.0614 -0.2087
 3505SOL    HW121974   0.651   3.581   1.379 -0.4379  1.0016  0.2282
 3505SOL    HW221975   0.534   3.485   1.398 -0.1540 -0.7992  0.7996
 3506SOL     OW21976   1.095   2.924  13.268 -0.3192  0.0075 -0.1914
 3506SOL    HW121977   1.050   2.976  13.201  1.4636  2.2223  0.3507
 3506SOL    HW221978   1.037   2.938  13.343  0.1775 -1.6306  0.4999
 3507SOL     OW21979   4.228   3.484   8.709  0.1236  0.3747 -0.7613
 3507SOL    HW121980   4.188   3.571   8.706 -1.8632 -0.5193  0.0643
 3507SOL    HW221981   4.152   3.435   8.740  0.4483  1.4318  1.7021
 3508SOL     OW21982   4.102   0.150   1.181 -0.9207  0.0121 -0.0099
 3508SOL    HW121983   4.050   0.228   1.159 -0.1325 -0.0161 -1.9535
 3508SOL    HW221984   4.130   0.177   1.269 -2.0723  0.5134  0.1982
 3509SOL     OW21985   0.014   0.745   8.239  0.0243  0.5436 -0.0555
 3509SOL    HW121986   0.014   0.840   8.228  1.5104  0.4134 -1.1371
 3509SOL    HW221987   4.653   0.731   8.286  0.5843 -1.6404  0.2701
 3510SOL     OW21988   0.874   2.404   2.437  0.2651 -0.5394  0.5368
 3510SOL    HW121989   0.951   2.461   2.440  0.1095 -0.5384  3.9043
 3510SOL    HW221990   0.885   2.365   2.350  0.8458 -0.0543  0.3876
 3511SOL     OW21991   1.560   2.344   2.207  0.1150  0.2452 -0.0891
 3511SOL    HW121992   1.528   2.431   2.233 -1.8770 -0.2929 -0.6916
 3511SOL    HW221993   1.489   2.291   2.245 -1.8395  0.5292 -3.3278
 3512SOL     OW21994   1.830   3.085   4.314  0.1510  0.0961  0.1737
 3512SOL    HW121995   1.881   3.010   4.348  0.6379  0.8725  1.1533
 3512SOL    HW221996   1.888   3.114   4.243 -2.1072  0.2822 -1.5935
 3513SOL     OW21997   1.397   1.541   7.310  1.2708  0.1714 -0.1756
 3513SOL    HW121998   1.431   1.451   7.304  0.1530 -0.1930 -1.0586
 3513SOL    HW221999   1.371   1.537   7.402 -0.7503 -0.6618 -0.7941
 3514SOL     OW22000   2.829   2.357   5.706  0.0050  0.4740  0.0059
 3514SOL    HW122001   2.843   2.270   5.667 -3.0672 -0.0053 -0.0937
 3514SOL    HW222002   2.848   2.408   5.628 -0.0561 -0.1552 -0.4242
 3515SOL     OW22003   1.587   1.941   5.581  0.0169  0.3652  0.5390
 3515SOL    HW122004   1.519   1.883   5.615  1.1506  0.2671  2.6689
 3515SOL    HW222005   1.658   1.894   5.625 -0.2738 -0.9555 -0.4268
 3516SOL     OW22006   3.321   4.608   4.480 -0.1014  0.4311 -0.3557
 3516SOL    HW122007   3.286   4.574   4.398 -0.4722  0.6284 -0.2792
 3516SOL    HW222008   3.383   4.678   4.462  0.2535 -0.0845 -1.1478
 3517SOL     OW22009   3.296   3.913   7.856  0.0313 -0.2313 -0.2569
 3517SOL    HW122010   3.219   3.950   7.899 -0.2883 -1.8228  0.5738
 3517SOL    HW222011   3.363   3.971   7.891  0.4422 -1.4153  0.9650
 3518SOL     OW22012   3.834   3.382  11.967 -0.5943 -0.0904  0.2093
 3518SOL    HW122013   3.749   3.399  11.926 -0.2959 -0.4177 -0.5482
 3518SOL    HW222014   3.892   3.447  11.927  0.2725 -0.4904  0.8074
 3519SOL     OW22015   3.608   1.787   7.221  0.7947  0.6814  0.2289
 3519SOL    HW122016   3.621   1.721   7.288  1.1578  1.2439  0.7158
 3519SOL    HW222017   3.634   1.859   7.279 -0.9802  3.0303 -1.8842
 3520SOL     OW22018   0.944   3.528   9.214  0.2216  0.2519  0.3065
 3520SOL    HW122019   0.900   3.489   9.289  0.2431 -0.6118 -0.1306
 3520SOL    HW222020   1.000   3.591   9.259 -0.3569  0.3493  0.8910
 3521SOL     OW22021   2.189   2.824   6.257  0.4916 -0.0744  0.3211
 3521SOL    HW122022   2.097   2.800   6.245  0.6131 -0.2730 -0.1795
 3521SOL    HW222023   2.190   2.910   6.215 -0.5430  0.7699  2.0174
 3522SOL     OW22024   1.326   0.522   9.019 -0.8652 -0.0767 -0.9233
 3522SOL    HW122025   1.364   0.439   8.990 -1.5253 -1.5097  2.2797
 3522SOL    HW222026   1.313   0.504   9.112  1.7065  0.4341 -0.4665
 3523SOL     OW22027   3.108   3.730   5.887  0.0580  0.5669  0.4368
 3523SOL    HW122028   3.099   3.810   5.835 -0.9244 -0.4149 -0.9259
 3523SOL    HW222029   3.023   3.713   5.928 -0.5925  0.3058 -1.0162
 3524SOL     OW22030   2.611   3.108   9.931  0.2388  0.0373  0.1584
 3524SOL    HW122031   2.625   3.015   9.914 -0.2871  0.7807 -4.3474
 3524SOL    HW222032   2.612   3.102  10.026  1.1101 -3.9455 -0.0852
 3525SOL     OW22033   2.487   3.237  14.014 -0.1820  0.2764  0.2418
 3525SOL    HW122034   2.562   3.264  14.067  0.2530  0.1732 -0.3277
 3525SOL    HW222035   2.526   3.159  13.976  1.9331  1.9636 -1.0331
 3526SOL     OW22036   3.532   0.580   7.504 -0.0621 -0.2854 -0.0234
 3526SOL    HW122037   3.477   0.654   7.527  3.5555  2.5134 -0.3525
 3526SOL    HW222038   3.619   0.620   7.502 -1.0466  1.8052  0.1877
 3527SOL     OW22039   4.182   2.160   5.369 -0.3213  0.0536  0.2097
 3527SOL    HW122040   4.225   2.192   5.289 -1.7052 -0.2650 -0.6439
 3527SOL    HW222041   4.175   2.234   5.429 -0.1082 -0.1255  0.4577
 3528SOL     OW22042   3.558   1.583  10.049  0.8744  0.1320 -0.1919
 3528SOL    HW122043   3.548   1.628   9.966 -2.6626 -1.5437 -0.6827
 3528SOL    HW222044   3.500   1.636  10.104  2.0804  1.6070 -0.3768
 3529SOL     OW22045   1.132   0.792  12.289 -0.4221 -0.0443  0.1783
 3529SOL    HW122046   1.074   0.719  12.267  0.5622 -0.3265 -1.4851
 3529SOL    HW222047   1.209   0.773  12.235 -1.0424 -1.1776 -0.3187
 3530SOL     OW22048   0.495   4.175   6.702  0.4534 -0.0285 -0.7692
 3530SOL    HW122049   0.494   4.238   6.774  2.7260  0.4669 -1.1711
 3530SOL    HW222050   0.507   4.094   6.752 -3.8230  0.6374  1.3246
 3531SOL     OW22051   0.783   2.460   0.565 -0.6381  0.5480  0.0582
 3531SOL    HW122052   0.782   2.508   0.648 -1.0107 -0.5748  0.6942
 3531SOL    HW222053   0.859   2.405   0.586  0.7071  1.5550 -2.1359
 3532SOL     OW22054   3.203   2.021   7.919  0.2572 -0.0307  0.3779
 3532SOL    HW122055   3.219   2.108   7.882 -1.2978 -0.0740 -0.4080
 3532SOL    HW222056   3.186   1.979   7.834  0.4534  1.2815 -0.3232
 3533SOL     OW22057   4.511   0.301   4.941 -0.3980 -0.3280  0.2802
 3533SOL    HW122058   4.456   0.378   4.925 -0.8743 -1.0268 -1.4404
 3533SOL    HW222059   4.599   0.339   4.930  0.0819 -1.3012  0.7875
 3534SOL     OW22060   2.819   0.214   5.871  0.3626 -0.2835 -0.2026
 3534SOL    HW122061   2.878   0.203   5.796  2.9802 -0.3216  1.8507
 3534SOL    HW222062   2.790   0.128   5.902  0.9836 -0.3773  0.1292
 3535SOL     OW22063   0.635   2.526   6.432  0.2650 -0.4156 -0.5811
 3535SOL    HW122064   0.546   2.554   6.452  0.6998 -0.7006  1.6443
 3535SOL    HW222065   0.638   2.542   6.337  2.8851 -3.3670 -0.9979
 3536SOL     OW22066   3.398   0.287   6.599  0.4450  0.0120 -0.4805
 3536SOL    HW122067   3.423   0.207   6.645  0.7966 -0.1049 -0.8732
 3536SOL    HW222068   3.444   0.347   6.657 -1.9577  1.0809  0.3412
 3537SOL     OW22069   4.287   1.271   1.225  0.2306 -0.6831  1.1536
 3537SOL    HW122070   4.379   1.280   1.249  0.4721  0.1738 -0.0767
 3537SOL    HW222071   4.245   1.276   1.311 -3.4476  0.3004 -0.7420
 3538SOL     OW22072   1.525   1.278   6.951  0.2264 -0.4324 -0.2405
 3538SOL    HW122073   1.586   1.269   7.024  1.3461 -0.9124 -1.2298
 3538SOL    HW222074   1.463   1.205   6.951 -0.9374  0.5431  0.4271
 3539SOL     OW22075   4.209   4.037   8.076 -0.0352  0.3475  0.6404
 3539SOL    HW122076   4.291   4.082   8.055 -0.0360  0.0508 -0.0219
 3539SOL    HW222077   4.151   4.109   8.051  1.1793  1.4011  0.8571
 3540SOL     OW22078   3.062   3.889  10.410  0.0897 -0.3850 -0.1829
 3540SOL    HW122079   3.057   3.895  10.506 -1.9120  1.1322 -0.3886
 3540SOL    HW222080   2.993   3.830  10.381  0.8135 -1.9344  1.1932
 3541SOL     OW22081   1.980   1.810   2.142 -0.2442 -0.3201 -0.0411
 3541SOL    HW122082   2.025   1.894   2.137 -0.0478 -0.4197  0.0752
 3541SOL    HW222083   2.030   1.771   2.213 -0.0377  2.2093  1.2062
 3542SOL     OW22084   4.129   3.838   6.141 -0.8716  0.5495 -0.0913
 3542SOL    HW122085   4.061   3.891   6.099 -0.6438 -0.5587 -1.8570
 3542SOL    HW222086   4.203   3.842   6.081 -0.4240  0.0119  0.4197
 3543SOL     OW22087   3.267   4.343  13.841 -0.4149  0.5271 -0.3382
 3543SOL    HW122088   3.217   4.351  13.760 -0.7612  2.0213  0.0178
 3543SOL    HW222089   3.218   4.387  13.911 -1.4425  0.6138 -1.1154
 3544SOL     OW22090   1.078   3.810   1.195 -0.0567 -0.6516  0.3202
 3544SOL    HW122091   1.011   3.776   1.135 -0.8758  1.5013  0.0265
 3544SOL    HW222092   1.125   3.875   1.143 -1.7973  1.6451  1.6470
 3545SOL     OW22093   0.788   0.648  13.599 -0.2667  0.0297 -0.2617
 3545SOL    HW122094   0.726   0.617  13.532  1.9320  0.8007 -2.6456
 3545SOL    HW222095   0.777   0.741  13.579  0.9740  0.4050  0.8139
 3546SOL     OW22096   0.628   3.673   8.180  1.0182 -0.2645  0.0095
 3546SOL    HW122097   0.711   3.699   8.140  1.4240  0.3139  1.2004
 3546SOL    HW222098   0.653   3.586   8.211 -0.7071 -0.8004 -0.1135
 3547SOL     OW22099   2.247   3.309  11.807  0.3046  0.0468  0.2323
 3547SOL    HW122100   2.309   3.237  11.821  1.3551  0.4689 -2.2569
 3547SOL    HW222101   2.202   3.321  11.890  1.3459 -1.0964  0.9595
 3548SOL     OW22102   2.015   3.939   4.423  0.3449  0.2587  0.0339
 3548SOL    HW122103   1.963   3.980   4.493  0.1325 -0.9433  0.5872
 3548SOL    HW222104   1.978   3.855   4.395 -0.3997  0.2529  1.0180
 3549SOL     OW22105   4.457   4.383   2.929  0.3003 -0.1725 -0.4415
 3549SOL    HW122106   4.531   4.436   2.959  0.0549  1.6471 -3.0027
 3549SOL    HW222107   4.443   4.416   2.840  2.4971  0.6893 -0.4807
 3550SOL     OW22108   1.438   3.380  13.001 -0.6637 -0.3078  0.4142
 3550SOL    HW122109   1.478   3.298  12.971 -1.0144 -0.1454 -0.5089
 3550SOL    HW222110   1.344   3.363  13.005 -0.9361  1.7012  2.6539
 3551SOL     OW22111   1.284   3.685   0.699 -0.5920 -0.1862  0.2575
 3551SOL    HW122112   1.198   3.728   0.696 -1.4754 -1.9582  0.0086
 3551SOL    HW222113   1.309   3.717   0.786 -0.4162  3.2883 -1.0800
 3552SOL     OW22114   0.681   3.898   8.855  0.0734 -0.6034  0.0418
 3552SOL    HW122115   0.651   3.988   8.842 -1.3401 -0.7795  2.0803
 3552SOL    HW222116   0.776   3.912   8.859 -0.1323  1.3405 -1.5326
 3553SOL     OW22117   0.758   2.591   4.995  0.1503 -0.4575  0.3249
 3553SOL    HW122118   0.814   2.666   4.973  1.9432 -2.1904 -1.0420
 3553SOL    HW222119   0.826   2.534   5.032  2.1408  0.8176 -1.3407
 3554SOL     OW22120   4.014   1.503  11.617  0.1291  0.4077  0.1319
 3554SOL    HW122121   3.941   1.486  11.676 -0.4795  2.3999 -0.0551
 3554SOL    HW222122   3.981   1.455  11.541 -0.7738 -1.0569  1.4465
 3555SOL     OW22123   0.131   2.752   0.560 -0.0868  0.2286  0.0319
 3555SOL    HW122124   0.130   2.780   0.469 -0.8404  2.0508  0.6053
 3555SOL    HW222125   0.224   2.734   0.572 -0.6211 -1.7237  1.2682
 3556SOL     OW22126   2.429   3.566   6.475 -0.9858 -0.3442 -0.2725
 3556SOL    HW122127   2.452   3.562   6.382 -1.3979  0.7847 -0.4279
 3556SOL    HW222128   2.346   3.518   6.476 -1.1506 -0.0369  0.9447
 3557SOL     OW22129   4.462   4.047   4.527 -0.5243 -0.2874 -0.0523
 3557SOL    HW122130   4.396   4.107   4.493  0.3326  1.6281  1.6549
 3557SOL    HW222131   4.519   4.101   4.582 -0.4437 -1.0905  0.6514
 3558SOL     OW22132   4.184   0.426   8.352 -0.4867 -0.8259 -0.0459
 3558SOL    HW122133   4.242   0.384   8.415  0.4338  1.5045  0.6721
 3558SOL    HW222134   4.163   0.349   8.300  0.8418  0.9368 -3.1698
 3559SOL     OW22135   2.496   3.642   4.469 -0.1298 -0.6731 -0.1310
 3559SOL    HW122136   2.564   3.579   4.446  0.2532 -0.6319  0.8649
 3559SOL    HW222137   2.538   3.709   4.523  0.5717  0.1635 -1.7175
 3560SOL     OW22138   3.864   2.599   6.463 -0.5153 -0.7445  0.0783
 3560SOL    HW122139   3.833   2.627   6.377  0.4602  1.3755  0.4111
 3560SOL    HW222140   3.959   2.612   6.457 -0.2310 -3.1332 -0.6782
 3561SOL     OW22141   3.915   3.924   0.285 -0.2488  0.3609 -0.2787
 3561SOL    HW122142   3.911   3.897   0.376 -0.7631  0.4548 -0.2733
 3561SOL    HW222143   3.988   3.881   0.240  0.3779 -1.2585  2.3246
 3562SOL     OW22144   3.190   2.439   5.697 -0.8580  0.7952  0.1313
 3562SOL    HW122145   3.256   2.463   5.761 -0.1606  1.2596 -0.7523
 3562SOL    HW222146   3.212   2.503   5.629 -0.9703  1.6879  0.9522
 3563SOL     OW22147   3.603   2.066   5.207  0.1022 -0.3948  0.7392
 3563SOL    HW122148   3.517   2.030   5.230 -0.2510 -0.0930 -0.1146
 3563SOL    HW222149   3.630   2.011   5.134 -0.7437  0.1176  0.0305
 3564SOL     OW22150   4.277   1.765   1.895  0.0033  0.3053 -0.3430
 3564SOL    HW122151   4.373   1.763   1.894  0.0525  2.6503 -0.7152
 3564SOL    HW222152   4.269   1.859   1.878  1.4188  0.4847 -0.0229
 3565SOL     OW22153   2.739   0.362   8.158 -0.2203  0.7310 -0.0960
 3565SOL    HW122154   2.658   0.369   8.108 -0.9482  1.9202  1.2368
 3565SOL    HW222155   2.703   0.404   8.236 -2.0023  1.5544 -1.3829
 3566SOL     OW22156   4.520   1.226   7.125 -0.2966 -0.5171 -0.8648
 3566SOL    HW122157   4.476   1.311   7.121 -1.5912 -1.2763 -3.0138
 3566SOL    HW222158   4.593   1.245   7.183  2.8372 -0.9640 -4.6564
 3567SOL     OW22159   4.247   3.375   6.986  0.2566 -0.3789  0.3834
 3567SOL    HW122160   4.282   3.328   6.910  1.1852  1.1500 -0.1385
 3567SOL    HW222161   4.325   3.415   7.025 -1.3541  3.1084  0.0203
 3568SOL     OW22162   1.777   1.123   1.240 -0.2902  0.6792 -0.0530
 3568SOL    HW122163   1.798   1.037   1.204  2.7708  1.5460 -0.3947
 3568SOL    HW222164   1.730   1.101   1.320 -1.2431  2.1199 -0.2207
 3569SOL     OW22165   2.329   1.344   8.419  0.1932 -0.6132  0.4420
 3569SOL    HW122166   2.311   1.393   8.338 -0.2757  1.6439  1.9078
 3569SOL    HW222167   2.383   1.401   8.475 -1.2457 -0.6256  1.8245
 3570SOL     OW22168   4.066   2.497   7.381  0.0108 -0.4207 -0.2014
 3570SOL    HW122169   3.996   2.433   7.367  0.7313 -1.2628  0.0853
 3570SOL    HW222170   4.019   2.562   7.433  2.1746  1.7399 -0.9603
 3571SOL     OW22171   0.184   2.900   7.227 -0.1143 -0.4712  0.1585
 3571SOL    HW122172   0.148   2.816   7.198  1.5346 -0.9913 -0.3962
 3571SOL    HW222173   0.231   2.879   7.308  2.5815  2.7048 -0.5928
 3572SOL     OW22174   1.529   0.588   0.962 -0.4554 -0.3873 -0.5556
 3572SOL    HW122175   1.435   0.594   0.947 -0.5134  1.9169  0.7477
 3572SOL    HW222176   1.532   0.651   1.035 -1.9163 -0.1272 -0.7146
 3573SOL     OW22177   4.099   2.075   2.850 -0.5350 -0.3489 -0.4814
 3573SOL    HW122178   4.024   2.098   2.795  0.3574  0.9409 -1.1622
 3573SOL    HW222179   4.150   2.156   2.853 -1.6363  0.3266 -0.1752
 3574SOL     OW22180   2.367   0.570  13.731  0.9251  0.5549 -0.5332
 3574SOL    HW122181   2.352   0.483  13.766  0.1376  0.8880 -0.0559
 3574SOL    HW222182   2.380   0.540  13.641  0.1229  0.7544 -0.7119
 3575SOL     OW22183   2.531   3.161   7.671  0.0095 -0.9738  0.6640
 3575SOL    HW122184   2.612   3.207   7.695 -1.6625  0.9773  2.5641
 3575SOL    HW222185   2.514   3.202   7.587  0.0449 -0.2889  0.9858
 3576SOL     OW22186   1.377   3.229   8.235  0.3226 -0.0133  0.0816
 3576SOL    HW122187   1.411   3.194   8.317  1.7860  2.0636  0.3585
 3576SOL    HW222188   1.285   3.204   8.244  0.5760 -1.8888 -2.4541
 3577SOL     OW22189   4.528   2.031   8.705 -0.4583 -0.3517  0.1314
 3577SOL    HW122190   4.458   2.093   8.685  1.1159  0.6778 -2.2005
 3577SOL    HW222191   4.473   1.960   8.739 -0.8030 -1.6323 -3.1071
 3578SOL     OW22192   2.976   0.487   8.267 -0.5231  0.1148 -0.1368
 3578SOL    HW122193   2.936   0.546   8.330 -1.3676  0.3472 -0.8895
 3578SOL    HW222194   2.913   0.415   8.261 -2.3442  1.7848 -1.1385
 3579SOL     OW22195   4.181   1.178   5.093 -0.1557  0.1790  0.7562
 3579SOL    HW122196   4.141   1.264   5.096  1.7425  1.0792  0.6202
 3579SOL    HW222197   4.241   1.175   5.168  0.8659 -0.7023 -0.0915
 3580SOL     OW22198   2.137   3.704   7.825 -0.0135 -0.3139  0.5346
 3580SOL    HW122199   2.193   3.662   7.890 -1.5709 -0.2177  1.9300
 3580SOL    HW222200   2.129   3.788   7.872  0.8914  0.4401 -0.6519
 3581SOL     OW22201   2.797   3.197   8.075  0.4606  0.2609 -0.7011
 3581SOL    HW122202   2.723   3.188   8.135  0.9789  0.8776  0.0273
 3581SOL    HW222203   2.844   3.116   8.095 -3.2550 -1.9318 -0.8154
 3582SOL     OW22204   2.187   3.631   6.765  0.1259  0.3156  0.3983
 3582SOL    HW122205   2.205   3.605   6.855 -0.5070 -0.6980  0.2370
 3582SOL    HW222206   2.125   3.703   6.768  0.9816  1.0121  1.3806
 3583SOL     OW22207   1.075   1.982   4.166 -0.7098  0.4506 -0.2603
 3583SOL    HW122208   1.144   2.048   4.170 -0.7258  0.4005  0.9059
 3583SOL    HW222209   1.083   1.954   4.075  3.2622  0.5747  0.0462
 3584SOL     OW22210   3.564   2.432   4.684 -0.2251  0.1855  0.2629
 3584SOL    HW122211   3.515   2.485   4.747  1.0760  0.1523  1.3086
 3584SOL    HW222212   3.543   2.468   4.597  0.3948  0.9361  0.4194
 3585SOL     OW22213   2.469   0.325   1.329 -0.1005  0.1882  0.0048
 3585SOL    HW122214   2.397   0.265   1.311  2.1384 -2.3192 -0.4232
 3585SOL    HW222215   2.488   0.302   1.420 -0.7281  1.9579  0.5828
 3586SOL     OW22216   0.956   0.292   2.770 -0.6151  0.2504 -0.5378
 3586SOL    HW122217   0.923   0.227   2.832  0.9525 -0.4424 -0.4289
 3586SOL    HW222218   1.049   0.281   2.789 -0.7360  1.3725  0.7201
 3587SOL     OW22219   3.936   0.442  16.002  0.4559 -0.1495  0.0109
 3587SOL    HW122220   4.021   0.417  15.965 -0.2164 -1.9478 -0.3149
 3587SOL    HW222221   3.892   0.357  16.001  1.2883 -0.5755 -2.0935
 3588SOL     OW22222   2.681   1.360  15.840 -0.1640  0.3269  0.0605
 3588SOL    HW122223   2.770   1.332  15.863 -0.1968  0.0792 -0.1151
 3588SOL    HW222224   2.680   1.456  15.846  1.5869  0.3896 -0.5725
 3589SOL     OW22225   0.935   2.256  12.318 -0.3248 -0.1013 -0.0648
 3589SOL    HW122226   0.946   2.288  12.229 -0.2547  2.0050  0.6901
 3589SOL    HW222227   0.971   2.170  12.297 -1.7155 -0.4762 -0.9306
 3590SOL     OW22228   1.318   0.422   4.124 -0.1770  0.0883 -0.5384
 3590SOL    HW122229   1.328   0.477   4.046 -0.1304  1.9016  0.7535
 3590SOL    HW222230   1.223   0.429   4.130  0.0740  1.1880  2.3020
 3591SOL     OW22231   2.520   2.428  15.402 -0.3448  0.5719  0.2165
 3591SOL    HW122232   2.528   2.510  15.450 -0.3583 -0.5256  2.1015
 3591SOL    HW222233   2.556   2.454  15.317 -3.4647  0.3803 -1.1608
 3592SOL     OW22234   1.608   0.424   1.247  0.1439 -0.5053 -0.2277
 3592SOL    HW122235   1.573   0.501   1.292  0.0491  0.6743 -2.3448
 3592SOL    HW222236   1.593   0.353   1.310 -1.1597 -0.1864 -0.1721
 3593SOL     OW22237   2.628   3.933  14.528  0.0942 -0.3674  0.0834
 3593SOL    HW122238   2.629   4.009  14.586 -1.7688 -1.5042  1.6259
 3593SOL    HW222239   2.613   3.983  14.447 -0.3322  2.2255  1.7488
 3594SOL     OW22240   1.810   2.528   2.772  0.2410 -0.1091  0.0808
 3594SOL    HW122241   1.765   2.464   2.717  1.0993  0.3681 -1.1860
 3594SOL    HW222242   1.746   2.599   2.781  1.4392  0.8460  1.1890
 3595SOL     OW22243   2.796   0.755   4.642  0.0254 -0.0595  0.4249
 3595SOL    HW122244   2.846   0.719   4.569 -1.6889 -2.2422  0.3334
 3595SOL    HW222245   2.742   0.815   4.591 -2.6509 -0.3441  2.9404
 3596SOL     OW22246   1.324   1.627  10.365  0.2408  0.1077  0.2703
 3596SOL    HW122247   1.263   1.661  10.432  0.1455 -0.5455  0.5110
 3596SOL    HW222248   1.274   1.548  10.346 -0.0833  0.3175  0.2488
 3597SOL     OW22249   1.321   3.043   2.022  0.1544 -0.5526  0.2300
 3597SOL    HW122250   1.350   3.066   1.934  1.2201  1.2148  1.0595
 3597SOL    HW222251   1.365   3.107   2.077 -3.9878  4.8563 -2.7855
 3598SOL     OW22252   1.782   0.358   2.436  0.0898  0.1457 -0.3006
 3598SOL    HW122253   1.725   0.396   2.504  0.2506 -1.4356  0.7251
 3598SOL    HW222254   1.751   0.267   2.434  0.9014 -0.2198  3.2485
 3599SOL     OW22255   4.663   0.156   6.492  0.1671 -0.3701 -0.3019
 3599SOL    HW122256   4.717   0.117   6.423  0.3819  2.0967 -1.5620
 3599SOL    HW222257   4.659   0.082   6.552 -0.4724  1.8872  2.4113
 3600SOL     OW22258   0.210   0.077   6.702 -0.5759  0.0637  0.4629
 3600SOL    HW122259   0.223   0.156   6.651 -1.5230  0.0697  0.2264
 3600SOL    HW222260   0.209   0.012   6.632 -1.6423  1.5155 -0.8604
 3601SOL     OW22261   0.861   3.724   7.262 -0.3488 -0.0524  0.0796
 3601SOL    HW122262   0.774   3.693   7.238  0.0997 -0.4222 -1.0861
 3601SOL    HW222263   0.885   3.652   7.320 -0.8999 -0.6141 -0.3954
 3602SOL     OW22264   3.003   3.700  12.236  0.2610  0.0766 -0.6540
 3602SOL    HW122265   2.909   3.682  12.234  0.2473  0.2611 -1.8365
 3602SOL    HW222266   3.027   3.647  12.312 -1.6887  1.7966  1.1952
 3603SOL     OW22267   1.008   3.216   5.922  0.3716  0.1558  0.2369
 3603SOL    HW122268   0.961   3.292   5.957 -2.8131 -1.4139 -0.6947
 3603SOL    HW222269   1.018   3.157   5.997 -0.0015 -2.8108 -2.1046
 3604SOL     OW22270   3.471   2.622   6.553 -0.5373 -0.2054 -0.2234
 3604SOL    HW122271   3.528   2.558   6.511  0.7652 -0.0981  1.3680
 3604SOL    HW222272   3.385   2.587   6.528 -0.9187  1.0549 -0.6512
 3605SOL     OW22273   1.838   3.452   3.008  0.1416  0.5393  0.3677
 3605SOL    HW122274   1.867   3.501   3.086 -2.5553 -0.4866  2.0001
 3605SOL    HW222275   1.921   3.426   2.967  0.4093  3.1087 -0.7195
 3606SOL     OW22276   2.649   2.606   8.197 -0.6144 -0.2877 -0.5809
 3606SOL    HW122277   2.630   2.525   8.244  0.9668  0.2038  0.8861
 3606SOL    HW222278   2.591   2.602   8.121 -1.6514  1.3932  0.0999
 3607SOL     OW22279   2.155   0.967   3.622  0.3614 -0.1782 -0.0617
 3607SOL    HW122280   2.082   1.004   3.572  1.9537  2.2744 -0.6048
 3607SOL    HW222281   2.222   0.929   3.565 -0.1865  0.1372 -0.9255
 3608SOL     OW22282   2.503   3.547   5.689  0.0784 -0.3051 -0.3776
 3608SOL    HW122283   2.503   3.559   5.594 -0.2404 -0.5071 -0.4009
 3608SOL    HW222284   2.457   3.463   5.699  0.0658 -0.2269  0.2081
 3609SOL     OW22285   3.188   1.946   9.637 -0.3215  0.4031  0.0859
 3609SOL    HW122286   3.111   1.987   9.675  0.1897  2.4890 -1.1447
 3609SOL    HW222287   3.137   1.897   9.573  1.2891 -0.5095 -0.5245
 3610SOL     OW22288   0.804   2.433   5.328  0.5665  0.2558  0.2162
 3610SOL    HW122289   0.859   2.511   5.325 -0.3297  0.9050  0.8417
 3610SOL    HW222290   0.840   2.399   5.410  2.3443  3.0509  0.5767
 3611SOL     OW22291   2.497   3.752   7.025 -0.3123  0.3286 -0.4536
 3611SOL    HW122292   2.468   3.742   6.934 -2.2312  2.4588 -0.0692
 3611SOL    HW222293   2.521   3.666   7.060 -0.0149  1.0917  1.1990
 3612SOL     OW22294   3.911   2.395   5.497 -0.3743 -0.5103 -0.1594
 3612SOL    HW122295   3.899   2.361   5.408  0.4680  1.0319 -0.8656
 3612SOL    HW222296   4.004   2.374   5.507  0.2835  1.5049 -2.0714
 3613SOL     OW22297   2.477   0.313  13.868  0.6209 -0.0568 -0.7192
 3613SOL    HW122298   2.528   0.257  13.926  1.5503 -0.9662 -2.4007
 3613SOL    HW222299   2.540   0.356  13.811  2.8897 -3.4553 -0.7875
 3614SOL     OW22300   4.623   4.342   8.504  0.1976  0.2339 -0.0448
 3614SOL    HW122301   4.593   4.266   8.554  1.1876 -1.0204 -1.3235
 3614SOL    HW222302   4.544   4.393   8.491 -0.1386  0.1080  1.5477
 3615SOL     OW22303   0.837   3.108   5.748 -0.2171 -0.7583  0.5817
 3615SOL    HW122304   0.787   3.052   5.807 -0.3639  0.6699  1.8053
 3615SOL    HW222305   0.913   3.140   5.796  0.9221 -2.1718 -0.2765
 3616SOL     OW22306   3.636   1.273  17.073 -0.2519 -0.0262  0.6376
 3616SOL    HW122307   3.699   1.332  17.114 -0.9082  1.4000 -0.4400
 3616SOL    HW222308   3.674   1.196  17.116 -1.0407 -0.4076  0.6542
 3617SOL     OW22309   1.825   4.561   6.375 -0.7979  0.2647 -0.1741
 3617SOL    HW122310   1.859   4.496   6.313  1.9711  2.1964 -0.6951
 3617SOL    HW222311   1.806   4.631   6.313 -2.4649  1.2069  1.4378
 3618SOL     OW22312   3.923   4.070  16.509  0.5240  0.0201  0.0698
 3618SOL    HW122313   3.900   4.078  16.602 -3.2707 -2.3449 -0.6770
 3618SOL    HW222314   3.898   3.980  16.490 -1.4189  0.1639  1.9934
 3619SOL     OW22315   2.543   1.514   6.337 -0.4446 -0.2351 -0.6224
 3619SOL    HW122316   2.515   1.424   6.350  1.3121 -0.3131  2.7049
 3619SOL    HW222317   2.545   1.519   6.241 -0.4682 -0.5635 -0.6393
 3620SOL     OW22318   1.500   3.318  11.651 -0.1092  0.0936  0.4853
 3620SOL    HW122319   1.499   3.233  11.606  0.2115 -0.3865  1.3942
 3620SOL    HW222320   1.514   3.287  11.740  0.3934  1.4384  0.8757
 3621SOL     OW22321   2.976   0.894   8.487 -0.3358  0.5111 -0.4575
 3621SOL    HW122322   3.062   0.934   8.499  1.6291 -3.8217 -0.0875
 3621SOL    HW222323   2.931   0.906   8.570 -0.3336 -0.0025 -0.3805
 3622SOL     OW22324   1.163   0.369   6.530 -0.2095 -0.0992  0.5395
 3622SOL    HW122325   1.167   0.453   6.574 -0.9449  0.3677 -0.2977
 3622SOL    HW222326   1.199   0.389   6.443  3.2083  0.7870  2.1465
 3623SOL     OW22327   0.484   2.610   0.782  0.1731 -0.1069  0.7531
 3623SOL    HW122328   0.544   2.680   0.805  1.9889 -0.7333 -1.9869
 3623SOL    HW222329   0.483   2.629   0.688 -0.9682 -0.9040  0.6022
 3624SOL     OW22330   1.000   1.228   3.980  0.1414  0.0472  0.2493
 3624SOL    HW122331   0.948   1.308   3.989  2.7776  1.8629 -0.5792
 3624SOL    HW222332   0.983   1.189   4.066  0.1837 -2.2656 -0.7884
 3625SOL     OW22333   3.103   1.874  15.768 -0.3945  0.0962  0.6046
 3625SOL    HW122334   3.134   1.944  15.711 -0.6591 -1.2828 -1.2621
 3625SOL    HW222335   3.163   1.863  15.841  0.7515  4.4711  0.2808
 3626SOL     OW22336   4.686   1.792   3.644 -0.0527  0.2265  0.3067
 3626SOL    HW122337   4.688   1.789   3.548  0.8443  0.1032  0.3232
 3626SOL    HW222338   4.642   1.875   3.664  0.7807  0.3231  1.7357
 3627SOL     OW22339   4.136   0.358  12.589 -0.7858 -0.4816 -0.2270
 3627SOL    HW122340   4.071   0.360  12.659  0.0469 -1.4520  0.5871
 3627SOL    HW222341   4.216   0.336  12.637 -1.8238 -2.0473  0.7787
 3628SOL     OW22342   4.228   1.516   5.602  0.4513 -0.4580 -0.2566
 3628SOL    HW122343   4.184   1.578   5.544 -2.8007  0.6324  3.3537
 3628SOL    HW222344   4.246   1.439   5.550 -1.9476 -0.9827 -0.3160
 3629SOL     OW22345   1.433   1.812   3.933 -0.3061 -0.1622  0.2027
 3629SOL    HW122346   1.467   1.724   3.916  2.8651  1.0563  0.2523
 3629SOL    HW222347   1.389   1.797   4.017 -2.4988 -3.1298 -1.4950
 3630SOL     OW22348   1.015   3.143   4.723 -0.4847 -0.8332 -0.1294
 3630SOL    HW122349   1.012   3.223   4.670  0.5019 -1.2864 -0.8659
 3630SOL    HW222350   1.043   3.082   4.655  1.3372 -0.4185  0.2481
 3631SOL     OW22351   0.461   1.457   7.794 -0.2846  0.0165 -0.1973
 3631SOL    HW122352   0.552   1.475   7.774 -0.2421 -2.7161 -2.5479
 3631SOL    HW222353   0.467   1.373   7.841 -0.4143  0.7216  1.0655
 3632SOL     OW22354   1.288   4.590   1.028 -0.0733  0.5682 -0.0943
 3632SOL    HW122355   1.380   4.571   1.011 -0.2815 -1.0354  0.6175
 3632SOL    HW222356   1.272   4.518   1.088 -1.3502  0.7881 -0.1810
 3633SOL     OW22357   4.667   4.122   2.988  0.2928  0.2206 -0.7689
 3633SOL    HW122358   4.720   4.177   2.931  0.8204 -1.1533 -1.5962
 3633SOL    HW222359   4.720   4.043   2.998 -0.2321  0.4124  3.7650
 3634SOL     OW22360   2.866   1.498   7.776  0.1794  0.5054  0.7218
 3634SOL    HW122361   2.793   1.560   7.774 -0.3759 -0.1560  0.6948
 3634SOL    HW222362   2.829   1.414   7.750  2.6449 -0.4012  0.1752
 3635SOL     OW22363   4.197   4.011   2.481  0.1554 -0.4987 -0.0400
 3635SOL    HW122364   4.280   4.046   2.449 -0.4561  0.3298 -0.7330
 3635SOL    HW222365   4.147   4.064   2.419 -1.1496 -0.1218  1.3194
 3636SOL     OW22366   1.855   2.068   7.750  0.5126  0.6370 -0.1532
 3636SOL    HW122367   1.915   1.995   7.737 -2.1889 -1.4038 -1.0504
 3636SOL    HW222368   1.871   2.084   7.843 -2.4687 -1.1241  0.6387
 3637SOL     OW22369   0.832   1.720   7.938 -0.0382  0.6877 -0.1868
 3637SOL    HW122370   0.790   1.697   8.021  0.3665  0.9352  0.0859
 3637SOL    HW222371   0.898   1.651   7.928 -0.2532  0.5494 -0.6443
 3638SOL     OW22372   2.236   1.676   5.251  0.2039 -0.1702 -0.2243
 3638SOL    HW122373   2.266   1.689   5.161 -0.2253 -0.4948 -0.4160
 3638SOL    HW222374   2.156   1.728   5.239  0.8408  1.5945  3.2816
 3639SOL     OW22375   2.481   2.817   3.159  0.3713  0.6380  0.2379
 3639SOL    HW122376   2.549   2.837   3.095 -1.1858  1.7367 -1.0685
 3639SOL    HW222377   2.419   2.885   3.133  1.1821  1.5029  0.5616
 3640SOL     OW22378   3.514   3.612  13.604 -0.5279  0.2069 -0.1049
 3640SOL    HW122379   3.463   3.534  13.584 -0.5325 -0.0271  0.7846
 3640SOL    HW222380   3.530   3.639  13.514 -0.2179  0.5516  0.0476
 3641SOL     OW22381   2.053   0.939   1.356 -0.5503 -1.0129  0.3913
 3641SOL    HW122382   2.035   1.003   1.424  0.4605  0.0734 -0.3567
 3641SOL    HW222383   2.148   0.932   1.360 -0.5109 -1.6315 -1.4881
 3642SOL     OW22384   3.605   3.374   6.230 -0.1144 -0.3016 -0.1023
 3642SOL    HW122385   3.643   3.290   6.206 -0.2839 -0.7406  1.1524
 3642SOL    HW222386   3.575   3.352   6.319 -1.3009 -0.6500 -0.5853
 3643SOL     OW22387   0.772   0.537  14.206 -0.1630 -0.1856  0.2612
 3643SOL    HW122388   0.681   0.517  14.224 -0.5650 -1.7749 -3.4985
 3643SOL    HW222389   0.767   0.622  14.163  0.0567 -0.3109 -0.0197
 3644SOL     OW22390   3.735   3.563  10.243 -0.3902  0.1362 -0.3062
 3644SOL    HW122391   3.706   3.649  10.273  0.8358  0.5875 -0.4196
 3644SOL    HW222392   3.744   3.588  10.152 -1.6645  0.3844 -0.3621
 3645SOL     OW22393   4.667   0.957   0.383 -0.2888 -0.1731 -0.2790
 3645SOL    HW122394   4.628   0.883   0.431 -1.4214  0.6109  0.0136
 3645SOL    HW222395   4.700   1.006   0.458  0.2636 -0.1441 -0.5470
 3646SOL     OW22396   0.909   3.177   4.400 -0.3736 -0.1227 -0.2519
 3646SOL    HW122397   0.865   3.149   4.320 -1.3406 -2.5231  1.1072
 3646SOL    HW222398   0.999   3.153   4.378 -0.6247 -0.5981 -0.7515
 3647SOL     OW22399   2.486   3.833   5.471  0.8256 -0.6763 -0.3306
 3647SOL    HW122400   2.576   3.803   5.474  1.0654  0.0491 -0.1148
 3647SOL    HW222401   2.463   3.825   5.378  2.9746 -0.0855 -0.9135
 3648SOL     OW22402   4.232   2.113   3.131  0.8918 -0.6298 -0.4697
 3648SOL    HW122403   4.313   2.142   3.089 -0.4947  2.3021 -1.1419
 3648SOL    HW222404   4.187   2.059   3.067 -0.8259  0.6801 -0.3749
 3649SOL     OW22405   1.665   4.138   9.224  0.0102 -0.0818  0.0023
 3649SOL    HW122406   1.654   4.062   9.281  2.2822 -0.2311  0.2407
 3649SOL    HW222407   1.638   4.198   9.293  1.1922  3.0471 -2.2306
 3650SOL     OW22408   4.004   0.058   8.393  0.1709  0.1150  0.3393
 3650SOL    HW122409   3.925   0.081   8.345  1.0325  0.4808 -0.9058
 3650SOL    HW222410   4.037   4.701   8.347  1.4309 -0.5462  2.3204
 3651SOL     OW22411   4.231   1.952  13.283  0.4465 -0.4861 -0.0459
 3651SOL    HW122412   4.281   2.029  13.308  0.7824 -1.3738  2.0154
 3651SOL    HW222413   4.247   1.952  13.189  0.6993 -1.9510  0.0008
 3652SOL     OW22414   1.593   0.748   5.430 -0.4999 -0.3649  0.6603
 3652SOL    HW122415   1.664   0.811   5.421 -1.0723  0.2804  0.6978
 3652SOL    HW222416   1.523   0.805   5.400 -0.8480  0.4829  3.1364
 3653SOL     OW22417   2.066   1.514   3.775 -0.6128 -0.4467  0.3713
 3653SOL    HW122418   2.135   1.580   3.767  0.3160 -1.4583  0.1625
 3653SOL    HW222419   2.109   1.446   3.724  0.4867  0.4097  0.1738
 3654SOL     OW22420   0.303   2.614   7.022 -0.3746 -0.2403  0.1736
 3654SOL    HW122421   0.366   2.546   7.044  3.1242  3.5522  1.8914
 3654SOL    HW222422   0.357   2.692   7.035 -2.6169  1.1277  1.2182
 3655SOL     OW22423   1.857   4.158   5.462  0.1610 -0.3627  0.4048
 3655SOL    HW122424   1.886   4.141   5.551  1.1596 -1.3907 -0.1093
 3655SOL    HW222425   1.929   4.208   5.423 -2.3519 -0.5075 -4.5107
 3656SOL     OW22426   3.400   1.093  13.563 -0.9381 -0.1015 -0.1177
 3656SOL    HW122427   3.313   1.055  13.571  0.7315 -3.5112  1.6684
 3656SOL    HW222428   3.384   1.142  13.482  0.1968 -0.0900 -0.3332
 3657SOL     OW22429   0.550   3.572  16.442  0.2038 -0.7518  0.2904
 3657SOL    HW122430   0.554   3.627  16.364 -0.5418 -0.5632  0.3892
 3657SOL    HW222431   0.529   3.482  16.416  0.6117 -0.3922 -1.3000
 3658SOL     OW22432   4.371   2.639   3.466  0.3448  0.4023  0.4606
 3658SOL    HW122433   4.319   2.619   3.388  0.7891 -0.0620  0.2821
 3658SOL    HW222434   4.379   2.546   3.487  2.3946  0.5913  0.4861
 3659SOL     OW22435   1.630   0.836   7.718 -0.2837  0.3275  0.3430
 3659SOL    HW122436   1.718   0.871   7.734  0.6509 -0.9379 -2.1074
 3659SOL    HW222437   1.582   0.917   7.736 -1.3621 -0.7219  2.0912
 3660SOL     OW22438   3.299   0.533   4.696  0.2008 -0.1945 -0.3592
 3660SOL    HW122439   3.286   0.554   4.788 -0.0613  0.1585 -0.4777
 3660SOL    HW222440   3.316   0.625   4.674  2.7807 -1.2722 -2.9169
 3661SOL     OW22441   3.373   4.300   2.905 -0.1754  0.1527  0.2963
 3661SOL    HW122442   3.341   4.237   2.840 -0.9349 -2.1507  2.8774
 3661SOL    HW222443   3.408   4.246   2.976  0.9074  1.6246  0.8737
 3662SOL     OW22444   3.026   4.422   2.233  0.4696 -0.3460  0.0564
 3662SOL    HW122445   3.107   4.378   2.209  0.6599  0.5677 -0.9917
 3662SOL    HW222446   3.042   4.411   2.326  1.5722  2.2641  0.1781
 3663SOL     OW22447   0.145   0.098   3.869 -0.2457  0.2947  0.0204
 3663SOL    HW122448   0.074   0.053   3.824 -0.0371 -0.5078  0.5107
 3663SOL    HW222449   0.213   0.106   3.802  0.8994  0.5189  1.2250
 3664SOL     OW22450   4.173   3.862  13.431  0.1980  0.2174  0.6303
 3664SOL    HW122451   4.208   3.909  13.356  1.7999 -2.9501 -0.6034
 3664SOL    HW222452   4.225   3.782  13.442  0.0803 -0.4490 -3.5628
 3665SOL     OW22453   0.773   1.297   7.509 -0.0048  0.3878 -0.1975
 3665SOL    HW122454   0.735   1.296   7.421  0.4455 -1.1917 -0.3770
 3665SOL    HW222455   0.707   1.243   7.552 -0.0841 -0.8195 -1.8375
 3666SOL     OW22456   1.857   4.358   5.858 -0.1692  0.1344  0.2287
 3666SOL    HW122457   1.856   4.358   5.953  2.1049  2.7358  0.2698
 3666SOL    HW222458   1.833   4.268   5.836  0.0478  0.9412 -3.4125
 3667SOL     OW22459   1.365   4.301   6.425  0.5167  0.2726 -0.0393
 3667SOL    HW122460   1.384   4.383   6.380 -1.8831  1.4643  1.0969
 3667SOL    HW222461   1.382   4.332   6.514 -3.3215 -0.4822  0.9543
 3668SOL     OW22462   3.039   1.118  14.603 -0.3280  0.4653  0.3854
 3668SOL    HW122463   3.059   1.044  14.661  2.4024  0.7587 -0.1558
 3668SOL    HW222464   2.972   1.081  14.546 -2.2909  1.9299  1.7629
 3669SOL     OW22465   1.902   3.513   5.711 -0.3002 -0.3830 -0.3565
 3669SOL    HW122466   1.854   3.474   5.638  1.3645 -1.1831 -1.0194
 3669SOL    HW222467   1.990   3.476   5.709 -0.4509 -0.7426 -0.2703
 3670SOL     OW22468   4.100   1.508   6.190 -0.6376  0.1017 -0.0592
 3670SOL    HW122469   4.156   1.527   6.114  1.1482 -1.9131  0.7682
 3670SOL    HW222470   4.145   1.533   6.270 -2.3087 -1.0891  1.2323
 3671SOL     OW22471   2.761   3.180   2.857 -0.0558  0.0246 -0.1801
 3671SOL    HW122472   2.671   3.190   2.829  0.4298 -2.6443 -2.6036
 3671SOL    HW222473   2.782   3.101   2.808 -1.5212 -1.3524  1.4386
 3672SOL     OW22474   4.249   0.047  17.622 -0.0463 -0.1225  0.1585
 3672SOL    HW122475   4.186   0.117  17.605  2.4171  2.1276  0.3111
 3672SOL    HW222476   4.319   0.044  17.556  0.1060 -1.2505  0.3610
 3673SOL     OW22477   2.625   4.526   6.120  0.5714 -0.5901 -0.1655
 3673SOL    HW122478   2.622   4.552   6.212 -3.0555  1.1817 -0.7833
 3673SOL    HW222479   2.699   4.467   6.133  1.4293 -0.2367 -3.6331
 3674SOL     OW22480   2.564   1.585   6.036  0.7961  0.2061  0.2260
 3674SOL    HW122481   2.531   1.666   6.075 -0.2400  0.3021 -0.8557
 3674SOL    HW222482   2.485   1.533   6.051 -0.1111  1.8780  1.2091
 3675SOL     OW22483   2.197   0.953  13.433  0.2122  0.1217  0.5082
 3675SOL    HW122484   2.158   0.879  13.386  0.2713 -0.5366  1.4948
 3675SOL    HW222485   2.284   0.916  13.419 -0.3482 -1.8623  2.2966
 3676SOL     OW22486   3.289   4.604   6.455  0.5002  0.4080 -0.0571
 3676SOL    HW122487   3.381   4.628   6.462  0.3335  1.1368 -0.3400
 3676SOL    HW222488   3.270   4.654   6.376  2.7096  0.4496 -0.5571
 3677SOL     OW22489   0.631   4.568   6.665 -0.2779  0.1372  0.0091
 3677SOL    HW122490   0.556   4.530   6.709 -2.0173  0.5543 -2.6211
 3677SOL    HW222491   0.687   4.589   6.740  1.8875  0.6985 -1.7474
 3678SOL     OW22492   0.611   0.867  16.253  0.2861  0.0915 -0.2439
 3678SOL    HW122493   0.650   0.902  16.333 -0.9913 -1.3352  0.9804
 3678SOL    HW222494   0.529   0.840  16.294 -0.0068  0.9653 -0.2504
 3679SOL     OW22495   0.394   4.624  12.360 -0.6995  0.1999  0.0707
 3679SOL    HW122496   0.396   4.591  12.450 -1.6593  1.0267  0.3939
 3679SOL    HW222497   0.365   4.714  12.372  0.5595  0.4180  1.4960
 3680SOL     OW22498   4.622   2.234   8.857 -0.3009  0.5516 -0.0585
 3680SOL    HW122499   4.553   2.230   8.923  0.5637 -1.4004  0.7407
 3680SOL    HW222500   4.610   2.148   8.818  2.0836 -1.0561  2.7770
 3681SOL     OW22501   2.496   3.678   9.595  0.6954 -0.4703 -1.0378
 3681SOL    HW122502   2.553   3.695   9.670  1.7096 -0.2028 -1.8678
 3681SOL    HW222503   2.555   3.712   9.527  3.7360 -1.5621  1.0859
 3682SOL     OW22504   2.421   3.075  11.352 -0.1221  0.0403 -0.1296
 3682SOL    HW122505   2.442   3.006  11.289 -0.8385 -1.8952  1.7483
 3682SOL    HW222506   2.448   3.027  11.430 -0.0246 -0.6115 -0.5687
 3683SOL     OW22507   3.717   0.544   1.488 -0.4913 -0.2137 -0.1433
 3683SOL    HW122508   3.806   0.526   1.460 -1.2108 -2.1940 -1.1221
 3683SOL    HW222509   3.673   0.471   1.445  0.8799 -0.5017 -1.0505
 3684SOL     OW22510   0.894   0.972   9.695  0.8216 -0.2698  0.3978
 3684SOL    HW122511   0.809   0.962   9.738  0.0165 -0.3097 -1.2159
 3684SOL    HW222512   0.947   0.894   9.716  0.6574  0.5035  3.6722
 3685SOL     OW22513   4.265   4.154   1.753  0.3276  0.0069  0.3293
 3685SOL    HW122514   4.278   4.208   1.675  1.8627 -1.7552 -0.6463
 3685SOL    HW222515   4.261   4.226   1.815  2.1647  1.7307 -1.5542
 3686SOL     OW22516   4.489   0.810   1.239  0.0282  0.4961 -0.0646
 3686SOL    HW122517   4.543   0.875   1.283 -1.0072  2.2442 -1.3936
 3686SOL    HW222518   4.454   0.876   1.179 -2.0158 -0.6004 -0.0893
 3687SOL     OW22519   1.584   2.935  12.421 -0.8164 -0.3452  0.3109
 3687SOL    HW122520   1.505   2.987  12.433 -1.1365 -0.0475 -3.1253
 3687SOL    HW222521   1.548   2.864  12.369  0.9390 -1.3566  0.4902
 3688SOL     OW22522   4.333   4.067   8.498  0.2190  0.6495 -0.1492
 3688SOL    HW122523   4.254   4.116   8.475  0.0500 -0.8794 -2.8184
 3688SOL    HW222524   4.335   3.992   8.439 -1.7944  2.3331 -2.3774
 3689SOL     OW22525   0.975   0.732   4.349 -0.4359 -0.0590 -0.5990
 3689SOL    HW122526   1.054   0.739   4.403 -0.8857 -0.0986  0.0578
 3689SOL    HW222527   0.949   0.640   4.349  1.9292 -0.7212 -0.7606
 3690SOL     OW22528   0.978   0.116   6.213 -0.1903 -0.1441  0.1887
 3690SOL    HW122529   0.891   0.093   6.180  0.4808 -1.5018 -0.6697
 3690SOL    HW222530   1.012   0.031   6.240  1.4016  0.1421 -0.9200
 3691SOL     OW22531   2.858   3.136   5.304  0.1891  0.1769  0.4680
 3691SOL    HW122532   2.860   3.196   5.230  0.4488 -1.9662 -1.2665
 3691SOL    HW222533   2.948   3.102   5.307  0.6233  1.3099  0.0488
 3692SOL     OW22534   0.588   0.459   6.643  0.1539 -0.0374 -0.2522
 3692SOL    HW122535   0.513   0.472   6.585  0.2878  2.6983  0.2308
 3692SOL    HW222536   0.546   0.413   6.715  0.8698  3.3000  2.2790
 3693SOL     OW22537   0.514   1.515   6.399 -0.5244  0.4566 -0.3874
 3693SOL    HW122538   0.472   1.433   6.375 -1.3986  0.5923  0.6618
 3693SOL    HW222539   0.581   1.485   6.461  0.7187  0.8627 -1.5493
 3694SOL     OW22540   1.120   2.652   9.920 -0.2598  0.3420 -0.7026
 3694SOL    HW122541   1.131   2.679   9.829 -1.5102  0.3467 -0.8542
 3694SOL    HW222542   1.026   2.630   9.921 -0.4096  1.0738  0.6485
 3695SOL     OW22543   2.372   4.709   3.725  0.1077  0.2186  0.2885
 3695SOL    HW122544   2.421   4.670   3.798  0.7655 -2.4888 -1.5771
 3695SOL    HW222545   2.318   4.635   3.697 -0.4108  0.3953  0.8333
 3696SOL     OW22546   1.769   0.952  12.130  0.2393 -0.9791  0.0315
 3696SOL    HW122547   1.700   0.934  12.194 -2.2908  1.0940 -2.0809
 3696SOL    HW222548   1.833   0.989  12.190 -0.7325 -2.0665  1.7285
 3697SOL     OW22549   2.649   0.042   4.054  0.1412  0.3777  0.0718
 3697SOL    HW122550   2.614   4.711   4.126  0.4370 -1.2759 -0.9698
 3697SOL    HW222551   2.606   4.717   3.981  1.7237 -2.7084  1.0494
 3698SOL     OW22552   2.335   4.285   5.100 -0.5059  0.0371  0.5639
 3698SOL    HW122553   2.305   4.359   5.046  0.0651  0.1370  0.3848
 3698SOL    HW222554   2.329   4.213   5.037  2.1485  1.1901 -0.9992
 3699SOL     OW22555   0.607   2.506   6.884  0.5416  0.0162 -0.1297
 3699SOL    HW122556   0.589   2.418   6.852  0.5835 -0.2009  0.4285
 3699SOL    HW222557   0.586   2.501   6.978  0.6380  0.9610 -0.0493
 3700SOL     OW22558   0.293   2.579   4.892 -0.1178 -0.5018  0.3174
 3700SOL    HW122559   0.241   2.543   4.819 -1.9009 -1.0375  1.8569
 3700SOL    HW222560   0.330   2.663   4.866  2.0714 -2.0692 -1.7194
 3701SOL     OW22561   4.143   4.208   2.288 -0.1978  0.5591  0.0621
 3701SOL    HW122562   4.136   4.284   2.346  0.1680 -0.2498  1.1728
 3701SOL    HW222563   4.236   4.212   2.268  0.0264 -1.7268  0.6505
 3702SOL     OW22564   1.963   1.965   7.393 -0.0399 -0.1883 -0.2711
 3702SOL    HW122565   1.967   1.924   7.479  2.5608  0.0651 -0.2891
 3702SOL    HW222566   2.053   1.952   7.363 -0.9992 -1.6348 -2.5223
 3703SOL     OW22567   4.622   1.107  15.306  0.6897 -0.2120  0.4876
 3703SOL    HW122568   4.547   1.126  15.362 -0.0510  1.6076 -1.1491
 3703SOL    HW222569   4.673   1.040  15.352 -1.6557 -0.1782  3.1549
 3704SOL     OW22570   2.381   1.339   2.467  0.1001  0.1811  0.1181
 3704SOL    HW122571   2.290   1.311   2.472 -0.1540  0.6177 -2.0507
 3704SOL    HW222572   2.430   1.257   2.481  1.3122  0.6751 -1.1497
 3705SOL     OW22573   0.824   0.126   7.792  0.0438  0.0985 -0.0685
 3705SOL    HW122574   0.816   0.132   7.696 -0.2963  0.4739 -0.0197
 3705SOL    HW222575   0.900   0.183   7.807  0.2881 -0.0276 -0.8167
 3706SOL     OW22576   2.938   1.799   5.764 -0.0461 -0.1296  0.1187
 3706SOL    HW122577   2.887   1.728   5.803  0.4900  1.9264  4.5148
 3706SOL    HW222578   2.886   1.878   5.779  1.1838  0.5401  0.8650
 3707SOL     OW22579   2.053   3.558  11.818  0.1743 -0.9197  0.2836
 3707SOL    HW122580   2.123   3.593  11.763  0.2686 -0.4556  0.7050
 3707SOL    HW222581   1.973   3.603  11.791 -0.3051 -2.4233 -0.8221
 3708SOL     OW22582   4.625   1.479  16.458  0.3720  0.2743  0.4979
 3708SOL    HW122583   4.680   1.472  16.536  0.7592  0.1469  0.2165
 3708SOL    HW222584   4.653   1.562  16.421 -0.7875  1.4973  2.3672
 3709SOL     OW22585   2.077   0.602   3.697 -0.4836 -0.2621  0.2850
 3709SOL    HW122586   2.003   0.638   3.648  0.7828 -0.9458 -2.1218
 3709SOL    HW222587   2.056   0.513   3.724  1.2960 -0.3147  1.4901
 3710SOL     OW22588   0.576   4.425   1.470  0.4109  0.0011 -0.4269
 3710SOL    HW122589   0.604   4.510   1.505  1.8468 -0.2055 -1.0858
 3710SOL    HW222590   0.577   4.449   1.377  1.6718 -2.3634 -1.0037
 3711SOL     OW22591   2.142   4.254   4.481 -0.7689  0.0818  0.5323
 3711SOL    HW122592   2.201   4.180   4.496 -0.2755  0.4699  0.5017
 3711SOL    HW222593   2.066   4.214   4.438  1.2617 -1.0374 -2.0449
 3712SOL     OW22594   2.527   1.242  10.904 -0.4915 -0.1929  0.1701
 3712SOL    HW122595   2.528   1.282  10.992  0.0777 -1.1812  0.6156
 3712SOL    HW222596   2.528   1.150  10.930 -0.8811 -0.9613 -2.6043
 3713SOL     OW22597   1.487   3.191   7.826  0.6844 -0.4467 -0.3086
 3713SOL    HW122598   1.408   3.170   7.877  1.7011 -1.0277  1.0279
 3713SOL    HW222599   1.529   3.105   7.831 -1.1324 -1.4601 -2.4255
 3714SOL     OW22600   1.126   3.301   6.220  0.0555  0.2436  0.3336
 3714SOL    HW122601   1.200   3.259   6.263  1.6067  1.8325 -0.8076
 3714SOL    HW222602   1.056   3.294   6.286  0.5061  0.0531  0.7877
 3715SOL     OW22603   0.389   3.242  13.311 -0.3920  0.7295  0.1798
 3715SOL    HW122604   0.331   3.196  13.249 -0.1651 -0.3947  0.8128
 3715SOL    HW222605   0.341   3.323  13.326 -1.1632  0.1920  0.6321
 3716SOL     OW22606   3.359   4.215   0.695  0.2889  0.0872  0.6068
 3716SOL    HW122607   3.271   4.181   0.678  1.9278 -3.2630 -1.1082
 3716SOL    HW222608   3.357   4.211   0.791  0.2952 -0.9506  0.5545
 3717SOL     OW22609   4.476   2.166  10.984 -0.3934 -0.0463  0.4672
 3717SOL    HW122610   4.480   2.235  10.918  1.4734 -0.7991 -0.2138
 3717SOL    HW222611   4.432   2.102  10.927  1.3992  0.0804 -1.0479
 3718SOL     OW22612   3.210   3.011   3.980  0.0533  0.1836  0.2500
 3718SOL    HW122613   3.207   2.916   3.994 -0.9486  0.6281  2.9911
 3718SOL    HW222614   3.177   3.051   4.060 -1.7868 -1.5391  0.3290
 3719SOL     OW22615   0.368   1.545   8.572 -0.3518  0.1005 -0.5664
 3719SOL    HW122616   0.299   1.565   8.635  1.0403 -0.6408  1.2175
 3719SOL    HW222617   0.369   1.626   8.520 -1.5492  0.0905 -0.5903
 3720SOL     OW22618   4.045   1.620   7.262  0.6571  0.2421  0.6002
 3720SOL    HW122619   4.105   1.692   7.278 -1.7510  1.6993  3.1072
 3720SOL    HW222620   4.002   1.653   7.184  2.4379  1.1338  0.0054
 3721SOL     OW22621   2.949   0.530   8.653  0.3320 -0.6176  0.0473
 3721SOL    HW122622   2.882   0.515   8.720  0.5725  0.5338  0.5539
 3721SOL    HW222623   2.889   0.559   8.584 -0.3771  2.0371  1.7663
 3722SOL     OW22624   2.147   1.548   0.250  0.0133 -0.1010  0.0160
 3722SOL    HW122625   2.089   1.488   0.204  0.0660 -1.1235  1.2702
 3722SOL    HW222626   2.192   1.578   0.171 -0.3133  0.9789  0.2396
 3723SOL     OW22627   1.631   4.478   7.384  0.3868 -0.4397  0.0852
 3723SOL    HW122628   1.702   4.418   7.407 -0.6647 -1.5428  0.4839
 3723SOL    HW222629   1.555   4.439   7.428 -0.5433  1.2867 -0.0090
 3724SOL     OW22630   2.047   3.994   5.720 -0.4487  0.6391 -0.4289
 3724SOL    HW122631   2.108   4.048   5.669 -0.9766  1.8780  0.2549
 3724SOL    HW222632   2.102   3.946   5.782 -2.2986 -0.8835  0.0275
 3725SOL     OW22633   4.326   4.462  16.835  0.3388  0.1975 -0.8115
 3725SOL    HW122634   4.273   4.464  16.915 -0.2219 -2.0905 -1.1133
 3725SOL    HW222635   4.375   4.543  16.846  0.5860 -0.2477  1.3543
 3726SOL     OW22636   2.441   3.348   9.162  0.4150  0.2924  0.5953
 3726SOL    HW122637   2.531   3.331   9.133  0.4442  0.2117  0.7335
 3726SOL    HW222638   2.447   3.443   9.169 -2.9804  0.4704  1.0197
 3727SOL     OW22639   2.666   3.487   8.077 -0.1732 -0.0360  0.8618
 3727SOL    HW122640   2.755   3.486   8.041 -0.3065  1.2129  0.5037
 3727SOL    HW222641   2.669   3.436   8.157  3.1476 -1.4799 -0.1903
 3728SOL     OW22642   3.147   4.354  10.315  0.5175 -0.4802 -0.9694
 3728SOL    HW122643   3.098   4.435  10.327 -2.0473 -1.9557 -1.5201
 3728SOL    HW222644   3.233   4.391  10.336  0.1514  0.4553 -1.1008
 3729SOL     OW22645   3.685   3.836   9.793  0.1102 -0.5881  0.0711
 3729SOL    HW122646   3.666   3.845   9.886 -0.1553 -0.3598 -0.0054
 3729SOL    HW222647   3.609   3.791   9.757  1.2686 -2.3174 -0.2385
 3730SOL     OW22648   2.619   2.051   8.204 -0.2344 -0.4141 -0.4480
 3730SOL    HW122649   2.568   2.052   8.285 -0.9862  0.5444 -0.9400
 3730SOL    HW222650   2.658   2.138   8.210 -0.6256 -0.4476  2.8920
 3731SOL     OW22651   2.963   1.753   4.570 -0.1180  0.2435  0.2742
 3731SOL    HW122652   2.938   1.843   4.551 -1.5923 -0.1405  0.3984
 3731SOL    HW222653   2.908   1.706   4.507  2.4632 -0.4429 -1.4743
 3732SOL     OW22654   2.318   1.301   4.494  0.1443 -0.4232  0.4109
 3732SOL    HW122655   2.228   1.280   4.469  0.5915 -1.3968 -0.3976
 3732SOL    HW222656   2.318   1.391   4.461 -2.3751 -0.1583  1.1164
 3733SOL     OW22657   0.849   2.572  12.153 -0.2764 -0.2220  0.6281
 3733SOL    HW122658   0.858   2.667  12.152 -1.5453 -0.1096  0.0223
 3733SOL    HW222659   0.835   2.561  12.059  0.1907  0.6934  0.4516
 3734SOL     OW22660   3.832   4.627  16.009  0.3967 -0.1362  0.2306
 3734SOL    HW122661   3.868   4.574  16.081 -0.6696  0.1213  0.9459
 3734SOL    HW222662   3.742   4.624  16.041  0.7705 -0.5501  1.2632
 3735SOL     OW22663   3.018   0.487   4.105 -0.3523  0.4612  0.0308
 3735SOL    HW122664   3.109   0.463   4.122 -1.2376 -3.3121 -0.7317
 3735SOL    HW222665   2.971   0.439   4.173 -0.5673  0.8132  0.1297
 3736SOL     OW22666   1.231   0.903   4.175 -0.1131 -0.1987 -0.4170
 3736SOL    HW122667   1.312   0.954   4.183  1.2596 -2.7269  1.7903
 3736SOL    HW222668   1.225   0.855   4.258 -0.1439 -1.2623 -1.0445
 3737SOL     OW22669   2.364   2.386   4.212  0.6416  0.5718 -0.0290
 3737SOL    HW122670   2.438   2.399   4.153  0.3336  0.5149 -0.4319
 3737SOL    HW222671   2.409   2.334   4.279 -0.2935  1.0300  0.9578
 3738SOL     OW22672   1.900   3.764   7.004  0.1063  0.0531 -0.0025
 3738SOL    HW122673   1.947   3.820   6.943 -1.1792  1.0011 -0.1310
 3738SOL    HW222674   1.833   3.721   6.952 -1.0079  1.8059 -0.0243
 3739SOL     OW22675   2.543   3.816  11.755  0.4046 -0.0335 -0.0776
 3739SOL    HW122676   2.609   3.763  11.799  0.1702  1.5319  2.1425
 3739SOL    HW222677   2.506   3.856  11.833 -3.2135  0.9411 -2.3079
 3740SOL     OW22678   0.176   0.277   6.146  0.7337  0.4646  0.1679
 3740SOL    HW122679   0.157   0.370   6.138  1.4801  0.5299 -0.8080
 3740SOL    HW222680   0.107   0.251   6.084  2.2492  1.0811 -1.7515
 3741SOL     OW22681   0.494   0.461   7.874 -0.7273  0.4683 -0.3768
 3741SOL    HW122682   0.495   0.378   7.826  1.6453 -0.0542  0.5515
 3741SOL    HW222683   0.585   0.490   7.862 -0.9929  0.2709 -2.6862
 3742SOL     OW22684   4.094   2.632  15.579 -0.3103 -0.4127 -0.1000
 3742SOL    HW122685   4.022   2.582  15.617  0.3066 -0.0112  1.5891
 3742SOL    HW222686   4.052   2.714  15.554 -2.0126 -0.7268  1.7026
 3743SOL     OW22687   1.430   4.450   3.933  0.3462  0.0269 -0.5076
 3743SOL    HW122688   1.476   4.432   4.015  0.0781  1.4983 -0.0127
 3743SOL    HW222689   1.345   4.408   3.947  0.4876  0.1210  0.6428
 3744SOL     OW22690   1.468   0.217   9.090  0.5463 -0.1480 -0.1794
 3744SOL    HW122691   1.529   0.261   9.031  0.9263  0.1184  0.4145
 3744SOL    HW222692   1.531   0.203   9.162 -0.2399  1.4253  0.8015
 3745SOL     OW22693   1.023   2.855  13.755  0.0552 -0.5571  0.5707
 3745SOL    HW122694   0.962   2.901  13.697 -0.6609 -2.1684  0.0528
 3745SOL    HW222695   0.981   2.863  13.841 -1.0619  1.2294 -0.1414
 3746SOL     OW22696   3.627   0.748   6.600  0.2026  0.1825 -0.1656
 3746SOL    HW122697   3.663   0.786   6.520  0.5511 -0.7223 -0.4431
 3746SOL    HW222698   3.643   0.654   6.587  0.6735  0.1953  0.3319
 3747SOL     OW22699   1.497   0.555   4.271 -0.5414  0.4816 -0.0165
 3747SOL    HW122700   1.448   0.492   4.218 -3.2119  4.1370 -1.9152
 3747SOL    HW222701   1.418   0.591   4.312 -1.1685  0.9945 -1.6765
 3748SOL     OW22702   1.585   2.011  15.749  0.1029  0.6889 -0.7052
 3748SOL    HW122703   1.654   1.984  15.808  0.1629  0.6865 -0.7763
 3748SOL    HW222704   1.536   2.065  15.811  0.2562  1.3574 -1.1591
 3749SOL     OW22705   3.000   4.413   7.226  0.1334 -0.4339 -0.2059
 3749SOL    HW122706   3.016   4.439   7.317 -0.0867  0.1393 -0.3268
 3749SOL    HW222707   2.912   4.378   7.226 -0.6577  1.5195  0.7222
 3750SOL     OW22708   1.822   2.638  11.207  0.2045 -0.1172 -0.6222
 3750SOL    HW122709   1.836   2.684  11.124  3.2724 -0.9872 -0.5772
 3750SOL    HW222710   1.789   2.704  11.268  0.1090  0.8091 -1.6661
 3751SOL     OW22711   4.355   3.051   3.031 -0.1287  0.4875 -0.1884
 3751SOL    HW122712   4.364   3.061   2.936  1.2464 -1.8504 -0.3226
 3751SOL    HW222713   4.273   3.098   3.048 -0.1760  0.6163 -0.7727
 3752SOL     OW22714   3.366   3.025  16.572  0.4831  0.6161 -0.9042
 3752SOL    HW122715   3.333   2.970  16.501  0.1385  0.0670 -0.3150
 3752SOL    HW222716   3.335   3.107  16.533 -0.7906 -0.4016 -1.9942
 3753SOL     OW22717   1.123   4.222  11.345  0.1657  0.1545  0.0758
 3753SOL    HW122718   1.125   4.206  11.251  1.7820 -1.3157  0.3560
 3753SOL    HW222719   1.039   4.178  11.359 -1.8076  3.4878 -1.3133
 3754SOL     OW22720   1.141   2.132  17.310 -0.3005 -0.2211  0.3480
 3754SOL    HW122721   1.194   2.054  17.326  0.9531  0.4268 -0.6323
 3754SOL    HW222722   1.087   2.096  17.239 -0.0628 -2.2547  1.2028
 3755SOL     OW22723   1.169   1.889   8.834 -0.0494  0.5593 -0.4240
 3755SOL    HW122724   1.248   1.892   8.887  1.1428  2.5933 -2.3714
 3755SOL    HW222725   1.134   1.978   8.837  1.1013  1.0096 -0.5152
 3756SOL     OW22726   2.237   4.272   5.768  0.6217  0.8065 -0.1552
 3756SOL    HW122727   2.174   4.338   5.737 -0.5973 -0.2150  0.1241
 3756SOL    HW222728   2.298   4.273   5.694  1.3824  2.2908  0.5002
 3757SOL     OW22729   3.258   0.769  10.829 -0.4563  0.3747  0.5119
 3757SOL    HW122730   3.245   0.801  10.919 -0.3686 -1.4280  1.1658
 3757SOL    HW222731   3.310   0.691  10.849  0.0708  0.2267 -1.4598
 3758SOL     OW22732   3.791   0.417   1.718 -0.1721 -0.3916  0.0689
 3758SOL    HW122733   3.729   0.435   1.789 -0.1785  1.2894 -0.3544
 3758SOL    HW222734   3.769   0.482   1.650 -0.1211 -0.6066 -0.1515
 3759SOL     OW22735   4.371   0.517   4.068 -0.9354 -0.3944 -0.0542
 3759SOL    HW122736   4.358   0.573   3.991  1.8964 -1.3856 -1.2665
 3759SOL    HW222737   4.460   0.547   4.090 -0.3652 -1.4476 -0.9311
 3760SOL     OW22738   1.756   1.244  11.731  0.1794  0.0166  0.2880
 3760SOL    HW122739   1.711   1.256  11.815 -1.8142 -0.1055 -0.7678
 3760SOL    HW222740   1.757   1.330  11.691 -1.6565  0.6655  1.6185
 3761SOL     OW22741   3.998   2.555   5.895  0.5196  0.3988  0.3304
 3761SOL    HW122742   4.003   2.513   5.981  1.3788 -1.3338 -0.5668
 3761SOL    HW222743   3.904   2.550   5.876  0.2952  3.9923  0.4936
 3762SOL     OW22744   1.180   2.120   2.509 -0.1963  0.1103  0.1844
 3762SOL    HW122745   1.100   2.147   2.555  0.0224  3.3847 -1.4264
 3762SOL    HW222746   1.141   2.048   2.459 -2.1044  0.0154  1.7924
 3763SOL     OW22747   1.418   2.279  10.814 -0.3316 -0.3352  0.2060
 3763SOL    HW122748   1.373   2.266  10.897 -1.0690  0.7605 -0.0265
 3763SOL    HW222749   1.494   2.326  10.848 -0.8537  1.9511 -1.7393
 3764SOL     OW22750   2.852   1.053   7.768  0.0840  0.1248 -0.3519
 3764SOL    HW122751   2.788   1.123   7.759 -0.8486 -1.1023 -3.1304
 3764SOL    HW222752   2.791   0.983   7.746  0.3819 -0.6824  1.4157
 3765SOL     OW22753   3.978   4.629  17.209 -0.3590 -0.3012  0.3898
 3765SOL    HW122754   3.919   4.638  17.283  0.1425 -0.9338  0.8705
 3765SOL    HW222755   4.055   4.600  17.258  0.5681 -0.3528 -1.0736
 3766SOL     OW22756   3.609   1.532   8.132  0.0723  1.0460 -0.1962
 3766SOL    HW122757   3.555   1.515   8.209  0.3160  0.2440 -0.1968
 3766SOL    HW222758   3.699   1.513   8.158 -0.2003  2.2898  1.6088
 3767SOL     OW22759   1.480   2.153   2.524  0.3503 -0.0885 -0.3626
 3767SOL    HW122760   1.439   2.163   2.438 -2.3101 -1.3397  0.7575
 3767SOL    HW222761   1.413   2.171   2.590 -0.9948  0.3749 -1.8608
 3768SOL     OW22762   2.890   3.723  14.308  0.1500 -0.4989 -0.1212
 3768SOL    HW122763   2.847   3.795  14.355 -3.7848 -2.2485 -1.0775
 3768SOL    HW222764   2.814   3.668  14.289  0.4153 -0.9091 -0.0029
 3769SOL     OW22765   3.102   1.357   5.869 -0.3970 -0.3199 -0.0525
 3769SOL    HW122766   3.157   1.436   5.869 -1.0395  0.1256 -1.1749
 3769SOL    HW222767   3.074   1.362   5.960 -0.8809  1.7429 -0.3068
 3770SOL     OW22768   0.153   2.698  14.655  0.3208  0.1527  0.1258
 3770SOL    HW122769   0.099   2.629  14.694  0.3353  0.2442  0.3037
 3770SOL    HW222770   0.112   2.774  14.696  3.0243  1.5524  0.1958
 3771SOL     OW22771   3.453   4.350  14.994  0.3975 -0.3217 -0.2685
 3771SOL    HW122772   3.420   4.419  15.053  1.0654  1.4700 -2.0065
 3771SOL    HW222773   3.398   4.277  15.022 -0.3685 -0.0644 -1.0927
 3772SOL     OW22774   1.067   0.487   9.238 -0.4770 -0.3907  1.1915
 3772SOL    HW122775   1.154   0.476   9.276 -0.4115 -0.3417  1.0546
 3772SOL    HW222776   1.051   0.572   9.279  0.5324 -0.1898  1.1686
 3773SOL     OW22777   2.354   0.626  16.568  0.4606  0.7121 -0.5194
 3773SOL    HW122778   2.389   0.537  16.567 -0.6862  0.2322  1.5984
 3773SOL    HW222779   2.420   0.668  16.623  0.0519  0.2217  0.3609
 3774SOL     OW22780   1.760   2.485   4.985 -0.7585 -0.2433  0.7774
 3774SOL    HW122781   1.724   2.537   5.057 -0.1786 -0.9087  1.5366
 3774SOL    HW222782   1.822   2.428   5.030 -0.3646 -1.1833 -0.9691
 3775SOL     OW22783   2.881   2.266   4.222  0.4311 -0.3935 -0.6749
 3775SOL    HW122784   2.898   2.345   4.171 -0.8802  0.4647  0.2019
 3775SOL    HW222785   2.840   2.314   4.295 -1.2420 -1.6599 -0.7697
 3776SOL     OW22786   1.820   3.345   5.504  0.3430 -0.1136 -0.5322
 3776SOL    HW122787   1.792   3.313   5.418  0.0149 -0.4013 -0.3178
 3776SOL    HW222788   1.766   3.290   5.560 -0.1387 -0.3910 -1.2645
 3777SOL     OW22789   2.901   1.107  15.653 -0.3167 -0.3626 -0.0810
 3777SOL    HW122790   2.910   1.145  15.740 -0.7491  0.4263 -0.3901
 3777SOL    HW222791   2.810   1.130  15.637  0.8535  2.7093 -2.3898
 3778SOL     OW22792   0.868   4.298   5.231  0.0588  0.4458 -0.0021
 3778SOL    HW122793   0.828   4.217   5.201 -0.3064  0.1917  1.1807
 3778SOL    HW222794   0.811   4.346   5.291 -2.1948 -3.4617  0.9990
 3779SOL     OW22795   1.787   4.421   6.630  0.6262  0.2034 -0.3797
 3779SOL    HW122796   1.788   4.482   6.556 -0.0413 -1.0797 -1.4557
 3779SOL    HW222797   1.846   4.464   6.691 -0.1770  0.1992  0.3984
 3780SOL     OW22798   4.549   2.960   3.936 -0.6671 -0.0157  0.0766
 3780SOL    HW122799   4.627   3.006   3.967  0.2790  0.0320 -2.4016
 3780SOL    HW222800   4.595   2.894   3.884  0.4494 -1.6472  3.1439
 3781SOL     OW22801   4.384   4.395  14.211  0.1436 -0.3700  0.3745
 3781SOL    HW122802   4.453   4.454  14.240 -0.0461 -0.1069  0.2955
 3781SOL    HW222803   4.328   4.450  14.157  1.5652 -0.2798 -0.9923
 3782SOL     OW22804   0.058   2.075  13.143  0.1172  0.4595 -0.2505
 3782SOL    HW122805   0.102   1.990  13.142  0.1234  0.4130  2.7479
 3782SOL    HW222806   0.125   2.143  13.130 -0.1539  0.7028 -0.3933
 3783SOL     OW22807   0.903   1.966  16.405 -0.0692 -0.4375 -0.2914
 3783SOL    HW122808   0.822   1.984  16.356 -0.7715 -1.7562  0.3734
 3783SOL    HW222809   0.930   2.057  16.420 -2.4262  0.2580 -0.2087
 3784SOL     OW22810   2.628   0.328   2.969  0.2711 -0.3070  0.0194
 3784SOL    HW122811   2.712   0.283   2.963  0.3427 -0.3152  1.0630
 3784SOL    HW222812   2.643   0.411   2.923  0.0651 -0.5934 -0.5604
 3785SOL     OW22813   0.471   1.219  14.830 -0.4637  0.4081  0.0433
 3785SOL    HW122814   0.459   1.227  14.735  0.7019 -1.3212 -0.2516
 3785SOL    HW222815   0.460   1.313  14.842 -1.7504  0.0509  1.5169
 3786SOL     OW22816   4.147   3.793   0.238 -0.0198  0.3516 -0.9762
 3786SOL    HW122817   4.186   3.764   0.156 -1.1572 -0.2512 -1.3075
 3786SOL    HW222818   4.192   3.743   0.306 -0.5314 -0.4173 -1.2122
 3787SOL     OW22819   3.926   4.497  16.226  0.0360  0.0098  0.0410
 3787SOL    HW122820   3.950   4.533  16.312  0.1316  0.2478 -0.0874
 3787SOL    HW222821   3.869   4.424  16.253  0.1033 -0.3028 -0.6553
 3788SOL     OW22822   0.945   2.146   9.210 -0.2953 -0.4876  0.4058
 3788SOL    HW122823   0.933   2.067   9.262  2.0883 -1.3451 -0.3697
 3788SOL    HW222824   0.854   2.176   9.204 -0.2526 -0.2220  1.0246
 3789SOL     OW22825   3.309   0.035   5.644  0.8524 -0.2099 -0.1483
 3789SOL    HW122826   3.330   4.700   5.568 -0.1543  2.0216 -2.0545
 3789SOL    HW222827   3.395   0.077   5.653  0.1183  1.5659 -1.4224
 3790SOL     OW22828   3.095   3.105   7.742  0.1893 -0.1087 -0.2187
 3790SOL    HW122829   3.049   3.162   7.804 -0.4789  1.4354 -2.1422
 3790SOL    HW222830   3.140   3.046   7.802  0.8138  1.0679  0.4916
 3791SOL     OW22831   4.656   3.892   2.581  0.0047  0.9027  0.2967
 3791SOL    HW122832   0.002   3.844   2.533  0.5961 -1.2579  3.3374
 3791SOL    HW222833   4.709   3.970   2.600  0.4004  0.7777 -0.2874
 3792SOL     OW22834   0.260   2.652   8.519  0.0524 -0.4373  0.0491
 3792SOL    HW122835   0.261   2.738   8.560  0.0666 -0.2155 -0.4144
 3792SOL    HW222836   0.172   2.641   8.482 -0.5905  1.4568  1.0245
 3793SOL     OW22837   1.956   4.492   1.177 -0.5592 -0.3090  0.0549
 3793SOL    HW122838   1.870   4.533   1.166  0.3927  1.1514 -2.0300
 3793SOL    HW222839   1.978   4.456   1.091  1.3874  0.7027  0.1221
 3794SOL     OW22840   4.591   1.008   1.882 -0.4107  0.2135 -0.7023
 3794SOL    HW122841   4.615   0.964   1.801 -0.9444 -1.3537 -0.0214
 3794SOL    HW222842   4.557   1.097   1.868  0.9113  0.6425 -1.1553
 3795SOL     OW22843   0.558   1.612   4.480  0.0769 -0.3541  0.2024
 3795SOL    HW122844   0.618   1.623   4.553 -0.7639 -0.8696  0.9804
 3795SOL    HW222845   0.618   1.566   4.423 -1.9814 -4.1410  1.0831
 3796SOL     OW22846   3.741   0.830   1.641 -0.5037  0.0214  0.7953
 3796SOL    HW122847   3.710   0.762   1.701 -1.7639  0.6555  0.8617
 3796SOL    HW222848   3.673   0.898   1.636 -0.6060 -0.3696 -3.4103
 3797SOL     OW22849   3.574   3.620   0.826  0.8086  0.0830  0.0553
 3797SOL    HW122850   3.523   3.638   0.747  0.6200  1.2789  0.4507
 3797SOL    HW222851   3.537   3.688   0.881 -0.3173 -1.0872  0.7436
 3798SOL     OW22852   1.485   2.069   1.792  0.2545  0.3980 -0.1360
 3798SOL    HW122853   1.523   2.155   1.811  0.6184 -0.4752  2.9672
 3798SOL    HW222854   1.403   2.101   1.754 -0.7501  0.1099  1.7777
 3799SOL     OW22855   1.584   0.650   8.056  0.3185 -0.6899 -0.4094
 3799SOL    HW122856   1.599   0.666   8.149 -2.3381 -0.4972 -0.0066
 3799SOL    HW222857   1.494   0.617   8.056 -0.4565  1.4581  2.2765
 3800SOL     OW22858   2.059   2.462   3.500  0.7018 -0.0099 -0.5845
 3800SOL    HW122859   2.124   2.523   3.536 -0.4557  0.7512  0.2073
 3800SOL    HW222860   2.019   2.430   3.580 -1.9079 -0.8382 -2.2274
 3801SOL     OW22861   1.817   4.015   8.652  0.2697  0.0152 -0.2443
 3801SOL    HW122862   1.822   3.974   8.738 -0.0228  1.5745  0.5136
 3801SOL    HW222863   1.738   4.069   8.662  1.0060  0.8856  0.9566
 3802SOL     OW22864   1.573   2.031  16.100 -0.5566  0.1406 -0.5867
 3802SOL    HW122865   1.645   2.064  16.154 -0.9334 -1.2622  0.7548
 3802SOL    HW222866   1.615   1.999  16.020 -0.9164  0.1236 -0.7671
 3803SOL     OW22867   4.539   2.612   9.842  0.1843  0.1088  0.4659
 3803SOL    HW122868   4.472   2.563   9.794  1.6595 -2.1220  0.7013
 3803SOL    HW222869   4.487   2.621   9.923  0.6779  1.8184  0.5842
 3804SOL     OW22870   3.084   0.880  10.672 -0.9469 -0.3369  0.0374
 3804SOL    HW122871   3.161   0.857  10.725 -2.2462  0.2645  2.1883
 3804SOL    HW222872   3.027   0.911  10.743 -0.3561 -2.5299  1.4992
 3805SOL     OW22873   4.236   0.276  12.135  0.4715  0.4546 -0.2793
 3805SOL    HW122874   4.300   0.318  12.078 -0.7688  0.0399 -1.9479
 3805SOL    HW222875   4.210   0.343  12.199  0.9791  0.4445 -0.0594
 3806SOL     OW22876   2.285   1.004   6.261 -0.0006  0.3118 -0.0891
 3806SOL    HW122877   2.297   1.020   6.354  0.3866 -1.3879  0.1563
 3806SOL    HW222878   2.278   0.908   6.255  0.3740  0.2289  0.9756
 3807SOL     OW22879   0.659   3.225   9.456  0.0933 -0.4063 -0.3111
 3807SOL    HW122880   0.642   3.156   9.392 -0.1837 -2.2591  1.7976
 3807SOL    HW222881   0.590   3.292   9.448 -1.9252 -2.4029  0.6274
 3808SOL     OW22882   4.231   0.286   5.143  0.1987 -0.2986 -0.2258
 3808SOL    HW122883   4.135   0.285   5.153  0.2439 -2.2556 -0.0497
 3808SOL    HW222884   4.248   0.331   5.061  0.7343 -0.3032 -0.1180
 3809SOL     OW22885   1.484   1.546   3.159 -0.1220  0.2064  0.5323
 3809SOL    HW122886   1.548   1.551   3.230 -0.8108  1.3341  1.0704
 3809SOL    HW222887   1.468   1.451   3.154  2.4204 -0.1170 -1.1061
 3810SOL     OW22888   2.152   1.741  13.713  0.1497 -0.5215  0.0040
 3810SOL    HW122889   2.140   1.650  13.741 -3.3149 -0.4877 -1.3035
 3810SOL    HW222890   2.077   1.757  13.655  0.8153 -2.3413 -1.3725
 3811SOL     OW22891   2.397   3.317  10.545 -0.6312 -1.2604 -0.4914
 3811SOL    HW122892   2.415   3.277  10.460 -0.7328 -1.9970 -0.1680
 3811SOL    HW222893   2.309   3.354  10.536  0.2667  0.7142 -1.1278
 3812SOL     OW22894   2.346   3.049   3.883  0.8676  0.0945 -0.2639
 3812SOL    HW122895   2.431   3.081   3.915 -0.6813  0.5447  3.4719
 3812SOL    HW222896   2.368   3.028   3.793  0.3529 -1.0918 -0.1077
 3813SOL     OW22897   1.092   0.278   4.535 -0.0078 -0.5744 -0.5689
 3813SOL    HW122898   1.154   0.238   4.596  0.0964  2.8584  1.5786
 3813SOL    HW222899   1.078   0.365   4.573 -1.3749 -0.2607 -1.7821
 3814SOL     OW22900   2.586   4.124   6.224  0.1590  0.3204 -0.1328
 3814SOL    HW122901   2.593   4.201   6.167 -2.2256  2.4934  2.5072
 3814SOL    HW222902   2.603   4.164   6.310  0.3558  1.3770 -0.6594
 3815SOL     OW22903   2.842   2.291  12.392  0.1040  0.0643 -0.2149
 3815SOL    HW122904   2.858   2.280  12.298 -1.1460  1.0642 -0.5492
 3815SOL    HW222905   2.900   2.224  12.427 -0.4400  0.3554  1.2325
 3816SOL     OW22906   0.687   4.549   2.986  0.3717  0.2612  0.2128
 3816SOL    HW122907   0.670   4.455   2.988  0.8810  0.1711  0.2790
 3816SOL    HW222908   0.727   4.549   2.899 -2.2022  2.2309 -0.9829
 3817SOL     OW22909   1.924   4.066   6.082 -0.4999 -0.2395 -0.1331
 3817SOL    HW122910   2.003   4.095   6.127  0.1043 -1.0926 -0.6465
 3817SOL    HW222911   1.928   3.975   6.110 -0.1792 -0.2382 -0.1705
 3818SOL     OW22912   1.976   3.564  17.422  0.3451  0.3330  0.1722
 3818SOL    HW122913   1.890   3.573  17.461 -0.3355 -0.4105 -1.1743
 3818SOL    HW222914   2.025   3.636  17.462 -1.3162  1.1883  0.6251
 3819SOL     OW22915   4.023   2.657   1.761  0.6624 -0.1968 -0.2088
 3819SOL    HW122916   4.099   2.671   1.818 -0.3879 -2.8426  1.8250
 3819SOL    HW222917   3.974   2.597   1.818 -1.8675  0.9900 -1.1441
 3820SOL     OW22918   4.330   2.621  13.133 -0.0329  0.1446  0.5646
 3820SOL    HW122919   4.236   2.639  13.121 -0.9436 -3.1957  2.5588
 3820SOL    HW222920   4.363   2.683  13.199  2.4062 -1.1129  0.5058
 3821SOL     OW22921   3.737   4.465  13.570  0.3786 -0.2532  0.2781
 3821SOL    HW122922   3.812   4.523  13.584 -0.1469  0.6211 -0.5456
 3821SOL    HW222923   3.707   4.489  13.483  2.3978  1.1216 -0.0656
 3822SOL     OW22924   3.604   4.571   5.914 -0.0034  0.1361 -0.6505
 3822SOL    HW122925   3.511   4.591   5.907 -0.9213 -3.7159  0.8567
 3822SOL    HW222926   3.634   4.608   5.997  3.5754 -1.9385 -0.9983
 3823SOL     OW22927   4.344   2.945   3.465  0.2423 -0.0285  0.2833
 3823SOL    HW122928   4.333   2.856   3.497 -0.3425 -0.0545 -0.0011
 3823SOL    HW222929   4.261   2.945   3.417  1.1115  0.7774 -1.2357
 3824SOL     OW22930   2.122   4.456  11.780 -0.1476  0.6324  0.8307
 3824SOL    HW122931   2.086   4.484  11.864  0.2263  0.9065  0.9011
 3824SOL    HW222932   2.157   4.373  11.813 -1.4988 -0.3521 -0.1891
 3825SOL     OW22933   3.717   3.082   1.624 -0.2649  0.5228  0.0699
 3825SOL    HW122934   3.804   3.060   1.591  0.6410  3.6768  0.3215
 3825SOL    HW222935   3.709   3.021   1.698  0.4160 -0.6192 -0.8139
 3826SOL     OW22936   2.663   2.858  12.638 -0.3689 -0.1633 -0.3311
 3826SOL    HW122937   2.711   2.779  12.664 -2.3072 -1.6409 -1.2148
 3826SOL    HW222938   2.616   2.871  12.720 -0.4744 -1.1021 -0.2389
 3827SOL     OW22939   0.652   2.128  16.283  0.0998 -0.4350 -0.0162
 3827SOL    HW122940   0.560   2.102  16.282 -0.3835  1.2059  1.8688
 3827SOL    HW222941   0.660   2.148  16.190  0.5712  1.7615  0.4901
 3828SOL     OW22942   4.162   2.439  14.313 -0.4285 -0.2259 -0.5297
 3828SOL    HW122943   4.247   2.396  14.315 -1.3051 -1.9690 -1.2252
 3828SOL    HW222944   4.139   2.443  14.406 -2.2986  0.8882 -1.0405
 3829SOL     OW22945   2.099   3.902   6.885 -0.6689  0.0929 -0.3815
 3829SOL    HW122946   2.141   3.859   6.960 -1.0936 -1.0280 -0.7809
 3829SOL    HW222947   2.161   3.975   6.883 -0.2806 -0.1735  1.4779
 3830SOL     OW22948   4.261   3.478   5.083  0.0427  0.2451 -0.9489
 3830SOL    HW122949   4.264   3.502   4.990 -0.8385  0.0873 -1.0193
 3830SOL    HW222950   4.305   3.394   5.073  3.1550  1.7167  0.1582
 3831SOL     OW22951   4.712   4.330  16.736  0.5208  0.2523  0.3899
 3831SOL    HW122952   0.010   4.359  16.825 -1.6343  2.9935 -0.0519
 3831SOL    HW222953   4.616   4.337  16.735  0.4401 -0.8666  0.0255
 3832SOL     OW22954   0.611   2.844  17.250 -0.2811 -0.0788  0.8043
 3832SOL    HW122955   0.533   2.834  17.304 -0.8472 -1.1725 -0.2084
 3832SOL    HW222956   0.679   2.853  17.317 -0.6887 -0.7871  1.3053
 3833SOL     OW22957   1.445   2.086   8.176  0.2072  0.2158 -0.1366
 3833SOL    HW122958   1.408   2.095   8.264  0.8718 -0.7612  0.2376
 3833SOL    HW222959   1.481   2.174   8.166 -1.0852  0.6249 -1.2934
 3834SOL     OW22960   2.158   0.387   3.134 -0.3217  0.1677 -0.3089
 3834SOL    HW122961   2.175   0.480   3.122 -1.8377  0.4147 -0.5334
 3834SOL    HW222962   2.194   0.362   3.048 -3.3055  2.6337 -2.2760
 3835SOL     OW22963   0.841   2.797   9.098  0.5754  0.5042 -0.7273
 3835SOL    HW122964   0.907   2.745   9.143 -1.6206 -0.7148  1.1298
 3835SOL    HW222965   0.825   2.735   9.027  0.6080  0.0130 -0.3040
 3836SOL     OW22966   0.150   3.127   4.511 -0.1430  0.2884 -0.6451
 3836SOL    HW122967   0.106   3.049   4.477  1.1501 -0.5263 -0.4619
 3836SOL    HW222968   0.234   3.086   4.530 -0.9717 -1.3350 -0.4519
 3837SOL     OW22969   3.999   3.392   3.717  0.0456 -0.1199  0.1061
 3837SOL    HW122970   3.993   3.486   3.734 -2.6656 -0.2915  0.1217
 3837SOL    HW222971   3.997   3.394   3.622  0.2007 -0.8795  0.0836
 3838SOL     OW22972   1.958   1.739   5.436  0.1801 -0.4703  0.0773
 3838SOL    HW122973   1.879   1.737   5.381 -1.4823  0.0333  2.4413
 3838SOL    HW222974   2.013   1.676   5.389  0.7291 -1.7968  2.4744
 3839SOL     OW22975   0.744   2.287   8.756  0.5124 -0.3734  0.6799
 3839SOL    HW122976   0.775   2.370   8.718  0.4794 -1.1441 -1.0082
 3839SOL    HW222977   0.667   2.319   8.803 -1.6439 -2.9952 -1.0995
 3840SOL     OW22978   3.724   3.014   6.889 -0.1894 -0.3394  0.0160
 3840SOL    HW122979   3.808   3.027   6.932 -0.2018  0.6565 -0.2572
 3840SOL    HW222980   3.661   3.047   6.953  0.7498  1.1878  0.1473
 3841SOL     OW22981   2.519   1.411   3.075  0.2936 -0.0144  0.2003
 3841SOL    HW122982   2.571   1.334   3.100 -1.7126 -1.1500  0.8729
 3841SOL    HW222983   2.587   1.467   3.039  0.6896 -0.7914 -0.2571
 3842SOL     OW22984   4.613   1.396  11.397  0.2553 -0.1077 -0.7066
 3842SOL    HW122985   4.600   1.375  11.489 -0.0746  1.8868 -0.2993
 3842SOL    HW222986   4.615   1.492  11.406 -1.1346 -0.0562 -1.0457
 3843SOL     OW22987   0.715   2.575   5.796  0.6380 -0.4448 -0.4981
 3843SOL    HW122988   0.636   2.618   5.764  0.0867 -0.9780  0.1367
 3843SOL    HW222989   0.737   2.636   5.866  1.0167  0.1915 -1.1702
 3844SOL     OW22990   4.301   0.758   3.871  0.4092 -0.0875 -0.3076
 3844SOL    HW122991   4.317   0.789   3.782 -0.5876 -0.9857 -0.7904
 3844SOL    HW222992   4.207   0.766   3.883  0.6283  0.5437  1.0528
 3845SOL     OW22993   1.043   1.364   7.448  0.3162 -0.0230  0.4242
 3845SOL    HW122994   0.969   1.324   7.496  1.5604 -0.8397  1.6679
 3845SOL    HW222995   1.068   1.297   7.385 -1.9571 -2.2541  1.8387
 3846SOL     OW22996   2.601   3.063   5.730  0.3701  0.5041 -0.0602
 3846SOL    HW122997   2.519   3.111   5.731  0.5974  0.8940  0.0174
 3846SOL    HW222998   2.649   3.081   5.811 -0.0771 -0.0663  0.3324
 3847SOL     OW22999   2.859   0.089   4.416  0.1346 -0.4732 -0.5394
 3847SOL    HW123000   2.791   0.031   4.452  1.5304 -2.1877 -0.6559
 3847SOL    HW223001   2.884   0.120   4.503 -1.8808 -0.2082 -0.0476
 3848SOL     OW23002   2.572   2.752  10.507  0.5455 -0.0471 -0.3758
 3848SOL    HW123003   2.539   2.716  10.425  0.5248  2.3653 -1.4472
 3848SOL    HW223004   2.500   2.806  10.541  1.4076  1.0190 -0.2225
 3849SOL     OW23005   4.367   0.327   2.468  0.7042  0.3908  0.8414
 3849SOL    HW123006   4.285   0.295   2.504  0.9260 -2.1780 -0.8996
 3849SOL    HW223007   4.391   0.267   2.397  0.6127  0.6910  0.5529
 3850SOL     OW23008   2.879   0.242  16.137 -0.4373 -0.2068 -0.0614
 3850SOL    HW123009   2.795   0.199  16.120  0.1519 -1.0940 -0.7367
 3850SOL    HW223010   2.871   0.309  16.070 -2.6965  1.8551  2.2505
 3851SOL     OW23011   2.702   2.808   6.476 -0.1596  0.1057 -0.5225
 3851SOL    HW123012   2.715   2.784   6.384  2.0520 -1.3681  0.1580
 3851SOL    HW223013   2.673   2.899   6.475  0.5190  0.3874  3.5764
 3852SOL     OW23014   4.277   1.916   5.467  0.7228  0.3730 -0.2560
 3852SOL    HW123015   4.248   1.999   5.429 -1.2780 -0.3213 -0.2356
 3852SOL    HW223016   4.244   1.928   5.556 -1.4938 -1.4399 -0.8512
 3853SOL     OW23017   3.034   4.301   0.324 -0.2067  0.0386 -0.1769
 3853SOL    HW123018   3.030   4.236   0.254  1.8668 -1.7353  1.3347
 3853SOL    HW223019   2.945   4.336   0.329 -0.2438 -0.3397  1.9629
 3854SOL     OW23020   4.191   3.755   8.611 -0.0971 -0.0314 -0.6974
 3854SOL    HW123021   4.254   3.797   8.553  1.4074 -0.1893  0.8241
 3854SOL    HW223022   4.140   3.719   8.538  1.3194 -2.1541 -0.6496
 3855SOL     OW23023   0.036   3.052   1.940 -0.0029 -0.2287 -0.2044
 3855SOL    HW123024   0.055   2.958   1.940  0.5248 -0.1212 -0.9719
 3855SOL    HW223025   4.667   3.050   1.972  0.4500 -1.4517  0.9873
 3856SOL     OW23026   1.092   3.196  13.308 -0.0658 -0.0758  0.4247
 3856SOL    HW123027   1.022   3.196  13.373 -1.3738  1.0149 -1.0018
 3856SOL    HW223028   1.102   3.291  13.311  1.1027 -0.1340 -1.2720
 3857SOL     OW23029   1.612   3.486   1.744 -0.2140 -1.2984  0.2242
 3857SOL    HW123030   1.599   3.485   1.839 -1.6790  1.9229  0.0580
 3857SOL    HW223031   1.707   3.478   1.746  0.1520  3.3297 -1.1099
 3858SOL     OW23032   4.231   0.883   0.357 -0.1762 -0.2550  0.2839
 3858SOL    HW123033   4.304   0.821   0.364  0.1185  0.0279 -0.2902
 3858SOL    HW223034   4.258   0.953   0.415 -0.3110 -0.3355  0.4452
 3859SOL     OW23035   0.565   0.323   0.640 -0.0418 -0.4383 -0.0460
 3859SOL    HW123036   0.558   0.290   0.551 -1.6039 -0.0183 -0.0882
 3859SOL    HW223037   0.475   0.336   0.671 -0.5468  1.7127 -2.4345
 3860SOL     OW23038   1.336   0.698   7.613 -1.1020 -0.0210 -0.5787
 3860SOL    HW123039   1.298   0.649   7.540  0.3488 -1.1274 -0.5789
 3860SOL    HW223040   1.427   0.670   7.605 -1.3244 -1.3026  1.5256
 3861SOL     OW23041   4.084   1.377   7.121  0.1848 -0.3444  0.4407
 3861SOL    HW123042   4.092   1.443   7.190 -0.8955  1.0086 -0.7262
 3861SOL    HW223043   4.134   1.427   7.056  0.9638 -0.4640  0.9554
 3862SOL     OW23044   2.766   4.658   5.917 -0.1846  0.0713 -0.0048
 3862SOL    HW123045   2.696   4.623   5.972  0.5679  0.8433  1.4575
 3862SOL    HW223046   2.775   4.575   5.870  1.8973 -0.4934  1.4011
 3863SOL     OW23047   2.723   4.353  13.529 -0.2461 -0.2740 -0.2845
 3863SOL    HW123048   2.661   4.347  13.601 -1.1593 -2.9909 -1.2851
 3863SOL    HW223049   2.804   4.350  13.581  1.2765 -0.8728 -2.6812
 3864SOL     OW23050   1.149   4.502   4.905 -0.1268 -0.3224 -0.8225
 3864SOL    HW123051   1.076   4.563   4.922  0.3783  0.2598 -0.7345
 3864SOL    HW223052   1.225   4.558   4.887  0.4276 -1.3048 -1.4889
 3865SOL     OW23053   0.863   0.066   7.301 -0.0845  0.6441 -0.2323
 3865SOL    HW123054   0.869   0.140   7.361  4.0910  2.0460 -2.3297
 3865SOL    HW223055   0.927   0.085   7.232 -1.8648  1.3468 -1.7195
 3866SOL     OW23056   1.186   4.012   8.060  0.0542  0.1348  0.1296
 3866SOL    HW123057   1.094   4.033   8.042  0.6685  1.6551 -1.3268
 3866SOL    HW223058   1.200   4.067   8.137  3.1982 -0.0690 -0.2830
 3867SOL     OW23059   4.563   3.671   9.217 -0.1202  0.4661 -0.0266
 3867SOL    HW123060   4.548   3.622   9.136  0.6931 -0.1381  0.1973
 3867SOL    HW223061   4.658   3.674   9.224 -0.1209 -0.8098  0.4077
 3868SOL     OW23062   2.194   3.185  14.715  0.5364 -0.0957  0.2689
 3868SOL    HW123063   2.215   3.203  14.623  0.9268  0.3651  0.4500
 3868SOL    HW223064   2.114   3.236  14.729 -0.0322 -0.5879 -1.1392
 3869SOL     OW23065   1.675   0.642   0.582 -0.5358  0.1410 -0.5916
 3869SOL    HW123066   1.769   0.655   0.588 -0.7326  2.4710 -2.5822
 3869SOL    HW223067   1.665   0.576   0.651 -1.3998  1.0416  0.1455
 3870SOL     OW23068   1.348   3.836   3.330  0.2814 -0.1148  0.5226
 3870SOL    HW123069   1.298   3.900   3.278  1.6537 -0.5722 -1.3383
 3870SOL    HW223070   1.284   3.832   3.402 -0.8228  0.3164 -0.4250
 3871SOL     OW23071   2.171   1.852   3.246  0.0592  0.1602  0.3513
 3871SOL    HW123072   2.182   1.923   3.183 -1.1351  0.1790  0.1647
 3871SOL    HW223073   2.078   1.842   3.227 -0.3345 -0.9928  2.8489
 3872SOL     OW23074   4.201   0.601  16.497  0.6616  0.0670  0.2385
 3872SOL    HW123075   4.170   0.557  16.576  0.0975  0.0011 -0.0157
 3872SOL    HW223076   4.295   0.608  16.512  0.9576 -0.9519 -1.2118
 3873SOL     OW23077   1.434   3.058   4.067 -0.3495  0.1446 -0.2818
 3873SOL    HW123078   1.525   3.043   4.092 -0.1950  1.3980 -0.0969
 3873SOL    HW223079   1.409   2.971   4.096  2.0777 -0.9278 -1.3925
 3874SOL     OW23080   2.439   4.595   7.630 -0.5123 -0.0582  0.4911
 3874SOL    HW123081   2.523   4.619   7.591 -0.5077  0.6302  0.9377
 3874SOL    HW223082   2.420   4.679   7.670 -0.2496 -0.0682  0.6384
 3875SOL     OW23083   0.428   3.407  11.786 -0.2988  0.0888  0.2257
 3875SOL    HW123084   0.462   3.479  11.733  1.1777 -0.9459 -0.2490
 3875SOL    HW223085   0.348   3.392  11.737 -1.0210 -1.0643  1.7563
 3876SOL     OW23086   1.341   1.291  12.263  0.5335  0.4460 -0.3341
 3876SOL    HW123087   1.333   1.195  12.258  2.0184  0.0676  4.1241
 3876SOL    HW223088   1.273   1.307  12.328  1.2094  0.0671  0.4690
 3877SOL     OW23089   0.020   0.897  15.422  0.0595 -0.1891 -0.6237
 3877SOL    HW123090   0.071   0.822  15.392  1.8474 -0.1775  2.3760
 3877SOL    HW223091   0.008   0.881  15.515  2.6639 -0.6770 -0.3684
 3878SOL     OW23092   4.353   4.004   7.723 -0.7313 -0.3843 -0.4151
 3878SOL    HW123093   4.294   4.080   7.723 -1.7152 -1.1391 -0.3947
 3878SOL    HW223094   4.316   3.946   7.656 -1.2447  1.1641 -1.4744
 3879SOL     OW23095   1.006   4.635   6.698  0.1533  0.5879 -0.2500
 3879SOL    HW123096   0.951   4.710   6.724  0.6882  1.0314 -0.4016
 3879SOL    HW223097   0.956   4.557   6.722  0.9784 -0.9123 -3.4547
 3880SOL     OW23098   2.690   1.390  16.690  0.1131 -0.1982  0.0501
 3880SOL    HW123099   2.737   1.422  16.766 -0.6097 -0.9645  0.8236
 3880SOL    HW223100   2.604   1.368  16.727  1.0637 -2.6423  0.8503
 3881SOL     OW23101   0.050   2.872   4.449 -0.1784 -0.5082  0.9636
 3881SOL    HW123102   4.692   2.893   4.399 -0.7051 -1.0566  1.5539
 3881SOL    HW223103   0.083   2.789   4.416  0.6183  0.3910 -0.4983
 3882SOL     OW23104   0.549   3.794  16.261  0.0800 -0.2689 -0.0127
 3882SOL    HW123105   0.637   3.827  16.278 -0.6434  0.5194  2.1957
 3882SOL    HW223106   0.502   3.875  16.241 -1.2117 -0.7352  1.1211
 3883SOL     OW23107   2.914   0.483   9.597  0.2391 -0.2938  0.3119
 3883SOL    HW123108   2.836   0.468   9.650 -0.8844  2.6685 -0.5291
 3883SOL    HW223109   2.886   0.432   9.520 -3.1169  0.9208  0.7141
 3884SOL     OW23110   3.468   2.100   7.060 -0.3106  0.0797 -0.0656
 3884SOL    HW123111   3.489   2.172   7.119  0.4590  0.5311 -0.8900
 3884SOL    HW223112   3.461   2.020   7.112  0.1092 -2.4101 -3.8260
 3885SOL     OW23113   4.023   0.729   5.686  0.3272 -0.2393  0.3567
 3885SOL    HW123114   3.986   0.752   5.771  1.8539  0.6293  0.7806
 3885SOL    HW223115   3.987   0.797   5.629 -1.5932 -1.7197 -0.2269
 3886SOL     OW23116   3.637   3.514  12.468 -0.0279  0.1878 -0.1069
 3886SOL    HW123117   3.687   3.507  12.387 -1.8479  0.8917 -1.2900
 3886SOL    HW223118   3.557   3.561  12.444 -0.5973  0.5061  2.3860
 3887SOL     OW23119   3.122   1.277  12.037 -0.1046 -0.0349  0.6907
 3887SOL    HW123120   3.106   1.197  11.987  1.3231  1.1988 -1.7454
 3887SOL    HW223121   3.047   1.271  12.096  2.0875  2.0423  3.7273
 3888SOL     OW23122   2.218   4.357   8.591  0.0403  0.1387 -0.2460
 3888SOL    HW123123   2.201   4.329   8.501 -1.3636  0.7806 -0.1763
 3888SOL    HW223124   2.214   4.274   8.638 -0.1848  0.7404  0.7876
 3889SOL     OW23125   2.266   1.676  16.616 -0.1827 -0.2596 -0.5332
 3889SOL    HW123126   2.355   1.673  16.651 -1.0632 -1.8672  1.5931
 3889SOL    HW223127   2.251   1.582  16.610  1.9025 -0.9052  4.0988
 3890SOL     OW23128   1.130   3.825   6.602 -0.3612 -0.0468 -0.0023
 3890SOL    HW123129   1.202   3.883   6.577 -0.6800 -0.6824 -2.3742
 3890SOL    HW223130   1.175   3.741   6.615  0.7797  0.8644  1.9488
 3891SOL     OW23131   3.405   4.224   9.068  0.9446 -0.4782 -0.3458
 3891SOL    HW123132   3.312   4.207   9.054  0.2618  2.7734  0.1214
 3891SOL    HW223133   3.436   4.236   8.978 -2.6889  0.3046 -1.5197
 3892SOL     OW23134   2.298   2.605   3.259  0.5281  0.7746  0.0368
 3892SOL    HW123135   2.214   2.651   3.251  0.3326  0.3179 -0.5435
 3892SOL    HW223136   2.348   2.685   3.245  0.0077  0.8671 -1.3271
 3893SOL     OW23137   1.828   2.109  17.048 -0.2027  0.1339  0.1513
 3893SOL    HW123138   1.799   2.200  17.039  0.7976  0.5900  1.5795
 3893SOL    HW223139   1.824   2.091  17.142  0.5463 -0.1474  0.1225
 3894SOL     OW23140   3.916   3.267   7.791 -0.2934 -0.1697 -0.8065
 3894SOL    HW123141   3.951   3.316   7.717  0.2924 -0.5966 -0.8110
 3894SOL    HW223142   3.984   3.282   7.857 -0.8375 -0.4024 -0.1877
 3895SOL     OW23143   0.468   3.686   8.997 -0.3297 -0.5612  0.1323
 3895SOL    HW123144   0.541   3.625   8.991 -0.9999 -1.2336 -1.2310
 3895SOL    HW223145   0.425   3.652   9.075  0.2883  0.2151  0.8161
 3896SOL     OW23146   4.233   1.168   4.317  0.0709 -0.2620 -0.4226
 3896SOL    HW123147   4.299   1.100   4.328 -2.3958 -2.6936 -0.5483
 3896SOL    HW223148   4.291   1.240   4.342 -2.5322  0.5409  3.3373
 3897SOL     OW23149   0.010   1.475  17.170  0.4364  0.1387 -0.2003
 3897SOL    HW123150   4.697   1.556  17.130 -1.1218  1.2951  3.4596
 3897SOL    HW223151   4.715   1.408  17.104 -1.1447 -0.1091  0.4330
 3898SOL     OW23152   0.073   2.511   0.290 -0.9641  0.6456 -0.2449
 3898SOL    HW123153   0.166   2.492   0.302 -2.0958 -3.3902  2.0985
 3898SOL    HW223154   0.066   2.558   0.207  2.0559 -0.3853 -1.0696
 3899SOL     OW23155   2.155   1.555   6.160 -0.3788  0.1512 -0.0915
 3899SOL    HW123156   2.116   1.503   6.090 -1.1012 -0.3846  0.7152
 3899SOL    HW223157   2.146   1.501   6.239 -0.9025 -2.0453 -1.6576
 3900SOL     OW23158   4.234   1.216  17.633 -0.2652  0.2900  0.0218
 3900SOL    HW123159   4.177   1.283  17.597 -0.2837 -0.4881 -1.3764
 3900SOL    HW223160   4.288   1.176  17.565  0.6689 -0.4341  1.1937
 3901SOL     OW23161   2.391   0.179   8.918  0.3315  0.1757 -0.3583
 3901SOL    HW123162   2.306   0.135   8.907  0.0688  1.2673 -2.7794
 3901SOL    HW223163   2.393   0.147   9.008 -0.0694  0.3001 -0.3038
 3902SOL     OW23164   3.617   3.870  10.065  0.2583 -0.3425  0.3676
 3902SOL    HW123165   3.629   3.849  10.158 -2.1974 -2.0874  0.2851
 3902SOL    HW223166   3.523   3.858  10.052  0.1214  0.8146  0.3640
 3903SOL     OW23167   2.184   0.968   1.045  0.0641 -0.0340 -0.4856
 3903SOL    HW123168   2.272   0.975   1.082  0.1807 -0.7924 -0.6049
 3903SOL    HW223169   2.149   0.892   1.092 -3.1671  0.7107 -1.6538
 3904SOL     OW23170   0.894   4.072   6.009  0.8900 -0.1080  0.2243
 3904SOL    HW123171   0.984   4.097   6.027  0.7737 -0.7985  1.7538
 3904SOL    HW223172   0.869   4.156   5.969 -1.8256 -0.4614  1.1431
 3905SOL     OW23173   4.469   0.008   5.522 -0.5427  0.0737  0.1330
 3905SOL    HW123174   4.547   0.047   5.484 -0.2983  1.1209  1.6905
 3905SOL    HW223175   4.399   0.052   5.475  0.2443 -0.8690 -1.9056
 3906SOL     OW23176   3.333   3.868   4.208 -0.1714  0.5245  0.8909
 3906SOL    HW123177   3.238   3.871   4.214 -0.2785  1.1939 -1.0019
 3906SOL    HW223178   3.327   3.805   4.136 -0.5899  1.6054 -0.0067
 3907SOL     OW23179   0.278   0.587  12.413 -0.1416 -0.5018  0.1793
 3907SOL    HW123180   0.302   0.547  12.330 -1.2289  1.5593 -1.1394
 3907SOL    HW223181   0.299   0.515  12.472 -2.4784 -0.5608  0.9687
 3908SOL     OW23182   0.034   3.714   4.535  0.4376 -0.4014  0.1521
 3908SOL    HW123183   4.662   3.734   4.525  0.7055  0.5598 -0.3963
 3908SOL    HW223184   0.063   3.790   4.586 -1.0100  0.3637 -0.1556
 3909SOL     OW23185   3.341   1.342   5.305 -0.1133 -0.1024 -0.3268
 3909SOL    HW123186   3.248   1.340   5.324 -0.3571 -1.6972 -1.7361
 3909SOL    HW223187   3.333   1.387   5.221  4.0324  0.5972 -0.3676
 3910SOL     OW23188   2.530   3.591   0.845  0.3226 -0.2743  0.2495
 3910SOL    HW123189   2.518   3.673   0.797  0.8179  0.5387  1.5350
 3910SOL    HW223190   2.484   3.609   0.927 -0.4765 -1.6426  0.1080
 3911SOL     OW23191   3.586   1.456   4.857 -0.3262 -0.0306  0.1914
 3911SOL    HW123192   3.678   1.467   4.881 -0.3749  1.5933 -0.3643
 3911SOL    HW223193   3.561   1.376   4.903 -0.0544 -0.4631 -0.4149
 3912SOL     OW23194   2.462   2.552   2.738  0.4698 -0.4365  0.4598
 3912SOL    HW123195   2.492   2.519   2.653  0.3788 -1.1913  0.7202
 3912SOL    HW223196   2.382   2.501   2.743  0.8044 -0.8562  1.5187
 3913SOL     OW23197   0.434   2.845  13.532 -0.1426 -0.1743  0.4349
 3913SOL    HW123198   0.370   2.863  13.601 -1.6431 -2.1424 -0.4546
 3913SOL    HW223199   0.402   2.779  13.471 -1.7656  1.2370 -0.2554
 3914SOL     OW23200   3.301   0.310  16.132  0.1261  0.1461  0.3483
 3914SOL    HW123201   3.364   0.306  16.060  0.2191 -1.5058  0.5258
 3914SOL    HW223202   3.260   0.231  16.096 -1.0307  1.1720 -0.6384
 3915SOL     OW23203   0.618   3.583   2.366  0.2729 -0.5410 -0.2273
 3915SOL    HW123204   0.625   3.488   2.374  0.9686 -0.5570 -0.9971
 3915SOL    HW223205   0.659   3.593   2.280  0.6118  1.0650  0.1144
 3916SOL     OW23206   1.220   1.911   2.899 -0.4477  0.0249  0.1445
 3916SOL    HW123207   1.244   2.003   2.883 -0.7243  0.2504  1.0441
 3916SOL    HW223208   1.282   1.885   2.967  0.9164  1.5669 -0.4940
 3917SOL     OW23209   1.325   2.496  14.928  0.2445 -0.3059 -0.1213
 3917SOL    HW123210   1.236   2.527  14.913  0.5021  0.6121  0.2596
 3917SOL    HW223211   1.303   2.411  14.889 -0.5428 -0.1275 -0.0610
 3918SOL     OW23212   3.312   3.354  11.870 -0.0035  0.1968 -0.0470
 3918SOL    HW123213   3.276   3.403  11.796  1.9608  0.4116 -0.8654
 3918SOL    HW223214   3.270   3.403  11.940 -2.1968  4.1973 -4.1661
 3919SOL     OW23215   4.239   2.245  10.677  0.5008 -0.0963  0.0017
 3919SOL    HW123216   4.163   2.299  10.654  1.9904  0.8747 -2.5938
 3919SOL    HW223217   4.212   2.169  10.625 -0.1342  0.3286 -0.2936
 3920SOL     OW23218   2.232   0.687   1.966 -0.0746  0.1637  0.3663
 3920SOL    HW123219   2.154   0.639   1.994  0.8030 -1.9880 -0.7673
 3920SOL    HW223220   2.249   0.762   2.022 -0.6074  1.5458 -1.3534
 3921SOL     OW23221   4.262   2.024  16.557  0.1750  0.0016 -0.5537
 3921SOL    HW123222   4.288   2.088  16.491  0.9305  0.2507 -0.0126
 3921SOL    HW223223   4.191   2.074  16.597  1.1105  0.6565  0.2702
 3922SOL     OW23224   2.701   1.760   8.022 -0.1489  0.4392  0.1611
 3922SOL    HW123225   2.672   1.841   8.063 -0.3682 -0.9442  2.7226
 3922SOL    HW223226   2.796   1.764   8.037 -0.3253  0.5332  1.2057
 3923SOL     OW23227   4.259   3.292   7.520 -0.0401 -0.4309  0.6543
 3923SOL    HW123228   4.353   3.292   7.536 -0.4152 -1.3061  2.8337
 3923SOL    HW223229   4.259   3.329   7.431  0.3926  1.3024  1.3707
 3924SOL     OW23230   2.241   1.742   8.150 -0.2367  0.0515 -0.2392
 3924SOL    HW123231   2.188   1.785   8.218  0.3313  0.2113  0.1087
 3924SOL    HW223232   2.327   1.750   8.192 -1.0085  2.0953  0.9747
 3925SOL     OW23233   2.032   1.888  11.226 -0.0262  0.0572  0.5019
 3925SOL    HW123234   1.984   1.969  11.239 -1.0272 -0.3200 -0.8143
 3925SOL    HW223235   2.094   1.929  11.166 -0.1540 -2.4554 -1.3456
 3926SOL     OW23236   0.242   3.074  11.809  0.8089  0.3788 -0.0193
 3926SOL    HW123237   0.273   3.135  11.742  1.6407 -0.8161 -0.7226
 3926SOL    HW223238   0.264   2.992  11.765  0.6527  0.7580 -0.8169
 3927SOL     OW23239   2.796   1.665   7.008  0.1001 -0.1934 -0.7312
 3927SOL    HW123240   2.815   1.698   7.096  0.7181  0.1410 -0.9885
 3927SOL    HW223241   2.761   1.579   7.029 -0.9594  0.8704  1.9014
 3928SOL     OW23242   3.712   1.783   6.544 -0.3397 -0.0864 -0.8816
 3928SOL    HW123243   3.640   1.794   6.482 -0.0143 -0.4303 -1.3143
 3928SOL    HW223244   3.685   1.713   6.603  2.6634 -0.7531 -0.3218
 3929SOL     OW23245   1.986   4.146   9.228 -0.6033 -0.0918  0.4796
 3929SOL    HW123246   2.060   4.198   9.259 -0.7761 -0.6598  1.8554
 3929SOL    HW223247   1.927   4.214   9.197 -0.8986 -0.8262 -0.5899
 3930SOL     OW23248   2.342   2.775   3.906 -0.0651  0.1378  0.1558
 3930SOL    HW123249   2.414   2.769   3.969  0.5716 -0.3776 -0.6231
 3930SOL    HW223250   2.334   2.870   3.897 -1.2196  0.2454  2.3793
 3931SOL     OW23251   0.086   4.377   9.573 -0.0639  0.6005  0.1451
 3931SOL    HW123252   0.069   4.371   9.667 -2.9630  0.1184 -0.4154
 3931SOL    HW223253   0.168   4.329   9.562 -1.0755 -0.9906 -0.5305
 3932SOL     OW23254   2.146   3.344   2.397 -0.3474 -0.0316  0.6478
 3932SOL    HW123255   2.132   3.349   2.491 -1.6137 -0.7004  0.4877
 3932SOL    HW223256   2.194   3.262   2.383 -1.9174 -0.7902 -0.2909
 3933SOL     OW23257   3.369   0.814   8.950  0.1868 -0.0972 -0.4369
 3933SOL    HW123258   3.295   0.874   8.945  1.0371  0.8796 -1.4906
 3933SOL    HW223259   3.383   0.819   9.045  3.8975 -2.8293 -0.8230
 3934SOL     OW23260   4.152   1.826   6.053  0.5224  0.1389 -0.4653
 3934SOL    HW123261   4.137   1.763   5.983  0.2076 -1.6315  1.1801
 3934SOL    HW223262   4.246   1.842   6.045  0.4261  0.9301 -0.0707
 3935SOL     OW23263   1.374   3.292   6.584  0.4568  0.1820  0.0960
 3935SOL    HW123264   1.380   3.204   6.548  1.6010  0.4161 -0.3091
 3935SOL    HW223265   1.284   3.299   6.614  1.0056 -0.0087  1.7727
 3936SOL     OW23266   2.001   4.588   7.680  0.0944 -0.0760 -0.2253
 3936SOL    HW123267   2.072   4.533   7.712  0.2357  1.2497  1.7214
 3936SOL    HW223268   2.036   4.640   7.608  0.1573 -1.8086 -1.4398
 3937SOL     OW23269   0.041   0.861   4.398  0.6161  0.0174  0.3999
 3937SOL    HW123270   0.091   0.878   4.478  0.0395 -0.3007  0.8263
 3937SOL    HW223271   0.085   0.924   4.340  0.7494 -0.0691  0.4067
 3938SOL     OW23272   3.213   1.752   6.608  0.1560  0.0910  0.0657
 3938SOL    HW123273   3.267   1.673   6.604 -3.3091 -2.2994  1.0164
 3938SOL    HW223274   3.144   1.732   6.545  0.1681 -3.3710  1.1752
 3939SOL     OW23275   4.537   0.557   4.655 -0.0035  0.2379  0.1281
 3939SOL    HW123276   4.576   0.569   4.568 -0.8247  3.1235  0.1767
 3939SOL    HW223277   4.446   0.581   4.640  0.8742  2.3870 -1.7932
 3940SOL     OW23278   0.305   2.436   3.878  0.4677  0.0621  0.9175
 3940SOL    HW123279   0.350   2.485   3.947  0.6476  0.0849  0.7835
 3940SOL    HW223280   0.239   2.498   3.847 -1.8302 -3.3000 -0.8459
 3941SOL     OW23281   3.943   0.405  16.999  0.1328 -0.0744  0.0007
 3941SOL    HW123282   3.944   0.324  17.050 -0.4611  0.1361  0.3482
 3941SOL    HW223283   3.885   0.373  16.930 -1.1438  0.2109  0.9256
 3942SOL     OW23284   0.131   3.343   7.964  0.2345 -1.0451  0.4724
 3942SOL    HW123285   0.055   3.314   8.014  0.5112 -0.0743  1.4598
 3942SOL    HW223286   0.112   3.436   7.956 -0.1389 -1.0923  0.8160
 3943SOL     OW23287   3.858   3.917  10.522  0.1242  0.6762 -0.4066
 3943SOL    HW123288   3.921   3.849  10.497  1.0085  0.5669  2.0688
 3943SOL    HW223289   3.904   3.960  10.595  0.7628  0.6951 -0.8233
 3944SOL     OW23290   2.979   1.771   4.162 -0.0483 -0.0798 -0.2182
 3944SOL    HW123291   3.061   1.724   4.179 -0.5157 -1.6309 -2.1584
 3944SOL    HW223292   2.988   1.860   4.195 -0.2590 -0.7195  1.5787
 3945SOL     OW23293   1.123   0.248  12.172  0.0562  0.2251 -0.1856
 3945SOL    HW123294   1.110   0.256  12.078  1.1403 -2.3590 -0.5534
 3945SOL    HW223295   1.218   0.256  12.173  0.0730  0.0148 -0.1241
 3946SOL     OW23296   1.907   3.037  11.380  0.4377 -0.0503 -0.4335
 3946SOL    HW123297   1.920   3.059  11.288 -1.3287  2.3666 -0.0850
 3946SOL    HW223298   1.964   2.961  11.395 -1.1094 -1.4068 -1.3846
 3947SOL     OW23299   0.633   1.458  14.058  0.0382 -0.5149 -0.0467
 3947SOL    HW123300   0.588   1.387  14.103  0.0355 -0.2630  0.3437
 3947SOL    HW223301   0.563   1.512  14.022  1.4610  1.1925 -0.2240
 3948SOL     OW23302   1.240   3.182   7.934 -0.0308 -0.3158  0.1301
 3948SOL    HW123303   1.218   3.271   7.960  1.1428 -0.0063  0.0692
 3948SOL    HW223304   1.170   3.123   7.962 -0.7610 -0.3658 -1.7480
 3949SOL     OW23305   3.588   0.699  10.722 -0.2301  0.3269  0.1723
 3949SOL    HW123306   3.595   0.667  10.631  2.0230  0.8844  0.1459
 3949SOL    HW223307   3.527   0.637  10.760  0.5505  0.6024  1.8494
 3950SOL     OW23308   2.034   0.934   6.607  0.2393  0.9189  0.1627
 3950SOL    HW123309   2.020   0.923   6.702  1.7484 -1.4630  0.1283
 3950SOL    HW223310   2.094   0.861   6.591  0.0550  0.4029  1.7369
 3951SOL     OW23311   0.483   4.497  13.017 -0.3375 -0.4696 -0.6156
 3951SOL    HW123312   0.504   4.573  12.964  1.0559 -0.5189 -0.1312
 3951SOL    HW223313   0.432   4.445  12.954  1.9738 -2.3217 -0.9499
 3952SOL     OW23314   4.223   4.564   5.447 -0.1996  0.2903 -0.1002
 3952SOL    HW123315   4.226   4.619   5.369  2.0723 -0.1675 -0.3491
 3952SOL    HW223316   4.312   4.587   5.474 -0.3725  2.0192 -1.0128
 3953SOL     OW23317   0.292   1.825   5.902  1.0035  0.2842 -0.0282
 3953SOL    HW123318   0.209   1.790   5.933  0.4971  1.9775  0.4691
 3953SOL    HW223319   0.265   1.871   5.822 -0.1982 -1.0389 -0.3945
 3954SOL     OW23320   3.612   3.570  13.873  0.1259  0.1871  0.1200
 3954SOL    HW123321   3.588   3.598  13.785  0.7916 -3.3483 -1.1750
 3954SOL    HW223322   3.533   3.595  13.920  0.9272  2.3322  0.2954
 3955SOL     OW23323   4.270   0.671  11.180  0.4804  0.3175 -0.5761
 3955SOL    HW123324   4.304   0.743  11.233  1.2491 -0.9817  0.6950
 3955SOL    HW223325   4.179   0.696  11.164  0.3221 -0.6079 -1.1276
 3956SOL     OW23326   3.447   4.378   7.912  0.0044  0.4419  0.0938
 3956SOL    HW123327   3.505   4.372   7.987  0.2650 -0.9215 -0.2231
 3956SOL    HW223328   3.507   4.363   7.839  0.6507  0.5173  0.6052
 3957SOL     OW23329   3.728   2.194   6.382 -0.2410 -0.3833 -0.2839
 3957SOL    HW123330   3.767   2.107   6.383 -1.5082 -0.9140  2.3375
 3957SOL    HW223331   3.811   2.240   6.383 -0.8031  0.5385  3.4771
 3958SOL     OW23332   1.035   0.156   3.353  0.1865 -0.4865  0.1083
 3958SOL    HW123333   0.960   0.145   3.295  0.8858  1.3218 -1.1445
 3958SOL    HW223334   1.067   0.068   3.375 -2.3639 -1.3872  0.1833
 3959SOL     OW23335   4.318   1.074   9.068 -0.1306 -0.5848 -0.5994
 3959SOL    HW123336   4.316   1.121   8.985  3.6827  0.2224 -0.2366
 3959SOL    HW223337   4.413   1.073   9.080 -0.5477 -3.7087  2.3452
 3960SOL     OW23338   4.431   1.251   1.831 -0.0386  0.2950 -0.0912
 3960SOL    HW123339   4.382   1.280   1.908 -0.5681  0.3478 -0.4495
 3960SOL    HW223340   4.407   1.329   1.782 -1.1811  1.1218  1.7739
 3961SOL     OW23341   4.269   2.234  16.083  0.5218  0.2524 -0.1706
 3961SOL    HW123342   4.247   2.284  16.004  1.1776 -0.0815 -0.5736
 3961SOL    HW223343   4.252   2.142  16.061 -0.3816  0.2260  0.6593
 3962SOL     OW23344   2.047   0.356   3.878 -0.3906  0.4722 -0.1638
 3962SOL    HW123345   1.987   0.336   3.950  1.6086 -0.0656  1.3650
 3962SOL    HW223346   1.999   0.316   3.805 -3.4787 -0.4660  2.3753
 3963SOL     OW23347   0.139   0.583   3.273 -0.0003  0.3919 -0.3270
 3963SOL    HW123348   0.060   0.530   3.279 -0.2380  0.7434 -0.3266
 3963SOL    HW223349   0.105   0.662   3.231 -2.5908 -1.1952 -1.1846
 3964SOL     OW23350   4.103   1.359   4.744  0.0774  0.5131  0.1732
 3964SOL    HW123351   4.046   1.283   4.734 -0.5055  0.7936  1.4399
 3964SOL    HW223352   4.174   1.307   4.781 -0.3563  0.6686  1.2037
 3965SOL     OW23353   0.301   1.415   7.173  0.5779  0.4568 -0.1518
 3965SOL    HW123354   0.370   1.369   7.126 -1.4968 -1.9672 -0.8111
 3965SOL    HW223355   0.278   1.482   7.108 -1.7632 -1.8404 -1.6823
 3966SOL     OW23356   3.222   0.174  16.410 -0.3817  0.5631 -0.0959
 3966SOL    HW123357   3.226   0.134  16.497  0.0175  1.1370  0.1507
 3966SOL    HW223358   3.132   0.156  16.381  0.6268 -2.4342 -1.3574
 3967SOL     OW23359   0.737   3.668   6.390  0.3219  0.5191 -0.1662
 3967SOL    HW123360   0.815   3.633   6.346 -0.0082 -0.4118 -0.0127
 3967SOL    HW223361   0.778   3.730   6.451  0.4093 -1.0390  1.3850
 3968SOL     OW23362   3.017   3.291   7.344 -0.1729 -0.1056 -0.1016
 3968SOL    HW123363   2.929   3.266   7.370 -0.3888  2.0001  1.2442
 3968SOL    HW223364   2.998   3.296   7.251  3.2230 -0.3161 -0.8215
 3969SOL     OW23365   1.297   0.659  11.345  0.2903  1.0328 -0.5926
 3969SOL    HW123366   1.381   0.625  11.377 -1.1363 -1.8259  0.0670
 3969SOL    HW223367   1.275   0.588  11.284 -0.4479 -0.2710  1.2190
 3970SOL     OW23368   4.271   1.475  16.285 -0.2441  0.0017 -0.2891
 3970SOL    HW123369   4.313   1.493  16.370  0.6489  2.8694 -1.3230
 3970SOL    HW223370   4.271   1.380  16.278 -1.7944 -0.0339  0.2517
 3971SOL     OW23371   1.427   4.472   2.503 -0.2889  0.7451 -0.1043
 3971SOL    HW123372   1.501   4.522   2.469  1.6366 -1.2419  1.1279
 3971SOL    HW223373   1.388   4.533   2.566 -0.8130  2.3884 -2.0231
 3972SOL     OW23374   0.193   2.940   5.544  0.7251 -0.3435  0.2141
 3972SOL    HW123375   0.224   3.023   5.505 -1.0750  0.1369 -0.1982
 3972SOL    HW223376   0.272   2.906   5.585  1.8260  0.4557 -1.2238
 3973SOL     OW23377   3.356   2.606   0.472 -0.4885 -0.1982 -0.1765
 3973SOL    HW123378   3.446   2.582   0.453 -0.5543 -0.7543  0.2024
 3973SOL    HW223379   3.339   2.695   0.442 -1.3090 -0.5477 -0.7556
 3974SOL     OW23380   4.322   1.202   8.068 -0.2409  0.1516  0.3953
 3974SOL    HW123381   4.412   1.228   8.091 -0.0805 -2.1751  2.3329
 3974SOL    HW223382   4.285   1.287   8.042  1.5685  0.7850 -0.1208
 3975SOL     OW23383   0.334   2.200  11.063  0.6959 -0.4682 -0.2238
 3975SOL    HW123384   0.354   2.260  11.135  1.5365 -1.4787  0.4014
 3975SOL    HW223385   0.302   2.121  11.107 -0.9333  0.2371 -0.1633
 3976SOL     OW23386   2.450   3.400   9.680  0.1995  0.4836  0.0669
 3976SOL    HW123387   2.496   3.480   9.657  0.9396 -0.6527 -2.4261
 3976SOL    HW223388   2.430   3.412   9.772  2.5176  0.3423  0.5899
 3977SOL     OW23389   4.665   0.061   9.232 -0.2326  0.1622  0.4277
 3977SOL    HW123390   4.704   0.052   9.145  0.6942 -1.3743  0.9995
 3977SOL    HW223391   4.698   0.143   9.268 -0.4045  0.0058  0.9281
 3978SOL     OW23392   0.722   1.432   6.880 -0.6940  0.9453 -0.0721
 3978SOL    HW123393   0.781   1.431   6.955 -0.6598  2.5485 -0.0838
 3978SOL    HW223394   0.654   1.377   6.918  0.2819  0.4029  0.8944
 3979SOL     OW23395   3.783   3.752  17.106 -0.3203  0.3070  0.1267
 3979SOL    HW123396   3.799   3.846  17.111 -2.2485  0.5396  1.6968
 3979SOL    HW223397   3.871   3.714  17.104 -0.2656  0.5496 -2.5639
 3980SOL     OW23398   4.337   2.946   5.587  0.3626  0.2257  0.0808
 3980SOL    HW123399   4.432   2.954   5.592  0.4824 -0.8929 -0.2789
 3980SOL    HW223400   4.307   2.956   5.677 -0.8627 -0.2587 -0.2699
 3981SOL     OW23401   1.782   3.605   8.135  0.4130  0.0897  0.0974
 3981SOL    HW123402   1.720   3.632   8.067 -0.3039  0.8384  1.0598
 3981SOL    HW223403   1.813   3.691   8.163 -0.2306 -0.3918  2.2885
 3982SOL     OW23404   2.081   4.555   4.158  0.0956  0.0014  0.2457
 3982SOL    HW123405   2.059   4.480   4.102 -2.3572  1.1734 -0.3703
 3982SOL    HW223406   2.040   4.534   4.241  0.6792  0.9154  0.7590
 3983SOL     OW23407   1.228   0.537   8.344  0.6520 -0.0407  0.1204
 3983SOL    HW123408   1.206   0.605   8.280 -0.5400 -2.0297 -1.5897
 3983SOL    HW223409   1.301   0.487   8.309 -0.5051 -1.0576 -0.8505
 3984SOL     OW23410   4.388   2.449   0.049  0.3322 -0.2056 -0.3645
 3984SOL    HW123411   4.341   2.365   0.055  0.3579 -0.2405 -0.6434
 3984SOL    HW223412   4.407   2.466   0.141  0.4610  0.5155 -0.5292
 3985SOL     OW23413   2.442   2.682   2.410 -0.1095 -0.0413 -0.6665
 3985SOL    HW123414   2.468   2.598   2.449 -0.2375 -1.2788 -3.2513
 3985SOL    HW223415   2.433   2.651   2.320 -1.0896  0.6446 -0.8062
 3986SOL     OW23416   4.491   4.614   1.375 -0.3869  0.7949  0.4751
 3986SOL    HW123417   4.555   4.549   1.346 -0.5025  1.3893 -1.1115
 3986SOL    HW223418   4.538   4.694   1.398  0.4065  0.3502  0.4313
 3987SOL     OW23419   3.533   2.120  12.416  0.0898  0.3333  0.1678
 3987SOL    HW123420   3.546   2.215  12.406  0.8880  0.2260  0.1768
 3987SOL    HW223421   3.440   2.119  12.439  0.0713  2.3766  0.2316
 3988SOL     OW23422   4.676   3.019   7.059 -0.1672  0.3014 -0.1326
 3988SOL    HW123423   4.717   3.099   7.091 -2.5472  1.3130  0.3288
 3988SOL    HW223424   4.684   2.959   7.133 -1.0445  1.4408  0.8696
 3989SOL     OW23425   2.846   4.319  15.626 -0.0427 -0.2486 -0.3951
 3989SOL    HW123426   2.883   4.344  15.711  0.7173  0.8860 -1.0536
 3989SOL    HW223427   2.783   4.255  15.661 -1.6978  0.9088 -1.2753
 3990SOL     OW23428   1.192   4.039   7.220 -0.1434 -0.4763 -0.5650
 3990SOL    HW123429   1.274   4.012   7.179 -0.9329 -3.4554 -0.1935
 3990SOL    HW223430   1.138   4.043   7.141 -0.1837  0.3761 -0.4959
 3991SOL     OW23431   2.772   3.824   3.378 -0.3417 -0.5484  0.4112
 3991SOL    HW123432   2.836   3.895   3.373  0.2169 -1.2448 -2.2773
 3991SOL    HW223433   2.742   3.817   3.288 -1.7195 -1.2751  0.9269
 3992SOL     OW23434   3.038   0.876   3.663  0.6364 -0.3655 -0.5823
 3992SOL    HW123435   3.025   0.961   3.705 -0.2042  0.0442 -1.6781
 3992SOL    HW223436   2.960   0.834   3.700 -0.0004  0.3241 -1.1392
 3993SOL     OW23437   0.777   0.579  16.325 -0.4494  0.2458  0.8417
 3993SOL    HW123438   0.762   0.493  16.288 -2.9934  0.1955  2.0512
 3993SOL    HW223439   0.759   0.640  16.253 -0.2730 -0.7778 -0.0598
 3994SOL     OW23440   3.765   2.583   1.443 -0.0144  0.1199 -0.0635
 3994SOL    HW123441   3.814   2.505   1.471 -0.4308  0.1641  0.7845
 3994SOL    HW223442   3.700   2.587   1.512 -0.7478  0.1983 -0.7634
 3995SOL     OW23443   3.055   1.650  15.635  0.4764 -0.1406 -0.1457
 3995SOL    HW123444   3.043   1.591  15.709  0.1254 -0.1940 -0.2490
 3995SOL    HW223445   3.078   1.724  15.692  0.2990 -0.0461 -0.1994
 3996SOL     OW23446   2.048   4.472   0.261 -0.0197 -0.3694 -0.5725
 3996SOL    HW123447   2.058   4.392   0.210  2.3451 -0.1519 -0.4666
 3996SOL    HW223448   2.039   4.544   0.199  0.2823  0.0763 -0.1016
 3997SOL     OW23449   0.932   4.284   4.542  0.5465  0.0608  0.1904
 3997SOL    HW123450   0.983   4.363   4.527 -1.0062  0.7546 -1.4635
 3997SOL    HW223451   0.919   4.293   4.636  1.8472 -1.0734  0.4841
 3998SOL     OW23452   3.707   3.770  12.086 -0.5576 -0.0976 -0.4919
 3998SOL    HW123453   3.720   3.684  12.127  1.3629 -0.7287 -2.4693
 3998SOL    HW223454   3.621   3.776  12.128 -1.5317  0.3163 -2.5493
 3999SOL     OW23455   2.678   3.243   9.703 -0.3128 -0.7561 -0.7556
 3999SOL    HW123456   2.668   3.223   9.796  0.6002 -0.5010 -0.5986
 3999SOL    HW223457   2.619   3.317   9.689 -0.3893 -0.5920  0.4100
 4000SOL     OW23458   4.172   0.480  17.151 -0.2526 -0.2509  0.3293
 4000SOL    HW123459   4.080   0.466  17.130 -1.0862  4.3530  0.7431
 4000SOL    HW223460   4.205   0.394  17.125 -1.6159 -0.4810 -0.6600
 4001SOL     OW23461   2.424   1.401   7.785  0.3218 -0.3374  0.7602
 4001SOL    HW123462   2.465   1.351   7.855  0.6165  1.2226  1.7150
 4001SOL    HW223463   2.499   1.404   7.725 -0.9606  0.0335 -0.8246
 4002SOL     OW23464   0.066   2.506   1.128 -0.1467 -1.0066 -0.9298
 4002SOL    HW123465   0.132   2.492   1.060 -0.5970 -2.3956 -1.0801
 4002SOL    HW223466   0.027   2.583   1.087 -2.2602 -1.9627 -0.7015
 4003SOL     OW23467   3.861   4.456   4.922  0.0341 -0.1899  0.5714
 4003SOL    HW123468   3.905   4.508   4.989 -2.4782  0.4406  1.7534
 4003SOL    HW223469   3.911   4.375   4.922 -1.4986 -1.1291  1.9100
 4004SOL     OW23470   3.525   3.951   5.955  0.2815 -0.8691  0.2393
 4004SOL    HW123471   3.498   3.862   5.976 -2.3948 -0.3614 -1.1232
 4004SOL    HW223472   3.457   3.990   5.900  1.2402  2.3965  1.3425
 4005SOL     OW23473   1.432   0.771   7.174 -0.6583 -0.3601 -0.0435
 4005SOL    HW123474   1.439   0.692   7.122  0.6237  1.2378 -2.3214
 4005SOL    HW223475   1.508   0.755   7.231 -0.5631 -2.2795 -0.7211
 4006SOL     OW23476   0.483   4.489   3.758 -0.5544 -0.5743  0.2822
 4006SOL    HW123477   0.406   4.546   3.769  0.7306  0.9097  1.6488
 4006SOL    HW223478   0.500   4.474   3.851 -1.6235  1.3966  0.7954
 4007SOL     OW23479   0.708   4.053  13.466 -0.2064  0.4774  0.0676
 4007SOL    HW123480   0.722   4.127  13.407 -4.8993  2.1420  1.0439
 4007SOL    HW223481   0.616   4.027  13.466  0.5924 -2.2931 -0.8054
 4008SOL     OW23482   4.103   2.100   0.928  0.2089 -0.4344 -0.8030
 4008SOL    HW123483   4.132   2.059   1.009 -1.7546 -2.6200 -1.2054
 4008SOL    HW223484   4.143   2.186   0.942 -2.0050  0.5051 -0.2296
 4009SOL     OW23485   0.058   2.878   3.681  0.2413  0.4117 -0.0592
 4009SOL    HW123486   0.089   2.965   3.710 -2.5935  1.1984  0.5873
 4009SOL    HW223487   4.708   2.911   3.627  1.5888 -1.1261 -2.7672
 4010SOL     OW23488   2.575   4.721   1.115 -0.1195  0.5125 -0.7864
 4010SOL    HW123489   2.597   4.647   1.172 -2.2046 -0.0307 -0.7125
 4010SOL    HW223490   2.485   4.696   1.096 -1.0606  1.9797  1.6764
 4011SOL     OW23491   3.883   4.006   6.208 -0.4986 -0.4308 -0.1141
 4011SOL    HW123492   3.938   4.020   6.130  0.9032 -3.5307  0.3051
 4011SOL    HW223493   3.801   3.995   6.159  0.8183 -0.3026 -2.3663
 4012SOL     OW23494   3.584   0.929   4.792 -0.0028 -0.2281 -0.2984
 4012SOL    HW123495   3.678   0.929   4.773  0.5780 -0.0622  2.6343
 4012SOL    HW223496   3.590   0.891   4.880 -2.3144  0.5043  0.1565
 4013SOL     OW23497   2.012   4.026   2.098  0.9630  0.2346 -1.0806
 4013SOL    HW123498   2.084   4.074   2.058 -0.3122  1.3732 -2.0027
 4013SOL    HW223499   2.020   3.932   2.081  1.3370 -0.0212  0.5082
 4014SOL     OW23500   0.160   2.860   7.715 -0.0857  0.5899 -0.4384
 4014SOL    HW123501   0.086   2.853   7.774  1.0285 -0.2258  0.8704
 4014SOL    HW223502   0.148   2.954   7.707 -1.4917  0.3474 -1.2067
 4015SOL     OW23503   1.233   2.425   2.062  0.7957 -0.2994 -0.3819
 4015SOL    HW123504   1.211   2.516   2.040  0.9995 -0.6967 -2.1781
 4015SOL    HW223505   1.240   2.429   2.157  2.2080 -0.9581 -0.4634
 4016SOL     OW23506   3.793   1.180   6.026 -0.2047  0.2095 -0.1015
 4016SOL    HW123507   3.698   1.183   6.036 -0.1202  0.7258  0.4992
 4016SOL    HW223508   3.825   1.213   6.110 -0.6144  1.1903 -0.3316
 4017SOL     OW23509   1.747   2.144   5.519 -0.0484 -0.6795 -0.2162
 4017SOL    HW123510   1.696   2.068   5.546 -0.8023 -0.6432 -1.5717
 4017SOL    HW223511   1.721   2.207   5.587 -0.6735 -2.7181  1.4035
 4018SOL     OW23512   3.044   4.025   1.824  0.5135 -0.0144 -0.0474
 4018SOL    HW123513   3.064   3.939   1.861  2.0040  1.3337  2.2595
 4018SOL    HW223514   2.969   4.038   1.881 -0.9668 -2.5997 -1.3985
 4019SOL     OW23515   3.411   0.013   7.995 -0.1556 -0.2398  0.0159
 4019SOL    HW123516   3.372   4.716   7.909  0.4966  1.8002 -0.7082
 4019SOL    HW223517   3.378   4.655   8.039 -0.6378  0.7375  1.3767
 4020SOL     OW23518   1.842   0.630   4.607  0.4150 -0.7281 -0.0385
 4020SOL    HW123519   1.816   0.601   4.695  0.7634  0.8662  0.5950
 4020SOL    HW223520   1.854   0.545   4.566  1.2302 -1.1957  1.1751
 4021SOL     OW23521   2.777   3.482  14.571  0.0188 -0.9916  0.2861
 4021SOL    HW123522   2.855   3.531  14.595 -0.7682  0.0572  0.7000
 4021SOL    HW223523   2.713   3.499  14.641 -0.1316 -0.5665  0.0437
 4022SOL     OW23524   3.936   4.108   5.718  1.2773 -0.2158  0.4818
 4022SOL    HW123525   3.904   4.056   5.645 -0.5095  2.2080 -0.4558
 4022SOL    HW223526   3.992   4.170   5.672 -3.7392  2.9559 -1.3808
 4023SOL     OW23527   0.549   0.335   8.812  0.4162  0.0326 -0.4480
 4023SOL    HW123528   0.493   0.400   8.770  1.1897  1.2736  0.4476
 4023SOL    HW223529   0.628   0.335   8.757 -1.1220  1.3278 -2.6425
 4024SOL     OW23530   3.321   3.185   1.352 -0.0617  0.0935 -0.3119
 4024SOL    HW123531   3.341   3.129   1.277 -0.8907 -2.1503  1.1257
 4024SOL    HW223532   3.406   3.215   1.383 -0.3097  1.9357 -1.4096
 4025SOL     OW23533   4.592   3.602   8.722  0.1520 -0.0629  0.2188
 4025SOL    HW123534   4.638   3.678   8.757 -0.0874  0.2234 -0.0925
 4025SOL    HW223535   4.550   3.559   8.797 -2.5619  0.8498 -0.7687
 4026SOL     OW23536   4.512   1.009   5.894  0.3613  0.1297  0.2077
 4026SOL    HW123537   4.424   0.973   5.904  0.6226 -0.3488  0.7717
 4026SOL    HW223538   4.503   1.077   5.826 -0.0238 -0.8988 -0.7760
 4027SOL     OW23539   0.071   1.656   9.024 -0.6783 -0.5434  0.1372
 4027SOL    HW123540   0.071   1.589   8.955  0.6327 -0.8364  0.4197
 4027SOL    HW223541   0.131   1.619   9.089  0.0122  0.8823  0.3161
 4028SOL     OW23542   2.218   2.120   3.100 -0.0424  0.0421  0.1348
 4028SOL    HW123543   2.294   2.063   3.086  0.6266  0.9180  0.2013
 4028SOL    HW223544   2.256   2.207   3.102 -0.7822  0.3521  0.7022
 4029SOL     OW23545   0.213   4.704  16.550  0.0642 -0.2425 -0.5925
 4029SOL    HW123546   0.151   0.029  16.494  2.1288  0.3912 -2.3539
 4029SOL    HW223547   0.296   0.014  16.515  0.6131 -2.4098 -1.2249
 4030SOL     OW23548   2.593   4.043   5.915 -0.2116  0.1786  0.8692
 4030SOL    HW123549   2.560   3.953   5.925  0.4292 -0.4134 -2.2498
 4030SOL    HW223550   2.532   4.099   5.963 -2.4918 -1.5749  0.0332
 4031SOL     OW23551   2.183   2.882  13.958  0.1255 -0.2182 -0.5726
 4031SOL    HW123552   2.182   2.965  14.006 -0.5613 -1.6238  1.8411
 4031SOL    HW223553   2.189   2.821  14.031 -2.1696 -0.2878 -0.4553
 4032SOL     OW23554   0.537   0.044   3.505  0.2485 -0.0364  0.3098
 4032SOL    HW123555   0.503   0.106   3.440  1.4565  2.2330  1.8581
 4032SOL    HW223556   0.576   0.107   3.566  1.9949  0.3431 -1.1936
 4033SOL     OW23557   0.731   0.126   5.192 -0.0636 -0.1712  0.1654
 4033SOL    HW123558   0.814   0.096   5.229 -0.4291  0.5892  1.6003
 4033SOL    HW223559   0.713   0.205   5.243 -1.4985  0.3969 -1.1999
 4034SOL     OW23560   1.794   3.612   3.749 -0.4465  0.2866 -0.2013
 4034SOL    HW123561   1.795   3.516   3.739  0.4288  0.4368 -1.5741
 4034SOL    HW223562   1.808   3.640   3.659  1.4351 -0.4273 -0.1466
 4035SOL     OW23563   0.295   1.665   4.318  0.0350 -0.0006  0.1423
 4035SOL    HW123564   0.380   1.652   4.360 -0.8467 -1.8656  1.3422
 4035SOL    HW223565   0.306   1.613   4.239  0.5305  1.4003 -0.7027
 4036SOL     OW23566   4.425   3.427   5.634  0.4911 -0.5108  0.3298
 4036SOL    HW123567   4.361   3.360   5.610  0.4032 -0.6559  0.9613
 4036SOL    HW223568   4.376   3.509   5.637 -1.7735 -1.9172  1.5663
 4037SOL     OW23569   2.766   2.340  13.487  0.4749 -0.8897 -0.6565
 4037SOL    HW123570   2.854   2.334  13.452  0.9180  0.9212  0.1178
 4037SOL    HW223571   2.773   2.285  13.565 -0.1607 -0.1511 -0.0745
 4038SOL     OW23572   0.927   2.192  14.764 -0.0468 -0.1758  0.3109
 4038SOL    HW123573   0.860   2.184  14.697 -0.4831 -1.8466  0.9357
 4038SOL    HW223574   0.906   2.111  14.810  0.7156 -1.0771 -0.9077
 4039SOL     OW23575   3.499   2.310   2.746 -0.3419 -0.6381 -0.0728
 4039SOL    HW123576   3.513   2.334   2.838 -1.3552 -1.1866  0.2328
 4039SOL    HW223577   3.471   2.219   2.755 -0.2300 -0.7154 -0.4955
 4040SOL     OW23578   4.104   2.239   5.872 -0.2764 -0.6270  0.4327
 4040SOL    HW123579   4.107   2.333   5.887 -2.6504 -0.4349 -0.2340
 4040SOL    HW223580   4.013   2.224   5.845  0.0301 -1.1032 -0.3281
 4041SOL     OW23581   1.547   2.548   6.016  0.0878 -0.2930  0.0133
 4041SOL    HW123582   1.505   2.468   6.050  2.4979 -0.8549  1.6340
 4041SOL    HW223583   1.621   2.520   5.964 -0.4422 -0.1617 -0.8090
 4042SOL     OW23584   3.488   3.783   7.568 -0.6385  0.1733  0.3250
 4042SOL    HW123585   3.456   3.828   7.490 -0.9803 -1.5793 -0.5261
 4042SOL    HW223586   3.416   3.799   7.628 -0.4734 -1.0513  0.8476
 4043SOL     OW23587   1.948   2.064  14.077  0.3707 -1.0777 -0.3602
 4043SOL    HW123588   1.958   1.974  14.109 -0.2396 -1.5226 -1.4177
 4043SOL    HW223589   2.009   2.108  14.137 -1.6936  0.7539  0.3906
 4044SOL     OW23590   3.446   1.658   5.333 -0.0690  0.4859 -0.8162
 4044SOL    HW123591   3.477   1.590   5.393  1.1732  1.8805  0.1191
 4044SOL    HW223592   3.382   1.622   5.272 -3.1777  2.2336  1.4341
 4045SOL     OW23593   4.346   1.784   0.131 -0.3656  0.0041  0.6562
 4045SOL    HW123594   4.418   1.845   0.144 -0.4319  0.2694 -0.2419
 4045SOL    HW223595   4.282   1.852   0.111 -1.3052 -0.7664  1.0272
 4046SOL     OW23596   0.987   4.606  15.335 -0.4848 -0.1642  0.1344
 4046SOL    HW123597   0.985   4.685  15.389  1.3308  1.0971 -1.6281
 4046SOL    HW223598   1.078   4.598  15.305  0.2466 -1.2585  2.6158
 4047SOL     OW23599   1.745   1.866  16.875  0.2901  0.3046 -0.6277
 4047SOL    HW123600   1.769   1.943  16.926  5.0827 -1.4819 -0.2142
 4047SOL    HW223601   1.751   1.799  16.943 -0.6020  1.4101  0.5291
 4048SOL     OW23602   1.638   2.973   8.401 -0.3516 -0.7849 -0.1399
 4048SOL    HW123603   1.700   2.958   8.330  0.1417  3.0385 -0.5325
 4048SOL    HW223604   1.572   2.905   8.386 -0.8942 -0.1302 -0.7775
 4049SOL     OW23605   0.333   2.034   6.573  0.1963  0.1742 -0.1642
 4049SOL    HW123606   0.349   2.121   6.537 -0.9875  0.1820 -0.6723
 4049SOL    HW223607   0.411   1.991   6.608  0.1989  1.3848  1.3288
 4050SOL     OW23608   1.341   1.772   2.382 -0.1324  0.0546  0.0254
 4050SOL    HW123609   1.422   1.808   2.418 -0.2710  1.8606 -1.4590
 4050SOL    HW223610   1.376   1.702   2.327 -0.9647 -1.0648  0.9005
 4051SOL     OW23611   0.940   3.734   3.658  0.1804  1.3229 -0.8687
 4051SOL    HW123612   0.947   3.784   3.576  1.9072 -0.4884 -1.8366
 4051SOL    HW223613   0.873   3.784   3.704 -0.9417 -2.7738  1.9620
 4052SOL     OW23614   0.677   4.286   2.935 -0.3655  0.1066  0.4677
 4052SOL    HW123615   0.590   4.245   2.936 -0.5351  0.4189 -1.9146
 4052SOL    HW223616   0.700   4.255   2.848  0.7693  1.7616  0.1757
 4053SOL     OW23617   0.308   4.448  16.822  0.3970  0.5483 -0.2255
 4053SOL    HW123618   0.338   4.359  16.837  3.2387  1.0305 -2.8439
 4053SOL    HW223619   0.219   4.430  16.792 -0.1270  1.9374  0.4939
 4054SOL     OW23620   4.130   1.844  16.363  0.1047 -0.2772  0.0919
 4054SOL    HW123621   4.150   1.767  16.309 -0.5551 -2.0911  2.3902
 4054SOL    HW223622   4.198   1.842  16.431  0.9343 -2.3927 -0.7752
 4055SOL     OW23623   0.841   3.401   7.024  0.5162  0.0111  0.5689
 4055SOL    HW123624   0.886   3.485   7.025  1.6218 -0.6004  2.6602
 4055SOL    HW223625   0.880   3.373   7.107  1.8975  3.4707  1.0690
 4056SOL     OW23626   3.873   2.190  13.214  0.0269  0.3825  0.2324
 4056SOL    HW123627   3.836   2.107  13.183 -2.1602  1.4130  0.0267
 4056SOL    HW223628   3.804   2.236  13.261 -1.4408 -1.6151  0.0574
 4057SOL     OW23629   0.985   2.673   6.690 -0.1707 -0.1004 -0.2084
 4057SOL    HW123630   1.067   2.630   6.715  0.3582  0.6402 -0.6436
 4057SOL    HW223631   0.924   2.603   6.712 -1.5705  0.5123 -2.1192
 4058SOL     OW23632   0.667   2.885   8.009 -0.1540  0.1691  0.1452
 4058SOL    HW123633   0.670   2.792   7.988 -0.4597  0.2537 -0.2497
 4058SOL    HW223634   0.574   2.905   8.015 -0.2613  0.0481 -1.2105
 4059SOL     OW23635   3.110   4.279   1.836  0.0944  0.0255  0.5885
 4059SOL    HW123636   3.074   4.191   1.822 -1.8979  0.6571  1.8107
 4059SOL    HW223637   3.180   4.280   1.771  0.3482  3.1808  0.9330
 4060SOL     OW23638   3.098   3.939   8.895 -0.0749 -0.4159 -0.1256
 4060SOL    HW123639   3.154   3.885   8.950  0.7849 -0.1624 -0.7531
 4060SOL    HW223640   3.142   3.930   8.810  2.1472  0.6273  0.9348
 4061SOL     OW23641   2.733   1.697   6.362  0.3623 -0.0798 -0.1722
 4061SOL    HW123642   2.769   1.680   6.275 -0.0078 -0.5674 -0.2276
 4061SOL    HW223643   2.654   1.645   6.351 -0.0608  0.1472  1.8739
 4062SOL     OW23644   1.315   3.490   8.424 -0.3661  0.0814 -0.9670
 4062SOL    HW123645   1.387   3.537   8.466 -1.2566  1.1188 -0.6155
 4062SOL    HW223646   1.340   3.399   8.442  2.7386  1.0425 -0.3687
 4063SOL     OW23647   0.601   3.441   3.110 -0.0890  0.5639  0.1790
 4063SOL    HW123648   0.617   3.483   3.194  2.0965  1.1527 -0.5293
 4063SOL    HW223649   0.549   3.365   3.135  0.4474  0.0561 -0.2568
 4064SOL     OW23650   4.264   3.572   7.902  0.3348  0.4622  0.8661
 4064SOL    HW123651   4.200   3.524   7.954 -1.8379  1.9722 -0.4000
 4064SOL    HW223652   4.345   3.522   7.908 -0.2505 -0.3719  1.7142
 4065SOL     OW23653   4.285   4.304   5.087  0.4053 -0.0779 -0.4973
 4065SOL    HW123654   4.291   4.398   5.101 -2.4660 -0.0811  0.7289
 4065SOL    HW223655   4.322   4.260   5.163  0.2768 -2.4018 -1.7810
 4066SOL     OW23656   3.233   1.039   8.637 -0.4674 -0.4116 -0.6422
 4066SOL    HW123657   3.184   0.989   8.703  0.6997  0.3081  0.7726
 4066SOL    HW223658   3.305   0.977   8.633  1.4278  1.7552 -0.1594
 4067SOL     OW23659   3.792   3.725   8.720 -0.0971  0.1020 -0.2616
 4067SOL    HW123660   3.885   3.733   8.739 -0.0937 -0.7544  0.1368
 4067SOL    HW223661   3.788   3.793   8.654 -2.1897 -0.6387 -0.9327
 4068SOL     OW23662   1.831   1.436  15.259  0.8437 -0.3198  0.0551
 4068SOL    HW123663   1.782   1.450  15.340 -0.2126  1.1838 -0.8518
 4068SOL    HW223664   1.916   1.431  15.303  0.2384 -2.8319  0.9157
 4069SOL     OW23665   0.564   1.977   4.549 -0.2865  0.4080 -0.6228
 4069SOL    HW123666   0.618   1.965   4.471 -1.8075  0.3213 -1.6818
 4069SOL    HW223667   0.530   2.066   4.539 -1.7154 -0.0183  0.4047
 4070SOL     OW23668   1.611   2.289   4.819  0.0816 -0.3632 -0.3413
 4070SOL    HW123669   1.578   2.237   4.892  3.3823 -0.9172  0.7299
 4070SOL    HW223670   1.609   2.370   4.871 -1.2768 -0.6781  0.0998
 4071SOL     OW23671   2.785   2.781  11.500  0.4226 -0.1912 -0.2238
 4071SOL    HW123672   2.846   2.741  11.437 -0.7195  0.2612 -1.5863
 4071SOL    HW223673   2.846   2.845  11.536 -0.2350 -0.2789  1.0409
 4072SOL     OW23674   0.691   2.816   8.494 -0.0949 -0.1706 -0.2418
 4072SOL    HW123675   0.675   2.785   8.405  0.4512 -0.6341 -0.1746
 4072SOL    HW223676   0.656   2.905   8.488 -0.6948 -0.2901  1.4715
 4073SOL     OW23677   0.135   3.288   4.061 -0.1264 -0.0903  0.0488
 4073SOL    HW123678   0.230   3.301   4.063 -0.2040  0.4014  0.8116
 4073SOL    HW223679   0.105   3.378   4.047 -0.4369 -0.1442  0.3674
 4074SOL     OW23680   0.315   1.340   5.340  0.1392  0.3803  0.3311
 4074SOL    HW123681   0.303   1.352   5.435 -0.4621 -2.0772  0.5718
 4074SOL    HW223682   0.226   1.353   5.309  0.8500  1.3896 -1.2735
 4075SOL     OW23683   1.389   0.102   7.393  0.1063 -0.0538  0.0373
 4075SOL    HW123684   1.378   0.031   7.456 -0.9589  1.3012  1.3794
 4075SOL    HW223685   1.484   0.109   7.397  0.0615  0.6226 -0.0042
 4076SOL     OW23686   4.222   3.920   3.332 -0.3660 -0.3852  0.0924
 4076SOL    HW123687   4.133   3.930   3.299 -0.2348  0.3963 -0.0369
 4076SOL    HW223688   4.278   3.905   3.255  0.6244 -0.2267  0.7733
 4077SOL     OW23689   1.895   4.187  17.474  0.6441  0.2115  0.5683
 4077SOL    HW123690   1.801   4.182  17.459  0.7413  2.0509 -0.7196
 4077SOL    HW223691   1.918   4.128  17.403  1.5242  0.7959  0.3689
 4078SOL     OW23692   1.194   3.160   8.868 -0.5213 -0.5289 -0.3623
 4078SOL    HW123693   1.124   3.205   8.916 -0.9056 -0.7510 -0.7172
 4078SOL    HW223694   1.231   3.111   8.942  0.5592 -0.2867 -0.7437
 4079SOL     OW23695   4.418   2.163   6.703 -0.2542  0.5291  0.1543
 4079SOL    HW123696   4.459   2.103   6.642  0.8978 -0.2456  1.6915
 4079SOL    HW223697   4.345   2.113   6.739  1.6516 -0.5633  2.4854
 4080SOL     OW23698   1.776   1.376   3.361  0.0418 -0.2368 -0.1157
 4080SOL    HW123699   1.773   1.463   3.401  2.6732 -0.5601  0.7887
 4080SOL    HW223700   1.869   1.357   3.375 -0.0992 -0.5757  0.3493
 4081SOL     OW23701   1.549   2.755   3.953  0.3863  0.0527  0.6059
 4081SOL    HW123702   1.589   2.812   4.019  1.5705 -1.4571  1.1888
 4081SOL    HW223703   1.590   2.672   3.978  0.4135 -0.0397  0.2611
 4082SOL     OW23704   1.178   4.093   6.087 -0.2339  0.2590 -0.8094
 4082SOL    HW123705   1.262   4.055   6.063 -1.5394 -2.0294 -1.7193
 4082SOL    HW223706   1.158   4.039   6.164  0.1616  1.5751  0.2184
 4083SOL     OW23707   3.173   2.006   8.878 -0.3456 -0.5011 -0.4927
 4083SOL    HW123708   3.217   1.960   8.806  2.6696 -0.0201  1.0290
 4083SOL    HW223709   3.242   2.011   8.944 -2.8091 -1.5290  2.1952
 4084SOL     OW23710   1.111   4.689   7.497  0.5465  0.1720 -0.3017
 4084SOL    HW123711   1.154   4.641   7.426  3.6594 -0.1225  1.7610
 4084SOL    HW223712   1.077   4.615   7.548  1.1929  0.3442  0.3743
 4085SOL     OW23713   0.209   1.736  16.389  0.2590  0.0166  0.3230
 4085SOL    HW123714   0.205   1.655  16.339  0.2812 -0.4215  1.0197
 4085SOL    HW223715   0.122   1.776  16.386  0.0238 -0.5497 -0.2085
 4086SOL     OW23716   4.485   0.879   4.667 -0.0754  0.2209  0.5089
 4086SOL    HW123717   4.552   0.812   4.650  2.4063  2.5314  1.0922
 4086SOL    HW223718   4.522   0.930   4.739  0.7387 -1.2881  1.1560
 4087SOL     OW23719   1.278   2.582   4.008 -0.0649  0.9067 -0.2832
 4087SOL    HW123720   1.276   2.588   3.913 -1.9135 -0.5033 -0.3349
 4087SOL    HW223721   1.214   2.513   4.030 -1.1109  2.4665  1.5782
 4088SOL     OW23722   0.033   0.318   9.014 -0.5357 -0.1322  0.2398
 4088SOL    HW123723   0.127   0.314   8.995 -0.4221 -0.0618  0.8033
 4088SOL    HW223724   0.012   0.229   8.986  1.3109 -1.5777  3.4418
 4089SOL     OW23725   4.163   1.022   9.395  0.8364 -0.7677  0.4958
 4089SOL    HW123726   4.190   1.113   9.405 -0.1422 -0.5852  1.4997
 4089SOL    HW223727   4.239   0.985   9.349 -0.9205 -1.6777 -1.7121
 4090SOL     OW23728   2.160   3.860  11.860 -0.0976  0.1261 -0.0953
 4090SOL    HW123729   2.191   3.786  11.808 -1.9627  0.2576 -1.3667
 4090SOL    HW223730   2.127   3.913  11.788 -1.3993 -1.4802 -0.6742
 4091SOL     OW23731   4.427   0.568   8.046 -0.6712 -0.3388 -0.5955
 4091SOL    HW123732   4.403   0.535   7.960 -0.0721 -0.0968 -0.8516
 4091SOL    HW223733   4.347   0.550   8.096  0.4614  2.9569  2.4196
 4092SOL     OW23734   3.022   0.960  15.237 -0.6837 -0.0763  0.2736
 4092SOL    HW123735   2.957   0.910  15.286  1.7877 -1.1164  2.5502
 4092SOL    HW223736   2.975   1.041  15.222 -0.9280  0.0901  1.9336
 4093SOL     OW23737   3.028   4.179  10.484  0.2459  0.4762  0.2384
 4093SOL    HW123738   3.073   4.235  10.421 -0.9980  0.0525 -1.0142
 4093SOL    HW223739   2.998   4.115  10.420 -0.8142 -0.3355  1.5637
 4094SOL     OW23740   2.849   3.762   6.047 -0.5582 -0.0208 -0.7790
 4094SOL    HW123741   2.876   3.694   6.109  2.2978  1.0966 -0.7729
 4094SOL    HW223742   2.782   3.808   6.097  0.4805  1.0392 -0.3567
 4095SOL     OW23743   2.657   3.524   8.515 -0.4516 -0.1687 -0.1881
 4095SOL    HW123744   2.635   3.556   8.427 -0.3881 -0.5586 -0.3468
 4095SOL    HW223745   2.752   3.512   8.506 -0.1679 -0.3753  3.1107
 4096SOL     OW23746   1.648   3.031   4.837 -0.5334 -0.2485  0.2848
 4096SOL    HW123747   1.639   3.103   4.899  0.8232 -0.4896  0.7662
 4096SOL    HW223748   1.573   2.979   4.866 -1.2932  0.2703 -0.7408
 4097SOL     OW23749   4.653   0.546   7.404 -0.1335 -0.1414 -0.2105
 4097SOL    HW123750   4.664   0.636   7.435  1.2546 -0.3617 -0.0542
 4097SOL    HW223751   0.025   0.523   7.402  0.1544  0.9628  0.4784
 4098SOL     OW23752   3.055   0.918   7.255  0.2571  0.1698 -0.5635
 4098SOL    HW123753   3.068   0.911   7.349 -1.7850  0.6206 -0.2489
 4098SOL    HW223754   3.112   0.991   7.230  0.3778  0.7120  1.3334
 4099SOL     OW23755   2.389   1.734   6.168 -1.2130  0.1343 -0.3781
 4099SOL    HW123756   2.334   1.812   6.182  1.1655  1.6893  0.1831
 4099SOL    HW223757   2.317   1.671   6.167  0.2062 -1.5051  2.3882
 4100SOL     OW23758   0.675   3.572   7.594 -0.0518 -0.0649 -0.0210
 4100SOL    HW123759   0.731   3.611   7.527  1.2818 -1.8517  0.0550
 4100SOL    HW223760   0.688   3.478   7.582 -1.4709 -0.4567  1.5558
 4101SOL     OW23761   2.433   3.043   6.485  0.1523 -0.4749 -0.2912
 4101SOL    HW123762   2.458   2.990   6.409 -1.2556 -2.2635  0.5113
 4101SOL    HW223763   2.518   3.057   6.527  0.2977 -0.3749 -0.6162
 4102SOL     OW23764   1.015   3.445   1.346  0.0278 -0.0426  0.3210
 4102SOL    HW123765   0.942   3.396   1.383  1.0873 -0.1604  2.2278
 4102SOL    HW223766   1.022   3.412   1.256  0.2142 -2.5364  1.2570
 4103SOL     OW23767   3.442   2.818   9.267  0.2706  0.1804 -0.0907
 4103SOL    HW123768   3.465   2.725   9.268 -3.3075 -0.6987 -2.1996
 4103SOL    HW223769   3.351   2.809   9.293  0.2108 -0.4557 -0.5170
 4104SOL     OW23770   2.612   4.026   3.535  0.1190 -0.2264  0.3009
 4104SOL    HW123771   2.684   3.964   3.531 -0.2736 -0.6992  0.6245
 4104SOL    HW223772   2.660   4.109   3.533  1.2982 -0.8953  0.7827
 4105SOL     OW23773   2.044   0.686   7.110  0.4287 -0.5045 -0.3184
 4105SOL    HW123774   2.040   0.740   7.189  1.4582 -0.9181  0.0219
 4105SOL    HW223775   1.959   0.712   7.075  0.1563  0.2028  0.8665
 4106SOL     OW23776   4.671   3.278   3.272  0.3823 -0.4736  0.0218
 4106SOL    HW123777   4.618   3.357   3.261 -0.0570 -0.7247  0.3661
 4106SOL    HW223778   4.610   3.208   3.292  0.2240 -0.3192  0.0837
 4107SOL     OW23779   0.065   0.204   7.302  0.6248  0.2143  0.2738
 4107SOL    HW123780   0.114   0.276   7.342  0.5777  0.0560  0.6133
 4107SOL    HW223781   0.027   0.165   7.380 -1.9131  2.1312 -0.0123
 4108SOL     OW23782   1.635   3.037  11.738  0.1608  0.0703 -0.0590
 4108SOL    HW123783   1.694   3.048  11.664  0.1845  2.0914  0.2450
 4108SOL    HW223784   1.641   3.120  11.787  0.9128  0.1257 -0.2526
 4109SOL     OW23785   1.022   1.057   9.117 -0.0066 -0.1737 -0.5368
 4109SOL    HW123786   1.030   1.049   9.022 -1.6465  0.8218 -0.7520
 4109SOL    HW223787   0.981   1.143   9.127 -0.6028 -0.2710 -2.2093
 4110SOL     OW23788   1.810   4.467   1.736 -0.2415  0.0554 -0.0975
 4110SOL    HW123789   1.794   4.440   1.646  0.3984 -1.3687  0.2073
 4110SOL    HW223790   1.757   4.546   1.750 -0.8692 -0.5416  0.8724
 4111SOL     OW23791   0.804   0.495  16.722 -0.2979 -0.1338  0.4541
 4111SOL    HW123792   0.719   0.539  16.726 -1.0098 -1.4085 -0.4294
 4111SOL    HW223793   0.840   0.544  16.648  3.6963  0.9777  3.1211
 4112SOL     OW23794   0.275   3.126  17.437 -0.5933 -0.1120 -0.3738
 4112SOL    HW123795   0.264   3.220  17.453  1.2278 -0.2360  1.5900
 4112SOL    HW223796   0.186   3.091  17.430 -1.2834  1.5431 -0.0536
 4113SOL     OW23797   0.301   0.281   8.947 -0.5034  0.1915  0.6062
 4113SOL    HW123798   0.377   0.320   8.904  0.8720  0.3597  3.1736
 4113SOL    HW223799   0.289   0.206   8.888 -0.6438  1.0500 -0.4480
 4114SOL     OW23800   0.375   0.422   6.393 -0.1359 -0.6596  0.2360
 4114SOL    HW123801   0.305   0.394   6.453  0.9085 -2.7494  0.4639
 4114SOL    HW223802   0.392   0.336   6.356 -2.2511 -1.0124  0.1041
 4115SOL     OW23803   4.312   4.149   2.693  0.4505  0.0817 -0.4309
 4115SOL    HW123804   4.273   4.237   2.688  2.3608  0.9724  0.5269
 4115SOL    HW223805   4.247   4.117   2.630  1.7969  0.0649 -1.8096
 4116SOL     OW23806   0.502   0.145  12.578  0.2269  0.2158  0.2354
 4116SOL    HW123807   0.464   0.058  12.584 -0.3999  0.4201 -0.6896
 4116SOL    HW223808   0.563   0.123  12.507  0.8880  0.4383  0.7355
 4117SOL     OW23809   1.951   2.717  12.305 -0.0667 -0.2901  0.2966
 4117SOL    HW123810   1.981   2.642  12.357 -2.7390 -1.3709  0.3261
 4117SOL    HW223811   1.943   2.677  12.218  3.6142  2.0598 -1.1003
 4118SOL     OW23812   2.704   3.084   6.550 -0.2126  0.2146  0.4023
 4118SOL    HW123813   2.690   3.178   6.554  0.5695  0.5818 -4.7513
 4118SOL    HW223814   2.780   3.088   6.491  1.5389 -0.0107  2.6453
 4119SOL     OW23815   3.752   4.440   2.919 -0.2764  0.0447  0.1884
 4119SOL    HW123816   3.833   4.485   2.895 -0.5845  0.7898  0.5762
 4119SOL    HW223817   3.717   4.431   2.830 -1.7435  1.7796  0.5955
 4120SOL     OW23818   3.576   0.677   3.832 -0.1121 -0.1272  0.0927
 4120SOL    HW123819   3.580   0.596   3.781 -0.4273 -0.2579  0.2757
 4120SOL    HW223820   3.538   0.736   3.767 -0.8707  2.3654  2.7987
 4121SOL     OW23821   4.037   0.609   7.946 -0.1582 -0.3611  0.2104
 4121SOL    HW123822   4.118   0.577   7.986 -0.4242 -2.7041 -1.1271
 4121SOL    HW223823   3.974   0.564   8.002  0.3037 -0.4324  0.6791
 4122SOL     OW23824   2.241   2.368   2.834  0.0284  0.1989 -0.0807
 4122SOL    HW123825   2.271   2.356   2.924  1.4095  2.7654 -0.1942
 4122SOL    HW223826   2.152   2.336   2.843 -0.1724  0.0687 -2.3983
 4123SOL     OW23827   2.056   1.958   4.105 -0.3124 -0.2457 -0.1852
 4123SOL    HW123828   1.973   1.978   4.063  0.2614  1.6067 -0.4661
 4123SOL    HW223829   2.076   2.041   4.149 -0.5790 -1.3302  1.9900
 4124SOL     OW23830   2.943   1.857   7.797  0.1072 -0.1026  0.5425
 4124SOL    HW123831   3.010   1.915   7.762 -2.8038  3.8347  1.5138
 4124SOL    HW223832   2.880   1.918   7.836  0.8637  0.1990  1.3079
 4125SOL     OW23833   3.388   2.774   5.156  0.0428 -0.6417  0.1630
 4125SOL    HW123834   3.392   2.856   5.107 -0.1989 -0.1578  0.9732
 4125SOL    HW223835   3.474   2.735   5.138  0.1759 -0.3482  0.1676
 4126SOL     OW23836   4.367   1.401   0.706  0.4747 -0.4327  0.2511
 4126SOL    HW123837   4.307   1.430   0.774  0.4564  3.2563 -1.3783
 4126SOL    HW223838   4.328   1.449   0.633 -0.7207  1.3589  2.0801
 4127SOL     OW23839   0.605   2.716   8.266 -0.2133  0.2925  0.0951
 4127SOL    HW123840   0.612   2.689   8.175 -1.7833  0.6742 -0.1416
 4127SOL    HW223841   0.543   2.650   8.297 -1.1285  1.2565  0.3523
 4128SOL     OW23842   1.741   1.509   5.690 -0.4072  0.0995 -0.4022
 4128SOL    HW123843   1.693   1.456   5.754  0.3486 -1.3009 -0.9877
 4128SOL    HW223844   1.825   1.464   5.703 -0.1173  1.0490  0.9787
 4129SOL     OW23845   1.278   4.377   1.239  0.2508  0.3782 -0.7818
 4129SOL    HW123846   1.196   4.426   1.246  0.5242  1.0538 -2.2320
 4129SOL    HW223847   1.273   4.330   1.322  0.1404  0.5168 -0.7106
 4130SOL     OW23848   0.332   4.009   8.800 -0.0207  0.1228 -0.0053
 4130SOL    HW123849   0.419   4.048   8.794 -0.7201  1.8951  1.5370
 4130SOL    HW223850   0.350   3.915   8.804  1.1465  0.3725  0.6405
 4131SOL     OW23851   1.894   0.941  16.034  0.1285  0.2551 -0.2365
 4131SOL    HW123852   1.937   0.883  15.971 -0.7901 -0.5636 -0.1244
 4131SOL    HW223853   1.939   1.025  16.028 -0.7025  0.6428 -1.1300
 4132SOL     OW23854   4.410   4.514   3.254  0.1889 -0.2750  0.1027
 4132SOL    HW123855   4.356   4.491   3.179  0.7978  0.6318 -0.6192
 4132SOL    HW223856   4.472   4.441   3.252 -0.4294 -0.7903 -0.0486
 4133SOL     OW23857   0.257   1.758  13.353 -0.5786 -0.0879  0.4372
 4133SOL    HW123858   0.239   1.799  13.437  2.0577  0.5801  0.6601
 4133SOL    HW223859   0.194   1.810  13.303 -1.5134 -0.8949  0.7744
 4134SOL     OW23860   0.375   1.018   9.398 -0.9191 -0.3814  0.0008
 4134SOL    HW123861   0.387   0.972   9.315  1.2432  0.3330 -0.0812
 4134SOL    HW223862   0.383   0.950   9.465 -1.7805 -1.2429 -0.7866
 4135SOL     OW23863   0.371   4.585   4.002  0.1364  0.2464 -0.7729
 4135SOL    HW123864   0.424   4.576   4.081 -0.3903  0.0302 -0.4384
 4135SOL    HW223865   0.378   4.677   3.978 -0.0346  0.8712  1.5234
 4136SOL     OW23866   2.691   3.287   5.512 -0.2524 -0.0975  0.4146
 4136SOL    HW123867   2.629   3.358   5.495  0.2942  0.1119 -0.7360
 4136SOL    HW223868   2.770   3.331   5.480 -1.2938  0.3887 -1.4942
 4137SOL     OW23869   4.547   2.761   9.558  0.0002 -0.0669 -0.3678
 4137SOL    HW123870   4.545   2.804   9.643 -0.0844  1.7616 -1.3023
 4137SOL    HW223871   4.455   2.781   9.542  0.2827  0.7058 -1.0066
 4138SOL     OW23872   1.990   3.637   4.691  0.3767 -0.3075  0.3507
 4138SOL    HW123873   1.929   3.691   4.641 -0.8473 -2.0739 -0.0797
 4138SOL    HW223874   1.951   3.652   4.777  0.5371  2.3019 -0.0436
 4139SOL     OW23875   2.137   3.113   8.462  0.1146 -0.5654 -0.6216
 4139SOL    HW123876   2.121   3.049   8.532  1.5706 -0.4926 -0.2139
 4139SOL    HW223877   2.228   3.088   8.443 -0.2749  0.3241 -3.5604
 4140SOL     OW23878   0.079   2.329   5.462 -0.1707  0.3065 -0.0310
 4140SOL    HW123879   0.020   2.290   5.399  1.0546 -1.8928  0.1957
 4140SOL    HW223880   0.018   2.317   5.535  0.6594  0.8867  0.7629
 4141SOL     OW23881   3.861   4.345  10.117 -0.2345 -0.2338  0.0169
 4141SOL    HW123882   3.803   4.408  10.160  0.0522 -0.0259  0.1039
 4141SOL    HW223883   3.819   4.265  10.146 -0.8588  0.3372  0.6779
 4142SOL     OW23884   1.299   2.503  13.241  0.1843 -0.0174  0.7644
 4142SOL    HW123885   1.320   2.581  13.188  0.6377 -0.6697 -0.0124
 4142SOL    HW223886   1.265   2.447  13.171 -1.1486  1.5989  0.0914
 4143SOL     OW23887   4.429   1.648  13.591  0.0067 -0.1476  0.3368
 4143SOL    HW123888   4.487   1.722  13.574  0.4044 -0.7277 -0.8580
 4143SOL    HW223889   4.490   1.580  13.559  1.7957  2.2895 -1.4346
 4144SOL     OW23890   4.328   4.570   7.816  0.1068 -0.0228  0.0941
 4144SOL    HW123891   4.256   4.552   7.876 -1.8283  0.9509 -1.9355
 4144SOL    HW223892   4.277   4.592   7.738 -1.7947  0.5059  1.4919
 4145SOL     OW23893   2.417   1.781  13.696  0.0603 -0.1357  0.5522
 4145SOL    HW123894   2.411   1.876  13.703  0.9927  0.0709 -1.7115
 4145SOL    HW223895   2.323   1.767  13.684  0.1656  1.0016 -1.5047
 4146SOL     OW23896   1.900   3.221   4.100 -0.1383 -0.4304  0.1200
 4146SOL    HW123897   1.968   3.182   4.046  0.6555  0.9929  0.0736
 4146SOL    HW223898   1.895   3.308   4.060  0.9478 -0.0481  0.8030
 4147SOL     OW23899   1.675   3.991  11.321  0.1365  0.0672 -0.7181
 4147SOL    HW123900   1.629   4.058  11.270 -0.4420 -0.1632 -0.4930
 4147SOL    HW223901   1.762   4.000  11.282  0.9303 -1.4958  0.7079
 4148SOL     OW23902   1.375   3.316  16.968  0.1678  0.3995  0.5151
 4148SOL    HW123903   1.445   3.349  17.024 -1.1682 -1.8807  3.5787
 4148SOL    HW223904   1.304   3.379  16.982  0.9760  0.9680  2.1382
 4149SOL     OW23905   0.402   2.119   2.429  0.1171 -0.7494  0.0719
 4149SOL    HW123906   0.482   2.170   2.438 -1.3163  1.6741 -1.0621
 4149SOL    HW223907   0.335   2.171   2.474  0.3859 -0.3651  0.0234
 4150SOL     OW23908   3.216   2.327  16.494 -0.3802 -0.1304  0.8546
 4150SOL    HW123909   3.263   2.400  16.453 -0.2703  1.8963  4.5239
 4150SOL    HW223910   3.286   2.271  16.527 -1.0249  1.4664  4.8722
 4151SOL     OW23911   3.899   1.791   1.522  0.0043 -0.2686  0.3898
 4151SOL    HW123912   3.840   1.757   1.455 -0.1936  1.7644 -0.4654
 4151SOL    HW223913   3.836   1.856   1.555  1.2377  0.9361  0.3731
 4152SOL     OW23914   3.119   4.200   8.322 -0.3065  0.2358 -0.0313
 4152SOL    HW123915   3.088   4.197   8.413 -0.2995  0.9036 -0.0093
 4152SOL    HW223916   3.037   4.170   8.284 -0.8711  1.2759  0.3917
 4153SOL     OW23917   3.066   4.172   4.742  0.2783  0.4567  0.3647
 4153SOL    HW123918   3.106   4.257   4.726 -1.7766  0.9797 -2.0732
 4153SOL    HW223919   3.083   4.131   4.657 -2.9185 -0.0202 -0.0268
 4154SOL     OW23920   1.940   4.443  17.347 -0.0259 -0.4160 -0.1501
 4154SOL    HW123921   1.962   4.365  17.396 -2.9073 -0.5891  0.8592
 4154SOL    HW223922   2.017   4.453  17.291  1.5555 -3.3773  1.5181
 4155SOL     OW23923   3.938   0.519  17.611  0.3867 -0.4357 -0.0497
 4155SOL    HW123924   3.909   0.544  17.523 -1.1875 -0.2399  0.5248
 4155SOL    HW223925   3.979   0.603  17.628 -0.1813 -0.0233 -0.6944
 4156SOL     OW23926   0.038   0.656   3.614  0.7105 -0.1521 -0.4132
 4156SOL    HW123927   4.687   0.682   3.672  0.4087  0.2073 -0.9502
 4156SOL    HW223928   0.049   0.725   3.549 -3.8210 -2.1919 -3.3675
 4157SOL     OW23929   4.117   3.238   0.509 -0.8827  0.6567  0.9964
 4157SOL    HW123930   4.043   3.298   0.518 -2.3002 -1.1010  0.9516
 4157SOL    HW223931   4.108   3.206   0.419  0.4810 -0.2342  1.1753
 4158SOL     OW23932   2.507   1.102   7.576 -0.2709  0.0232 -0.1266
 4158SOL    HW123933   2.528   1.039   7.645  1.0669  0.5039 -0.0896
 4158SOL    HW223934   2.460   1.040   7.519 -1.1562  1.7760 -1.2880
 4159SOL     OW23935   2.575   4.311   2.036 -0.0118  0.1708 -0.7985
 4159SOL    HW123936   2.554   4.391   2.085  1.8761 -0.0647  0.3992
 4159SOL    HW223937   2.508   4.252   2.069 -0.1995  1.4182  1.0401
 4160SOL     OW23938   3.631   4.093   0.489  0.1689  0.5481  0.0647
 4160SOL    HW123939   3.692   4.116   0.559  0.4600 -1.8423  0.6122
 4160SOL    HW223940   3.662   4.007   0.458  1.1291  0.7559  0.4656
 4161SOL     OW23941   3.301   3.830   3.359 -0.6500  0.1995 -0.0559
 4161SOL    HW123942   3.279   3.806   3.449  1.7657 -0.9874  0.2163
 4161SOL    HW223943   3.391   3.860   3.361 -0.8379  0.9085 -2.7558
 4162SOL     OW23944   1.893   3.593   3.251  0.0350 -0.6086 -0.6342
 4162SOL    HW123945   1.965   3.654   3.235  1.1161 -2.0949 -1.4255
 4162SOL    HW223946   1.846   3.638   3.322  0.6677 -3.1948  1.4291
 4163SOL     OW23947   3.024   0.554   7.424 -0.0607 -0.2262 -0.4115
 4163SOL    HW123948   3.017   0.593   7.512  0.6264 -4.9542  1.7084
 4163SOL    HW223949   2.992   0.465   7.439  0.6311 -0.2932  0.6584
 4164SOL     OW23950   4.096   4.267   2.973 -0.0619 -0.0969  0.2845
 4164SOL    HW123951   4.165   4.207   3.001  0.9408  1.5586  1.3645
 4164SOL    HW223952   4.020   4.225   3.015 -1.5580  0.2987 -2.0435
 4165SOL     OW23953   1.299   4.246   3.227 -0.4064 -0.6520 -0.3345
 4165SOL    HW123954   1.205   4.258   3.240  0.1328  1.0246  2.0672
 4165SOL    HW223955   1.292   4.154   3.202  1.5396 -0.1946 -2.5669
 4166SOL     OW23956   0.962   0.507   7.519 -0.0615  0.0116 -0.2139
 4166SOL    HW123957   1.047   0.545   7.498 -0.0899 -1.4234 -2.9533
 4166SOL    HW223958   0.967   0.515   7.614  0.5357  1.3644 -0.3678
 4167SOL     OW23959   1.240   2.973   7.727 -0.0612  0.0649  0.3426
 4167SOL    HW123960   1.218   2.926   7.808  0.0945  0.8522  0.8424
 4167SOL    HW223961   1.238   3.061   7.765  0.5603 -0.1697  0.9401
 4168SOL     OW23962   3.893   1.270   6.280 -0.1195 -0.0134  0.4142
 4168SOL    HW123963   3.986   1.260   6.297  0.2698  1.3323 -0.9199
 4168SOL    HW223964   3.861   1.306   6.362  0.5709 -1.6313  1.3963
 4169SOL     OW23965   2.771   3.946   6.620 -0.2945  0.6017  0.0929
 4169SOL    HW123966   2.819   4.000   6.556  1.0977 -0.7226  0.0039
 4169SOL    HW223967   2.691   3.922   6.573 -0.3369  0.9006  0.0147
 4170SOL     OW23968   2.182   4.550   2.433  0.6980 -0.3359 -0.4920
 4170SOL    HW123969   2.275   4.570   2.438  0.7945 -1.0250  0.4063
 4170SOL    HW223970   2.174   4.532   2.339 -2.4586 -1.6511  0.0401
 4171SOL     OW23971   2.195   1.087   0.753 -0.3875  0.1549 -0.0998
 4171SOL    HW123972   2.271   1.121   0.705  0.1750 -0.3521  0.4275
 4171SOL    HW223973   2.225   1.025   0.819  1.7802 -0.7968 -1.9692
 4172SOL     OW23974   1.508   1.919   7.181  0.2474  0.4846  0.2393
 4172SOL    HW123975   1.538   1.847   7.237 -1.9875 -1.4319 -1.0298
 4172SOL    HW223976   1.473   1.983   7.242 -2.6177 -0.9422  0.1186
 4173SOL     OW23977   2.782   3.447   2.817 -0.7019  0.1731  0.0630
 4173SOL    HW123978   2.797   3.354   2.836 -0.3298  1.3806  5.5347
 4173SOL    HW223979   2.817   3.492   2.894  0.8806 -0.9879  0.0230
 4174SOL     OW23980   1.222   0.547   7.421 -0.2878 -0.0638 -0.3321
 4174SOL    HW123981   1.222   0.547   7.325 -0.9647 -0.9560 -0.3296
 4174SOL    HW223982   1.236   0.458   7.450  2.2277  0.4613  0.0661
 4175SOL     OW23983   4.436   4.533   8.853  0.0743  0.6456  0.5075
 4175SOL    HW123984   4.354   4.575   8.880  0.1084  2.9138 -2.9036
 4175SOL    HW223985   4.420   4.442   8.877 -0.1373  0.6240  0.2787
 4176SOL     OW23986   2.219   1.973   1.060 -0.1060 -0.1413  0.3362
 4176SOL    HW123987   2.254   1.950   1.146  1.6023  1.4820  0.0918
 4176SOL    HW223988   2.196   2.066   1.070  0.9741  0.1361  0.2444
 4177SOL     OW23989   3.083   3.066   9.372  0.9152  0.3108  0.0787
 4177SOL    HW123990   3.143   3.085   9.444 -1.6976  1.7604  1.8666
 4177SOL    HW223991   3.080   3.156   9.339  0.3603  0.6402  1.0495
 4178SOL     OW23992   2.786   2.113   5.590 -0.3149 -0.0130 -0.0760
 4178SOL    HW123993   2.856   2.059   5.552 -0.6396 -0.0425 -0.6425
 4178SOL    HW223994   2.723   2.041   5.587  0.5140 -0.8264  1.9265
 4179SOL     OW23995   3.195   2.997   6.231 -0.3199 -0.1246 -0.2098
 4179SOL    HW123996   3.282   3.033   6.252 -1.0431  2.1443 -1.0300
 4179SOL    HW223997   3.209   2.904   6.249  0.1503 -0.1521 -0.7111
 4180SOL     OW23998   3.849   4.566   1.583 -0.2846 -0.9074 -0.0429
 4180SOL    HW123999   3.753   4.564   1.588 -0.3711 -0.3814 -1.3863
 4180SOL    HW224000   3.859   4.481   1.540 -0.9365 -1.4825  0.9441
 4181SOL     OW24001   4.076   2.375  14.554 -0.1817  0.0792  0.6453
 4181SOL    HW124002   4.007   2.342  14.497  0.2284 -0.3309  0.3830
 4181SOL    HW224003   4.127   2.294  14.555  0.2564  0.3310 -1.4270
 4182SOL     OW24004   2.269   3.561   7.039  0.0047  0.1783 -0.5206
 4182SOL    HW124005   2.219   3.488   7.074 -0.8189  0.8763 -0.2329
 4182SOL    HW224006   2.224   3.638   7.073 -1.8319 -0.5502 -1.3219
 4183SOL     OW24007   1.319   2.461   8.859  0.0262 -0.0681 -0.5666
 4183SOL    HW124008   1.287   2.476   8.770  2.0832  2.7310 -0.8674
 4183SOL    HW224009   1.385   2.531   8.861  0.9057 -0.9488  1.3602
 4184SOL     OW24010   0.178   1.225  11.225  1.2625 -0.0827  0.0924
 4184SOL    HW124011   0.216   1.215  11.312  0.9355  1.3539  0.3920
 4184SOL    HW224012   0.086   1.217  11.248  1.4731  0.3822  1.0828
 4185SOL     OW24013   2.812   2.373  15.013  0.0234 -0.1129  0.2540
 4185SOL    HW124014   2.882   2.428  15.047 -0.4162  1.0635 -0.7188
 4185SOL    HW224015   2.821   2.293  15.064 -1.5987  0.1095  0.9058
 4186SOL     OW24016   3.391   1.896   9.048 -0.1512  0.3037 -0.2572
 4186SOL    HW124017   3.444   1.974   9.031  0.2131  0.5029  1.7934
 4186SOL    HW224018   3.370   1.904   9.141  3.1128  1.8093  0.3475
 4187SOL     OW24019   3.109   1.877  16.116 -0.4479 -0.2521 -0.2759
 4187SOL    HW124020   3.165   1.807  16.081  0.0658  1.3589 -2.7200
 4187SOL    HW224021   3.172   1.914  16.177 -0.6970 -1.2137  0.5630
 4188SOL     OW24022   4.235   3.546   4.166  0.2823  0.8469 -0.5223
 4188SOL    HW124023   4.316   3.509   4.199 -1.1490 -0.4535  1.5360
 4188SOL    HW224024   4.203   3.459   4.143  1.3822  0.4161 -0.3901
 4189SOL     OW24025   3.193   2.387   8.130 -0.4636  0.2339  0.1520
 4189SOL    HW124026   3.282   2.382   8.096 -0.6039  0.2068 -0.2068
 4189SOL    HW224027   3.145   2.308   8.105  1.0922  0.0399 -2.1813
 4190SOL     OW24028   3.749   2.740   4.701 -0.0966  0.3893 -0.6167
 4190SOL    HW124029   3.759   2.695   4.785 -0.4549  0.4800 -0.5254
 4190SOL    HW224030   3.805   2.689   4.641 -0.7201 -0.5032 -0.4428
 4191SOL     OW24031   3.017   3.904   3.176 -0.0014 -0.2071  0.3568
 4191SOL    HW124032   3.070   3.831   3.208  1.2089  0.4171 -0.2232
 4191SOL    HW224033   3.008   3.950   3.260  3.2187  3.2413 -1.2144
 4192SOL     OW24034   2.043   2.669   6.662 -0.4541  0.4762 -0.1156
 4192SOL    HW124035   2.065   2.746   6.715 -0.0931 -0.6062  1.2766
 4192SOL    HW224036   2.107   2.670   6.591 -0.2546 -0.7991  0.0562
 4193SOL     OW24037   2.273   3.122  12.018  0.0853 -0.0318 -0.1686
 4193SOL    HW124038   2.217   3.047  12.041 -0.4043  0.8674  1.5564
 4193SOL    HW224039   2.360   3.088  12.037  0.0071 -0.4729 -0.5856
 4194SOL     OW24040   2.557   3.607   9.097  0.5384 -0.9786  0.0305
 4194SOL    HW124041   2.606   3.597   9.179  1.3722  0.8335 -0.2663
 4194SOL    HW224042   2.570   3.701   9.087 -0.3109 -1.0511 -1.6212
 4195SOL     OW24043   0.532   2.620   3.177 -0.1280 -0.2909 -0.3676
 4195SOL    HW124044   0.550   2.546   3.119  2.3260  0.5222 -0.6512
 4195SOL    HW224045   0.609   2.628   3.234  1.1316  0.4964 -2.2016
 4196SOL     OW24046   3.459   1.197  11.412 -0.5210  0.7634 -0.1655
 4196SOL    HW124047   3.539   1.232  11.373 -0.1319  0.0773  0.0126
 4196SOL    HW224048   3.452   1.113  11.366  1.0808  1.3043 -1.4058
 4197SOL     OW24049   4.589   4.237   4.696 -0.1513  0.3026 -0.1818
 4197SOL    HW124050   4.563   4.320   4.735 -1.8967  0.4398 -1.6379
 4197SOL    HW224051   4.616   4.265   4.609  2.4081 -0.5432  0.3416
 4198SOL     OW24052   0.886   1.879  16.055 -0.6382  0.0389  0.3608
 4198SOL    HW124053   0.898   1.893  16.149  1.5787 -0.5182  0.1581
 4198SOL    HW224054   0.858   1.967  16.030 -1.4945  0.0137  1.2417
 4199SOL     OW24055   4.105   1.412   9.784 -0.0047  0.1223  0.5358
 4199SOL    HW124056   4.037   1.440   9.846 -0.9329 -2.0870  0.5382
 4199SOL    HW224057   4.189   1.429   9.826  0.7877  0.6264 -1.2593
 4200SOL     OW24058   3.067   0.679   7.132  0.1259 -0.6042 -0.4285
 4200SOL    HW124059   3.078   0.632   7.215  1.7284 -0.2181 -0.4250
 4200SOL    HW224060   3.057   0.767   7.168 -0.0917 -1.9187  2.7332
 4201SOL     OW24061   1.864   2.850   8.267  0.4100  0.4398  0.1621
 4201SOL    HW124062   1.913   2.832   8.347  0.1554 -0.0262  0.2187
 4201SOL    HW224063   1.850   2.760   8.238  1.8950 -0.2452  1.5929
 4202SOL     OW24064   3.304   2.861   4.230 -0.4399  0.0003  0.0881
 4202SOL    HW124065   3.325   2.901   4.314  1.5832 -0.9125  0.0172
 4202SOL    HW224066   3.382   2.883   4.179 -1.3025  0.7481 -0.8906
 4203SOL     OW24067   3.765   0.029  13.744  0.1969  0.3761  0.0903
 4203SOL    HW124068   3.780   0.112  13.789 -1.2462  0.0877  1.0901
 4203SOL    HW224069   3.760   4.681  13.810 -1.9221 -0.5624 -1.0574
 4204SOL     OW24070   3.491   2.511   4.104  0.8682  0.1898 -0.0523
 4204SOL    HW124071   3.443   2.587   4.071 -0.0512 -1.1622 -1.8302
 4204SOL    HW224072   3.435   2.437   4.081  0.2801  1.0927 -1.5530
 4205SOL     OW24073   1.440   3.905   6.691 -0.0104 -0.7578 -0.2269
 4205SOL    HW124074   1.525   3.945   6.675 -0.8368  0.3723 -1.7365
 4205SOL    HW224075   1.454   3.854   6.771  2.0499 -1.5007 -1.0677
 4206SOL     OW24076   1.911   2.639   9.369 -0.0644 -0.1399 -0.3710
 4206SOL    HW124077   1.918   2.559   9.318  1.0435 -0.0153 -0.4152
 4206SOL    HW224078   1.959   2.615   9.448  2.7637 -2.0153 -2.6653
 4207SOL     OW24079   0.275   1.357  17.048 -0.1596 -0.3376 -0.0357
 4207SOL    HW124080   0.254   1.412  16.973 -2.3561 -0.6401  0.3609
 4207SOL    HW224081   0.315   1.423  17.104 -1.1553 -0.8176  1.2532
 4208SOL     OW24082   4.226   1.235   1.490 -0.4046 -0.4963  0.3829
 4208SOL    HW124083   4.242   1.172   1.561 -0.4666 -1.2291 -0.2573
 4208SOL    HW224084   4.143   1.274   1.520 -0.9815 -0.4102 -1.3121
 4209SOL     OW24085   3.106   1.577   7.692  0.5479  0.5088  0.0470
 4209SOL    HW124086   3.022   1.534   7.705  0.6317  0.5523  0.7425
 4209SOL    HW224087   3.079   1.644   7.630 -0.3380  0.5251  0.4513
 4210SOL     OW24088   2.971   1.761   8.849  0.8566  0.0544  0.1136
 4210SOL    HW124089   3.019   1.755   8.932 -0.6025  1.4911  1.0627
 4210SOL    HW224090   2.893   1.706   8.857  0.0939  0.7693 -2.5867
 4211SOL     OW24091   3.681   1.492  17.481  0.1936 -0.0348 -0.0272
 4211SOL    HW124092   3.718   1.521  17.398  2.6276  0.3166  1.1807
 4211SOL    HW224093   3.614   1.429  17.453  0.9745 -1.5455  1.5178
 4212SOL     OW24094   0.022   2.404   8.009 -0.9565 -0.2331  0.3424
 4212SOL    HW124095   0.049   2.316   7.982  1.9205  0.6870  0.2398
 4212SOL    HW224096   4.684   2.394   8.084  0.9993  0.7156  2.0049
 4213SOL     OW24097   1.446   1.140  14.918 -0.1816  0.2054 -0.7375
 4213SOL    HW124098   1.533   1.141  14.878  0.4639 -0.1322  0.6784
 4213SOL    HW224099   1.460   1.089  14.998 -2.5055  1.5394  0.5296
 4214SOL     OW24100   1.976   4.449  15.801  0.0396  0.1399  0.0514
 4214SOL    HW124101   1.971   4.392  15.724  2.3501 -1.6716  1.2555
 4214SOL    HW224102   2.070   4.459  15.811  0.1576 -0.5790 -0.3595
 4215SOL     OW24103   3.909   2.712   7.167  0.1518  0.5486  0.0921
 4215SOL    HW124104   3.826   2.716   7.214  0.5557 -0.3529  0.8872
 4215SOL    HW224105   3.902   2.619   7.149  0.5013  0.2501  1.4726
 4216SOL     OW24106   1.100   3.232  12.623 -1.2568 -0.2317 -0.0657
 4216SOL    HW124107   1.048   3.306  12.592 -1.1743  0.7458  2.0973
 4216SOL    HW224108   1.177   3.267  12.668 -0.7479 -0.9832 -0.3620
 4217SOL     OW24109   1.431   1.005   6.626 -0.5216 -0.6966 -0.6414
 4217SOL    HW124110   1.408   1.090   6.589 -0.1766  0.3364  1.4868
 4217SOL    HW224111   1.350   0.979   6.670 -0.6490  0.9602  0.1321
 4218SOL     OW24112   2.635   3.643  10.527  0.0697 -0.0669  0.3709
 4218SOL    HW124113   2.648   3.732  10.559 -2.1978 -0.4697  2.4045
 4218SOL    HW224114   2.710   3.637  10.469  0.1393 -1.1646  0.5754
 4219SOL     OW24115   4.104   3.584  11.346 -0.3171 -0.4343 -0.5737
 4219SOL    HW124116   4.031   3.552  11.292  0.0379 -1.3950 -0.4975
 4219SOL    HW224117   4.065   3.646  11.406 -1.7940 -1.6709 -0.2563
 4220SOL     OW24118   1.310   2.060   8.474 -0.9136 -0.1709  0.1585
 4220SOL    HW124119   1.216   2.048   8.490 -0.7805 -2.4304 -0.7853
 4220SOL    HW224120   1.340   1.993   8.534  1.5769 -0.1184 -1.0247
 4221SOL     OW24121   3.245   2.168   3.139 -0.2690  0.8132 -0.0111
 4221SOL    HW124122   3.276   2.258   3.148  1.7474  0.0768  0.3007
 4221SOL    HW224123   3.306   2.130   3.076  0.0368  0.6785  0.3673
 4222SOL     OW24124   1.166   3.367  13.000  0.5520 -0.4366  0.6659
 4222SOL    HW124125   1.112   3.396  12.926  3.8422 -2.1088 -2.3975
 4222SOL    HW224126   1.138   3.422  13.073  0.5483 -0.0957  0.4080
 4223SOL     OW24127   4.563   1.491   5.908 -0.5295 -0.4769  0.4178
 4223SOL    HW124128   4.536   1.530   5.824 -0.5656  0.9908  1.1039
 4223SOL    HW224129   4.657   1.508   5.906 -1.1010  2.6496 -0.7872
 4224SOL     OW24130   0.760   4.582  11.270 -0.2751  0.5803 -0.2445
 4224SOL    HW124131   0.844   4.563  11.312 -0.3985 -0.4522 -0.4590
 4224SOL    HW224132   0.695   4.522  11.308  2.3923 -2.3048 -0.2177
 4225SOL     OW24133   3.786   2.159   6.845 -0.5574 -0.0032 -0.1766
 4225SOL    HW124134   3.697   2.124   6.851 -0.0782 -1.3368 -0.9987
 4225SOL    HW224135   3.771   2.252   6.863  0.3920  0.4773 -1.8324
 4226SOL     OW24136   1.353   1.076   7.504  0.2776  0.4325 -0.3806
 4226SOL    HW124137   1.300   1.001   7.528 -0.0362  1.5790  2.4136
 4226SOL    HW224138   1.392   1.050   7.420 -0.7335  0.0439 -0.7281
 4227SOL     OW24139   1.765   1.335  11.379 -0.3977  0.3603 -0.2420
 4227SOL    HW124140   1.744   1.397  11.309  2.2525  0.4444 -0.9446
 4227SOL    HW224141   1.782   1.394  11.453  2.9678  0.0847 -0.7826
 4228SOL     OW24142   4.463   1.189   5.310  0.2207 -0.5104  0.2344
 4228SOL    HW124143   4.533   1.191   5.244  0.2637  3.6212  0.3789
 4228SOL    HW224144   4.470   1.099   5.340 -0.4192  0.0759  2.1183
 4229SOL     OW24145   0.692   2.208   2.536  0.6889  0.0329  0.2387
 4229SOL    HW124146   0.760   2.256   2.489 -0.2779 -0.1523 -1.3193
 4229SOL    HW224147   0.664   2.277   2.597 -1.9160 -1.2616  0.4947
 4230SOL     OW24148   2.132   2.686   9.018  0.5135  0.0906  0.3984
 4230SOL    HW124149   2.061   2.634   9.057  1.0065 -1.1717 -0.3719
 4230SOL    HW224150   2.190   2.671   9.093 -0.0025 -0.0377  0.7713
 4231SOL     OW24151   1.790   2.705  11.584  0.3607 -0.4293  0.2783
 4231SOL    HW124152   1.857   2.712  11.653 -0.8844 -2.8583  1.7132
 4231SOL    HW224153   1.777   2.611  11.574  1.4865 -0.7417  1.7086
 4232SOL     OW24154   0.994   0.564   4.605 -0.4642  0.1081  0.3075
 4232SOL    HW124155   0.902   0.560   4.580  0.1127 -0.5095 -1.7410
 4232SOL    HW224156   1.009   0.652   4.638 -1.0984  0.8152 -1.2775
 4233SOL     OW24157   1.105   3.033   9.183 -0.3512 -0.8257 -0.1394
 4233SOL    HW124158   1.146   3.099   9.239 -0.4179 -0.5550 -0.4070
 4233SOL    HW224159   1.046   3.000   9.250  3.0841 -2.3468  2.1122
 4234SOL     OW24160   1.426   4.462   2.125 -0.2851  0.4913 -0.0724
 4234SOL    HW124161   1.463   4.418   2.049 -0.3471  1.2320 -0.5374
 4234SOL    HW224162   1.430   4.391   2.190  1.2378  0.1131 -0.5849
 4235SOL     OW24163   3.630   0.865   9.447  0.8914 -0.1299  0.4877
 4235SOL    HW124164   3.603   0.940   9.499  0.1722  0.4742 -0.7387
 4235SOL    HW224165   3.718   0.843   9.479  0.5038 -0.5510  1.2508
 4236SOL     OW24166   1.642   4.685   8.042  0.3417  0.1297  0.5012
 4236SOL    HW124167   1.702   0.002   8.106 -0.8056  1.9247  0.5040
 4236SOL    HW224168   1.713   4.638   7.999 -1.4411 -3.0640  1.0291
 4237SOL     OW24169   2.072   4.101   1.744  0.1670  0.0584 -0.4542
 4237SOL    HW124170   2.130   4.035   1.780  0.3129  0.6811  0.4416
 4237SOL    HW224171   2.012   4.052   1.687  0.9461 -0.5729 -0.7287
 4238SOL     OW24172   2.932   0.469   9.972  0.0494  0.2410  0.2313
 4238SOL    HW124173   2.915   0.490  10.064 -1.4308  1.4985 -0.3316
 4238SOL    HW224174   2.902   0.378   9.970 -1.3467  0.7344 -0.5486
 4239SOL     OW24175   4.321   2.719   5.945  0.0769 -0.2571  0.4386
 4239SOL    HW124176   4.363   2.705   5.860  0.9316  1.8612  0.5083
 4239SOL    HW224177   4.274   2.797   5.915  0.2615  0.0629  0.9687
 4240SOL     OW24178   4.423   3.113  10.959 -0.3503 -0.1836  0.6041
 4240SOL    HW124179   4.402   3.056  10.885 -0.6695  0.6542  0.0387
 4240SOL    HW224180   4.518   3.115  10.962 -0.3848 -1.3217  2.1409
 4241SOL     OW24181   4.302   2.161  16.328 -0.3042 -0.4095  0.4029
 4241SOL    HW124182   4.285   2.167  16.234 -0.3004  1.5735  0.5419
 4241SOL    HW224183   4.320   2.249  16.360 -2.3723 -0.0217  0.5048
 4242SOL     OW24184   4.368   0.305   3.056 -0.0828  0.2254 -0.2332
 4242SOL    HW124185   4.371   0.209   3.058 -0.5864  0.2270  0.6522
 4242SOL    HW224186   4.451   0.322   3.011 -0.1821 -0.3710 -0.6355
 4243SOL     OW24187   2.004   2.277   8.523  0.1712  0.3017  0.6828
 4243SOL    HW124188   1.923   2.259   8.570 -0.9199  1.1532 -0.8987
 4243SOL    HW224189   2.042   2.337   8.588  0.8795 -0.1447  0.6864
 4244SOL     OW24190   4.340   4.116   0.933  0.1242  0.2759 -0.3621
 4244SOL    HW124191   4.310   4.205   0.913  2.1754  0.9352 -0.5054
 4244SOL    HW224192   4.289   4.103   1.013 -2.3417  4.1506 -1.3123
 4245SOL     OW24193   0.396   3.726   7.392 -0.3534  0.3623 -0.0118
 4245SOL    HW124194   0.345   3.792   7.344 -0.8540  1.1646  1.6510
 4245SOL    HW224195   0.415   3.769   7.475 -1.9195  0.1909  0.4306
 4246SOL     OW24196   1.763   2.141  15.554  0.0144  0.0729 -0.6381
 4246SOL    HW124197   1.693   2.105  15.609  0.4360  0.2641  0.0165
 4246SOL    HW224198   1.839   2.136  15.611 -1.0252  2.9565  0.9573
 4247SOL     OW24199   3.500   4.567   8.336 -0.0405  0.1725  0.6021
 4247SOL    HW124200   3.495   4.487   8.388 -0.6152 -0.4069 -0.3438
 4247SOL    HW224201   3.435   4.559   8.266 -0.1406 -0.7315  0.7924
 4248SOL     OW24202   3.433   3.465   6.940  0.4574  0.1719  0.2267
 4248SOL    HW124203   3.359   3.495   6.993 -0.4223  0.3359 -1.0908
 4248SOL    HW224204   3.499   3.470   7.009  1.8685 -1.1476 -1.0132
 4249SOL     OW24205   1.238   2.427  14.301  0.0456  0.3698  0.2522
 4249SOL    HW124206   1.218   2.425  14.394  3.4316  1.5163  1.0275
 4249SOL    HW224207   1.206   2.514  14.277  1.3517  0.4875 -1.0797
 4250SOL     OW24208   1.001   0.570  15.952  0.1725 -0.2162 -0.2205
 4250SOL    HW124209   1.008   0.656  15.995 -1.3277  0.2596 -0.9413
 4250SOL    HW224210   1.090   0.547  15.927  0.7875 -0.0808  1.7738
 4251SOL     OW24211   2.800   1.516   9.956  0.0438  0.7111 -0.2847
 4251SOL    HW124212   2.827   1.470  10.035  1.6627  2.0725 -0.0360
 4251SOL    HW224213   2.713   1.543   9.983 -0.7466  0.1338 -2.2451
 4252SOL     OW24214   3.045   3.286  16.909 -0.1120  0.6195 -0.1919
 4252SOL    HW124215   3.026   3.206  16.860  0.2759  1.0011 -0.9687
 4252SOL    HW224216   2.974   3.296  16.972  0.9216  2.2776  0.7065
 4253SOL     OW24217   2.588   4.205   7.150  0.8465  0.1704  0.4284
 4253SOL    HW124218   2.527   4.139   7.182 -0.1333  0.8663  0.0112
 4253SOL    HW224219   2.672   4.160   7.155  1.0690  0.6715  1.3752
 4254SOL     OW24220   4.406   0.770  12.196  0.2208  0.0638  0.1868
 4254SOL    HW124221   4.482   0.725  12.159  1.6166  2.3811  0.2498
 4254SOL    HW224222   4.337   0.744  12.136  0.1019 -0.0354  0.3642
 4255SOL     OW24223   3.601   3.328   0.847  0.3344 -0.4357  0.1921
 4255SOL    HW124224   3.517   3.282   0.838 -0.9908  2.4593 -2.1492
 4255SOL    HW224225   3.572   3.417   0.867  1.9099  0.3903 -1.2912
 4256SOL     OW24226   1.780   0.135   1.048  0.5588 -0.5841 -0.2793
 4256SOL    HW124227   1.691   0.165   1.068  0.8971 -0.2381  0.7296
 4256SOL    HW224228   1.782   0.060   1.108 -0.7658  0.0240  0.5222
 4257SOL     OW24229   1.330   4.044   6.336  0.2477 -0.1272 -0.1897
 4257SOL    HW124230   1.411   4.032   6.286 -1.4826  1.2882 -3.3264
 4257SOL    HW224231   1.348   4.131   6.372 -3.3805  0.4793  0.1462
 4258SOL     OW24232   1.604   4.468   3.748 -0.3791 -0.2259  0.2899
 4258SOL    HW124233   1.588   4.542   3.689 -2.3966 -0.3767  0.6500
 4258SOL    HW224234   1.537   4.467   3.817 -0.5721 -1.7505  0.0894
 4259SOL     OW24235   3.501   0.225  13.785 -0.5489  0.3734 -0.0419
 4259SOL    HW124236   3.431   0.277  13.823  0.7708  1.1584  1.3028
 4259SOL    HW224237   3.551   0.295  13.742 -0.4765 -0.2982 -1.0649
 4260SOL     OW24238   4.571   2.254   4.115 -0.0345  0.2487 -0.5548
 4260SOL    HW124239   4.582   2.160   4.099 -0.6740  0.1855 -0.6246
 4260SOL    HW224240   4.599   2.257   4.206  0.5073 -0.5510 -0.7021
 4261SOL     OW24241   3.083   0.072  11.211  0.0250 -0.1613 -0.3048
 4261SOL    HW124242   3.153   0.013  11.182  0.1622 -0.2342  0.1783
 4261SOL    HW224243   3.088   0.077  11.306  2.4003  1.2512 -0.5093
 4262SOL     OW24244   4.273   1.551  17.498  0.1522  0.3469 -0.1749
 4262SOL    HW124245   4.289   1.549  17.592  0.8591  1.4068 -0.2682
 4262SOL    HW224246   4.344   1.605  17.461  0.9473 -1.5036 -1.3640
 4263SOL     OW24247   4.322   0.304   4.227 -0.1438 -0.4558 -0.2111
 4263SOL    HW124248   4.326   0.383   4.174 -2.9420 -0.8835 -1.0462
 4263SOL    HW224249   4.303   0.244   4.155 -1.3790 -0.6453  0.2826
 4264SOL     OW24250   2.342   1.998   3.719 -0.5310 -0.0950  0.8416
 4264SOL    HW124251   2.335   2.093   3.716  0.4196  0.0438  2.8574
 4264SOL    HW224252   2.436   1.982   3.716 -0.4047  0.7165  0.4876
 4265SOL     OW24253   0.395   2.822   5.672 -0.5339  0.1482  0.0732
 4265SOL    HW124254   0.366   2.738   5.638 -2.1303  0.9061 -0.4515
 4265SOL    HW224255   0.430   2.795   5.757 -1.3460  0.5612  0.5367
 4266SOL     OW24256   2.513   4.203   2.872  0.3795 -0.2960  0.0768
 4266SOL    HW124257   2.471   4.220   2.956 -0.3586  3.4970 -1.0736
 4266SOL    HW224258   2.440   4.224   2.814  2.5849 -0.1808 -2.6575
 4267SOL     OW24259   2.839   2.685  13.829 -0.0367  0.0981 -0.0664
 4267SOL    HW124260   2.823   2.592  13.842  1.3173 -0.2868 -1.1115
 4267SOL    HW224261   2.800   2.723  13.907 -1.1866 -1.3327  0.0545
 4268SOL     OW24262   2.673   1.572   1.564 -0.3001  0.0807 -0.3062
 4268SOL    HW124263   2.691   1.660   1.597 -2.5011  0.9653 -1.4119
 4268SOL    HW224264   2.758   1.531   1.550 -0.3829 -0.3081  0.3573
 4269SOL     OW24265   0.734   2.918  13.636 -0.3920  0.3337  0.5264
 4269SOL    HW124266   0.655   2.918  13.583 -2.0727 -1.5718  3.0155
 4269SOL    HW224267   0.693   2.884  13.715  1.0374 -2.6286  0.0058
 4270SOL     OW24268   1.107   1.152   7.283 -0.2898  0.0099 -0.4996
 4270SOL    HW124269   1.097   1.176   7.191  1.9170 -0.4725 -0.8639
 4270SOL    HW224270   1.152   1.067   7.282  0.2316  0.3158 -2.4990
 4271SOL     OW24271   0.605   4.382   8.714  0.1417 -0.2196  0.1784
 4271SOL    HW124272   0.651   4.460   8.684 -0.6282 -0.5411 -1.8736
 4271SOL    HW224273   0.633   4.320   8.647  0.4910  0.2349 -0.0925
 4272SOL     OW24274   3.417   3.892   5.301  0.5363  0.0559 -0.1713
 4272SOL    HW124275   3.511   3.887   5.285  0.8063  0.6302  1.1710
 4272SOL    HW224276   3.400   3.949   5.226 -2.8675 -0.6536  0.0802
 4273SOL     OW24277   1.934   0.465   8.261  0.1784 -0.1496  0.5157
 4273SOL    HW124278   1.932   0.444   8.355  0.2460 -0.0573  0.5374
 4273SOL    HW224279   1.902   0.380   8.232  1.2056  0.1616 -1.4881
 4274SOL     OW24280   0.205   0.469   4.437  0.1701 -0.2588 -0.0930
 4274SOL    HW124281   0.175   0.398   4.494  1.2350  1.0982  2.1883
 4274SOL    HW224282   0.301   0.465   4.446  0.1109 -2.3376 -0.3902
 4275SOL     OW24283   3.835   3.149   8.752 -0.2300  0.1239 -0.5064
 4275SOL    HW124284   3.777   3.075   8.736 -0.3496 -0.3963  2.3463
 4275SOL    HW224285   3.886   3.146   8.671 -0.1314  1.5503 -0.4951
 4276SOL     OW24286   0.360   0.067   5.163  0.4175 -0.0228  0.1589
 4276SOL    HW124287   0.428   0.128   5.133  1.0048 -1.4857 -1.4166
 4276SOL    HW224288   0.417   0.012   5.217  0.1923 -0.3702  0.0364
 4277SOL     OW24289   1.289   0.005  14.417  0.3324  0.5404 -0.1750
 4277SOL    HW124290   1.259   4.643  14.453 -0.4044  0.6540 -0.5401
 4277SOL    HW224291   1.229   0.015  14.344 -2.8107  1.6985  2.5858
 4278SOL     OW24292   4.291   1.094   8.772  0.2230  0.5726 -0.1822
 4278SOL    HW124293   4.212   1.041   8.780 -0.9504  2.2764 -0.3925
 4278SOL    HW224294   4.363   1.038   8.741 -0.7787  1.0148 -3.3289
 4279SOL     OW24295   0.942   0.961   0.228  0.4107 -0.6856  0.1651
 4279SOL    HW124296   0.870   0.996   0.280 -1.4345 -1.9039 -1.5131
 4279SOL    HW224297   1.016   0.958   0.288  0.7880  0.4826 -0.2526
 4280SOL     OW24298   2.993   4.231  12.212  0.4345  0.2017  0.1675
 4280SOL    HW124299   2.912   4.245  12.261 -1.0086  0.3709 -2.2863
 4280SOL    HW224300   2.969   4.189  12.129 -3.5589  0.3240  1.2930
 4281SOL     OW24301   3.292   3.384   6.151 -0.5345 -0.1626  0.5829
 4281SOL    HW124302   3.327   3.367   6.239 -1.1133 -0.1647  0.8154
 4281SOL    HW224303   3.234   3.458   6.166  0.9295  1.1329 -0.2775
 4282SOL     OW24304   0.946   2.083   1.717 -0.0814  0.0089  0.1783
 4282SOL    HW124305   0.868   2.098   1.664 -2.4733 -5.6837  2.0631
 4282SOL    HW224306   0.927   1.990   1.731 -2.2487  0.4191  0.0077
 4283SOL     OW24307   0.409   3.407   5.593  0.1069 -0.1613 -0.5993
 4283SOL    HW124308   0.437   3.495   5.570 -1.0476  0.9455  2.1437
 4283SOL    HW224309   0.314   3.421   5.586  0.2347  1.1482  0.2037
 4284SOL     OW24310   4.456   4.382  15.028 -0.0288 -0.6329 -0.2374
 4284SOL    HW124311   4.506   4.315  14.983  2.6774 -0.5928  2.7302
 4284SOL    HW224312   4.452   4.348  15.117  0.4300  1.8536  0.7487
 4285SOL     OW24313   3.330   1.579   8.225 -0.0313 -0.0399  0.1796
 4285SOL    HW124314   3.307   1.578   8.132 -0.6179 -0.1427  0.3270
 4285SOL    HW224315   3.255   1.625   8.261  0.5566 -0.0176  1.3627
 4286SOL     OW24316   0.382   3.658  12.544  0.0343 -0.3263 -0.1635
 4286SOL    HW124317   0.415   3.609  12.469  0.3124  0.6824 -0.6906
 4286SOL    HW224318   0.455   3.701  12.588 -0.7093 -0.2382  1.0116
 4287SOL     OW24319   2.653   1.335  13.371 -0.0620  0.3403  0.8773
 4287SOL    HW124320   2.737   1.358  13.330  0.7763 -2.0596  1.2704
 4287SOL    HW224321   2.673   1.246  13.398  1.3508  0.7879  1.2996
 4288SOL     OW24322   1.087   0.667  10.836 -0.5213  0.2149  0.1868
 4288SOL    HW124323   1.177   0.690  10.857 -0.1605 -1.4170  0.3473
 4288SOL    HW224324   1.044   0.744  10.874 -0.4559  0.3714 -0.0561
 4289SOL     OW24325   3.265   0.576  11.875  0.2200 -0.4640  0.4639
 4289SOL    HW124326   3.181   0.554  11.916  0.0942 -0.2703  0.3119
 4289SOL    HW224327   3.291   0.492  11.838  0.4515 -0.3063  0.2654
 4290SOL     OW24328   3.945   1.748   8.734  0.0977  0.3129 -0.3695
 4290SOL    HW124329   3.867   1.749   8.790  0.0869 -0.9807 -0.3704
 4290SOL    HW224330   4.006   1.698   8.789 -1.0167  0.4290  0.9698
 4291SOL     OW24331   4.576   1.291   0.500  0.2952 -0.1744 -0.1358
 4291SOL    HW124332   4.672   1.297   0.502  0.2805 -0.1652  0.5228
 4291SOL    HW224333   4.557   1.359   0.435 -2.9112 -0.1038  0.8721
 4292SOL     OW24334   2.157   0.279   5.423  0.3519 -0.1868  0.2353
 4292SOL    HW124335   2.075   0.251   5.464  0.2057 -0.5297 -0.2971
 4292SOL    HW224336   2.174   0.208   5.362  1.2022 -0.7201  1.0992
 4293SOL     OW24337   3.995   3.404   8.465 -0.2486 -0.1517 -0.7441
 4293SOL    HW124338   3.939   3.355   8.405 -1.3983 -1.0441  1.0557
 4293SOL    HW224339   4.025   3.479   8.414 -0.2703  1.9721  2.4029
 4294SOL     OW24340   4.717   1.293   5.345  0.8487  0.0100 -0.0159
 4294SOL    HW124341   0.006   1.321   5.436  2.3614 -1.2788  0.2306
 4294SOL    HW224342   4.623   1.302   5.336  0.5525 -1.2566  1.9309
 4295SOL     OW24343   2.698   3.650  14.987 -0.2498 -0.0453 -1.1430
 4295SOL    HW124344   2.706   3.736  14.946 -1.3602  1.3247  1.4727
 4295SOL    HW224345   2.670   3.592  14.916 -0.1539  1.4009 -2.3519
 4296SOL     OW24346   1.196   3.570   7.188 -0.1193 -0.4363 -0.2541
 4296SOL    HW124347   1.246   3.492   7.166 -0.2268 -0.5862  0.0307
 4296SOL    HW224348   1.249   3.626   7.244 -0.1313 -0.8945  0.2169
 4297SOL     OW24349   1.212   3.765   5.517  0.2570 -0.1443  0.4859
 4297SOL    HW124350   1.229   3.833   5.452  1.5331 -0.5116  0.4508
 4297SOL    HW224351   1.296   3.752   5.560  0.9635  1.3893 -0.3940
 4298SOL     OW24352   0.898   3.953   0.149  0.1177  0.1519 -0.0228
 4298SOL    HW124353   0.938   4.007   0.081 -0.5772  0.4610 -0.1932
 4298SOL    HW224354   0.976   3.919   0.193  1.5825  2.1047 -1.1473
 4299SOL     OW24355   1.051   1.573   6.179 -0.2987 -0.1156 -0.4522
 4299SOL    HW124356   1.114   1.635   6.143  2.0292 -1.9700  0.4845
 4299SOL    HW224357   0.979   1.631   6.206  0.3129 -0.4748  1.9766
 4300SOL     OW24358   4.500   4.558   4.043  0.0587 -0.1352  0.5635
 4300SOL    HW124359   4.543   4.475   4.063  2.1159  0.9998  0.8241
 4300SOL    HW224360   4.490   4.599   4.128 -0.6749  2.2406 -0.6705
 4301SOL     OW24361   3.166   4.258   3.854  0.3534 -0.2569  0.2948
 4301SOL    HW124362   3.223   4.228   3.783  0.0085  0.7606 -0.4174
 4301SOL    HW224363   3.126   4.173   3.874 -1.1308  0.9276  2.3567
 4302SOL     OW24364   0.465   1.034   2.424  0.0506 -0.2437 -0.6593
 4302SOL    HW124365   0.418   1.021   2.342  0.5068  0.6095 -1.0602
 4302SOL    HW224366   0.460   1.129   2.420  1.2364 -0.1684 -0.4420
 4303SOL     OW24367   1.884   2.317   7.617  0.2473  0.0718  0.0324
 4303SOL    HW124368   1.879   2.248   7.683  1.7357 -1.2195 -1.2167
 4303SOL    HW224369   1.806   2.373   7.623  1.7510  2.3074 -1.2169
 4304SOL     OW24370   0.383   2.349   9.889  0.4559 -0.1227  0.6889
 4304SOL    HW124371   0.448   2.335   9.957  2.2329 -0.5886 -1.1230
 4304SOL    HW224372   0.306   2.339   9.946 -0.3470  2.0530  0.0013
 4305SOL     OW24373   0.897   0.581   7.089 -0.5154 -0.3057  0.6141
 4305SOL    HW124374   0.938   0.498   7.111  0.0874  0.4072  2.2158
 4305SOL    HW224375   0.938   0.614   7.010 -0.0700  0.9437  1.3613
 4306SOL     OW24376   0.502   0.897   8.453  0.2626 -1.1470  0.3220
 4306SOL    HW124377   0.423   0.845   8.438 -1.1752  0.3899  2.6115
 4306SOL    HW224378   0.513   0.865   8.542  0.6804 -1.0990  0.2847
 4307SOL     OW24379   0.367   0.234   8.334 -0.3609  0.3941  0.7069
 4307SOL    HW124380   0.448   0.257   8.288 -1.6750  2.6636 -0.4798
 4307SOL    HW224381   0.310   0.256   8.260 -1.7941  0.8151  1.9356
 4308SOL     OW24382   4.681   1.239  16.222  0.3429  0.0140  0.2080
 4308SOL    HW124383   4.624   1.218  16.147  0.9781 -0.4983 -0.1323
 4308SOL    HW224384   4.617   1.289  16.273 -0.7466 -0.2696 -0.8680
 4309SOL     OW24385   2.690   3.088  10.785 -0.2314  0.4907 -0.6756
 4309SOL    HW124386   2.748   3.099  10.710  1.4828 -0.7029  0.4925
 4309SOL    HW224387   2.608   3.106  10.737  0.0231 -0.0744 -1.3320
 4310SOL     OW24388   3.895   4.090   7.773  0.3273  0.5923 -0.2007
 4310SOL    HW124389   3.980   4.090   7.817  0.0012 -1.3266  0.4321
 4310SOL    HW224390   3.906   4.029   7.700 -2.4918  0.7040 -0.7101
 4311SOL     OW24391   3.578   0.639  12.464  0.5206 -0.1066  0.2680
 4311SOL    HW124392   3.601   0.599  12.548 -1.0588 -1.2146  0.1695
 4311SOL    HW224393   3.543   0.565  12.414  0.0942 -0.0845  0.5351
 4312SOL     OW24394   1.714   2.942   5.668 -0.0923  0.2089  0.3630
 4312SOL    HW124395   1.764   2.992   5.732  0.5515 -0.2774  0.2352
 4312SOL    HW224396   1.626   2.963   5.698 -0.9022 -1.8276 -0.5464
 4313SOL     OW24397   3.965   2.624  12.544  0.1166 -0.2602  0.3135
 4313SOL    HW124398   3.906   2.698  12.557 -2.3440 -1.8658 -1.7367
 4313SOL    HW224399   3.990   2.604  12.634 -1.8206  1.8047  1.3012
 4314SOL     OW24400   1.512   4.337   6.685 -0.0035 -0.0774  0.4745
 4314SOL    HW124401   1.498   4.389   6.764  0.2844  0.0260  0.4578
 4314SOL    HW224402   1.601   4.370   6.670  0.5705 -2.1013 -0.5582
 4315SOL     OW24403   1.530   4.160   4.956 -0.8643 -0.7086 -1.0237
 4315SOL    HW124404   1.435   4.163   4.942 -0.9329 -0.3126 -0.4897
 4315SOL    HW224405   1.526   4.117   5.041 -1.0167 -0.4363 -0.8930
 4316SOL     OW24406   0.506   2.806   9.122 -0.5089 -0.1170  0.5797
 4316SOL    HW124407   0.516   2.736   9.186 -0.4018  0.0715  0.7694
 4316SOL    HW224408   0.504   2.744   9.049  0.7842  0.7549 -0.1928
 4317SOL     OW24409   4.501   1.436   1.640 -0.0330  0.1115  0.0284
 4317SOL    HW124410   4.466   1.410   1.555 -0.4932 -0.2258  0.3210
 4317SOL    HW224411   4.581   1.384   1.645 -0.6410 -0.6723  1.5970
 4318SOL     OW24412   0.095   4.373   7.466 -0.5109  0.3371  0.4722
 4318SOL    HW124413   0.043   4.299   7.497 -4.0591  1.2332 -3.3971
 4318SOL    HW224414   0.029   4.442   7.471 -2.0066 -1.0236 -0.4292
 4319SOL     OW24415   1.364   4.431   0.408 -0.5313 -0.5421  0.2034
 4319SOL    HW124416   1.323   4.437   0.494  1.2346  1.7262  0.9105
 4319SOL    HW224417   1.373   4.336   0.408 -0.1047 -0.4917  2.8560
 4320SOL     OW24418   1.140   0.679   8.862  0.2317  0.3498  0.2437
 4320SOL    HW124419   1.151   0.654   8.771 -1.3374  0.5200  0.0109
 4320SOL    HW224420   1.198   0.616   8.906 -1.4953 -0.5982  1.1678
 4321SOL     OW24421   3.790   2.268   9.010  0.3598  0.4851  0.1956
 4321SOL    HW124422   3.793   2.221   8.927  1.0404  0.3381  0.3041
 4321SOL    HW224423   3.697   2.272   9.032 -0.0076 -2.6219 -0.7369
 4322SOL     OW24424   2.251   2.657   3.622  0.2149  0.0551 -0.4898
 4322SOL    HW124425   2.237   2.750   3.640  0.9313  0.0198  0.2738
 4322SOL    HW224426   2.336   2.675   3.580  1.7207  1.5021  3.1602
 4323SOL     OW24427   1.382   4.652  17.045  0.2422 -0.2925  0.5651
 4323SOL    HW124428   1.365   0.025  17.040  1.2772 -0.1146  0.4443
 4323SOL    HW224429   1.313   4.614  16.991 -0.3132  1.4698  0.0119
 4324SOL     OW24430   2.356   4.171   3.656  0.6226  0.4725 -0.2650
 4324SOL    HW124431   2.367   4.211   3.570 -2.9468  2.2218  0.0883
 4324SOL    HW224432   2.263   4.150   3.658  1.0032 -1.0339  1.6364
 4325SOL     OW24433   3.815   3.834   6.465  0.2232  0.2011  0.1279
 4325SOL    HW124434   3.841   3.827   6.374  3.2616 -0.1792  1.0053
 4325SOL    HW224435   3.750   3.764   6.471  0.1848  0.3940  1.9819
 4326SOL     OW24436   2.264   1.120  11.771 -0.1416  0.1023 -0.1167
 4326SOL    HW124437   2.308   1.039  11.796  0.1899  0.1122 -0.6543
 4326SOL    HW224438   2.183   1.118  11.822  0.5068 -0.1792  0.9069
 4327SOL     OW24439   4.309   4.585   5.149  0.6594  0.4897 -0.2254
 4327SOL    HW124440   4.272   4.623   5.070 -1.9054 -2.3747 -0.4205
 4327SOL    HW224441   4.391   4.633   5.165  0.5304  1.1718 -1.6082
 4328SOL     OW24442   4.637   3.132   0.680  0.4409  0.4471 -0.0747
 4328SOL    HW124443   4.672   3.221   0.675  1.7777 -0.1674 -1.7396
 4328SOL    HW224444   4.572   3.124   0.610 -0.5142 -0.8691  0.9854
 4329SOL     OW24445   2.226   2.588  10.036  0.1049 -0.2396 -0.4823
 4329SOL    HW124446   2.208   2.571   9.943  1.3690  0.0307 -0.7851
 4329SOL    HW224447   2.215   2.499  10.068  0.6293  0.1516  0.8098
 4330SOL     OW24448   4.330   3.920   9.140 -0.1795  0.3836 -0.3302
 4330SOL    HW124449   4.304   3.833   9.108 -2.1751  0.5140  0.9473
 4330SOL    HW224450   4.247   3.944   9.181  0.8232 -0.5800  2.2458
 4331SOL     OW24451   2.114   1.746   1.585  0.2522  0.2261 -0.5804
 4331SOL    HW124452   2.039   1.804   1.605 -0.7841 -0.0170 -3.8245
 4331SOL    HW224453   2.191   1.803   1.589 -0.9852  1.8998 -0.1443
 4332SOL     OW24454   4.552   3.073   6.341  1.0549  0.4464  0.4119
 4332SOL    HW124455   4.549   3.078   6.245 -0.4332 -3.0107  0.3036
 4332SOL    HW224456   4.494   2.997   6.343 -0.1874  1.4002  0.6971
 4333SOL     OW24457   1.363   2.341   7.648 -0.4469 -0.7150 -0.1355
 4333SOL    HW124458   1.396   2.431   7.652 -2.1332 -0.0649 -0.6536
 4333SOL    HW224459   1.445   2.297   7.626 -0.1238 -0.2982  0.2434
 4334SOL     OW24460   0.127   4.149   6.844 -0.3401 -0.4876  0.0320
 4334SOL    HW124461   0.214   4.116   6.865  0.0284  1.0227  0.8673
 4334SOL    HW224462   0.148   4.240   6.824 -0.0258 -0.5950 -0.1227
 4335SOL     OW24463   1.059   4.066   4.843  0.5213 -0.7154 -0.3327
 4335SOL    HW124464   1.112   3.989   4.821 -0.1715 -1.3484  0.2348
 4335SOL    HW224465   1.128   4.126   4.869 -0.4229 -1.0254  2.8514
 4336SOL     OW24466   1.664   4.635   5.299  0.3233  0.6351  0.0289
 4336SOL    HW124467   1.755   4.662   5.313  0.1114  1.6941 -0.6895
 4336SOL    HW224468   1.633   4.600   5.383  0.4359  1.5791  0.4584
 4337SOL     OW24469   1.126   4.612   8.925 -0.3256 -0.4475  0.3017
 4337SOL    HW124470   1.079   4.683   8.969  1.2291  1.7390 -1.5837
 4337SOL    HW224471   1.215   4.639   8.946 -0.7688  0.4690  1.0222
 4338SOL     OW24472   3.472   0.235   3.588 -0.5734  0.3310 -0.0160
 4338SOL    HW124473   3.384   0.205   3.564  0.4117 -0.6528 -2.4427
 4338SOL    HW224474   3.503   0.251   3.499 -2.3446 -1.0635 -0.8860
 4339SOL     OW24475   4.220   4.312   1.958  0.0050  0.1144  0.3371
 4339SOL    HW124476   4.237   4.397   1.917  0.2859 -0.5470 -0.8996
 4339SOL    HW224477   4.255   4.330   2.046 -0.8961 -1.0419  0.9289
 4340SOL     OW24478   0.241   1.792  12.709 -0.7622  0.2277 -0.3543
 4340SOL    HW124479   0.191   1.867  12.740  1.7192  1.7895 -0.1520
 4340SOL    HW224480   0.242   1.818  12.617  0.4352 -1.0469 -0.7093
 4341SOL     OW24481   0.780   1.565   2.830  0.2306  0.3170  0.0285
 4341SOL    HW124482   0.813   1.544   2.742  2.1126  1.0652  0.5628
 4341SOL    HW224483   0.853   1.622   2.855  0.2929  0.0242  0.5064
 4342SOL     OW24484   0.866   3.460  11.598 -0.5108 -0.7283 -0.6284
 4342SOL    HW124485   0.780   3.482  11.564  0.5023 -0.8835 -3.2652
 4342SOL    HW224486   0.905   3.422  11.519  1.8035  0.9457 -0.2819
 4343SOL     OW24487   4.015   1.521   9.507  0.0138 -0.4373  0.5093
 4343SOL    HW124488   3.930   1.477   9.515  0.4685 -1.6967 -1.8699
 4343SOL    HW224489   4.041   1.548   9.596 -0.3422  0.7855  0.2480
 4344SOL     OW24490   1.205   3.586   4.857 -0.3289  0.2624 -0.0323
 4344SOL    HW124491   1.123   3.547   4.888  1.0301 -3.0490 -0.5526
 4344SOL    HW224492   1.234   3.536   4.780  1.7968  0.3915  0.7123
 4345SOL     OW24493   4.479   3.631   6.394 -0.3961 -0.2097  0.1569
 4345SOL    HW124494   4.388   3.654   6.413 -0.2542 -0.5635  1.2557
 4345SOL    HW224495   4.512   3.575   6.464  2.1840  0.7344 -0.3249
 4346SOL     OW24496   3.920   4.673  13.513 -0.0391 -0.0503  0.3174
 4346SOL    HW124497   3.860   4.703  13.581 -0.8228 -1.2800  0.1719
 4346SOL    HW224498   3.990   0.010  13.544 -1.0075  1.1071  0.2908
 4347SOL     OW24499   1.378   2.697   1.913 -0.7069 -0.0897  0.0725
 4347SOL    HW124500   1.395   2.677   1.821  1.4092  0.3399  0.3794
 4347SOL    HW224501   1.463   2.691   1.957 -1.2371 -0.8644  0.9817
 4348SOL     OW24502   2.516   4.021   3.829 -0.0179  0.2006 -0.0054
 4348SOL    HW124503   2.456   4.045   3.899  1.6647 -0.9867  1.8586
 4348SOL    HW224504   2.477   4.065   3.754  1.8403  3.2558  0.8021
 4349SOL     OW24505   3.126   2.438   6.733  0.0722  0.0059 -0.4827
 4349SOL    HW124506   3.062   2.399   6.793 -2.3171  0.8312 -2.5152
 4349SOL    HW224507   3.205   2.412   6.781  0.0950 -2.3372 -1.8025
 4350SOL     OW24508   2.898   1.292   1.166 -0.2679 -0.3846 -0.3405
 4350SOL    HW124509   2.929   1.293   1.257 -1.1714 -0.3692 -0.0329
 4350SOL    HW224510   2.804   1.279   1.180 -0.2992 -0.4951 -0.6559
 4351SOL     OW24511   1.373   1.496   0.373 -0.1106  0.2180 -1.1380
 4351SOL    HW124512   1.390   1.561   0.305  1.5022  0.9423 -0.0226
 4351SOL    HW224513   1.436   1.514   0.442  0.0647  1.7486 -1.6993
 4352SOL     OW24514   4.262   2.615   3.941 -0.3015  0.3019 -0.6488
 4352SOL    HW124515   4.350   2.578   3.948  0.3001  1.9028  0.0342
 4352SOL    HW224516   4.283   2.695   3.989 -2.0627 -0.6764  1.7734
 4353SOL     OW24517   1.114   2.452   1.631  0.5695  0.5268 -0.0159
 4353SOL    HW124518   1.093   2.444   1.538  2.3538  2.0384 -0.5553
 4353SOL    HW224519   1.026   2.455   1.669 -0.4574 -3.0612 -2.1787
 4354SOL     OW24520   1.444   3.501  12.611 -0.1613 -0.5967 -0.6379
 4354SOL    HW124521   1.511   3.508  12.679 -0.3277  0.1218 -0.5522
 4354SOL    HW224522   1.434   3.594  12.595  0.0789 -0.3824  0.4424
 4355SOL     OW24523   1.271   2.953   6.094  0.2075 -0.5241 -0.1035
 4355SOL    HW124524   1.282   3.006   6.016  1.4049  0.3331  0.6433
 4355SOL    HW224525   1.258   2.867   6.054  0.2210 -1.4013  1.7584
 4356SOL     OW24526   4.171   2.585  10.569 -0.5230  0.5378 -0.4167
 4356SOL    HW124527   4.113   2.513  10.594  1.3946 -0.3090  1.6277
 4356SOL    HW224528   4.100   2.645  10.546 -0.0968  1.5830  1.0148
 4357SOL     OW24529   0.360   4.467   8.115  0.4094  0.2097 -0.7721
 4357SOL    HW124530   0.347   4.372   8.116 -0.7104  0.3772  0.6817
 4357SOL    HW224531   0.418   4.479   8.191  0.9980 -2.3291 -0.8129
 4358SOL     OW24532   1.243   1.427   8.797  0.9523 -0.2739  0.1454
 4358SOL    HW124533   1.313   1.417   8.732  0.1115 -0.6743 -0.7018
 4358SOL    HW224534   1.180   1.376   8.747  1.8008 -0.0897 -1.1252
 4359SOL     OW24535   2.646   3.545   1.996  0.4988  0.0909  0.0997
 4359SOL    HW124536   2.601   3.628   1.979  0.7065  0.2984  0.5377
 4359SOL    HW224537   2.737   3.567   1.976  0.9807 -0.0841  2.0976
 4360SOL     OW24538   2.539   1.111   6.078 -0.0567 -0.0324  0.0706
 4360SOL    HW124539   2.544   1.205   6.058  1.4210  0.2648  1.8278
 4360SOL    HW224540   2.633   1.094   6.084  0.4350  1.7620 -2.1881
 4361SOL     OW24541   3.853   4.215   3.059  0.0507  0.2460  0.3691
 4361SOL    HW124542   3.802   4.138   3.031  0.8695 -0.5700  1.1170
 4361SOL    HW224543   3.803   4.281   3.012 -1.8992 -0.1761  1.8539
 4362SOL     OW24544   0.792   3.080   7.424 -0.2806  0.5710 -0.1753
 4362SOL    HW124545   0.723   3.020   7.397 -0.6875 -0.1468  2.5017
 4362SOL    HW224546   0.856   3.034   7.479  0.1660  1.0973 -0.2456
 4363SOL     OW24547   3.952   2.570   8.135 -0.2199 -0.5026  0.0279
 4363SOL    HW124548   4.028   2.576   8.193  0.4696 -3.6862 -0.5321
 4363SOL    HW224549   3.910   2.494   8.175  1.1271 -0.6031  1.2234
 4364SOL     OW24550   2.618   3.664  11.322  0.0429  0.6805  0.1339
 4364SOL    HW124551   2.644   3.755  11.336 -0.4263  1.0579 -1.4956
 4364SOL    HW224552   2.564   3.676  11.244  1.4033 -0.6464 -1.0148
 4365SOL     OW24553   2.787   1.369   3.481 -0.1476 -0.1588 -0.8160
 4365SOL    HW124554   2.765   1.459   3.457 -1.5401 -0.8449 -2.1029
 4365SOL    HW224555   2.725   1.349   3.551 -1.0170  0.9277 -1.2758
 4366SOL     OW24556   3.591   4.105   7.530 -0.0641 -0.6062  0.0442
 4366SOL    HW124557   3.528   4.164   7.571  1.9712  1.1631  0.6598
 4366SOL    HW224558   3.666   4.164   7.518  1.0639 -2.7326 -3.1630
 4367SOL     OW24559   4.439   3.819   7.893 -0.2559 -0.2945 -0.0185
 4367SOL    HW124560   4.355   3.775   7.909  0.4043 -1.3530  0.4725
 4367SOL    HW224561   4.415   3.883   7.825  0.1230 -0.0590  0.0684
 4368SOL     OW24562   3.566   1.414  12.990 -0.4093  0.3290 -0.4166
 4368SOL    HW124563   3.560   1.509  13.001 -0.7547  0.5330 -2.4953
 4368SOL    HW224564   3.596   1.406  12.900 -0.4066 -0.8011 -0.3176
 4369SOL     OW24565   2.289   2.676   7.006 -0.0452 -0.3273  0.1397
 4369SOL    HW124566   2.258   2.735   6.937 -1.0557  0.7429  1.5090
 4369SOL    HW224567   2.211   2.621   7.019  0.6379 -1.5930 -1.0742
 4370SOL     OW24568   1.296   2.879   8.542 -0.0261 -0.1714 -0.5736
 4370SOL    HW124569   1.349   2.917   8.612 -1.3245  2.5601 -1.0853
 4370SOL    HW224570   1.360   2.849   8.477  0.0111  0.2160 -0.7179
 4371SOL     OW24571   0.700   0.621   5.405  0.0631  0.5871 -0.2077
 4371SOL    HW124572   0.631   0.611   5.471 -2.1035  2.3701 -2.1777
 4371SOL    HW224573   0.748   0.698   5.433  1.1427  0.9648 -3.1380
 4372SOL     OW24574   4.634   0.994  11.045  0.1944  0.2101  0.1665
 4372SOL    HW124575   4.540   1.000  11.031  0.5570  1.5606 -1.6479
 4372SOL    HW224576   4.643   1.059  11.115  0.2479  2.0433 -1.5482
 4373SOL     OW24577   3.278   1.575   3.902  0.0597 -0.6202  0.2594
 4373SOL    HW124578   3.311   1.486   3.913  0.0777 -0.8011 -1.3466
 4373SOL    HW224579   3.221   1.567   3.825 -0.4835  1.8367  0.4157
 4374SOL     OW24580   0.368   0.644   3.428  0.2526  0.9392 -0.7296
 4374SOL    HW124581   0.292   0.640   3.371  0.2263  2.2374 -0.7876
 4374SOL    HW224582   0.366   0.733   3.465 -0.4244  0.3961  0.5459
 4375SOL     OW24583   2.848   4.192   5.549  0.3426  0.0434  0.2218
 4375SOL    HW124584   2.891   4.132   5.489 -2.8197 -0.0856 -1.8726
 4375SOL    HW224585   2.774   4.137   5.575 -0.2191  0.1586 -1.1233
 4376SOL     OW24586   4.333   1.558  11.432 -0.1503  0.0115 -0.3700
 4376SOL    HW124587   4.425   1.582  11.444  0.4817 -2.4475 -0.3572
 4376SOL    HW224588   4.300   1.646  11.454  1.5366  0.4704  0.3396
 4377SOL     OW24589   4.396   2.562   7.847 -0.2649 -0.1931  0.1074
 4377SOL    HW124590   4.314   2.590   7.886 -0.7880 -1.4630 -0.0739
 4377SOL    HW224591   4.402   2.480   7.897 -2.0982  0.7041  1.7672
 4378SOL     OW24592   0.187   1.357   6.419  0.0863  0.0372 -0.0813
 4378SOL    HW124593   0.149   1.270   6.402 -2.8905  1.0605  1.3464
 4378SOL    HW224594   0.280   1.338   6.427  0.4870  1.7138 -0.7992
 4379SOL     OW24595   0.954   2.105   7.692 -0.0501  0.3556 -0.1621
 4379SOL    HW124596   0.961   2.038   7.623 -1.2257 -0.3209  0.3677
 4379SOL    HW224597   0.981   2.058   7.770 -0.0190  1.2144  0.3422
 4380SOL     OW24598   4.384   2.051  16.948 -0.0538  0.3957 -0.2983
 4380SOL    HW124599   4.388   1.967  16.902  2.2315 -1.3473  3.0135
 4380SOL    HW224600   4.355   2.115  16.884 -1.2677  0.4847  0.3464
 4381SOL     OW24601   2.954   2.304   6.933  0.3974 -0.0340  0.5517
 4381SOL    HW124602   3.003   2.330   7.010 -3.2725  0.8854  2.5842
 4381SOL    HW224603   2.936   2.211   6.948 -2.8481  1.1381  3.8961
 4382SOL     OW24604   2.205   3.633   0.674  0.0259  0.8271 -0.1572
 4382SOL    HW124605   2.265   3.651   0.746  2.0935  1.3949 -2.0512
 4382SOL    HW224606   2.177   3.723   0.656  0.5375  0.7828 -1.1357
 4383SOL     OW24607   0.235   0.005  16.824  0.6287 -0.0859  0.0753
 4383SOL    HW124608   0.228   0.015  16.729  1.4460  0.6066  0.0912
 4383SOL    HW224609   0.270   4.636  16.826  1.4095  0.2299  0.5126
 4384SOL     OW24610   2.256   4.284  15.415 -0.0329  0.3992  0.2896
 4384SOL    HW124611   2.271   4.353  15.351 -0.3492 -1.8306 -2.2091
 4384SOL    HW224612   2.276   4.203  15.368 -0.8986  1.0728 -1.2297
 4385SOL     OW24613   0.923   4.236  16.803  0.0782 -0.1007  0.0831
 4385SOL    HW124614   0.864   4.291  16.854 -1.1794  0.4327 -1.9738
 4385SOL    HW224615   0.963   4.304  16.749 -1.1983  2.2765  2.1495
 4386SOL     OW24616   2.126   1.006   2.206  0.1831 -0.6253  0.0892
 4386SOL    HW124617   2.076   0.926   2.221 -0.2587 -0.3787 -0.0647
 4386SOL    HW224618   2.064   1.072   2.173  0.3445  0.9112  2.8679
 4387SOL     OW24619   4.230   1.471  16.772  0.7033  0.0957 -0.0436
 4387SOL    HW124620   4.279   1.459  16.690  1.0220 -0.5518  0.2507
 4387SOL    HW224621   4.142   1.492  16.738 -0.0334 -2.3316  0.4190
 4388SOL     OW24622   4.655   4.410   6.456  0.8218 -0.2665  0.5169
 4388SOL    HW124623   4.594   4.381   6.388 -1.9927  1.0899  2.4325
 4388SOL    HW224624   0.021   4.422   6.418  0.0161  1.4431 -0.7687
 4389SOL     OW24625   2.233   2.683  16.646  0.3352 -0.4492 -0.0265
 4389SOL    HW124626   2.220   2.618  16.576 -0.7374 -1.4264  1.0684
 4389SOL    HW224627   2.154   2.735  16.632  0.4239  0.1206  1.6144
 4390SOL     OW24628   3.970   1.904  12.744 -0.2244 -0.5063  0.3660
 4390SOL    HW124629   4.001   1.966  12.810 -1.6995 -0.2623  0.8354
 4390SOL    HW224630   4.018   1.823  12.761  0.7716 -0.1550 -0.7489
 4391SOL     OW24631   4.161   1.253   6.828 -0.0325  0.1641 -0.0952
 4391SOL    HW124632   4.178   1.347   6.833  0.2135  0.1157 -0.0525
 4391SOL    HW224633   4.137   1.241   6.736 -0.0814 -0.1822 -0.0383
 4392SOL     OW24634   2.304   0.882   5.945  0.1111 -0.5119 -0.3117
 4392SOL    HW124635   2.378   0.866   6.004  0.2038 -0.7131 -0.4836
 4392SOL    HW224636   2.320   0.961   5.893 -0.4666 -1.4490 -1.9065
 4393SOL     OW24637   2.515   2.251   3.303 -0.1722  0.0703 -0.0761
 4393SOL    HW124638   2.502   2.168   3.350 -0.8599 -0.8215 -1.8323
 4393SOL    HW224639   2.431   2.283   3.334  1.1973  2.6762  0.9052
 4394SOL     OW24640   4.679   0.669   7.872  0.2654 -0.3865 -0.3584
 4394SOL    HW124641   4.609   0.640   7.813  0.2366  0.5105 -0.7593
 4394SOL    HW224642   4.650   0.757   7.895  0.5013 -0.2094 -0.7491
 4395SOL     OW24643   1.701   3.182  11.470  0.8419 -0.4605 -0.4603
 4395SOL    HW124644   1.635   3.197  11.402  0.9819  0.8954 -0.2780
 4395SOL    HW224645   1.764   3.117  11.437  0.9193 -0.6005 -0.0336
 4396SOL     OW24646   4.142   4.478  17.414 -0.5081 -0.2808 -0.3232
 4396SOL    HW124647   4.066   4.431  17.449 -0.0440 -1.0493 -0.3534
 4396SOL    HW224648   4.195   4.461  17.491  2.9396  1.4146 -2.3229
 4397SOL     OW24649   2.536   0.488   6.496 -0.0054 -0.0258 -0.2123
 4397SOL    HW124650   2.442   0.501   6.483 -0.1750 -1.3372 -0.3206
 4397SOL    HW224651   2.554   0.528   6.581 -2.3924 -1.5918  1.0154
 4398SOL     OW24652   2.090   0.775   4.661 -0.0977  0.0108 -0.2734
 4398SOL    HW124653   2.003   0.751   4.630 -0.5279  0.6115  0.4783
 4398SOL    HW224654   2.143   0.789   4.582  1.8939  1.6390  1.3503
 4399SOL     OW24655   3.903   3.330  14.550  0.4862  0.6469 -0.0181
 4399SOL    HW124656   3.851   3.370  14.620  0.5021 -0.1867  0.4744
 4399SOL    HW224657   3.958   3.403  14.521  0.7781  0.0716 -0.9010
 4400SOL     OW24658   2.844   3.115   4.969  0.3351  0.0990 -0.2224
 4400SOL    HW124659   2.768   3.161   5.005 -0.4331 -1.4992  0.1991
 4400SOL    HW224660   2.824   3.108   4.875  2.4531 -2.3473 -0.4932
 4401SOL     OW24661   3.359   3.954   0.418  0.4451 -0.3076  0.0933
 4401SOL    HW124662   3.394   3.908   0.342 -0.3646  0.8354 -0.9709
 4401SOL    HW224663   3.411   4.034   0.410 -0.4437  0.0105 -2.2115
 4402SOL     OW24664   3.544   2.461   5.630  0.1074 -0.6604 -0.0022
 4402SOL    HW124665   3.505   2.415   5.555  2.1691  0.4284 -1.7515
 4402SOL    HW224666   3.473   2.463   5.694  0.3325 -1.2814  0.2675
 4403SOL     OW24667   0.789   0.884   7.528  0.1646  0.0780  0.7975
 4403SOL    HW124668   0.780   0.794   7.497  0.0785 -0.0612  1.2227
 4403SOL    HW224669   0.707   0.921   7.496 -0.2750  0.1725  2.0578
 4404SOL     OW24670   2.616   3.129   2.574  0.0669  0.8247  0.1335
 4404SOL    HW124671   2.621   3.041   2.537 -0.8628  1.2104 -0.8831
 4404SOL    HW224672   2.611   3.182   2.495  0.2161  0.4774 -0.1052
 4405SOL     OW24673   4.540   2.986   7.593  0.1625 -0.1646  0.2325
 4405SOL    HW124674   4.480   2.912   7.603  0.2760 -0.6470 -2.5984
 4405SOL    HW224675   4.581   2.990   7.679  0.4282  1.0794  0.0566
 4406SOL     OW24676   4.377   1.922   5.055 -0.1625  0.6484 -0.2014
 4406SOL    HW124677   4.333   1.886   4.977 -1.1344 -2.2633  1.7036
 4406SOL    HW224678   4.413   1.997   5.008 -0.5104 -0.0804 -1.6556
 4407SOL     OW24679   0.096   2.050   5.735  0.7123 -0.3792 -0.1201
 4407SOL    HW124680   0.036   2.014   5.800  1.4441 -1.5284 -0.0722
 4407SOL    HW224681   0.118   1.983   5.669  1.3250  0.7454 -1.0465
 4408SOL     OW24682   4.409   0.017   9.153  0.1843  0.0439  0.0340
 4408SOL    HW124683   4.392   0.109   9.135  1.3520 -0.1175 -1.8554
 4408SOL    HW224684   4.500   0.027   9.179  0.6444  0.1447 -1.6177
 4409SOL     OW24685   3.001   2.741  17.617 -0.0366  0.0584 -0.1797
 4409SOL    HW124686   3.055   2.795  17.558 -1.6342  1.4929 -0.3467
 4409SOL    HW224687   2.914   2.757  17.581 -0.1864  2.2823  1.1983
 4410SOL     OW24688   2.411   1.369   6.121 -0.7853  0.5349 -0.1600
 4410SOL    HW124689   2.363   1.358   6.203  1.3364  0.8635  1.1420
 4410SOL    HW224690   2.358   1.309   6.070  1.3023 -2.0998  0.8031
 4411SOL     OW24691   0.727   1.351  15.120  0.4409  0.2962 -0.5166
 4411SOL    HW124692   0.680   1.280  15.076  1.7743 -0.7797 -0.2077
 4411SOL    HW224693   0.820   1.329  15.116 -0.1760 -2.2226 -1.2951
 4412SOL     OW24694   1.763   2.227  16.652 -0.1918 -0.1543  0.3419
 4412SOL    HW124695   1.808   2.304  16.686 -1.9886  0.2402  1.8131
 4412SOL    HW224696   1.680   2.230  16.700  0.5655  0.0566  1.6531
 4413SOL     OW24697   2.185   3.539   5.719  0.8073  0.1440 -0.1655
 4413SOL    HW124698   2.204   3.603   5.651  0.0160  0.7810  0.2128
 4413SOL    HW224699   2.202   3.455   5.677  0.6341  0.4331 -0.8088
 4414SOL     OW24700   2.313   2.605   8.802  0.1895 -0.5164  0.2413
 4414SOL    HW124701   2.278   2.651   8.877 -1.5677  0.3511 -1.1168
 4414SOL    HW224702   2.409   2.609   8.809  0.2361 -0.7832 -0.2216
 4415SOL     OW24703   1.622   3.396   8.322 -0.0079 -0.6911 -0.3238
 4415SOL    HW124704   1.583   3.329   8.378 -1.0155  0.3232  0.1886
 4415SOL    HW224705   1.646   3.451   8.397 -0.9996 -0.8599  0.1168
 4416SOL     OW24706   0.426   3.961  15.998  0.0464  0.0276  0.2034
 4416SOL    HW124707   0.502   4.013  16.025 -2.0809  3.9507 -1.4115
 4416SOL    HW224708   0.362   3.964  16.069 -0.4047 -1.1178 -0.1638
 4417SOL     OW24709   1.349   2.205   4.759  0.1154 -0.4072 -0.4855
 4417SOL    HW124710   1.361   2.137   4.826  1.9898  0.2262 -0.1976
 4417SOL    HW224711   1.438   2.239   4.754 -0.2576  0.7650  1.0682
 4418SOL     OW24712   0.795   2.211   4.607  0.0422 -0.1327  0.1195
 4418SOL    HW124713   0.733   2.169   4.666  1.6640 -0.9028  1.2732
 4418SOL    HW224714   0.880   2.192   4.646  0.0167 -2.7598 -1.0816
 4419SOL     OW24715   0.149   2.300  12.167 -0.0989  0.3017  0.1498
 4419SOL    HW124716   0.154   2.341  12.253 -0.7478  0.8366 -0.0559
 4419SOL    HW224717   0.216   2.337  12.110  0.3412  1.6506  1.5716
 4420SOL     OW24718   0.544   4.470   6.389 -0.6102  0.3612  0.1217
 4420SOL    HW124719   0.561   4.376   6.402  1.4145  0.8320  0.9388
 4420SOL    HW224720   0.583   4.499   6.471 -1.5827 -0.7405  0.9707
 4421SOL     OW24721   0.270   3.104   8.695 -0.3995  0.4129 -0.1983
 4421SOL    HW124722   0.251   3.175   8.634 -1.2879 -0.1443 -0.5759
 4421SOL    HW224723   0.189   3.052   8.690  0.7803 -1.6539  1.9974
 4422SOL     OW24724   4.425   0.585   5.637  0.1345 -0.1846 -0.0657
 4422SOL    HW124725   4.507   0.619   5.600  0.4080 -1.4405 -0.6455
 4422SOL    HW224726   4.419   0.511   5.576 -0.0602  0.7362 -1.1502
 4423SOL     OW24727   1.293   1.461   7.854 -0.1734 -0.1616  0.6918
 4423SOL    HW124728   1.277   1.428   7.765  1.0226 -0.3952  0.5534
 4423SOL    HW224729   1.325   1.550   7.843 -0.6516  0.2537  2.7021
 4424SOL     OW24730   0.989   4.163  13.461 -0.8643  0.0762 -0.0766
 4424SOL    HW124731   0.919   4.143  13.522 -1.7434  1.6161 -0.5967
 4424SOL    HW224732   0.992   4.082  13.410  1.0530 -0.3200  0.6726
 4425SOL     OW24733   3.237   3.505   7.103  0.2013 -1.1920  0.1410
 4425SOL    HW124734   3.204   3.545   7.184 -0.2535 -0.3321 -0.4796
 4425SOL    HW224735   3.175   3.434   7.084  2.0600 -2.5402 -0.9826
 4426SOL     OW24736   3.072   1.467   7.348 -0.2632  0.1767  0.2113
 4426SOL    HW124737   3.026   1.548   7.323  0.4485  0.5429  0.0791
 4426SOL    HW224738   3.141   1.498   7.406  0.9908 -0.5145 -0.8916
 4427SOL     OW24739   1.731   3.634  12.365  0.1657  1.1805  0.0650
 4427SOL    HW124740   1.676   3.704  12.329 -0.7232  0.2079 -0.4596
 4427SOL    HW224741   1.672   3.562  12.345 -0.8596  2.8662 -3.1095
 4428SOL     OW24742   2.655   3.922   8.063 -0.4302 -0.2228  0.4013
 4428SOL    HW124743   2.615   3.946   7.980  0.5590 -0.8553 -0.2616
 4428SOL    HW224744   2.577   3.927   8.119 -0.9596 -0.0479 -0.3513
 4429SOL     OW24745   2.602   2.196  13.959 -0.2185 -0.0546 -0.5624
 4429SOL    HW124746   2.565   2.225  13.876 -0.7276 -0.2840 -0.4155
 4429SOL    HW224747   2.577   2.104  13.968 -2.6975  0.3321 -3.2511
 4430SOL     OW24748   2.848   2.596   8.402 -0.1791 -0.0324  0.1044
 4430SOL    HW124749   2.774   2.621   8.346  1.6955  1.5944 -1.6515
 4430SOL    HW224750   2.879   2.518   8.357 -2.1210  0.7304 -2.5696
 4431SOL     OW24751   4.465   2.099   2.956  0.4083  0.0754  0.4970
 4431SOL    HW124752   4.498   2.147   2.880  0.9989  0.0486  0.7352
 4431SOL    HW224753   4.542   2.087   3.013  0.7159 -0.0111  0.0604
 4432SOL     OW24754   0.526   3.080   9.223  0.0748 -0.1668 -0.5986
 4432SOL    HW124755   0.530   2.989   9.195  0.6962 -0.4112  0.2621
 4432SOL    HW224756   0.455   3.114   9.169 -0.1820 -1.0435 -0.8129
 4433SOL     OW24757   0.635   0.057   1.974 -0.4734 -0.7990 -0.0157
 4433SOL    HW124758   0.685   0.077   1.895 -0.5744  1.4943  0.5102
 4433SOL    HW224759   0.556   0.012   1.942 -2.2466  1.7289  0.7916
 4434SOL     OW24760   1.930   1.962   2.868  0.3287 -0.0625 -0.1146
 4434SOL    HW124761   1.918   2.031   2.932 -0.5369  0.4843 -0.8645
 4434SOL    HW224762   1.890   1.884   2.908  1.4647 -2.3309 -3.4277
 4435SOL     OW24763   2.904   3.616  15.667 -0.4389 -0.3025  0.2861
 4435SOL    HW124764   2.876   3.589  15.580 -0.2908 -0.7693  0.3860
 4435SOL    HW224765   2.974   3.674  15.635  0.2457 -1.2939 -0.0134
 4436SOL     OW24766   1.011   2.374   6.332  0.2570  0.1503  0.6620
 4436SOL    HW124767   0.948   2.372   6.404 -0.7765 -1.0279 -0.2800
 4436SOL    HW224768   1.093   2.371   6.381  0.6798 -0.2407 -0.0698
 4437SOL     OW24769   2.405   1.234   6.756  0.1793 -0.0541  0.3914
 4437SOL    HW124770   2.423   1.324   6.728  2.6303 -0.7265 -0.2085
 4437SOL    HW224771   2.345   1.205   6.688 -0.3918  0.7273  0.5622
 4438SOL     OW24772   4.089   2.686   3.632 -0.9083  0.6110 -0.4422
 4438SOL    HW124773   4.038   2.764   3.610  0.1603  1.1027 -1.2125
 4438SOL    HW224774   4.034   2.653   3.703 -0.6341 -1.9088 -1.4087
 4439SOL     OW24775   1.911   3.093   5.051  0.2689 -0.5443  0.4888
 4439SOL    HW124776   1.928   3.051   4.966  2.1261 -0.0140  0.6127
 4439SOL    HW224777   1.852   3.164   5.027 -0.4973 -2.0530 -2.1120
 4440SOL     OW24778   4.597   3.819   0.391 -0.2833  0.4358  0.1954
 4440SOL    HW124779   4.529   3.752   0.392  1.6476 -1.5415 -1.0726
 4440SOL    HW224780   4.558   3.891   0.341 -3.0277  0.3998  2.2988
 4441SOL     OW24781   3.704   3.788   0.097 -0.4019 -0.5908  0.0155
 4441SOL    HW124782   3.794   3.783   0.065 -0.2950 -1.3054  0.4186
 4441SOL    HW224783   3.706   3.764   0.190  1.0189  1.6284  0.5686
 4442SOL     OW24784   2.289   2.513   5.565  0.1270  0.0336 -0.3244
 4442SOL    HW124785   2.246   2.445   5.617  0.6748  0.2496  0.4264
 4442SOL    HW224786   2.369   2.466   5.543  0.3252 -0.4458  1.3595
 4443SOL     OW24787   0.536   4.654   5.943  0.1042 -0.2304 -0.3420
 4443SOL    HW124788   0.628   4.633   5.958  0.8342  1.2266 -2.8006
 4443SOL    HW224789   0.510   4.625   6.031  0.4110 -1.5567 -0.6879
 4444SOL     OW24790   3.695   4.310  15.977 -0.0922  0.3745  0.2251
 4444SOL    HW124791   3.686   4.224  15.937  0.3404 -0.7485  2.5400
 4444SOL    HW224792   3.782   4.312  16.017  0.8143  0.7714 -1.7791
 4445SOL     OW24793   1.721   3.416   3.487 -0.1511 -0.0778 -0.4372
 4445SOL    HW124794   1.632   3.452   3.482 -0.4904 -0.7617  0.6870
 4445SOL    HW224795   1.701   3.334   3.531  1.1877  0.3523  1.0041
 4446SOL     OW24796   0.715   2.582   8.675  0.3326  0.1500  0.0373
 4446SOL    HW124797   0.689   2.655   8.619 -0.9991  1.3553  2.2267
 4446SOL    HW224798   0.792   2.626   8.710  0.1018  0.0848  0.6266
 4447SOL     OW24799   0.287   4.155  16.916 -0.5834  0.9339  0.3040
 4447SOL    HW124800   0.287   4.085  16.851 -2.7983  1.5703 -0.4057
 4447SOL    HW224801   0.193   4.165  16.935 -0.8041 -0.5870  0.0173
 4448SOL     OW24802   0.859   0.255   7.495  0.2261  0.2228  0.0638
 4448SOL    HW124803   0.918   0.327   7.519  0.1668 -0.1167  1.2176
 4448SOL    HW224804   0.779   0.298   7.525 -0.4494 -0.4082 -0.8282
 4449SOL     OW24805   0.308   2.449   3.097  0.4845  0.3138 -0.3430
 4449SOL    HW124806   0.278   2.516   3.034  1.4019 -0.3176 -1.4416
 4449SOL    HW224807   0.371   2.502   3.146 -0.8239 -0.5448  2.2384
 4450SOL     OW24808   1.334   1.114  10.808 -0.3744  0.6487  0.0273
 4450SOL    HW124809   1.269   1.081  10.870  1.4717 -1.4187  0.8542
 4450SOL    HW224810   1.288   1.086  10.729 -1.7220 -0.4145  1.1845
 4451SOL     OW24811   3.403   3.186   3.238 -0.5686 -0.2414 -0.0018
 4451SOL    HW124812   3.484   3.216   3.277 -0.4781  0.2844 -0.5962
 4451SOL    HW224813   3.394   3.099   3.277  0.1947  0.1309  0.9905
 4452SOL     OW24814   2.768   4.673  16.330 -0.7941  0.2442  0.4405
 4452SOL    HW124815   2.815   4.662  16.248  0.7029 -2.6091  1.6894
 4452SOL    HW224816   2.823   0.025  16.360  1.1875 -0.8796 -0.4842
 4453SOL     OW24817   4.501   3.619   7.425 -0.3393 -0.4584  0.1133
 4453SOL    HW124818   4.566   3.656   7.365 -1.0149  1.1368  0.3672
 4453SOL    HW224819   4.552   3.606   7.505  1.4005  0.7952 -0.7838
 4454SOL     OW24820   0.902   0.359  16.092  0.1807  0.2149  0.0904
 4454SOL    HW124821   0.930   0.446  16.064  0.8395  0.4030  1.3409
 4454SOL    HW224822   0.812   0.368  16.060  0.6203 -2.2520 -1.8426
 4455SOL     OW24823   3.464   0.617  16.662  0.0026 -0.5350  0.1830
 4455SOL    HW124824   3.527   0.634  16.732  2.1391  1.9329 -2.3462
 4455SOL    HW224825   3.455   0.702  16.620  0.8946  0.3284  1.7274
 4456SOL     OW24826   4.068   3.710   8.837 -0.1557 -0.2229  0.4700
 4456SOL    HW124827   4.115   3.741   8.760 -0.2394  1.6307  1.1632
 4456SOL    HW224828   4.134   3.667   8.891 -0.2079 -1.2770 -0.3114
 4457SOL     OW24829   0.183   4.182  16.631 -0.4442  0.2116 -0.1956
 4457SOL    HW124830   0.111   4.226  16.675 -3.3843 -4.8950  0.1391
 4457SOL    HW224831   0.220   4.265  16.599 -0.3657  0.2886  0.1000
 4458SOL     OW24832   3.688   0.005   1.248 -0.0245  0.1764 -0.0013
 4458SOL    HW124833   3.629   0.067   1.205  0.0847 -2.3244 -3.7722
 4458SOL    HW224834   3.707   0.040   1.335  0.0442 -1.1812  0.5352
 4459SOL     OW24835   2.895   3.432   5.378 -0.3373  0.3450  0.1515
 4459SOL    HW124836   2.948   3.382   5.316  2.2387 -0.5828  3.0806
 4459SOL    HW224837   2.961   3.468   5.437 -0.6806 -0.7126  1.1788
 4460SOL     OW24838   4.261   1.758   0.399  0.0925 -0.2148 -0.4956
 4460SOL    HW124839   4.281   1.851   0.400 -0.7001 -0.0819  2.0506
 4460SOL    HW224840   4.278   1.751   0.305 -0.1758 -0.2435 -0.5404
 4461SOL     OW24841   3.778   1.615   2.717 -0.4473 -0.1285 -0.5264
 4461SOL    HW124842   3.841   1.621   2.645 -2.2701  1.6139 -1.9782
 4461SOL    HW224843   3.828   1.556   2.773 -0.2462  1.8932  1.4012
 4462SOL     OW24844   2.593   0.805   8.290  0.9319 -0.0145 -0.0575
 4462SOL    HW124845   2.619   0.897   8.295  0.2741  0.0205  3.1878
 4462SOL    HW224846   2.498   0.816   8.286  0.8174 -0.2021  1.9717
 4463SOL     OW24847   4.427   2.321   2.295 -0.2585 -0.0248  0.1468
 4463SOL    HW124848   4.407   2.413   2.309  1.1715  0.6001 -1.8863
 4463SOL    HW224849   4.519   2.310   2.320  0.2332 -2.3775 -2.6446
 4464SOL     OW24850   4.069   1.484   7.499 -0.0744  0.1749  0.1398
 4464SOL    HW124851   3.993   1.427   7.491  0.0484  0.2475 -1.6927
 4464SOL    HW224852   4.067   1.532   7.416 -2.8292 -0.9535 -0.4392
 4465SOL     OW24853   1.213   1.149   0.171  0.4894  0.2080  0.5270
 4465SOL    HW124854   1.262   1.158   0.253  0.4331  1.2296  0.4437
 4465SOL    HW224855   1.210   1.240   0.142 -1.1035  0.1292  0.4448
 4466SOL     OW24856   0.759   2.673   3.647 -0.4048 -0.3916  0.3718
 4466SOL    HW124857   0.675   2.653   3.688 -0.7496  0.8915  0.2932
 4466SOL    HW224858   0.819   2.650   3.718  0.3262 -1.3349 -0.5287
 4467SOL     OW24859   3.843   0.845   7.868  0.0751  0.0419  0.7158
 4467SOL    HW124860   3.851   0.920   7.928 -1.5183  2.2620 -1.8230
 4467SOL    HW224861   3.764   0.806   7.905 -3.1092  2.2966 -3.7887
 4468SOL     OW24862   3.613   2.184  14.841  0.3730 -0.1043 -0.3981
 4468SOL    HW124863   3.588   2.201  14.751 -0.1856  1.6318  0.0871
 4468SOL    HW224864   3.530   2.140  14.859  0.0425  0.7157  0.0834
 4469SOL     OW24865   0.607   0.928   5.326  0.7320 -0.3226  0.2886
 4469SOL    HW124866   0.536   0.864   5.334  0.3261 -0.0260 -0.9551
 4469SOL    HW224867   0.567   0.998   5.377  1.4353 -0.8851  1.6285
 4470SOL     OW24868   3.414   4.478  15.243  0.2776 -0.0629 -0.0838
 4470SOL    HW124869   3.432   4.474  15.337  1.0305  0.1369 -0.2182
 4470SOL    HW224870   3.339   4.419  15.233  0.0683  0.5820 -2.3327
 4471SOL     OW24871   0.343   2.354   6.423  0.3423 -0.2606  0.2148
 4471SOL    HW124872   0.376   2.387   6.506  0.8077 -0.6263  0.1733
 4471SOL    HW224873   0.269   2.413   6.405 -1.1447 -0.5243  5.4340
 4472SOL     OW24874   1.999   0.487   3.400  0.3072 -0.1441 -0.0172
 4472SOL    HW124875   2.025   0.408   3.353 -1.3528 -0.2017 -0.8640
 4472SOL    HW224876   2.040   0.557   3.348 -1.1511 -0.0937 -1.1152
 4473SOL     OW24877   0.812   2.031   0.829  0.5501 -0.3164 -0.7172
 4473SOL    HW124878   0.856   2.003   0.749  0.4488  1.0658 -1.2501
 4473SOL    HW224879   0.882   2.083   0.868 -0.4797 -1.0037  2.0467
 4474SOL     OW24880   2.180   3.259   6.719 -0.1456 -0.1087  0.0738
 4474SOL    HW124881   2.112   3.222   6.661  0.5283 -2.1804  0.5930
 4474SOL    HW224882   2.213   3.328   6.662 -2.5532  2.3146  1.6286
 4475SOL     OW24883   0.353   3.726   8.255  0.8329 -0.4209 -0.3544
 4475SOL    HW124884   0.335   3.798   8.316  1.3585 -0.1125 -0.5633
 4475SOL    HW224885   0.448   3.727   8.265  0.9924 -0.3344 -1.8910
 4476SOL     OW24886   0.856   2.424   1.707 -0.2207 -0.1160 -0.1604
 4476SOL    HW124887   0.773   2.440   1.751  0.0483 -0.9611  0.6450
 4476SOL    HW224888   0.903   2.356   1.757  1.0519  0.7477 -0.1828
 4477SOL     OW24889   3.088   4.619   3.467 -0.0290  0.3113 -0.5062
 4477SOL    HW124890   3.094   4.606   3.373 -0.2263  1.3364 -0.6590
 4477SOL    HW224891   3.091   4.532   3.507 -0.4100 -0.1299 -1.4569
 4478SOL     OW24892   1.323   4.209  13.792 -0.4994  0.0943 -0.4567
 4478SOL    HW124893   1.316   4.264  13.714 -0.4219 -0.9741 -1.2103
 4478SOL    HW224894   1.411   4.172  13.783 -1.1436 -1.1896 -1.3648
 4479SOL     OW24895   0.718   4.649   7.950  0.3221  0.4337 -0.1489
 4479SOL    HW124896   0.752   0.004   7.902 -2.1321  1.7287  0.1819
 4479SOL    HW224897   0.752   4.578   7.895  0.9708  0.5315  0.1184
 4480SOL     OW24898   1.468   3.681   2.676 -0.1221 -0.3016 -0.2261
 4480SOL    HW124899   1.534   3.715   2.616  0.6539 -0.5279  0.4885
 4480SOL    HW224900   1.517   3.671   2.758  2.6759 -1.6681 -2.0604
 4481SOL     OW24901   0.087   0.497   7.692 -0.0989  0.2627  0.1360
 4481SOL    HW124902   0.064   0.561   7.760  4.1139  1.0635  0.8151
 4481SOL    HW224903   0.089   0.410   7.732  0.8594  0.0892 -0.2947
 4482SOL     OW24904   2.736   3.219  11.271  0.6928  0.6551 -0.4503
 4482SOL    HW124905   2.800   3.233  11.200  0.0143 -0.7091 -1.3403
 4482SOL    HW224906   2.685   3.144  11.240  0.0573  0.4108  1.2239
 4483SOL     OW24907   1.569   0.595  12.120 -0.2106  0.4810 -0.1736
 4483SOL    HW124908   1.578   0.534  12.194 -0.6319 -0.5287 -0.9588
 4483SOL    HW224909   1.642   0.566  12.067  1.9681  0.9728  2.5525
 4484SOL     OW24910   4.627   3.207  15.333 -0.3408  0.0155  0.6718
 4484SOL    HW124911   4.626   3.282  15.392 -1.9066  0.0929  0.5660
 4484SOL    HW224912   4.597   3.140  15.395 -2.3045  0.7250  0.4908
 4485SOL     OW24913   2.593   0.151   8.462 -0.0131 -0.1173  0.1071
 4485SOL    HW124914   2.553   0.237   8.446  1.9641  0.8567  0.3819
 4485SOL    HW224915   2.570   0.144   8.555  1.0716  0.0711  0.3967
 4486SOL     OW24916   0.387   3.344   4.462 -0.3807 -0.2167 -0.3305
 4486SOL    HW124917   0.307   3.292   4.452 -0.3490  0.0018 -1.7060
 4486SOL    HW224918   0.418   3.355   4.372 -0.3657  1.0655 -0.1743
 4487SOL     OW24919   4.333   3.286   4.932 -0.2396  0.6930  0.9094
 4487SOL    HW124920   4.342   3.339   4.853  0.8436 -1.5990 -0.4783
 4487SOL    HW224921   4.313   3.199   4.898 -0.3711  1.1008 -0.0585
 4488SOL     OW24922   1.063   2.608  14.001  0.9012  0.1959 -0.4050
 4488SOL    HW124923   0.981   2.633  14.043 -1.3900  0.1508 -4.8224
 4488SOL    HW224924   1.132   2.629  14.063 -0.5508  1.5909  0.7323
 4489SOL     OW24925   0.523   3.065  17.526  0.6692  0.2710 -0.5224
 4489SOL    HW124926   0.569   3.132  17.475 -0.4746  0.8226 -0.8133
 4489SOL    HW224927   0.436   3.089  17.495  0.4102 -0.4219 -0.3323
 4490SOL     OW24928   0.614   3.793  11.259 -0.4179 -0.4795 -0.1466
 4490SOL    HW124929   0.539   3.843  11.227 -0.8169 -0.7875  0.3113
 4490SOL    HW224930   0.602   3.710  11.213 -1.6153 -0.2806 -0.2063
 4491SOL     OW24931   2.800   0.834   2.723  0.1477 -0.4804 -0.1225
 4491SOL    HW124932   2.723   0.873   2.683  0.5980  1.1567  0.6374
 4491SOL    HW224933   2.788   0.868   2.811 -0.6536 -1.4685  0.1538
 4492SOL     OW24934   3.192   0.548   9.476 -0.1139 -0.4056 -0.2216
 4492SOL    HW124935   3.220   0.487   9.408  0.2411  1.2720 -1.5580
 4492SOL    HW224936   3.122   0.501   9.522  0.8934  0.0943  1.8330
 4493SOL     OW24937   2.839   4.211   4.403 -0.0821 -0.4183 -0.2599
 4493SOL    HW124938   2.821   4.181   4.314 -1.1446  2.3334 -0.9573
 4493SOL    HW224939   2.818   4.302   4.384  0.5104 -0.1122  0.5786
 4494SOL     OW24940   2.405   2.017   3.382  0.5626 -0.2606  0.2767
 4494SOL    HW124941   2.411   2.009   3.287  0.0965 -0.9483  0.3051
 4494SOL    HW224942   2.459   1.942   3.405 -0.5658 -1.5462 -1.2570
 4495SOL     OW24943   3.898   3.346  10.958  0.0915  0.0969 -0.0743
 4495SOL    HW124944   3.894   3.327  10.864  1.2367 -2.5954  0.4326
 4495SOL    HW224945   3.804   3.362  10.972 -0.0168 -0.4197 -0.2262
 4496SOL     OW24946   4.090   2.379  17.508  0.2843  0.1565  0.8680
 4496SOL    HW124947   4.098   2.475  17.509 -0.9535  0.2520  0.8964
 4496SOL    HW224948   4.101   2.361  17.601  0.1433 -0.5255  0.7535
 4497SOL     OW24949   1.453   3.999   1.401 -0.2891  0.6108 -0.2340
 4497SOL    HW124950   1.524   4.002   1.466  1.0304 -0.2149 -1.6554
 4497SOL    HW224951   1.381   3.971   1.457  1.0417  0.4622  1.4115
 4498SOL     OW24952   2.491   3.527   2.714 -0.1894  0.5012 -0.1532
 4498SOL    HW124953   2.570   3.540   2.767  1.0792 -2.5475 -1.3256
 4498SOL    HW224954   2.468   3.442   2.752 -2.1663  1.9065  1.8051
 4499SOL     OW24955   2.776   0.757   7.845  0.1015  0.2743  0.7568
 4499SOL    HW124956   2.845   0.818   7.871 -0.8549  1.1894  1.1467
 4499SOL    HW224957   2.800   0.671   7.877  1.1116  0.0502 -0.5521
 4500SOL     OW24958   0.512   3.854   5.190 -0.0831 -0.5216 -0.0905
 4500SOL    HW124959   0.555   3.785   5.242 -1.5247 -1.0330  0.4230
 4500SOL    HW224960   0.535   3.818   5.104  1.4952  1.4848 -0.4984
 4501SOL     OW24961   4.075   1.151   8.475  0.5595 -1.1383  0.1504
 4501SOL    HW124962   4.083   1.098   8.555  0.7785  1.3495  1.7847
 4501SOL    HW224963   4.163   1.187   8.463  0.7125 -0.9462  1.8027
 4502SOL     OW24964   2.141   0.746   4.021  0.4576 -0.1238 -0.0943
 4502SOL    HW124965   2.090   0.741   4.102  0.9256 -1.4427  0.1064
 4502SOL    HW224966   2.212   0.684   4.035  0.4811 -0.2928 -0.9608
 4503SOL     OW24967   2.608   2.519  11.324 -0.2000 -0.2659  0.0506
 4503SOL    HW124968   2.703   2.528  11.330 -0.2148  0.7141 -1.0694
 4503SOL    HW224969   2.590   2.456  11.394  1.4895 -1.8110 -0.9088
 4504SOL     OW24970   0.341   4.586   4.433 -0.2159  0.2446  0.3967
 4504SOL    HW124971   0.407   4.529   4.393  1.3760  0.7605  2.2954
 4504SOL    HW224972   0.392   4.623   4.505  0.7360 -0.5113  0.1167
 4505SOL     OW24973   2.221   0.456   4.726 -0.7754 -0.1254 -0.2991
 4505SOL    HW124974   2.194   0.405   4.651  1.2486  0.4754 -1.4221
 4505SOL    HW224975   2.314   0.463   4.708 -0.0974 -0.3747  3.0111
 4506SOL     OW24976   2.078   0.617   4.902  0.4332  0.5826  0.5649
 4506SOL    HW124977   2.087   0.687   4.837 -1.6547  2.0487  1.8616
 4506SOL    HW224978   2.126   0.544   4.861  0.6221  1.6470 -1.1294
 4507SOL     OW24979   0.463   3.813   3.022  0.2149 -0.1148 -0.1995
 4507SOL    HW124980   0.520   3.874   3.070  1.4034 -1.0126 -0.4863
 4507SOL    HW224981   0.526   3.758   2.976 -1.8150 -2.2200 -0.4297
 4508SOL     OW24982   4.147   1.829   4.332 -0.4744  0.8760 -0.1428
 4508SOL    HW124983   4.154   1.904   4.391 -2.2972  1.0233 -0.1087
 4508SOL    HW224984   4.139   1.750   4.384  3.9165  1.6531  1.6750
 4509SOL     OW24985   3.276   1.129   3.190  0.0810 -0.7596  0.4548
 4509SOL    HW124986   3.215   1.203   3.185  0.9020 -0.0820  0.4400
 4509SOL    HW224987   3.213   1.068   3.152  0.4632  1.8006 -4.2950
 4510SOL     OW24988   4.211   0.355   9.852 -0.0835  0.0113  0.1955
 4510SOL    HW124989   4.189   0.371   9.760 -0.2460 -3.6320 -0.4086
 4510SOL    HW224990   4.304   0.371   9.861 -0.3567  0.4994  2.1525
 4511SOL     OW24991   3.906   4.603   0.747  0.4735 -0.8026  0.2605
 4511SOL    HW124992   3.811   4.614   0.757  0.9084 -0.4123  4.0957
 4511SOL    HW224993   3.910   4.527   0.689 -0.8101 -0.5763 -0.1436
 4512SOL     OW24994   3.449   2.968   3.404 -0.5200  0.4219 -0.0183
 4512SOL    HW124995   3.507   2.973   3.480 -2.0595 -2.9239  1.4296
 4512SOL    HW224996   3.381   2.909   3.438 -0.5408 -0.5833 -1.8200
 4513SOL     OW24997   1.519   0.988   3.062  0.3411 -0.3637 -0.6444
 4513SOL    HW124998   1.499   1.081   3.051 -0.2709 -0.3805  0.3733
 4513SOL    HW224999   1.451   0.949   3.007 -0.1879 -0.7388  0.2711
 4514SOL     OW25000   0.179   0.656  17.012 -0.2423 -0.6324  0.0481
 4514SOL    HW125001   0.227   0.587  17.057 -0.9859 -0.5015  1.0235
 4514SOL    HW225002   0.096   0.613  16.989 -0.0953  0.2350 -2.0939
 4515SOL     OW25003   3.638   3.385   7.925  0.2422 -0.0310  0.0108
 4515SOL    HW125004   3.588   3.318   7.970 -0.2038  1.0407  1.1018
 4515SOL    HW225005   3.707   3.323   7.900  1.9750  1.3541  1.3704
 4516SOL     OW25006   0.228   2.050   4.510  0.6148  0.3628  0.2003
 4516SOL    HW125007   0.299   2.114   4.500  2.0878 -1.0937  1.3616
 4516SOL    HW225008   0.255   1.978   4.453  0.0509 -0.1070  0.5312
 4517SOL     OW25009   1.736   0.878  15.263 -0.7776  0.2520  0.2072
 4517SOL    HW125010   1.692   0.795  15.282 -1.0781  0.7152  1.5295
 4517SOL    HW225011   1.761   0.901  15.353 -0.9520 -0.4496  0.4357
 4518SOL     OW25012   1.815   0.681   8.596 -0.1538  0.1081 -0.3774
 4518SOL    HW125013   1.745   0.736   8.631 -0.0937  0.4001 -0.7235
 4518SOL    HW225014   1.868   0.740   8.544 -2.2948  0.6826 -1.8965
 4519SOL     OW25015   1.808   0.325  16.699 -0.4601 -0.7888 -0.4438
 4519SOL    HW125016   1.861   0.313  16.620 -1.2139 -0.2351 -1.0305
 4519SOL    HW225017   1.877   0.292  16.755  1.0202  0.4264 -1.5389
 4520SOL     OW25018   2.994   0.346   3.541  0.0608  0.0667  0.3875
 4520SOL    HW125019   3.024   0.365   3.630  0.8409  1.1628 -0.1056
 4520SOL    HW225020   2.899   0.334   3.541  0.2142 -1.1848  0.6307
 4521SOL     OW25021   4.536   2.699  10.176 -0.0914  0.0326 -0.5367
 4521SOL    HW125022   4.619   2.662  10.149  0.7508  0.6448  1.2041
 4521SOL    HW225023   4.480   2.629  10.144 -0.0772  0.0870 -0.6771
 4522SOL     OW25024   4.554   2.252   6.921  0.4347 -0.3914  0.1870
 4522SOL    HW125025   4.511   2.215   6.844  0.1245  0.5918 -0.1120
 4522SOL    HW225026   4.521   2.341   6.912  0.0908 -0.6046 -0.6448
 4523SOL     OW25027   3.969   3.427  10.276 -0.0905  0.8943 -0.1554
 4523SOL    HW125028   3.981   3.452  10.184  1.3278 -1.6070 -0.6461
 4523SOL    HW225029   3.874   3.436  10.284 -0.3182 -1.7194 -0.1514
 4524SOL     OW25030   4.094   3.817   3.918 -0.5714  0.1573  0.4887
 4524SOL    HW125031   4.078   3.829   4.011 -1.8959 -2.2637  0.5675
 4524SOL    HW225032   4.169   3.877   3.915  0.2806 -0.7751  2.9840
 4525SOL     OW25033   1.300   1.998  14.830 -0.5501  0.0588 -0.4690
 4525SOL    HW125034   1.359   1.927  14.804  0.8760  1.7785 -1.9395
 4525SOL    HW225035   1.360   2.070  14.810  0.4804 -0.9593 -1.0202
 4526SOL     OW25036   2.038   1.031   4.282  0.2126 -0.2451 -0.3554
 4526SOL    HW125037   2.051   1.079   4.200 -2.8429 -0.6409 -1.0710
 4526SOL    HW225038   2.014   0.941   4.258  0.6785 -0.0465 -1.5959
 4527SOL     OW25039   2.732   3.109  12.845 -0.0492  0.2733 -0.4758
 4527SOL    HW125040   2.806   3.098  12.786  0.5144  0.2463  0.2416
 4527SOL    HW225041   2.662   3.114  12.779 -1.9371  1.8225  1.6623
 4528SOL     OW25042   0.650   1.593  15.168  0.2028  0.2676 -0.2771
 4528SOL    HW125043   0.630   1.579  15.260  0.0673  0.5170 -0.2666
 4528SOL    HW225044   0.682   1.505  15.148 -0.7890 -0.4771  1.4346
 4529SOL     OW25045   4.214   4.672   8.951  0.0703 -0.5599  0.3616
 4529SOL    HW125046   4.130   4.692   8.993  0.0813  2.6163 -1.1391
 4529SOL    HW225047   4.275   4.694   9.021  1.2496 -0.6512 -0.6408
 4530SOL     OW25048   3.142   4.463  14.048 -0.4578 -0.2603  0.5296
 4530SOL    HW125049   3.071   4.528  14.045  0.1120  0.2364 -1.9939
 4530SOL    HW225050   3.094   4.390  14.087 -0.1406  0.0988  1.6008
 4531SOL     OW25051   4.371   3.165   7.940 -0.5831  0.4248 -0.0564
 4531SOL    HW125052   4.355   3.074   7.917 -1.4384  0.3798  0.6948
 4531SOL    HW225053   4.466   3.156   7.935 -0.4336  1.1219  1.4598
 4532SOL     OW25054   1.382   2.943   7.265 -0.4562 -0.6626 -0.4309
 4532SOL    HW125055   1.451   2.884   7.298 -1.6229 -1.4322  0.6357
 4532SOL    HW225056   1.391   3.012   7.331 -0.1521  0.1413 -1.3278
 4533SOL     OW25057   3.585   0.527  13.907  0.1636  0.1583  0.2717
 4533SOL    HW125058   3.541   0.611  13.892 -1.3021 -1.2226 -3.1251
 4533SOL    HW225059   3.513   0.483  13.953  0.5319  1.1130  1.7795
 4534SOL     OW25060   0.017   0.927   4.112 -0.4671 -0.1174 -0.1618
 4534SOL    HW125061   0.079   0.977   4.058 -0.0890  0.9444  1.2549
 4534SOL    HW225062   0.026   0.838   4.079 -0.1769  0.2721 -1.1468
 4535SOL     OW25063   3.134   2.687   5.062 -0.1349  0.3218  0.7748
 4535SOL    HW125064   3.216   2.719   5.100  0.1642 -1.7131  1.8326
 4535SOL    HW225065   3.072   2.760   5.068 -1.5201 -0.8404  0.7474
 4536SOL     OW25066   3.644   2.943   8.693 -0.3989 -0.5283 -0.1340
 4536SOL    HW125067   3.636   2.900   8.608  1.1675  0.6560 -0.8770
 4536SOL    HW225068   3.625   2.867   8.749 -1.1160  0.4583  0.9627
 4537SOL     OW25069   3.895   3.629   7.419 -0.0978 -0.4203 -0.0276
 4537SOL    HW125070   3.891   3.725   7.428  0.0404 -0.4799  0.7333
 4537SOL    HW225071   3.949   3.617   7.342 -0.0914 -0.6149  0.0085
 4538SOL     OW25072   0.484   3.540  14.169 -0.2270  0.7344 -0.1814
 4538SOL    HW125073   0.410   3.599  14.180 -1.0897 -0.1397 -1.2673
 4538SOL    HW225074   0.472   3.497  14.253 -0.5752 -1.3807 -1.3084
 4539SOL     OW25075   3.091   3.509   5.534  0.0205  0.3740  0.2294
 4539SOL    HW125076   3.186   3.510   5.542  0.2568 -2.2799 -2.3270
 4539SOL    HW225077   3.051   3.562   5.603  1.1319  2.8805 -1.0534
 4540SOL     OW25078   2.926   2.920  15.184  0.2512  0.6266  0.1076
 4540SOL    HW125079   2.835   2.927  15.210  0.3044 -3.0110  1.1685
 4540SOL    HW225080   2.937   3.002  15.135  0.9312 -0.0994 -0.9688
 4541SOL     OW25081   0.172   2.276   4.258  0.1498 -0.1897  0.1759
 4541SOL    HW125082   0.247   2.217   4.247  0.9775  0.9892 -0.4441
 4541SOL    HW225083   0.099   2.218   4.236  0.1797  0.4666 -1.7281
 4542SOL     OW25084   0.908   2.693  15.380  0.4352  0.1837  0.2292
 4542SOL    HW125085   0.813   2.695  15.378  0.4288  0.6951  1.2160
 4542SOL    HW225086   0.936   2.785  15.380  0.0619  0.2968 -0.9922
 4543SOL     OW25087   1.317   2.318  11.068 -0.7542 -0.0238 -0.1282
 4543SOL    HW125088   1.399   2.354  11.104 -2.5607  0.9667  2.9258
 4543SOL    HW225089   1.263   2.394  11.046 -0.3065  1.1908  2.9536
 4544SOL     OW25090   1.080   1.286   1.626 -0.2055  0.0380  0.4325
 4544SOL    HW125091   1.127   1.279   1.543 -0.1561  0.2086  0.4463
 4544SOL    HW225092   0.986   1.290   1.606  0.1505  1.3566 -1.0199
 4545SOL     OW25093   1.505   3.405   6.806 -0.0241  0.0598 -0.3357
 4545SOL    HW125094   1.488   3.339   6.874 -1.0404  1.2659  0.5948
 4545SOL    HW225095   1.483   3.356   6.727  0.5378 -1.2038  0.2910
 4546SOL     OW25096   3.827   2.001   6.064  0.4985  0.4376 -0.4797
 4546SOL    HW125097   3.914   1.965   6.075  0.0209 -1.4050 -2.7076
 4546SOL    HW225098   3.787   1.946   5.997  0.3944 -2.9171  2.3431
 4547SOL     OW25099   2.539   2.331   5.605 -0.2465 -0.0101 -0.0378
 4547SOL    HW125100   2.558   2.311   5.513  0.7073 -0.0449  0.1682
 4547SOL    HW225101   2.622   2.313   5.647  1.5189 -1.4173 -4.0964
 4548SOL     OW25102   4.249   2.323   4.713  0.2891  0.4881  0.3762
 4548SOL    HW125103   4.217   2.267   4.642  2.3541 -1.7470  1.2028
 4548SOL    HW225104   4.187   2.308   4.784 -1.3462  3.4243 -0.4084
 4549SOL     OW25105   1.594   0.252  13.802  0.6482 -0.0059  0.4251
 4549SOL    HW125106   1.672   0.305  13.818  0.3260  0.7884 -0.6870
 4549SOL    HW225107   1.630   0.178  13.852  0.9734 -0.2096 -0.1060
 4550SOL     OW25108   1.938   0.435  12.182  0.1252 -0.1615 -0.5718
 4550SOL    HW125109   2.018   0.476  12.215 -0.4590  0.9039 -0.4958
 4550SOL    HW225110   1.913   0.495  12.112  0.2972  0.3693 -0.1748
 4551SOL     OW25111   0.039   0.899   3.458  0.3606  0.1267  0.2080
 4551SOL    HW125112   0.027   0.975   3.514 -0.3666 -0.5243  0.9327
 4551SOL    HW225113   4.669   0.870   3.451 -0.0897  1.5528  0.1735
 4552SOL     OW25114   3.739   2.359   3.455 -0.0866  0.3857 -0.0595
 4552SOL    HW125115   3.812   2.351   3.516  1.2311 -0.6416 -1.7641
 4552SOL    HW225116   3.675   2.297   3.491  1.3162  0.3883  2.4552
 4553SOL     OW25117   2.972   2.677   4.238 -0.0722  0.2254 -0.1035
 4553SOL    HW125118   2.982   2.656   4.331  2.5510 -1.2434 -0.7123
 4553SOL    HW225119   2.885   2.717   4.239 -0.1087  0.1260  1.2216
 4554SOL     OW25120   4.352   3.411   3.488 -0.3048  0.4802 -0.1444
 4554SOL    HW125121   4.342   3.337   3.548 -0.7373  0.5425 -0.1399
 4554SOL    HW225122   4.325   3.372   3.405 -0.3110  0.0396  0.0624
 4555SOL     OW25123   0.616   1.341   5.909 -0.7430  1.2121 -0.5098
 4555SOL    HW125124   0.547   1.408   5.902 -2.3839 -0.5674 -1.1794
 4555SOL    HW225125   0.674   1.388   5.970  0.0075  0.9398 -1.0123
 4556SOL     OW25126   3.764   4.159  10.401  0.0780 -0.5612 -0.3479
 4556SOL    HW125127   3.741   4.152  10.308 -1.3242  0.8364 -0.1020
 4556SOL    HW225128   3.842   4.104  10.398  0.8069  0.5069 -0.6659
 4557SOL     OW25129   1.765   3.649   2.180  0.1800  0.4844 -0.6973
 4557SOL    HW125130   1.861   3.651   2.181  0.1645 -0.5659  3.4608
 4557SOL    HW225131   1.744   3.739   2.155 -1.4769  0.3009  0.0507
 4558SOL     OW25132   3.885   2.470  15.345  0.2163 -0.5710  0.1026
 4558SOL    HW125133   3.855   2.519  15.421 -1.2926 -0.9848 -0.2160
 4558SOL    HW225134   3.861   2.383  15.378 -1.9428  0.0223  0.0719
 4559SOL     OW25135   3.265   4.569   2.797 -0.1549 -0.0230 -0.1343
 4559SOL    HW125136   3.284   4.541   2.708 -1.6829  2.2668 -1.1656
 4559SOL    HW225137   3.310   4.505   2.852 -1.1637 -1.8328 -1.4565
 4560SOL     OW25138   1.791   4.323   3.124 -0.7008 -0.3565 -0.8257
 4560SOL    HW125139   1.836   4.297   3.043  3.8039  0.8105  1.2587
 4560SOL    HW225140   1.709   4.274   3.127 -1.4188  0.8776 -0.3491
 4561SOL     OW25141   1.773   0.530  14.033 -0.0064 -0.2762 -0.0249
 4561SOL    HW125142   1.852   0.580  14.015  0.2124  0.1822  2.2610
 4561SOL    HW225143   1.795   0.464  13.967  0.6277  0.6711 -0.7612
 4562SOL     OW25144   4.289   4.378   0.896 -0.0781 -0.9161  0.7625
 4562SOL    HW125145   4.241   4.458   0.920  0.1980 -0.8722  1.1854
 4562SOL    HW225146   4.284   4.384   0.801  1.0722 -2.8364  0.5826
 4563SOL     OW25147   2.845   3.999   5.832  0.1579 -0.1972 -0.0962
 4563SOL    HW125148   2.752   4.015   5.850  0.2053  0.4791 -0.4471
 4563SOL    HW225149   2.866   3.935   5.899 -0.9446 -0.1334  0.3230
 4564SOL     OW25150   0.893   0.605   5.652 -0.1979 -0.3109  0.3715
 4564SOL    HW125151   0.928   0.518   5.669  0.1205 -0.1520  0.5297
 4564SOL    HW225152   0.951   0.624   5.579  0.8302 -1.1341  0.9812
 4565SOL     OW25153   4.565   2.161   7.354 -0.0230 -0.3427  0.2895
 4565SOL    HW125154   4.517   2.143   7.274  1.4132 -0.9740 -0.4253
 4565SOL    HW225155   4.602   2.075   7.370 -2.3725 -1.5418 -0.8453
 4566SOL     OW25156   3.622   3.302   0.079 -0.0829  0.0271  0.1040
 4566SOL    HW125157   3.652   3.319   0.169 -1.0044  2.6679 -0.0954
 4566SOL    HW225158   3.629   3.394   0.054 -0.2933  0.1049  0.3258
 4567SOL     OW25159   1.136   1.722   0.887  0.2008  0.4413 -0.4485
 4567SOL    HW125160   1.099   1.697   0.971 -1.0194 -1.2153 -1.4593
 4567SOL    HW225161   1.058   1.750   0.839 -1.0864 -0.5175  1.0771
 4568SOL     OW25162   3.151   3.947   8.595  0.2029 -0.4253  0.0446
 4568SOL    HW125163   3.211   3.881   8.560 -0.1418 -1.7743  2.0303
 4568SOL    HW225164   3.070   3.896   8.595 -0.5319  0.7765  1.0188
 4569SOL     OW25165   3.839   0.932   8.392 -0.0881 -0.2759 -0.0430
 4569SOL    HW125166   3.919   0.967   8.431  0.4637 -3.4653  1.7156
 4569SOL    HW225167   3.881   0.873   8.329 -0.7185  0.0432 -0.7594
 4570SOL     OW25168   1.572   4.547  10.903  0.6540 -0.2376 -0.5050
 4570SOL    HW125169   1.556   4.455  10.881  1.9195 -0.8711  1.2193
 4570SOL    HW225170   1.478   4.558  10.912  0.8687  0.1225  1.3610
 4571SOL     OW25171   2.440   3.398  15.115 -0.4199  0.2448  0.2383
 4571SOL    HW125172   2.422   3.487  15.084  1.8572  0.4522 -0.4565
 4571SOL    HW225173   2.431   3.413  15.209 -1.7637 -0.9151  0.3112
 4572SOL     OW25174   0.175   3.507   5.541 -0.0481  0.2432 -0.6239
 4572SOL    HW125175   0.103   3.490   5.480 -1.2584 -0.2287  0.9626
 4572SOL    HW225176   0.187   3.601   5.528  1.6463  0.0838 -0.2683
 4573SOL     OW25177   4.047   4.620   6.146  1.0627  0.3936 -0.8721
 4573SOL    HW125178   4.068   4.687   6.081 -0.1627  3.0515  1.4114
 4573SOL    HW225179   4.135   4.609   6.182 -0.3541 -2.4824  1.7221
 4574SOL     OW25180   1.564   3.698   8.780  0.2601 -0.2373  0.0919
 4574SOL    HW125181   1.658   3.695   8.797  0.5298  1.5442 -1.0878
 4574SOL    HW225182   1.551   3.660   8.693 -1.1897 -2.2817  1.1820
 4575SOL     OW25183   4.486   1.537   2.462  0.3565 -0.3304  0.6494
 4575SOL    HW125184   4.473   1.511   2.553  0.0781 -0.4283  0.5805
 4575SOL    HW225185   4.403   1.572   2.431  0.3147 -0.0461  1.0848
 4576SOL     OW25186   2.757   0.038   8.286  0.0562  1.0115  0.5681
 4576SOL    HW125187   2.679   0.035   8.230  0.7126  0.4186 -0.3054
 4576SOL    HW225188   2.714   0.077   8.363  0.6733  0.6089  1.1171
 4577SOL     OW25189   4.468   0.079  14.683 -0.2725 -0.4897  0.3078
 4577SOL    HW125190   4.404   0.018  14.646 -2.4422  0.8410  1.8727
 4577SOL    HW225191   4.470   0.042  14.771 -3.0631  1.2290  1.1075
 4578SOL     OW25192   1.329   3.353   1.901 -0.1578 -0.6503  0.1974
 4578SOL    HW125193   1.309   3.264   1.871  2.3747 -1.0680 -0.2851
 4578SOL    HW225194   1.408   3.346   1.954  0.4373 -0.0463 -0.6022
 4579SOL     OW25195   0.764   4.431   7.768  0.4337  0.4238 -0.2715
 4579SOL    HW125196   0.752   4.339   7.789 -0.1923 -0.0186 -2.6128
 4579SOL    HW225197   0.860   4.428   7.763  0.3458 -1.0399 -0.9765
 4580SOL     OW25198   2.130   3.063   6.122 -0.0473  0.6085 -0.6651
 4580SOL    HW125199   2.128   3.035   6.030  2.9778  2.2381 -1.2153
 4580SOL    HW225200   2.078   3.143   6.129  0.9333  1.2984 -1.1990
 4581SOL     OW25201   1.077   3.425   2.158  0.2902 -0.2796  0.0077
 4581SOL    HW125202   1.165   3.410   2.190  1.6035  0.2986 -3.3008
 4581SOL    HW225203   1.058   3.336   2.126 -0.4286 -0.5630  1.2471
 4582SOL     OW25204   1.902   2.232   1.252  0.1400  0.1109  0.5786
 4582SOL    HW125205   1.912   2.292   1.326 -1.1379 -1.9989  2.4671
 4582SOL    HW225206   1.937   2.149   1.282 -0.6896 -1.2707 -2.2270
 4583SOL     OW25207   1.363   1.771   8.553  0.5646  0.5460  0.1705
 4583SOL    HW125208   1.412   1.741   8.629 -0.2076  0.0309  0.4578
 4583SOL    HW225209   1.284   1.718   8.559  1.4572 -0.7935  0.2082
 4584SOL     OW25210   0.931   4.144   2.509 -0.4453 -0.2146  0.1999
 4584SOL    HW125211   1.003   4.190   2.552 -0.7541  1.9473 -1.6234
 4584SOL    HW225212   0.956   4.153   2.417 -1.3205  1.1019  0.0911
 4585SOL     OW25213   1.256   1.382   5.775  0.0314  0.0915 -0.1267
 4585SOL    HW125214   1.300   1.303   5.744 -1.8314 -1.0283  0.0453
 4585SOL    HW225215   1.235   1.426   5.692  2.5481  0.6591 -0.4529
 4586SOL     OW25216   3.848   4.323  16.928 -0.7463  0.1410  0.0152
 4586SOL    HW125217   3.937   4.298  16.902 -0.9796 -1.8634  1.1013
 4586SOL    HW225218   3.800   4.250  16.890  0.0747 -1.8779  2.8143
 4587SOL     OW25219   0.424   2.859   7.057 -0.9899 -0.2817  0.5550
 4587SOL    HW125220   0.390   2.947   7.037 -0.8634 -0.1307  1.0129
 4587SOL    HW225221   0.466   2.870   7.142  0.8459  0.6688 -0.4717
 4588SOL     OW25222   3.851   2.704  14.976  0.6571  0.2012  0.1681
 4588SOL    HW125223   3.813   2.670  14.896 -0.2307  0.2848  0.5494
 4588SOL    HW225224   3.819   2.794  14.965  0.3554  0.4097  2.6706
 4589SOL     OW25225   2.803   0.915  13.562 -0.4301  0.2717  0.4172
 4589SOL    HW125226   2.866   0.942  13.495  0.0880 -0.2011  0.7119
 4589SOL    HW225227   2.760   1.000  13.575 -0.2525  0.6302 -1.2711
 4590SOL     OW25228   1.473   1.872  16.800  0.3358 -0.0910  0.2474
 4590SOL    HW125229   1.568   1.881  16.794  0.3433  1.3326  2.4436
 4590SOL    HW225230   1.461   1.920  16.882 -1.0665 -0.0900  0.0410
 4591SOL     OW25231   4.213   3.046  14.340  0.0936 -0.6938 -0.3597
 4591SOL    HW125232   4.144   3.051  14.406 -0.9979  0.3542 -1.5889
 4591SOL    HW225233   4.289   3.075  14.391 -1.5311  1.4542  0.8262
 4592SOL     OW25234   0.781   2.457   2.760  0.0980 -0.1786  0.7946
 4592SOL    HW125235   0.719   2.412   2.818 -0.3873  0.0864  0.4835
 4592SOL    HW225236   0.845   2.389   2.738 -0.5270 -0.4246 -0.2784
 4593SOL     OW25237   1.534   4.310   1.687  0.2386  0.0452 -0.4580
 4593SOL    HW125238   1.547   4.383   1.747 -0.3569  0.3441 -0.6840
 4593SOL    HW225239   1.448   4.278   1.716 -0.1471  1.3304 -0.2047
 4594SOL     OW25240   4.559   3.236   6.550  0.1047  0.0988 -0.3918
 4594SOL    HW125241   4.535   3.170   6.485 -0.1590  0.8141 -1.0138
 4594SOL    HW225242   4.654   3.240   6.534  0.3631 -1.5677  0.7239
 4595SOL     OW25243   0.561   1.816   8.195 -0.5921  0.0068  0.1844
 4595SOL    HW125244   0.515   1.798   8.113  2.0753 -1.5859 -0.9801
 4595SOL    HW225245   0.598   1.730   8.215  0.8466  0.9972  1.8374
 4596SOL     OW25246   4.207   2.572  14.706  0.4212 -0.2067 -0.6846
 4596SOL    HW125247   4.289   2.552  14.661 -2.1718 -2.2747 -4.4842
 4596SOL    HW225248   4.155   2.500  14.669 -2.6894  2.2302 -1.0422
 4597SOL     OW25249   4.387   1.672  11.734  0.5542  0.8426 -0.7093
 4597SOL    HW125250   4.336   1.742  11.775  3.2091  0.0498  4.0030
 4597SOL    HW225251   4.325   1.600  11.749 -1.1522  2.6198  0.8412
 4598SOL     OW25252   4.245   3.135   1.682  0.2873  0.4039  0.4116
 4598SOL    HW125253   4.288   3.059   1.644  4.4461  1.7287  2.4437
 4598SOL    HW225254   4.191   3.100   1.753 -0.1158  2.2703  1.0243
 4599SOL     OW25255   0.443   4.151   8.496 -0.1612  0.5618 -0.0530
 4599SOL    HW125256   0.522   4.163   8.549  0.2457  0.1464 -0.5704
 4599SOL    HW225257   0.375   4.186   8.553  0.2314  0.0153  0.7470
 4600SOL     OW25258   0.025   0.058   8.956  0.4833  0.1184  0.2532
 4600SOL    HW125259   0.034   0.032   8.864 -0.6315  2.2143 -0.4475
 4600SOL    HW225260   0.108   0.031   8.993  0.8849 -0.6281 -1.1921
 4601SOL     OW25261   4.240   1.316   5.399 -0.4571  0.2124  0.3566
 4601SOL    HW125262   4.310   1.257   5.373 -1.6045 -0.9690 -0.0346
 4601SOL    HW225263   4.168   1.257   5.378 -0.2926 -0.1027  0.6882
 4602SOL     OW25264   2.676   4.316  17.515 -0.1172  0.0711  0.1049
 4602SOL    HW125265   2.663   4.303  17.421  1.2425  1.8655 -0.3200
 4602SOL    HW225266   2.635   4.238  17.552  1.0991 -0.6076  0.0272
 4603SOL     OW25267   4.366   1.523  16.530  0.3723 -0.0002  0.1920
 4603SOL    HW125268   4.462   1.519  16.528  0.4153  0.3781  1.3294
 4603SOL    HW225269   4.354   1.615  16.551  1.3312 -0.3811  2.3573
 4604SOL     OW25270   2.452   4.473   2.512 -0.0320  0.2078  0.0973
 4604SOL    HW125271   2.520   4.448   2.574  1.1907  2.4518 -0.3404
 4604SOL    HW225272   2.435   4.563   2.538  0.6503  0.4536 -0.3006
 4605SOL     OW25273   0.763   3.843   0.802 -0.4132 -0.4523 -0.0201
 4605SOL    HW125274   0.796   3.855   0.712  0.3337  0.5779  0.3842
 4605SOL    HW225275   0.673   3.865   0.779 -0.7923 -0.1565  1.7980
 4606SOL     OW25276   1.506   1.912   7.737  0.2479  0.1451 -0.0560
 4606SOL    HW125277   1.528   1.870   7.820  0.9457 -0.3009 -0.4668
 4606SOL    HW225278   1.543   1.840   7.686 -0.7908 -0.8379  0.6000
 4607SOL     OW25279   0.429   2.928   4.494 -0.1753  0.1127  0.7684
 4607SOL    HW125280   0.493   2.873   4.448  1.2188  1.7645  0.7258
 4607SOL    HW225281   0.483   2.939   4.572  1.0553  1.3580 -0.2420
 4608SOL     OW25282   2.744   1.319   6.815 -0.4454 -0.2518 -0.2306
 4608SOL    HW125283   2.663   1.319   6.765 -0.4506 -0.7439 -0.2205
 4608SOL    HW225284   2.712   1.361   6.895 -1.6543  0.2317 -0.9782
 4609SOL     OW25285   3.114   3.693  15.303  0.2564  0.3397 -0.3721
 4609SOL    HW125286   3.130   3.601  15.283  1.0247  0.4739 -0.3868
 4609SOL    HW225287   3.041   3.719  15.248 -1.7712  2.3497  3.2362
 4610SOL     OW25288   1.364   3.146   6.288  0.4532 -0.1403  0.8412
 4610SOL    HW125289   1.456   3.123   6.292  0.1642 -1.2276  1.1155
 4610SOL    HW225290   1.336   3.080   6.225 -0.2104  1.4982 -0.5969
 4611SOL     OW25291   1.280   2.658   9.668 -0.2099 -0.0492 -0.4884
 4611SOL    HW125292   1.247   2.599   9.600  0.2240 -0.0938 -0.6606
 4611SOL    HW225293   1.280   2.743   9.625 -1.5717  1.3824  2.3470
 4612SOL     OW25294   1.040   2.575   4.783 -0.1215  0.3349  0.4045
 4612SOL    HW125295   1.070   2.513   4.717  0.9230  1.8374 -0.5209
 4612SOL    HW225296   1.028   2.522   4.862 -2.2130  0.0742 -0.1065
 4613SOL     OW25297   0.304   0.303  11.622  0.1959  0.5227 -0.1698
 4613SOL    HW125298   0.313   0.217  11.582 -0.3755  0.9490 -1.2443
 4613SOL    HW225299   0.212   0.305  11.649 -0.4890 -0.7260 -2.4090
 4614SOL     OW25300   0.773   0.599  15.809  0.4854  0.3052  0.0122
 4614SOL    HW125301   0.770   0.681  15.860 -3.0949  0.0522  0.2620
 4614SOL    HW225302   0.850   0.560  15.850 -0.6345 -0.6297  1.2247
 4615SOL     OW25303   3.287   2.578   1.905 -0.3219  0.2914 -0.4025
 4615SOL    HW125304   3.297   2.671   1.926  1.0043 -0.3854  1.9297
 4615SOL    HW225305   3.376   2.543   1.912 -1.4312 -1.7088  3.2676
 4616SOL     OW25306   4.092   1.876   2.394  0.3029 -0.2035 -0.4486
 4616SOL    HW125307   4.115   1.890   2.302 -1.3608 -0.4595 -0.9128
 4616SOL    HW225308   4.168   1.911   2.440  0.4703  1.3508 -1.8883
 4617SOL     OW25309   0.288   4.388   1.372 -0.0751 -0.0668 -0.1418
 4617SOL    HW125310   0.382   4.387   1.352  0.2042  1.5681  1.1560
 4617SOL    HW225311   0.259   4.297   1.362  4.2926 -1.7145  2.3739
 4618SOL     OW25312   4.474   0.591   9.463 -0.5534  0.1206  0.3038
 4618SOL    HW125313   4.568   0.596   9.476 -0.3082  1.3280 -2.0991
 4618SOL    HW225314   4.456   0.518   9.523  1.0008 -1.2508 -0.9111
 4619SOL     OW25315   4.332   2.635   6.221  0.4662  0.1150 -0.2745
 4619SOL    HW125316   4.355   2.722   6.254  0.5263  1.0211 -2.7553
 4619SOL    HW225317   4.330   2.654   6.127  0.4412  3.9711  0.5093
 4620SOL     OW25318   0.075   4.610   4.489 -0.3384 -0.1076  0.3451
 4620SOL    HW125319   0.046   4.519   4.488 -3.9682  1.0129  1.3627
 4620SOL    HW225320   0.158   4.600   4.444  0.9166  0.7219  2.4545
 4621SOL     OW25321   0.996   0.873   8.001  0.5199  0.5182  0.9612
 4621SOL    HW125322   0.922   0.907   7.950  0.7633  0.6611  0.7059
 4621SOL    HW225323   1.055   0.876   7.927  0.1732 -0.3711  0.6522
 4622SOL     OW25324   0.700   0.784   9.787 -0.2318  0.4294 -0.4752
 4622SOL    HW125325   0.635   0.715   9.776 -0.6197  0.3213  2.4166
 4622SOL    HW225326   0.675   0.822   9.872 -0.9454 -0.8801 -0.0979
 4623SOL     OW25327   2.645   0.235   6.414 -0.0581  0.1222  0.2271
 4623SOL    HW125328   2.732   0.269   6.429  0.2176 -0.2003 -0.6040
 4623SOL    HW225329   2.585   0.307   6.431 -0.2380  0.1136 -0.3430
 4624SOL     OW25330   2.369   4.323   4.018  0.2296  0.0752 -0.3834
 4624SOL    HW125331   2.278   4.311   3.989 -0.2855 -0.0063  1.2908
 4624SOL    HW225332   2.400   4.233   4.012  1.4286  0.4502  0.3721
 4625SOL     OW25333   2.326   4.676   7.198 -0.3739  0.2186  0.2559
 4625SOL    HW125334   2.244   4.642   7.232  0.4196 -0.5410  1.3889
 4625SOL    HW225335   2.331   4.637   7.111 -1.3480 -2.5028  1.4205
 4626SOL     OW25336   2.171   3.878   3.627  0.2627  0.3807  0.0547
 4626SOL    HW125337   2.163   3.809   3.561 -0.4155 -0.0092  0.5385
 4626SOL    HW225338   2.107   3.937   3.589 -0.1332 -0.8709 -1.2308
 4627SOL     OW25339   0.134   4.146   8.939  0.4883  0.0236 -0.1291
 4627SOL    HW125340   0.048   4.112   8.914  0.4474  1.7848 -2.3997
 4627SOL    HW225341   0.195   4.085   8.898 -0.2248 -0.5454 -0.3533
 4628SOL     OW25342   1.598   3.778   1.314 -0.4025  0.6846 -0.7558
 4628SOL    HW125343   1.567   3.736   1.394  1.6254 -0.4395 -0.5689
 4628SOL    HW225344   1.530   3.845   1.302 -0.9190  0.1926 -0.5783
 4629SOL     OW25345   3.505   3.084   6.353  0.0266 -0.4324  0.0186
 4629SOL    HW125346   3.592   3.080   6.312 -0.4294 -0.0592 -0.9966
 4629SOL    HW225347   3.523   3.022   6.424  3.0737  1.2592  0.7380
 4630SOL     OW25348   2.796   1.548  14.851  0.4312 -0.0936 -0.2658
 4630SOL    HW125349   2.742   1.621  14.880  1.1337  0.4973 -0.4476
 4630SOL    HW225350   2.882   1.569  14.888 -0.4040  1.4472  0.8115
 4631SOL     OW25351   4.411   4.436   5.842 -0.4671 -0.2883  0.3214
 4631SOL    HW125352   4.349   4.504   5.815  0.0106  1.3605  3.4317
 4631SOL    HW225353   4.348   4.371   5.873 -4.4028  3.3524 -0.0707
 4632SOL     OW25354   4.030   2.939   5.136 -0.6705  0.0630 -0.7211
 4632SOL    HW125355   4.054   2.966   5.224  0.1315 -0.1522 -0.8680
 4632SOL    HW225356   4.113   2.891   5.125  0.7799  1.7450  2.8847
 4633SOL     OW25357   2.843   2.904   5.667  0.0463 -0.0384 -0.3490
 4633SOL    HW125358   2.771   2.841   5.661  0.4297 -0.2221 -3.1413
 4633SOL    HW225359   2.897   2.865   5.598  2.5842  0.4820  1.3492
 4634SOL     OW25360   3.108   1.763   8.208  0.2856 -0.0461 -0.0812
 4634SOL    HW125361   3.050   1.709   8.155  0.0564 -0.4084  0.5416
 4634SOL    HW225362   3.043   1.813   8.258  2.8282  1.0109  2.1444
 4635SOL     OW25363   2.390   0.147   6.320  0.2116  0.5740  0.5762
 4635SOL    HW125364   2.486   0.154   6.324  0.3522 -1.1727  0.1152
 4635SOL    HW225365   2.378   0.078   6.385 -1.5589  0.2670 -0.0901
 4636SOL     OW25366   0.177   0.215   4.115  0.3304 -0.0967 -0.2661
 4636SOL    HW125367   0.192   0.178   4.028  1.9793 -1.8490  0.7664
 4636SOL    HW225368   0.082   0.213   4.121  0.3611 -0.9692 -0.0961
 4637SOL     OW25369   2.977   3.805  13.018  0.6338 -0.1857 -0.5064
 4637SOL    HW125370   2.946   3.767  12.936  0.6000  0.0107 -0.5843
 4637SOL    HW225371   2.921   3.881  13.028 -0.1318 -0.8049 -0.1339
 4638SOL     OW25372   2.500   2.640   5.407 -0.0441  0.3432 -0.2009
 4638SOL    HW125373   2.453   2.570   5.362  3.2153 -1.6753 -0.4563
 4638SOL    HW225374   2.437   2.665   5.475  0.0154  2.2945 -0.8505
 4639SOL     OW25375   3.238   2.818  17.230 -0.5805  0.7531  0.2440
 4639SOL    HW125376   3.214   2.865  17.150  2.7428 -0.4896 -1.4938
 4639SOL    HW225377   3.309   2.872  17.262  0.2470 -0.1580 -0.0339
 4640SOL     OW25378   2.621   2.368   8.326  0.5097 -0.5021 -0.3913
 4640SOL    HW125379   2.533   2.368   8.363  0.8121  1.0219  0.3159
 4640SOL    HW225380   2.674   2.302   8.372 -0.0670 -0.2479  0.6411
 4641SOL     OW25381   4.056   1.613   5.852 -0.0752  0.0065 -0.3340
 4641SOL    HW125382   3.985   1.549   5.841 -0.7333  0.5457  0.7420
 4641SOL    HW225383   4.103   1.606   5.769  1.1792  1.7295  0.2356
 4642SOL     OW25384   3.224   1.506  10.009 -0.5824  0.2061  0.2731
 4642SOL    HW125385   3.217   1.423   9.962 -2.0962  0.6732 -0.3423
 4642SOL    HW225386   3.260   1.482  10.094 -0.1915  0.1456  0.0940
 4643SOL     OW25387   1.376   0.901   5.369 -0.2862  0.0310  0.5301
 4643SOL    HW125388   1.342   0.915   5.457  2.9530  1.8253  1.4939
 4643SOL    HW225389   1.353   0.988   5.337  1.9551  0.3558 -0.2327
 4644SOL     OW25390   0.821   2.106   3.796  0.5505 -0.5827  0.3587
 4644SOL    HW125391   0.910   2.141   3.801 -0.5890  2.6089 -1.6766
 4644SOL    HW225392   0.806   2.121   3.703  0.9609  0.5253  0.4792
 4645SOL     OW25393   1.366   3.277   5.392 -0.4985 -0.4546  0.6541
 4645SOL    HW125394   1.281   3.274   5.348  0.1914 -1.6199 -0.6007
 4645SOL    HW225395   1.396   3.188   5.374  0.6461 -0.1255  0.9039
 4646SOL     OW25396   1.534   1.484   3.947 -0.1841 -0.2228 -0.4445
 4646SOL    HW125397   1.532   1.529   3.863  2.0390 -0.2273 -0.5022
 4646SOL    HW225398   1.439   1.474   3.953 -0.1340 -0.2191  0.3622
 4647SOL     OW25399   0.494   0.603   9.742 -0.0867 -0.2605  0.0330
 4647SOL    HW125400   0.499   0.524   9.688 -2.1012 -0.7546  0.5784
 4647SOL    HW225401   0.445   0.570   9.818  1.1359 -0.1555  0.8697
 4648SOL     OW25402   3.643   4.193   4.828  0.6965 -0.8662 -0.5401
 4648SOL    HW125403   3.676   4.179   4.917 -0.2630  1.0391  0.1102
 4648SOL    HW225404   3.552   4.164   4.828  0.3510  0.2200  1.0496
 4649SOL     OW25405   4.696   3.821   8.053 -0.1449 -0.2284 -0.3038
 4649SOL    HW125406   4.705   3.902   8.102  0.5855 -0.6231  0.2129
 4649SOL    HW225407   4.616   3.833   8.002  0.7186  2.3167 -1.0874
 4650SOL     OW25408   3.981   4.605   6.424 -0.7083  0.3542  0.5277
 4650SOL    HW125409   3.988   4.592   6.330  0.9873  1.6912  0.4691
 4650SOL    HW225410   4.043   4.544   6.465 -1.0883 -0.1989  0.2888
 4651SOL     OW25411   4.344   1.205  11.193  0.2171  0.2291 -0.2297
 4651SOL    HW125412   4.424   1.251  11.218  1.3928 -1.3699 -1.0078
 4651SOL    HW225413   4.285   1.269  11.154 -0.3168 -0.8526 -1.2139
 4652SOL     OW25414   1.560   4.216   9.459 -0.1993 -0.0758  0.0342
 4652SOL    HW125415   1.520   4.154   9.520  0.2275 -0.2153  0.1740
 4652SOL    HW225416   1.584   4.286   9.520  1.0777 -1.3978  1.0522
 4653SOL     OW25417   3.755   0.349   3.546 -0.3952 -0.2626  0.7571
 4653SOL    HW125418   3.692   0.300   3.492  0.0529 -1.3861  1.2558
 4653SOL    HW225419   3.699   0.403   3.601  0.5186 -0.0244  1.4581
 4654SOL     OW25420   2.428   2.346   5.851  0.0866 -0.1643  0.1822
 4654SOL    HW125421   2.473   2.353   5.767  0.5225  2.5098  0.6531
 4654SOL    HW225422   2.495   2.327   5.917 -1.0528 -2.5399  0.6545
 4655SOL     OW25423   4.354   0.062  12.497 -0.7614 -0.5951 -0.5530
 4655SOL    HW125424   4.356   4.704  12.551 -1.0545  0.2008  0.6113
 4655SOL    HW225425   4.259   0.077  12.498 -0.9027 -1.2943 -2.3602
 4656SOL     OW25426   4.162   3.745  10.769  0.3216 -0.7812  0.2383
 4656SOL    HW125427   4.220   3.754  10.845 -0.5647 -0.2507  0.8379
 4656SOL    HW225428   4.134   3.654  10.777 -1.9691  0.0042  1.0955
 4657SOL     OW25429   0.891   2.791   8.755  0.0289  0.3062 -0.0518
 4657SOL    HW125430   0.817   2.824   8.806  0.9787  0.4882  1.2134
 4657SOL    HW225431   0.939   2.871   8.732 -0.2940 -0.4600 -3.4188
 4658SOL     OW25432   4.418   0.024   0.625  0.1394 -0.4308 -0.0448
 4658SOL    HW125433   4.455   4.694   0.697  0.7980  0.3278  0.1567
 4658SOL    HW225434   4.370   0.083   0.683 -1.2608 -0.9144 -0.7127
 4659SOL     OW25435   0.593   1.083   6.217 -0.3838  0.0270  0.0105
 4659SOL    HW125436   0.584   1.023   6.142  0.0676 -1.3772  1.0818
 4659SOL    HW225437   0.634   1.024   6.280  0.8001 -2.0741 -2.6881
 4660SOL     OW25438   2.698   4.186   1.493 -0.2259 -0.1142  0.4383
 4660SOL    HW125439   2.746   4.190   1.410  0.2652  1.0590  0.7717
 4660SOL    HW225440   2.706   4.276   1.524 -1.7971  1.1279 -2.8234
 4661SOL     OW25441   1.063   2.512   2.958  0.1154 -0.0205  0.7299
 4661SOL    HW125442   1.047   2.450   3.029 -1.4107 -1.0592 -0.5369
 4661SOL    HW225443   1.059   2.593   3.009  0.7835 -0.3533  1.3139
 4662SOL     OW25444   2.340   0.115   6.914  0.1299  0.3038  0.3338
 4662SOL    HW125445   2.335   0.200   6.872  1.2481  0.1774 -0.0521
 4662SOL    HW225446   2.416   0.137   6.968  1.0453 -2.2854  0.1103
 4663SOL     OW25447   0.683   0.101   6.218 -0.2021 -0.3395  0.2952
 4663SOL    HW125448   0.595   0.112   6.254 -0.3530  0.2066 -0.2252
 4663SOL    HW225449   0.684   0.176   6.158  1.5107 -1.5390 -1.1578
 4664SOL     OW25450   4.220   0.863  10.076 -0.1532 -0.0205 -0.5100
 4664SOL    HW125451   4.207   0.841   9.983  0.7259 -0.3570 -0.5518
 4664SOL    HW225452   4.132   0.898  10.088 -0.8066 -1.2560 -1.6850
 4665SOL     OW25453   0.029   4.194  11.055 -0.3212  0.0068  0.0637
 4665SOL    HW125454   0.028   4.266  10.992 -3.6183 -0.6300 -0.5805
 4665SOL    HW225455   4.655   4.181  11.054 -0.0408 -1.6341 -3.8741
 4666SOL     OW25456   1.141   1.176  10.363  0.0185 -0.1985  0.2886
 4666SOL    HW125457   1.069   1.141  10.311 -1.3302  0.2958  1.8553
 4666SOL    HW225458   1.135   1.123  10.442 -2.5955  2.8218  2.0798
 4667SOL     OW25459   0.893   3.827   9.460  0.0585  0.4715 -0.5550
 4667SOL    HW125460   0.845   3.866   9.386  0.0016  0.7665 -0.3596
 4667SOL    HW225461   0.844   3.859   9.535  2.9613  0.0269  1.5039
 4668SOL     OW25462   1.264   0.494   5.475 -0.0702 -0.1797  0.1607
 4668SOL    HW125463   1.199   0.555   5.440  2.1351  1.8764 -0.2941
 4668SOL    HW225464   1.251   0.496   5.570 -0.5380 -0.6917  0.1140
 4669SOL     OW25465   1.255   1.738   6.123 -0.0670  0.3014 -0.4842
 4669SOL    HW125466   1.225   1.781   6.203 -0.3998  0.7569 -0.8567
 4669SOL    HW225467   1.240   1.803   6.054 -2.0974  0.2273 -0.1098
 4670SOL     OW25468   0.280   1.059   8.850 -0.1186 -0.1385 -0.0789
 4670SOL    HW125469   0.211   1.030   8.792  0.5062 -1.4061 -0.1763
 4670SOL    HW225470   0.362   1.034   8.807  0.5525 -0.0310  1.1096
 4671SOL     OW25471   0.485   0.875  13.996 -0.4524  0.2360 -0.3865
 4671SOL    HW125472   0.495   0.936  13.922 -0.6770  1.7477  0.8306
 4671SOL    HW225473   0.412   0.825  13.960 -0.0381 -0.2861 -0.5055
 4672SOL     OW25474   2.316   2.634  11.512 -0.5815 -0.0326 -0.2150
 4672SOL    HW125475   2.404   2.623  11.546 -1.6166 -4.1051  1.1992
 4672SOL    HW225476   2.283   2.705  11.566  2.4589  2.4510 -1.6926
 4673SOL     OW25477   0.749   1.316  12.079 -0.1024 -0.5393 -0.2523
 4673SOL    HW125478   0.734   1.394  12.024  0.1142 -1.0496 -1.0443
 4673SOL    HW225479   0.679   1.319  12.143  0.2694 -0.2731  0.1383
 4674SOL     OW25480   3.083   3.403   5.162 -0.3629 -0.2844  0.0918
 4674SOL    HW125481   3.155   3.356   5.119 -1.5047 -1.6504 -0.3258
 4674SOL    HW225482   3.076   3.488   5.119 -0.3256  0.2465  1.1470
 4675SOL     OW25483   4.044   1.344  13.138 -0.3676  0.2105 -0.2822
 4675SOL    HW125484   3.996   1.391  13.207 -3.2730 -2.2344 -0.6551
 4675SOL    HW225485   3.973   1.282  13.126  0.4959 -1.0183  0.9003
 4676SOL     OW25486   0.279   3.168   8.305 -0.3110  0.2398  0.3166
 4676SOL    HW125487   0.245   3.257   8.299 -0.8584 -0.0503 -0.9664
 4676SOL    HW225488   0.192   3.131   8.320  0.3158 -0.1870  2.8213
 4677SOL     OW25489   2.878   1.029   6.934 -0.5190 -0.2630 -0.3600
 4677SOL    HW125490   2.841   1.097   6.990 -0.4397  0.4803 -1.2065
 4677SOL    HW225491   2.944   1.085   6.894 -0.5216  0.1387  0.2025
 4678SOL     OW25492   2.161   0.072   0.503 -0.3179  0.5679 -0.1448
 4678SOL    HW125493   2.078   0.046   0.543 -0.8248 -1.2632 -2.3784
 4678SOL    HW225494   2.142   0.144   0.442  0.4306 -0.1725 -1.2596
 4679SOL     OW25495   4.310   3.023  11.176 -0.3830 -0.0262  0.6589
 4679SOL    HW125496   4.396   3.026  11.218 -0.5420  0.8424  0.9157
 4679SOL    HW225497   4.338   3.081  11.105 -1.5035  1.4152  1.4199
 4680SOL     OW25498   3.775   4.232   6.883  0.1209 -0.5164 -0.2949
 4680SOL    HW125499   3.807   4.321   6.897  1.8921 -0.8121 -2.3239
 4680SOL    HW225500   3.781   4.222   6.788 -0.9027 -0.0951 -0.3996
 4681SOL     OW25501   2.928   0.200   4.697 -0.0792  0.0240 -0.1292
 4681SOL    HW125502   3.024   0.202   4.693 -0.1876  3.0176 -0.8387
 4681SOL    HW225503   2.916   0.283   4.743 -1.2890 -0.0210 -0.3645
 4682SOL     OW25504   0.473   0.462   2.594 -0.2939  0.6209  0.3435
 4682SOL    HW125505   0.489   0.423   2.508 -0.1114  0.4972  0.4350
 4682SOL    HW225506   0.389   0.423   2.618  0.5141 -0.3504  1.5534
 4683SOL     OW25507   2.081   2.839   3.212 -0.3144 -0.3823  0.3101
 4683SOL    HW125508   2.006   2.894   3.188 -0.6011 -0.6007  0.6946
 4683SOL    HW225509   2.040   2.802   3.290 -0.3443 -1.0855 -0.0432
 4684SOL     OW25510   3.619   4.456   1.262 -0.6243  1.3731  0.0285
 4684SOL    HW125511   3.683   4.427   1.328 -1.8747  0.8728  1.0166
 4684SOL    HW225512   3.644   4.548   1.258  2.3927  0.5241 -0.5346
 4685SOL     OW25513   3.532   1.142   6.102 -0.4443  0.1463 -0.1633
 4685SOL    HW125514   3.448   1.120   6.063 -1.9222  3.8064  0.9034
 4685SOL    HW225515   3.491   1.204   6.163 -0.9981  0.5373 -0.9311
 4686SOL     OW25516   2.792   2.264  11.863  0.5633  0.5567 -0.2799
 4686SOL    HW125517   2.709   2.261  11.814 -1.2207 -1.8869  2.8576
 4686SOL    HW225518   2.844   2.213  11.801  0.3356 -0.3465  0.2752
 4687SOL     OW25519   0.484   2.316   8.865  0.4300 -0.3420  0.1567
 4687SOL    HW125520   0.510   2.241   8.917 -0.3097 -1.0881 -0.5431
 4687SOL    HW225521   0.453   2.374   8.935  0.9465  2.0220 -1.5721
 4688SOL     OW25522   0.203   4.435  16.546  0.1396 -0.0260  0.2862
 4688SOL    HW125523   0.228   4.528  16.551  2.4435 -0.6768  0.7530
 4688SOL    HW225524   0.116   4.432  16.506  0.3733 -0.9452 -0.1408
 4689SOL     OW25525   0.943   0.275  16.369 -0.0518 -0.0872 -0.2197
 4689SOL    HW125526   0.936   0.320  16.284 -1.6771 -0.4724 -0.2891
 4689SOL    HW225527   1.020   0.325  16.396 -0.8289  0.7580  0.4251
 4690SOL     OW25528   1.553   0.869  12.314 -0.0065 -0.4472 -0.0302
 4690SOL    HW125529   1.608   0.791  12.321 -2.4194 -1.9292  1.9668
 4690SOL    HW225530   1.479   0.811  12.299 -1.1520  1.0633 -0.1943
 4691SOL     OW25531   0.734   2.094  16.644 -0.3186  0.6601 -0.2394
 4691SOL    HW125532   0.796   2.141  16.589  0.3081  0.4121  0.2584
 4691SOL    HW225533   0.656   2.095  16.589  0.4146  0.9619 -1.2709
 4692SOL     OW25534   0.915   2.970   9.696  0.3452  0.2263  0.2105
 4692SOL    HW125535   0.919   2.920   9.778 -0.1072  1.5098  1.0118
 4692SOL    HW225536   0.825   2.995   9.678  0.6634 -0.3314 -2.1520
 4693SOL     OW25537   1.446   3.671  13.021 -0.1908  0.5201  0.2381
 4693SOL    HW125538   1.474   3.604  13.083  1.2366 -0.2255 -1.1834
 4693SOL    HW225539   1.440   3.613  12.944 -0.0776  1.5246 -0.5347
 4694SOL     OW25540   4.624   2.595  15.991 -0.1773  0.3768 -0.0495
 4694SOL    HW125541   4.716   2.573  16.010 -0.4590 -0.0443  0.8261
 4694SOL    HW225542   4.581   2.528  16.044 -0.8582  1.9229  1.3307
 4695SOL     OW25543   3.636   4.142   6.100  0.2852 -0.1014  0.3232
 4695SOL    HW125544   3.604   4.065   6.052 -0.3348 -0.3511  1.1414
 4695SOL    HW225545   3.674   4.192   6.028  1.3537  0.7803  1.4927
 4696SOL     OW25546   2.377   2.777   8.520 -0.3235  0.1905  0.1203
 4696SOL    HW125547   2.388   2.854   8.465  1.9292  0.2529  0.6742
 4696SOL    HW225548   2.432   2.807   8.592  0.7646  0.3173 -0.7668
 4697SOL     OW25549   1.846   0.591  11.076 -0.1060 -0.3353 -0.4326
 4697SOL    HW125550   1.904   0.564  11.005 -0.6213 -0.1791 -0.9148
 4697SOL    HW225551   1.843   0.686  11.062 -0.0392  0.2152  3.2580
 4698SOL     OW25552   3.687   1.278   4.177 -0.2701  0.0376  0.1578
 4698SOL    HW125553   3.634   1.337   4.124 -0.5014 -0.5435 -0.2637
 4698SOL    HW225554   3.613   1.239   4.224 -1.0764 -0.2828 -1.3869
 4699SOL     OW25555   1.223   0.378   4.969  0.1337 -0.0381 -0.4768
 4699SOL    HW125556   1.268   0.349   4.890  1.2014  2.3326 -0.7601
 4699SOL    HW225557   1.214   0.289   5.001 -0.5985  0.1001 -0.2866
 4700SOL     OW25558   3.952   4.320  17.510 -0.6082  0.4705  0.1593
 4700SOL    HW125559   3.859   4.300  17.505 -0.8650  1.6671  0.2547
 4700SOL    HW225560   3.980   4.250  17.569 -2.8410 -1.1071 -0.6582
 4701SOL     OW25561   3.649   1.324   2.949  0.0020  0.8857 -0.2209
 4701SOL    HW125562   3.641   1.296   2.858 -1.3924  2.2842 -0.5305
 4701SOL    HW225563   3.739   1.354   2.938  0.8206 -1.6429 -0.6114
 4702SOL     OW25564   3.990   1.296   3.352 -0.2839 -0.0566 -0.2400
 4702SOL    HW125565   3.914   1.238   3.363  0.7176 -1.2728  0.2915
 4702SOL    HW225566   4.055   1.239   3.311  0.1502  2.0749 -2.5009
 4703SOL     OW25567   3.775   3.343  13.831 -0.3238  0.2039  1.2064
 4703SOL    HW125568   3.822   3.365  13.911 -1.1128 -0.6494  1.9055
 4703SOL    HW225569   3.705   3.409  13.830  0.8476  1.4279 -0.0953
 4704SOL     OW25570   0.187   4.610   9.129  0.0491 -0.4306 -0.4098
 4704SOL    HW125571   0.156   4.566   9.208  0.6452  0.2163  0.1931
 4704SOL    HW225572   0.236   4.681   9.172 -2.9683  0.8284  0.9576
 4705SOL     OW25573   3.378   3.164   0.980  0.1184  0.2419  0.3059
 4705SOL    HW125574   3.401   3.089   0.925  2.3098 -0.0374  1.5914
 4705SOL    HW225575   3.388   3.125   1.067 -2.7709  1.0526  1.0153
 4706SOL     OW25576   2.479   3.280  14.700  0.5669 -0.0864 -0.2183
 4706SOL    HW125577   2.391   3.258  14.670  0.4882 -0.4611  0.2856
 4706SOL    HW225578   2.524   3.202  14.668 -1.1938 -1.6044  0.9944
 4707SOL     OW25579   1.384   3.706   9.297  0.1889 -0.6025 -0.5517
 4707SOL    HW125580   1.427   3.682   9.214  0.9389  0.3884 -0.4585
 4707SOL    HW225581   1.329   3.773   9.256  0.3307 -0.9540 -1.3265
 4708SOL     OW25582   3.065   3.327   9.307 -0.0618 -0.7967 -0.1103
 4708SOL    HW125583   3.067   3.411   9.261  1.7800 -0.8990 -0.2219
 4708SOL    HW225584   2.998   3.350   9.372 -1.3583 -0.5758 -1.5176
 4709SOL     OW25585   2.929   3.363   4.313  0.5423  0.3566  0.1680
 4709SOL    HW125586   2.981   3.434   4.274 -1.1970  1.3792 -0.3156
 4709SOL    HW225587   2.919   3.380   4.406  2.4843  0.9304  0.2698
 4710SOL     OW25588   0.989   0.032   5.299 -0.2491 -0.9192 -0.2075
 4710SOL    HW125589   0.992   4.688   5.370  2.4778 -0.6452 -0.0748
 4710SOL    HW225590   1.079   0.065   5.302 -0.2116 -1.0447  0.0892
 4711SOL     OW25591   3.601   2.352   3.208  0.0067  0.9052 -0.1547
 4711SOL    HW125592   3.613   2.332   3.300  0.2499  0.6322 -0.2447
 4711SOL    HW225593   3.678   2.300   3.184 -0.1660  0.1868  0.8488
 4712SOL     OW25594   4.221   2.706   1.958  0.0911  0.4009 -0.0205
 4712SOL    HW125595   4.231   2.730   2.050 -1.0494  3.3061 -0.6368
 4712SOL    HW225596   4.274   2.627   1.960 -2.1756 -1.1037  0.6358
 4713SOL     OW25597   3.286   2.630   7.844  0.3581  0.5922 -0.3237
 4713SOL    HW125598   3.323   2.556   7.796 -0.6856 -1.2001  1.6562
 4713SOL    HW225599   3.368   2.665   7.879  1.6738 -2.1318 -0.7165
 4714SOL     OW25600   3.555   0.491  15.015 -0.2456 -0.6604 -0.0528
 4714SOL    HW125601   3.566   0.517  14.924 -0.4746  1.5060  0.5401
 4714SOL    HW225602   3.465   0.521  15.027  0.3828  0.9307  0.7075
 4715SOL     OW25603   1.908   3.711   4.323  0.4657 -0.1378  0.1741
 4715SOL    HW125604   1.876   3.621   4.329 -2.7096  0.9850  0.0216
 4715SOL    HW225605   1.894   3.720   4.229 -0.4412 -1.0956  0.2201
 4716SOL     OW25606   2.509   2.730  10.067  0.3407 -0.3494  0.0728
 4716SOL    HW125607   2.507   2.682  10.149 -0.2876 -0.1977  0.1499
 4716SOL    HW225608   2.584   2.685  10.028  0.8797  0.0226  0.6955
 4717SOL     OW25609   2.903   2.477   0.228  0.1421 -0.3096  0.2474
 4717SOL    HW125610   2.826   2.455   0.176 -0.5701 -1.2171  1.6906
 4717SOL    HW225611   2.970   2.444   0.168 -2.6102 -0.7920 -2.5558
 4718SOL     OW25612   2.808   4.430   8.446  0.2622 -0.6602 -0.2052
 4718SOL    HW125613   2.763   4.505   8.486  1.4196 -0.0408 -0.0817
 4718SOL    HW225614   2.737   4.369   8.466 -0.0905 -0.3370 -0.4489
 4719SOL     OW25615   2.481   0.549   4.901 -0.3851  0.1063  0.4946
 4719SOL    HW125616   2.399   0.598   4.899  0.2203  1.0830 -1.3377
 4719SOL    HW225617   2.499   0.550   4.807  1.1179 -2.6846  0.7395
 4720SOL     OW25618   1.847   4.225  16.650  0.3233 -0.0037 -0.0944
 4720SOL    HW125619   1.862   4.229  16.556  1.7249 -0.9954  0.0817
 4720SOL    HW225620   1.836   4.131  16.660 -1.7446  0.4073  1.5365
 4721SOL     OW25621   0.488   3.395  17.145  0.0528  0.2320 -0.7744
 4721SOL    HW125622   0.425   3.329  17.114 -0.5069  0.6741 -0.5881
 4721SOL    HW225623   0.572   3.355  17.126 -1.1753 -1.9516 -1.6106
 4722SOL     OW25624   3.775   2.131  12.748  0.3752 -0.1909  0.0921
 4722SOL    HW125625   3.817   2.138  12.662  1.7392  1.9940  0.9241
 4722SOL    HW225626   3.768   2.226  12.762 -1.1858 -0.1941 -0.7104
 4723SOL     OW25627   3.501   0.474  13.402 -0.2078 -0.1978 -0.2014
 4723SOL    HW125628   3.454   0.493  13.483  3.1569  0.6165  1.5526
 4723SOL    HW225629   3.517   0.566  13.381 -0.0994  0.0524  0.9634
 4724SOL     OW25630   3.902   1.914   5.687 -0.8427  0.0094 -0.2931
 4724SOL    HW125631   3.832   1.966   5.727 -0.9189  0.0839 -0.5227
 4724SOL    HW225632   3.850   1.869   5.621 -1.0224 -3.3246  2.1091
 4725SOL     OW25633   2.433   3.942   1.547  0.4707  0.0394  0.0882
 4725SOL    HW125634   2.367   3.950   1.616 -1.3773 -2.6532 -1.3145
 4725SOL    HW225635   2.513   3.949   1.598 -0.2641 -1.3368  1.4545
 4726SOL     OW25636   3.410   4.125   2.166  0.3952  0.5052  0.1879
 4726SOL    HW125637   3.394   4.120   2.260 -1.0354 -0.9754 -0.1402
 4726SOL    HW225638   3.505   4.130   2.165  0.5495 -2.3171  1.1826
 4727SOL     OW25639   2.253   0.158   1.208  0.1229  0.2460  0.0471
 4727SOL    HW125640   2.169   0.188   1.243 -0.9394 -0.5427 -1.8177
 4727SOL    HW225641   2.267   0.209   1.128  0.8914 -0.8208 -0.5010
 4728SOL     OW25642   1.499   3.764  15.718  0.2017  0.3941  0.2187
 4728SOL    HW125643   1.495   3.731  15.629  1.5813  0.8945 -0.0323
 4728SOL    HW225644   1.484   3.859  15.712  4.4797  1.1351  1.2479
 4729SOL     OW25645   2.673   0.251   1.164 -0.1181  0.6844 -0.2509
 4729SOL    HW125646   2.653   0.158   1.169  1.8698  0.2257 -0.6025
 4729SOL    HW225647   2.606   0.291   1.220  0.3416  2.2749 -0.8361
 4730SOL     OW25648   4.671   4.496  13.595 -0.3105  0.3823  0.2527
 4730SOL    HW125649   0.045   4.493  13.578 -0.1265 -2.5136  1.7719
 4730SOL    HW225650   4.666   4.453  13.680  0.0597 -0.6788 -0.2516
 4731SOL     OW25651   3.182   4.626   9.850  0.1646  0.0935  0.8893
 4731SOL    HW125652   3.206   4.595   9.763  0.5735  0.1802  0.9724
 4731SOL    HW225653   3.165   4.546   9.901 -1.9246 -0.2466 -0.3451
 4732SOL     OW25654   2.291   0.311   6.716 -0.2243  0.2878  0.0427
 4732SOL    HW125655   2.304   0.306   6.621 -1.2443 -1.1398 -0.0090
 4732SOL    HW225656   2.251   0.398   6.722  0.3618  0.3961  2.1705
 4733SOL     OW25657   4.291   3.828   7.534  0.2731 -0.3925  0.6701
 4733SOL    HW125658   4.348   3.752   7.551 -0.8057 -1.2504  0.4605
 4733SOL    HW225659   4.261   3.813   7.444 -0.1299 -0.0696  0.7544
 4734SOL     OW25660   0.908   1.410   3.122  0.1679 -0.2288 -0.2031
 4734SOL    HW125661   0.908   1.364   3.206  0.5122 -0.1011 -0.1355
 4734SOL    HW225662   0.829   1.379   3.077 -0.7887 -3.1986  3.4947
 4735SOL     OW25663   2.895   4.020   0.345  0.2287  0.1743  0.1189
 4735SOL    HW125664   2.978   3.988   0.310 -0.6991 -0.7316 -1.2898
 4735SOL    HW225665   2.902   4.020   0.440  1.0874  4.1669  0.0352
 4736SOL     OW25666   2.839   1.482  16.896 -0.4893 -0.2741 -0.4721
 4736SOL    HW125667   2.931   1.509  16.893 -0.2968 -0.7295  1.7007
 4736SOL    HW225668   2.827   1.461  16.988 -0.0537 -0.8713 -0.5526
 4737SOL     OW25669   4.432   4.298   6.668 -0.2095  0.5387 -0.3461
 4737SOL    HW125670   4.446   4.218   6.618  0.7044 -1.9668  3.9430
 4737SOL    HW225671   4.439   4.367   6.602  0.4195  1.0121  0.2130
 4738SOL     OW25672   1.283   2.238   3.448 -0.1379 -0.5108  0.1956
 4738SOL    HW125673   1.193   2.211   3.431 -0.4381  0.2561  0.5407
 4738SOL    HW225674   1.270   2.291   3.527  2.0081 -1.4403  1.1511
 4739SOL     OW25675   4.154   4.234   5.953  0.6400  0.3303 -0.3721
 4739SOL    HW125676   4.218   4.248   6.023  0.2662  1.1972 -0.2136
 4739SOL    HW225677   4.081   4.282   5.992  1.3990  1.7145 -0.6642
 4740SOL     OW25678   3.686   4.066   9.182  0.0340 -0.0218  0.3632
 4740SOL    HW125679   3.644   4.033   9.103 -0.7315  1.5741  0.0853
 4740SOL    HW225680   3.624   4.138   9.196  0.5308  0.1443  1.6847
 4741SOL     OW25681   2.122   3.360   0.894  1.1088 -0.2220  0.3030
 4741SOL    HW125682   2.217   3.358   0.887  1.1959 -1.7301  1.8786
 4741SOL    HW225683   2.109   3.453   0.916 -1.3173 -0.1278 -1.5383
 4742SOL     OW25684   2.301   4.452   4.351  0.4676  0.1336  0.6274
 4742SOL    HW125685   2.250   4.461   4.270  1.1951  0.5134  0.2136
 4742SOL    HW225686   2.254   4.403   4.417  0.6237 -0.8813 -0.0209
 4743SOL     OW25687   1.756   2.891   8.018 -0.5292  0.0827  0.7314
 4743SOL    HW125688   1.844   2.889   7.979 -0.2062  0.0428  1.4486
 4743SOL    HW225689   1.790   2.901   8.107  2.9433 -0.6865 -0.4839
 4744SOL     OW25690   0.492   1.718   1.787 -0.0467  0.0822 -0.2980
 4744SOL    HW125691   0.518   1.674   1.868 -1.7247  0.1925  0.2978
 4744SOL    HW225692   0.410   1.682   1.754 -0.7312 -0.5784  2.1312
 4745SOL     OW25693   1.461   2.437   6.934 -0.0003  0.5044  0.1293
 4745SOL    HW125694   1.536   2.396   6.978  0.2633  0.1605 -0.6370
 4745SOL    HW225695   1.491   2.524   6.960 -0.2426  0.8858 -0.8683
 4746SOL     OW25696   4.383   1.581  17.116  0.0336 -0.0598  0.0694
 4746SOL    HW125697   4.441   1.604  17.189  2.2141  0.1632 -1.7220
 4746SOL    HW225698   4.412   1.493  17.091  3.3296  0.5635  1.6722
 4747SOL     OW25699   3.372   0.181   5.956  0.1210  0.1083  0.2155
 4747SOL    HW125700   3.390   0.106   5.899  1.9058  0.5679  0.1878
 4747SOL    HW225701   3.459   0.198   5.992  0.5248 -1.1508 -0.1337
 4748SOL     OW25702   2.533   0.281   4.960 -0.5200  0.2405  0.1954
 4748SOL    HW125703   2.474   0.244   4.894 -0.9002  0.7719  0.2373
 4748SOL    HW225704   2.536   0.376   4.947  0.6952 -0.0464 -1.6584
 4749SOL     OW25705   4.503   1.441   1.299 -0.2775  0.3843 -0.3267
 4749SOL    HW125706   4.583   1.421   1.250  0.3232 -0.0958  0.8574
 4749SOL    HW225707   4.533   1.520   1.344  1.2825 -0.2384 -0.2831
 4750SOL     OW25708   1.753   3.012   7.221  0.5915  0.0104  0.4636
 4750SOL    HW125709   1.777   2.970   7.138  1.2933 -0.8736  1.1084
 4750SOL    HW225710   1.701   2.943   7.263  0.2724 -1.8040 -2.9550
 4751SOL     OW25711   2.308   1.943   5.950  0.7113  0.3961 -0.4179
 4751SOL    HW125712   2.252   1.866   5.938  1.6851 -0.4608  0.4848
 4751SOL    HW225713   2.315   1.954   6.045  0.4841 -0.3190 -0.3219
 4752SOL     OW25714   0.121   2.355   8.960 -0.4121 -0.0375  0.1851
 4752SOL    HW125715   0.061   2.314   8.897  0.2956 -0.3511 -0.2856
 4752SOL    HW225716   0.186   2.402   8.908 -0.6970  0.5106  0.3307
 4753SOL     OW25717   1.192   1.300   3.319 -0.2006  0.4688 -0.9022
 4753SOL    HW125718   1.181   1.307   3.224 -0.2437 -0.1525 -0.9442
 4753SOL    HW225719   1.100   1.303   3.345  0.3460 -0.1098  1.1119
 4754SOL     OW25720   1.062   2.343  13.880 -0.1024  0.0458 -0.7986
 4754SOL    HW125721   0.967   2.345  13.867  0.1881  1.2720 -2.8913
 4754SOL    HW225722   1.076   2.432  13.912  0.6465 -0.3199 -0.1302
 4755SOL     OW25723   4.502   1.375  10.233 -0.1123  0.5035 -0.7366
 4755SOL    HW125724   4.537   1.408  10.316 -2.0850  1.8207 -0.4202
 4755SOL    HW225725   4.562   1.304  10.212  0.2566  0.5400  0.1853
 4756SOL     OW25726   1.248   3.638   4.331  0.0014 -0.4380  0.2306
 4756SOL    HW125727   1.295   3.676   4.256  1.7547  0.7439  1.9251
 4756SOL    HW225728   1.199   3.714   4.360 -0.2686  0.0562 -1.5084
 4757SOL     OW25729   3.201   3.672   3.162 -0.3285  0.3226 -0.3223
 4757SOL    HW125730   3.254   3.706   3.235  0.7769  2.6359 -2.2074
 4757SOL    HW225731   3.244   3.587   3.157  0.6358  0.7024  1.4504
 4758SOL     OW25732   2.139   2.485  17.554 -0.1236  0.1360  0.3688
 4758SOL    HW125733   2.076   2.423  17.517 -0.7437  0.8998  0.1331
 4758SOL    HW225734   2.090   2.566  17.569 -0.5457 -0.5705  2.6770
 4759SOL     OW25735   4.584   2.534   8.471 -0.2056 -0.5228 -0.0186
 4759SOL    HW125736   4.650   2.597   8.442  2.5905 -2.7996  1.3825
 4759SOL    HW225737   4.555   2.578   8.550 -0.1397  1.6117 -1.2018
 4760SOL     OW25738   4.123   0.518  16.735  0.0056  0.1559 -0.0644
 4760SOL    HW125739   4.177   0.445  16.764  0.2815  0.3556 -0.0724
 4760SOL    HW225740   4.094   0.555  16.818  1.8430  1.7674 -0.1600
 4761SOL     OW25741   3.627   2.183   7.973 -0.2959 -0.0297 -0.7144
 4761SOL    HW125742   3.660   2.160   8.061  2.0059  0.7289 -1.3695
 4761SOL    HW225743   3.712   2.196   7.931  0.9605 -1.0583  1.4888
 4762SOL     OW25744   1.602   3.478   2.023 -0.3343  0.7490  0.2141
 4762SOL    HW125745   1.603   3.556   2.077 -0.7287  2.1095 -1.7440
 4762SOL    HW225746   1.653   3.418   2.078  0.7085  0.0498 -1.4850
 4763SOL     OW25747   2.967   1.101   6.626 -0.5773  0.4107  0.2056
 4763SOL    HW125748   2.942   1.026   6.571 -3.1283 -0.1607  2.1212
 4763SOL    HW225749   2.890   1.095   6.684 -0.5363 -0.0852  0.2054
 4764SOL     OW25750   2.489   0.661   2.881  0.5663 -0.3123  0.2488
 4764SOL    HW125751   2.457   0.610   2.807  3.0579 -1.3866 -0.0705
 4764SOL    HW225752   2.576   0.623   2.888  0.2451 -1.4548 -2.0665
 4765SOL     OW25753   2.462   3.628  11.061 -0.2944 -0.7542  0.2349
 4765SOL    HW125754   2.488   3.538  11.037  0.6311 -0.1976 -0.8541
 4765SOL    HW225755   2.367   3.626  11.061 -0.2693 -2.4735 -0.1404
 4766SOL     OW25756   1.735   3.722   5.391 -0.4972  0.5345 -0.1120
 4766SOL    HW125757   1.647   3.712   5.427 -0.5624 -1.1477 -0.7674
 4766SOL    HW225758   1.781   3.734   5.475 -0.1537 -1.2065 -0.0484
 4767SOL     OW25759   3.120   0.040   0.146 -0.0462  0.2071 -0.1328
 4767SOL    HW125760   3.099   0.124   0.185 -1.2965 -0.2920  0.2695
 4767SOL    HW225761   3.090   0.040   0.055 -0.0670  0.2642 -0.1257
 4768SOL     OW25762   4.575   3.480   4.996  0.5175 -0.4769 -0.3267
 4768SOL    HW125763   4.632   3.479   5.073  0.1146 -0.2357 -0.0252
 4768SOL    HW225764   4.548   3.389   4.986  1.0021 -0.4455 -1.8416
 4769SOL     OW25765   0.274   2.850  11.660  0.4528 -0.3918 -0.1238
 4769SOL    HW125766   0.178   2.846  11.659  0.4168  0.4222 -0.1263
 4769SOL    HW225767   0.300   2.837  11.569 -0.0249 -0.1926 -0.2898
 4770SOL     OW25768   3.131   0.037   5.131 -0.3797 -0.3378  0.2301
 4770SOL    HW125769   3.171   0.124   5.134  0.8772 -0.9385  0.7541
 4770SOL    HW225770   3.123   0.020   5.037 -0.8032 -0.1779  0.2364
 4771SOL     OW25771   2.805   3.851   9.558 -0.0476 -0.2880 -0.5562
 4771SOL    HW125772   2.818   3.899   9.640 -0.7598 -1.9679  0.5468
 4771SOL    HW225773   2.848   3.918   9.505  0.8488  0.1078  0.6919
 4772SOL     OW25774   4.029   2.003  13.581 -0.3809 -0.4380 -0.0119
 4772SOL    HW125775   4.095   1.934  13.572  2.1547  2.1109 -1.0851
 4772SOL    HW225776   3.959   1.962  13.632 -2.2087  0.1016 -2.0610
 4773SOL     OW25777   2.633   4.312   7.815  0.0911 -0.0197 -0.3079
 4773SOL    HW125778   2.673   4.391   7.779 -0.4849  0.5824  0.3610
 4773SOL    HW225779   2.573   4.291   7.743 -0.5905 -0.4594  0.3906
 4774SOL     OW25780   0.673   0.999   6.688 -0.2368 -0.1619  0.0443
 4774SOL    HW125781   0.665   1.071   6.751 -2.0041 -1.0745  0.8369
 4774SOL    HW225782   0.695   1.032   6.601  0.9447  0.1980  0.4794
 4775SOL     OW25783   0.731   0.117  16.279 -0.1065 -0.0481 -0.2920
 4775SOL    HW125784   0.782   0.044  16.313  3.4466  2.0921 -0.9470
 4775SOL    HW225785   0.798   0.183  16.298  0.4305 -0.4742 -0.7072
 4776SOL     OW25786   2.263   3.395   7.759  0.6785  0.2056  0.5590
 4776SOL    HW125787   2.354   3.409   7.786  1.0288  0.0012 -0.5275
 4776SOL    HW225788   2.220   3.400   7.845 -0.6481  0.1702 -0.0973
 4777SOL     OW25789   2.930   1.930  12.679  0.5779 -0.0645  0.1893
 4777SOL    HW125790   3.009   1.937  12.733 -0.5358  0.6766  1.7152
 4777SOL    HW225791   2.889   1.849  12.708 -0.6232  0.4050 -0.2189
 4778SOL     OW25792   0.024   1.103   3.859  0.3485  0.2378 -0.0885
 4778SOL    HW125793   4.699   1.107   3.943 -0.4911  2.6220 -0.6465
 4778SOL    HW225794   4.716   1.185   3.819 -0.6274 -0.0328  0.0528
 4779SOL     OW25795   2.981   2.238   2.790  0.3684  0.5983  0.0310
 4779SOL    HW125796   3.025   2.155   2.768  0.0838  1.1075 -2.4584
 4779SOL    HW225797   3.051   2.301   2.808 -0.7420  1.8173  0.0727
 4780SOL     OW25798   1.775   1.514  15.549 -0.9641  0.2850 -0.1948
 4780SOL    HW125799   1.836   1.587  15.557  1.3719 -1.4477 -2.2523
 4780SOL    HW225800   1.699   1.557  15.589 -0.0244  0.7172  1.1302
 4781SOL     OW25801   4.011   2.363   3.050  0.8112  0.4443 -0.7503
 4781SOL    HW125802   4.027   2.269   3.041 -1.8296 -0.0444 -0.3295
 4781SOL    HW225803   3.945   2.380   2.982 -3.0092  0.2522  2.8858
 4782SOL     OW25804   1.719   0.874  11.370  0.3587 -0.1280  0.8267
 4782SOL    HW125805   1.734   0.926  11.449  0.3333 -1.8171  1.9283
 4782SOL    HW225806   1.716   0.948  11.308  0.0355 -0.4275  0.4803
 4783SOL     OW25807   1.626   2.015   5.307  0.1740  0.2536  0.3907
 4783SOL    HW125808   1.573   2.003   5.385 -0.9200 -0.3319 -0.4405
 4783SOL    HW225809   1.689   2.079   5.341  1.1282  0.2455 -1.3331
 4784SOL     OW25810   3.646   0.160   9.517 -0.4342  0.4079  0.3251
 4784SOL    HW125811   3.701   0.141   9.441 -3.3638 -0.5811 -1.5925
 4784SOL    HW225812   3.699   0.233   9.549 -0.6467  0.4539  0.5752
 4785SOL     OW25813   1.522   0.673   2.107  0.5231  0.6103 -0.7870
 4785SOL    HW125814   1.580   0.605   2.142  1.3692  0.8134 -1.7659
 4785SOL    HW225815   1.437   0.657   2.147  0.4059  2.4089 -0.3177
 4786SOL     OW25816   3.861   0.595   3.778 -0.2755 -0.7085 -0.1644
 4786SOL    HW125817   3.881   0.650   3.702  0.3113  0.2865  0.7099
 4786SOL    HW225818   3.787   0.638   3.821 -2.0378 -2.8362 -1.0330
 4787SOL     OW25819   3.420   3.879   0.859 -0.1634  0.3565 -0.4449
 4787SOL    HW125820   3.360   3.910   0.927 -1.3915 -2.2060 -0.3651
 4787SOL    HW225821   3.494   3.937   0.874 -0.4024  0.1166  1.6680
 4788SOL     OW25822   0.576   3.667   5.009 -0.0196  0.3151  0.8930
 4788SOL    HW125823   0.632   3.599   5.046 -0.0655 -0.7082 -0.9104
 4788SOL    HW225824   0.632   3.686   4.934 -2.5384  1.3402 -0.7341
 4789SOL     OW25825   2.761   3.185   7.411 -0.3029  0.2803 -0.4760
 4789SOL    HW125826   2.740   3.105   7.459  1.6815  1.0836  1.7373
 4789SOL    HW225827   2.680   3.199   7.361 -2.2375 -1.4953  2.1716
 4790SOL     OW25828   1.002   2.343   5.524 -0.3181  0.3623 -0.1906
 4790SOL    HW125829   1.077   2.311   5.573 -0.6701  0.9269  0.7121
 4790SOL    HW225830   0.922   2.320   5.572 -0.2132 -0.1119 -0.2366
 4791SOL     OW25831   4.363   1.059  10.193  0.2165  0.3954  0.6570
 4791SOL    HW125832   4.453   1.029  10.179 -0.3055 -0.6891 -0.3417
 4791SOL    HW225833   4.310   0.988  10.157  2.1232 -1.9059  2.4065
 4792SOL     OW25834   3.558   3.949  13.314 -0.0656 -0.2827 -0.2493
 4792SOL    HW125835   3.480   4.004  13.309  1.9157  2.3961 -1.4235
 4792SOL    HW225836   3.509   3.868  13.297 -1.4962  0.3656  0.8809
 4793SOL     OW25837   4.597   1.126   0.778 -0.5762 -0.1129 -0.0282
 4793SOL    HW125838   4.619   1.087   0.862 -1.4617 -0.0546  0.2241
 4793SOL    HW225839   4.605   1.218   0.802 -0.3945 -0.3810  0.9594
 4794SOL     OW25840   1.884   2.940   6.673 -0.3604  0.0378 -0.9018
 4794SOL    HW125841   1.889   2.846   6.655 -0.3249 -0.0370 -0.4982
 4794SOL    HW225842   1.966   2.972   6.634 -1.1981  3.2166  0.0031
 4795SOL     OW25843   2.099   3.382   9.447 -0.2569  0.2955 -0.4344
 4795SOL    HW125844   2.180   3.332   9.433 -1.1262 -0.6989 -1.8297
 4795SOL    HW225845   2.134   3.466   9.477  1.3919 -0.9577  1.1846
 4796SOL     OW25846   3.406   4.319   1.182  0.1244  0.6321  0.6611
 4796SOL    HW125847   3.395   4.276   1.266 -1.8605  0.2362  0.1923
 4796SOL    HW225848   3.478   4.379   1.203 -0.7286  1.6546  0.6735
 4797SOL     OW25849   1.833   1.815  10.976  0.2982 -0.9297 -0.4452
 4797SOL    HW125850   1.754   1.867  10.994  0.0541 -0.6277 -2.4452
 4797SOL    HW225851   1.897   1.828  11.046 -0.8490  0.5764  0.3377
 4798SOL     OW25852   1.249   3.545   7.783 -0.0336 -0.1881  0.5444
 4798SOL    HW125853   1.191   3.617   7.757  0.4655  0.3351  0.8712
 4798SOL    HW225854   1.195   3.499   7.847 -1.2023  2.2135  1.2946
 4799SOL     OW25855   3.404   1.560   7.420  0.0234  0.5939  0.2275
 4799SOL    HW125856   3.498   1.570   7.436  0.0309  2.1795 -0.7879
 4799SOL    HW225857   3.410   1.470   7.389 -0.3900  1.1321 -1.4387
 4800SOL     OW25858   2.289   2.252   6.383 -0.1414  0.3977  0.1981
 4800SOL    HW125859   2.290   2.292   6.470  1.0052 -0.8693  0.7729
 4800SOL    HW225860   2.212   2.289   6.340 -0.2341 -0.0153  0.0119
 4801SOL     OW25861   0.559   0.652  15.639  0.3809  0.2471 -0.5305
 4801SOL    HW125862   0.604   0.737  15.635  4.1680 -1.8322 -1.9284
 4801SOL    HW225863   0.616   0.611  15.704 -1.2123 -1.0652  0.0216
 4802SOL     OW25864   0.775   0.618   4.018  0.0535 -0.6885 -0.1936
 4802SOL    HW125865   0.795   0.709   4.040 -0.5626 -0.3659 -0.9410
 4802SOL    HW225866   0.682   0.630   3.996 -0.1648 -1.5472  0.2381
 4803SOL     OW25867   3.689   1.970   7.726 -0.5218 -0.0283  0.4942
 4803SOL    HW125868   3.669   1.885   7.765  0.2518 -0.0269  0.8961
 4803SOL    HW225869   3.783   1.977   7.739 -0.2686  1.7399 -2.3289
 4804SOL     OW25870   3.401   1.929   5.321 -0.0164 -0.1977 -0.0601
 4804SOL    HW125871   3.432   1.839   5.324 -0.5242 -0.4003 -1.2045
 4804SOL    HW225872   3.309   1.921   5.299  0.0477 -1.0299 -0.0085
 4805SOL     OW25873   4.589   3.829   6.893  0.6832 -0.1925 -0.3506
 4805SOL    HW125874   4.669   3.840   6.842  1.1501 -2.7820 -0.1581
 4805SOL    HW225875   4.600   3.913   6.937  1.2684 -0.3208 -0.2585
 4806SOL     OW25876   4.401   3.977  16.305 -0.3306  0.3220  0.2573
 4806SOL    HW125877   4.383   3.951  16.215  2.2528  0.0155 -0.1840
 4806SOL    HW225878   4.332   3.927  16.350 -0.1631  0.6579  0.8838
 4807SOL     OW25879   3.940   4.342  15.155  0.0057  0.8779 -0.5966
 4807SOL    HW125880   4.001   4.344  15.229  1.6244 -0.1817 -1.9219
 4807SOL    HW225881   3.913   4.434  15.148 -2.9390  0.1788  1.4480
 4808SOL     OW25882   2.197   2.329   9.285 -0.2027  0.6154  0.1945
 4808SOL    HW125883   2.284   2.316   9.246  0.1542  0.7153  0.9444
 4808SOL    HW225884   2.223   2.394   9.351  0.4360  3.2077 -2.5725
 4809SOL     OW25885   4.151   0.272  14.564  0.7540 -0.0207  0.8181
 4809SOL    HW125886   4.182   0.198  14.511 -0.6924  1.0853 -1.5322
 4809SOL    HW225887   4.202   0.255  14.643  1.7970 -0.3684  0.0631
 4810SOL     OW25888   1.952   3.694   1.878 -0.4614  0.6322  0.4145
 4810SOL    HW125889   1.974   3.601   1.884  1.6616  1.0655 -0.6058
 4810SOL    HW225890   1.960   3.708   1.972 -0.1158 -1.3245  0.6700
 4811SOL     OW25891   1.843   1.858  12.455 -0.3513  0.2509 -0.0298
 4811SOL    HW125892   1.807   1.945  12.475  0.5179  0.8689 -1.1518
 4811SOL    HW225893   1.801   1.849  12.370 -0.8811  1.2993  0.1092
 4812SOL     OW25894   0.475   1.302   6.971  0.0633  0.9533 -0.1701
 4812SOL    HW125895   0.427   1.229   6.930 -0.6988  0.3050  1.8906
 4812SOL    HW225896   0.513   1.252   7.043  0.1187  0.4705 -0.5384
 4813SOL     OW25897   2.012   2.197   6.540 -0.2912  0.6577  0.3308
 4813SOL    HW125898   1.978   2.180   6.628 -1.3524 -1.1252 -0.4205
 4813SOL    HW225899   2.051   2.114   6.514  2.9712  2.2136  0.2775
 4814SOL     OW25900   4.676   3.648   7.675 -0.6904 -0.0508 -0.3407
 4814SOL    HW125901   4.663   3.737   7.709 -1.8178 -0.7886  1.1217
 4814SOL    HW225902   0.047   3.634   7.701 -0.7508  1.6313  0.8034
 4815SOL     OW25903   4.324   1.678   7.273 -0.4120  0.2753  0.3720
 4815SOL    HW125904   4.385   1.624   7.322  0.1028 -0.0187 -0.5955
 4815SOL    HW225905   4.332   1.649   7.182  1.6808  0.5025  0.4866
 4816SOL     OW25906   4.274   1.438  10.865  0.4461  0.6973  0.0986
 4816SOL    HW125907   4.252   1.524  10.831 -1.1496 -0.6887 -2.3674
 4816SOL    HW225908   4.279   1.368  10.800  0.0929  1.5331 -0.8248
 4817SOL     OW25909   4.544   2.170   2.702 -0.0536 -0.7806  0.8624
 4817SOL    HW125910   4.468   2.113   2.708 -1.1196  0.5112 -0.2832
 4817SOL    HW225911   4.604   2.120   2.647  0.5931  1.8095 -0.8241
 4818SOL     OW25912   0.100   1.317   0.098 -0.5542  0.2124 -0.1569
 4818SOL    HW125913   0.155   1.287   0.025  0.3874  0.7026  0.3439
 4818SOL    HW225914   0.138   1.276   0.175  1.1090  0.6505 -0.7310
 4819SOL     OW25915   0.381   1.554  15.634  0.6689 -0.6296 -0.3575
 4819SOL    HW125916   0.320   1.585  15.567 -0.0762  1.8710  1.5017
 4819SOL    HW225917   0.460   1.603  15.613  1.6403 -2.7522 -1.7231
 4820SOL     OW25918   3.597   4.712   9.035 -0.2643  0.4097 -0.2655
 4820SOL    HW125919   3.527   0.048   9.068 -0.4705 -0.0701  0.1232
 4820SOL    HW225920   3.563   4.675   8.954 -0.2619  0.6410 -0.3732
 4821SOL     OW25921   1.018   2.783   7.403  0.1199 -0.3305 -0.0422
 4821SOL    HW125922   1.040   2.735   7.323  0.3414  1.6651 -1.1925
 4821SOL    HW225923   1.043   2.869   7.368 -0.2132 -0.8508 -1.5805
 4822SOL     OW25924   3.101   0.876   5.416  0.0901  0.2219 -0.5672
 4822SOL    HW125925   3.151   0.943   5.465  2.3645 -1.8352 -0.0590
 4822SOL    HW225926   3.037   0.932   5.372 -1.1830 -1.0095 -0.2803
 4823SOL     OW25927   2.866   4.185   2.224  0.6656  0.0083  0.7140
 4823SOL    HW125928   2.786   4.221   2.263  1.5714  0.9100  1.7546
 4823SOL    HW225929   2.927   4.257   2.238  2.2431 -0.5593 -3.4150
 4824SOL     OW25930   2.692   0.598   6.193 -0.2633  0.4081  0.5223
 4824SOL    HW125931   2.645   0.568   6.271 -1.4554 -1.7093 -1.0189
 4824SOL    HW225932   2.627   0.585   6.124  0.6985  0.3979 -0.3847
 4825SOL     OW25933   0.887   2.462   7.433  0.2660 -0.5165  0.1869
 4825SOL    HW125934   0.957   2.417   7.479 -1.0843  0.3931  3.0999
 4825SOL    HW225935   0.915   2.553   7.442 -1.7371  0.3149 -1.8016
 4826SOL     OW25936   4.090   4.574   8.208  0.0451  0.5359  0.5654
 4826SOL    HW125937   4.170   4.523   8.198  0.7107  1.5327  0.8188
 4826SOL    HW225938   4.058   4.557   8.119  3.0132 -0.9548 -0.2011
 4827SOL     OW25939   1.506   3.127   5.088 -0.6539 -0.0384 -0.2088
 4827SOL    HW125940   1.415   3.154   5.071 -0.8592 -0.5630  0.0725
 4827SOL    HW225941   1.491   3.044   5.133  1.9591 -0.5957 -0.3806
 4828SOL     OW25942   2.323   0.782  12.130  0.2443  0.3864 -0.0686
 4828SOL    HW125943   2.390   0.815  12.190  0.1839 -1.0578  0.7795
 4828SOL    HW225944   2.250   0.762  12.188  0.2381 -2.9172 -1.2477
 4829SOL     OW25945   1.188   2.490   5.897 -0.4103 -0.1891 -0.2456
 4829SOL    HW125946   1.128   2.493   5.822 -0.1040  0.8807 -0.4483
 4829SOL    HW225947   1.218   2.401   5.879  0.1679 -0.1645  0.5917
 4830SOL     OW25948   2.918   0.270  15.153  0.4178 -0.4642 -0.4110
 4830SOL    HW125949   2.926   0.214  15.076 -2.2294 -0.9652 -0.3281
 4830SOL    HW225950   3.002   0.315  15.143  0.1092  0.3558  0.7125
 4831SOL     OW25951   0.206   0.978   5.913 -0.0948 -0.4955  0.0833
 4831SOL    HW125952   0.173   0.888   5.915 -2.8958  0.4951 -1.7215
 4831SOL    HW225953   0.130   1.011   5.961 -0.0698  1.7683 -1.4685
 4832SOL     OW25954   0.194   3.246  14.464 -0.0481  0.1148 -0.0048
 4832SOL    HW125955   0.284   3.230  14.494  0.5683  1.5436 -1.0878
 4832SOL    HW225956   0.179   3.333  14.501  0.4694  1.0584 -1.9957
 4833SOL     OW25957   1.954   3.579   5.270  0.3267 -0.4750  0.3851
 4833SOL    HW125958   1.997   3.620   5.345  1.6517 -0.0440 -0.6099
 4833SOL    HW225959   1.866   3.616   5.278  1.0951  1.5108 -0.3334
 4834SOL     OW25960   3.509   2.355   6.488  0.5498  0.8375 -0.5584
 4834SOL    HW125961   3.596   2.321   6.468  1.0087  1.0980  0.9744
 4834SOL    HW225962   3.514   2.348   6.584  1.6571  0.2838 -0.6599
 4835SOL     OW25963   1.713   2.872   3.616  0.4205  0.1727  0.0068
 4835SOL    HW125964   1.736   2.802   3.676  1.4511  0.0711 -0.5156
 4835SOL    HW225965   1.629   2.903   3.651  0.0405 -1.3457  0.4383
 4836SOL     OW25966   2.540   2.425   2.478 -0.0932 -0.4974 -0.7041
 4836SOL    HW125967   2.501   2.339   2.493  1.2076 -0.6239  1.9378
 4836SOL    HW225968   2.633   2.410   2.496  0.1007 -3.7495 -4.3364
 4837SOL     OW25969   0.046   2.315   5.763  0.4156  0.1350 -0.2350
 4837SOL    HW125970   0.093   2.235   5.740  1.2084 -0.2804  2.8129
 4837SOL    HW225971   4.710   2.272   5.827  0.9260  1.0899  0.8571
 4838SOL     OW25972   2.497   1.870  16.167 -0.0060 -0.2607  0.2636
 4838SOL    HW125973   2.485   1.806  16.237 -6.2944  0.0643 -0.5587
 4838SOL    HW225974   2.590   1.858  16.147 -0.6157 -1.8453 -1.6372
 4839SOL     OW25975   3.786   4.016   2.384  0.3742 -0.1049 -0.3661
 4839SOL    HW125976   3.755   4.106   2.374 -3.2848 -1.2270  0.8898
 4839SOL    HW225977   3.825   4.004   2.298 -1.3054 -1.7006 -0.9238
 4840SOL     OW25978   3.001   0.027   7.189 -0.2210 -0.4517  0.5779
 4840SOL    HW125979   2.915   0.066   7.200  1.1075  3.4466 -2.5273
 4840SOL    HW225980   3.031   0.002   7.276  1.8863 -2.2033 -0.6470
 4841SOL     OW25981   2.732   1.228   9.202  0.4148  0.3144 -0.5469
 4841SOL    HW125982   2.658   1.191   9.250  0.3465  0.2253 -0.7216
 4841SOL    HW225983   2.739   1.313   9.245  1.7108 -0.6314  1.0953
 4842SOL     OW25984   3.797   2.699   6.211 -0.5071  0.4341 -0.2298
 4842SOL    HW125985   3.845   2.782   6.205 -2.4267  1.5049 -0.8043
 4842SOL    HW225986   3.740   2.713   6.135 -0.0732  0.2806 -0.5776
 4843SOL     OW25987   2.613   3.496   7.532 -0.3678 -0.2171 -0.1510
 4843SOL    HW125988   2.708   3.487   7.525 -0.3326 -0.9579  1.3448
 4843SOL    HW225989   2.616   3.570   7.592 -0.5409  0.0460 -0.4635
 4844SOL     OW25990   2.583   0.458   7.036  0.8335 -0.0822  0.2499
 4844SOL    HW125991   2.534   0.414   7.105  0.2423  0.2277  0.0257
 4844SOL    HW225992   2.573   0.398   6.961  1.1633  0.8384 -0.5351
 4845SOL     OW25993   0.852   3.909  13.205  0.4524 -0.5447  0.8050
 4845SOL    HW125994   0.906   3.972  13.158 -2.4421  3.3172  2.6115
 4845SOL    HW225995   0.778   3.962  13.235  1.2862  0.4488  1.0849
 4846SOL     OW25996   0.888   0.363  13.370 -0.4892  0.3174  0.1811
 4846SOL    HW125997   0.939   0.316  13.304 -3.0964 -1.3241 -0.6741
 4846SOL    HW225998   0.928   0.447  13.391 -0.0059 -0.5049  2.5213
 4847SOL     OW25999   4.396   2.819   6.674 -0.1681  0.3705 -0.0554
 4847SOL    HW126000   4.329   2.775   6.727  0.6850 -0.6446  0.1749
 4847SOL    HW226001   4.442   2.878   6.734  0.1982  0.7683 -0.7323
 4848SOL     OW26002   1.241   1.794   6.838 -0.0168  0.4054 -0.0087
 4848SOL    HW126003   1.233   1.828   6.927 -2.6626 -1.8674  0.6464
 4848SOL    HW226004   1.152   1.761   6.823 -0.0672 -0.2698  1.7565
 4849SOL     OW26005   0.896   4.523   6.251  0.9257  0.0925 -0.5371
 4849SOL    HW126006   0.829   4.524   6.318  1.2078  1.0642 -0.2646
 4849SOL    HW226007   0.963   4.460   6.278  1.7829  1.1050 -0.2659
 4850SOL     OW26008   0.883   0.849  16.719 -0.3707  0.2916  0.4258
 4850SOL    HW126009   0.875   0.771  16.665 -0.9771  0.6180  0.0366
 4850SOL    HW226010   0.797   0.884  16.696  0.6821  1.2928 -2.0375
 4851SOL     OW26011   4.711   1.241   1.424 -0.0713 -0.7674 -0.5312
 4851SOL    HW126012   4.623   1.210   1.399  0.5391 -2.5404 -0.5003
 4851SOL    HW226013   0.035   1.161   1.451  0.0991 -0.7400 -0.7327
 4852SOL     OW26014   1.261   3.460   4.551 -0.7128  0.2741 -0.3099
 4852SOL    HW126015   1.351   3.427   4.551 -1.2615 -1.2046  1.0477
 4852SOL    HW226016   1.247   3.503   4.466 -1.3687 -0.5704 -0.6288
 4853SOL     OW26017   3.299   3.900   3.678 -0.1695 -0.2702  0.2841
 4853SOL    HW126018   3.242   3.830   3.648 -2.4668  1.7265 -0.0138
 4853SOL    HW226019   3.387   3.863   3.667 -0.4121 -0.9567  0.6465
 4854SOL     OW26020   2.978   2.390  15.236 -0.1082  0.5760 -0.1860
 4854SOL    HW126021   2.987   2.469  15.289 -0.2420  0.9147 -0.6671
 4854SOL    HW226022   3.071   2.374  15.227  0.1395  1.2214  1.1194
 4855SOL     OW26023   2.457   2.825   6.264  0.6100 -1.0110 -0.3099
 4855SOL    HW126024   2.368   2.800   6.286 -0.7876  2.0587 -2.4928
 4855SOL    HW226025   2.494   2.744   6.299  0.0013 -0.9786  0.3953
 4856SOL     OW26026   0.412   1.780   0.267 -0.2780 -0.3481 -0.2839
 4856SOL    HW126027   0.355   1.803   0.340 -2.3529 -0.1163 -2.0116
 4856SOL    HW226028   0.364   1.819   0.195 -1.4646  0.1510  0.7777
 4857SOL     OW26029   4.649   0.425   6.444  0.3135 -0.1107 -0.2092
 4857SOL    HW126030   4.648   0.331   6.461  0.1629 -0.0697  0.0050
 4857SOL    HW226031   4.659   0.428   6.348 -0.1943 -1.7486 -0.3174
 4858SOL     OW26032   2.044   3.753   2.169 -0.2592 -0.0312 -0.1799
 4858SOL    HW126033   2.109   3.692   2.204  1.6771  2.4404  0.5538
 4858SOL    HW226034   2.031   3.806   2.248  0.8026 -1.2291  0.8164
 4859SOL     OW26035   1.901   1.604   2.748 -0.1978  0.0953  0.3400
 4859SOL    HW126036   1.981   1.563   2.782 -0.5696 -0.6956  0.2463
 4859SOL    HW226037   1.872   1.654   2.824  1.4007  0.8508  0.4489
 4860SOL     OW26038   3.880   0.642   7.650  0.0642 -0.0927  0.2334
 4860SOL    HW126039   3.933   0.564   7.666 -0.7736 -0.2463  2.3756
 4860SOL    HW226040   3.899   0.691   7.731 -0.3869 -0.6089  0.6547
 4861SOL     OW26041   3.064   0.825   2.855  0.8069  0.0529 -0.0124
 4861SOL    HW126042   2.999   0.870   2.801  0.1645 -0.2782  0.4896
 4861SOL    HW226043   3.126   0.794   2.788 -0.0276  0.7866 -1.1247
 4862SOL     OW26044   2.949   2.798   6.198 -0.2183  0.6240  0.4382
 4862SOL    HW126045   2.997   2.792   6.282  0.5109  0.7176  0.0321
 4862SOL    HW226046   3.003   2.752   6.133  0.8326 -0.2896  1.9407
 4863SOL     OW26047   3.794   0.185   4.585 -0.2370  0.5179 -0.1796
 4863SOL    HW126048   3.773   0.134   4.663  3.4500 -0.8305 -0.0748
 4863SOL    HW226049   3.759   0.269   4.612 -2.0973 -0.2410 -0.2773
 4864SOL     OW26050   1.927   0.745  15.132  0.1416 -0.1816 -0.5567
 4864SOL    HW126051   1.850   0.784  15.172  0.8727  0.3333  0.3373
 4864SOL    HW226052   1.992   0.815  15.130 -0.1246  0.0556 -0.7518
 4865SOL     OW26053   3.940   2.582  13.248  0.2217  0.6803  0.6660
 4865SOL    HW126054   3.983   2.646  13.192 -0.2120  0.5617  0.1986
 4865SOL    HW226055   4.003   2.516  13.278 -0.8630  0.0856  1.6440
 4866SOL     OW26056   3.139   0.908   7.524 -0.0646 -0.2965 -0.8955
 4866SOL    HW126057   3.204   0.897   7.594 -1.6876  0.7967  0.7861
 4866SOL    HW226058   3.072   0.962   7.566 -1.3431 -1.2035 -1.7781
 4867SOL     OW26059   1.808   0.492   7.917  0.0224 -0.1879 -0.0467
 4867SOL    HW126060   1.752   0.551   7.968  0.8779  0.9592 -0.4353
 4867SOL    HW226061   1.737   0.445   7.874  1.3453 -1.4567 -0.8517
 4868SOL     OW26062   1.709   0.999   3.457 -0.5953  0.3425  0.0696
 4868SOL    HW126063   1.800   1.002   3.426 -0.2524  3.2471  1.3250
 4868SOL    HW226064   1.675   0.928   3.402  2.7050 -0.9792 -0.2970
 4869SOL     OW26065   3.737   3.635   3.050 -0.3093 -0.1593  0.1034
 4869SOL    HW126066   3.770   3.708   2.998  0.7689  0.5874  1.8682
 4869SOL    HW226067   3.665   3.598   2.999 -0.1230 -1.3481  0.6977
 4870SOL     OW26068   3.067   0.788   5.868 -0.3235  0.5102 -0.3435
 4870SOL    HW126069   3.084   0.882   5.860  0.6116  0.0945 -3.2561
 4870SOL    HW226070   3.119   0.760   5.793 -0.9807 -0.5608 -0.3936
 4871SOL     OW26071   3.756   3.234   9.001  0.4538 -0.4886 -1.0679
 4871SOL    HW126072   3.789   3.215   8.914  2.3891  2.3147 -0.9645
 4871SOL    HW226073   3.772   3.150   9.045 -1.8105 -0.2129  0.2480
 4872SOL     OW26074   1.017   1.284   3.662 -0.1407 -0.0385 -0.2558
 4872SOL    HW126075   1.003   1.192   3.684 -1.0016  1.1857  4.2744
 4872SOL    HW226076   0.981   1.323   3.742  0.1160  1.7545 -1.0112
 4873SOL     OW26077   1.769   1.107  11.225 -0.0022  0.2008  0.3512
 4873SOL    HW126078   1.753   1.169  11.296 -0.4311 -0.0837  0.5047
 4873SOL    HW226079   1.761   1.151  11.140  0.6920  0.7896  0.5897
 4874SOL     OW26080   3.280   1.118   0.579 -0.5158  0.2853  0.3019
 4874SOL    HW126081   3.208   1.169   0.615 -0.7791  0.4334 -0.4180
 4874SOL    HW226082   3.350   1.151   0.635  1.5762  0.7594 -2.5849
 4875SOL     OW26083   3.321   2.672   6.091 -0.3210 -0.0245 -0.4779
 4875SOL    HW126084   3.232   2.639   6.103  0.4761 -1.2401  1.9566
 4875SOL    HW226085   3.354   2.695   6.177 -0.0792 -0.8317 -0.3519
 4876SOL     OW26086   1.905   4.715  11.319  0.5763  0.4882  0.1759
 4876SOL    HW126087   1.852   4.705  11.240 -0.0277  0.0995  0.6409
 4876SOL    HW226088   1.857   4.682  11.395  0.6206  0.2265  0.0921
 4877SOL     OW26089   0.315   1.525  10.738  0.1608  0.0815  0.0739
 4877SOL    HW126090   0.320   1.430  10.745 -1.8595 -0.1095 -1.1375
 4877SOL    HW226091   0.291   1.548  10.827 -3.0740 -1.5876 -0.3623
 4878SOL     OW26092   0.069   1.394   1.660  0.7597  0.6642  0.2691
 4878SOL    HW126093   0.080   1.314   1.710 -2.1163 -2.4685 -4.1063
 4878SOL    HW226094   0.065   1.357   1.572 -0.5270 -1.2142  1.1395
 4879SOL     OW26095   0.044   2.897   9.809 -0.5914 -0.3068 -0.7111
 4879SOL    HW126096   4.673   2.920   9.827 -0.1220 -0.0343  1.2575
 4879SOL    HW226097   0.025   2.839   9.735 -0.1532 -1.2742 -0.0508
 4880SOL     OW26098   2.395   3.515   8.186  0.2955 -0.2035 -0.1342
 4880SOL    HW126099   2.416   3.446   8.249 -2.3187 -0.4061  0.5129
 4880SOL    HW226100   2.448   3.486   8.112 -0.4152 -0.8545 -0.3976
 4881SOL     OW26101   1.511   2.676   7.018 -0.5735 -0.2595 -0.0643
 4881SOL    HW126102   1.530   2.704   7.107 -0.4786 -0.8725  0.1090
 4881SOL    HW226103   1.439   2.735   6.995  0.8435  1.1710 -0.8512
 4882SOL     OW26104   1.889   2.495   7.927  0.1443 -0.0243  0.2496
 4882SOL    HW126105   1.872   2.402   7.912  1.2600 -0.1918  0.0063
 4882SOL    HW226106   1.801   2.532   7.921 -0.1138 -0.9599 -1.8669
 4883SOL     OW26107   2.896   3.337  12.468 -0.1000  0.3146 -0.6379
 4883SOL    HW126108   2.909   3.243  12.476 -1.2523  0.2404  0.5200
 4883SOL    HW226109   2.829   3.339  12.399 -0.7191  0.4729 -0.0390
 4884SOL     OW26110   0.025   0.099  14.588  0.0940 -0.3908 -0.3465
 4884SOL    HW126111   0.010   0.130  14.498  2.9472  1.7241 -0.0918
 4884SOL    HW226112   4.659   0.084  14.625 -0.5710 -2.3197 -2.6968
 4885SOL     OW26113   0.914   2.887   8.189  0.2499 -0.8120 -0.2551
 4885SOL    HW126114   0.862   2.875   8.269 -2.3101  1.0821 -1.6225
 4885SOL    HW226115   0.919   2.795   8.163  1.8860 -1.4315  2.2144
 4886SOL     OW26116   1.652   1.394   5.943 -0.5599  0.1281  0.0620
 4886SOL    HW126117   1.682   1.473   5.989 -4.8006  0.6626  1.9543
 4886SOL    HW226118   1.718   1.332   5.974  0.4643  1.5093  0.6472
 4887SOL     OW26119   4.443   3.110  15.982 -0.2609 -0.6511 -0.0992
 4887SOL    HW126120   4.437   3.093  15.888 -0.6750  1.6242 -0.4765
 4887SOL    HW226121   4.481   3.026  16.008 -1.0242 -1.2256 -0.7972
 4888SOL     OW26122   0.431   2.280  10.415 -0.3902  1.2566 -0.4819
 4888SOL    HW126123   0.437   2.301  10.322 -1.1468  1.4687 -0.4776
 4888SOL    HW226124   0.346   2.315  10.440  0.3278  0.4891  3.0766
 4889SOL     OW26125   3.524   1.444  16.698 -0.4403  0.4018 -0.4176
 4889SOL    HW126126   3.552   1.355  16.676  0.5375  1.4418 -3.3763
 4889SOL    HW226127   3.435   1.456  16.665 -1.3065  0.4220  2.0079
 4890SOL     OW26128   3.214   3.202   5.833  0.0971 -0.1351 -0.1884
 4890SOL    HW126129   3.275   3.232   5.765 -0.3447  1.1486 -0.0278
 4890SOL    HW226130   3.280   3.189   5.900 -2.0199 -2.3108  1.4512
 4891SOL     OW26131   0.359   3.494   1.297 -0.0653 -0.2968 -0.2408
 4891SOL    HW126132   0.350   3.588   1.313 -0.4334 -0.3254 -0.2754
 4891SOL    HW226133   0.269   3.463   1.286  0.5888 -2.1903 -0.2927
 4892SOL     OW26134   4.484   1.749  15.389 -0.1655 -0.2374  0.1651
 4892SOL    HW126135   4.457   1.767  15.299  1.8497  0.4733 -0.3001
 4892SOL    HW226136   4.544   1.675  15.390  0.7656  0.5310  1.9682
 4893SOL     OW26137   3.430   2.205   8.652  0.0099 -0.7589  0.3115
 4893SOL    HW126138   3.440   2.300   8.658  2.1330 -0.8518 -1.8443
 4893SOL    HW226139   3.508   2.186   8.600 -1.9988  0.2798 -3.1086
 4894SOL     OW26140   4.142   0.459  12.334 -0.5578  0.2732 -0.7383
 4894SOL    HW126141   4.217   0.513  12.359  0.9551 -1.6333 -1.1760
 4894SOL    HW226142   4.129   0.408  12.414  0.6814  0.1854 -0.5862
 4895SOL     OW26143   2.330   4.065   4.956  0.3653 -0.6504 -0.4504
 4895SOL    HW126144   2.278   3.996   4.998  1.2883 -0.3486  1.1834
 4895SOL    HW226145   2.292   4.061   4.868 -1.3652 -1.6920  0.3383
 4896SOL     OW26146   4.716   2.388   4.798  0.0346 -0.5458  0.0264
 4896SOL    HW126147   0.031   2.379   4.710 -0.0770  0.0400 -0.0779
 4896SOL    HW226148   4.683   2.478   4.789  0.0539 -0.6334 -0.9552
 4897SOL     OW26149   2.877   2.698   7.337  0.2663  0.2625  0.1333
 4897SOL    HW126150   2.899   2.719   7.246 -0.2984 -0.2831 -0.1318
 4897SOL    HW226151   2.859   2.604   7.332 -1.1582  0.4877  0.9867
 4898SOL     OW26152   2.514   1.558   4.770 -0.1517 -0.0736  0.6312
 4898SOL    HW126153   2.478   1.469   4.778  1.2672 -0.7123 -0.1228
 4898SOL    HW226154   2.602   1.557   4.808 -0.9548 -1.0617  2.4770
 4899SOL     OW26155   2.295   3.304  14.200  0.7303  0.0843  0.7935
 4899SOL    HW126156   2.373   3.282  14.150 -0.2706 -1.4258 -0.1029
 4899SOL    HW226157   2.235   3.231  14.187 -1.2360  1.4751  1.9606
 4900SOL     OW26158   0.470   4.080   0.803  1.0073  0.0357  0.0413
 4900SOL    HW126159   0.387   4.116   0.773 -0.0286 -1.2734  1.2988
 4900SOL    HW226160   0.469   4.100   0.897 -1.4641  2.0897 -0.4224
 4901SOL     OW26161   4.240   4.118  16.595  0.7302  0.4229  0.4579
 4901SOL    HW126162   4.200   4.036  16.565  1.8796  0.5762 -1.4860
 4901SOL    HW226163   4.190   4.185  16.548  0.1566  0.5111  1.1887
 4902SOL     OW26164   1.592   0.702  16.642 -0.3185 -0.1909 -0.4099
 4902SOL    HW126165   1.674   0.721  16.688 -0.4173 -0.1752 -0.2364
 4902SOL    HW226166   1.536   0.779  16.653  1.2623  0.9613 -0.5631
 4903SOL     OW26167   3.558   0.005  13.367 -0.1886 -0.7199  0.0926
 4903SOL    HW126168   3.509   4.691  13.441 -0.9535 -1.4925 -0.7663
 4903SOL    HW226169   3.609   4.647  13.346  0.5253 -0.9378  2.6118
 4904SOL     OW26170   3.600   3.330   6.639 -0.3504 -0.2559  0.0440
 4904SOL    HW126171   3.513   3.333   6.600 -0.2082 -1.3493 -0.3688
 4904SOL    HW226172   3.587   3.412   6.685  0.1329  0.3309 -0.8628
 4905SOL     OW26173   0.191   0.015   7.760  0.4522  0.1784  0.5751
 4905SOL    HW126174   0.277   4.697   7.779  0.3441 -0.5264 -0.3880
 4905SOL    HW226175   0.211   0.105   7.786 -1.2750 -0.1521  3.0515
 4906SOL     OW26176   3.335   4.395   4.956  0.0229  0.9176 -0.1933
 4906SOL    HW126177   3.398   4.449   5.005  1.1425  3.0949 -3.9792
 4906SOL    HW226178   3.324   4.439   4.872  2.7381 -0.6177 -1.3472
 4907SOL     OW26179   1.608   1.864   2.788 -0.0248 -0.0303 -0.4223
 4907SOL    HW126180   1.574   1.782   2.823 -0.6653 -0.3185 -1.7355
 4907SOL    HW226181   1.607   1.926   2.861  0.3500 -0.7172  0.1565
 4908SOL     OW26182   4.320   0.458   6.022 -0.8909  0.0253 -0.2629
 4908SOL    HW126183   4.266   0.456   5.944 -1.4114  0.8722  0.0760
 4908SOL    HW226184   4.291   0.539   6.065  0.3090  0.0783  0.4565
 4909SOL     OW26185   3.522   1.743   5.967 -0.0395  0.2306  0.1219
 4909SOL    HW126186   3.616   1.733   5.952 -0.5075 -3.8868 -0.1270
 4909SOL    HW226187   3.523   1.838   5.957  1.1319  0.2017 -0.0569
 4910SOL     OW26188   0.353   3.463   7.240 -0.0638  0.2835 -0.7733
 4910SOL    HW126189   0.403   3.438   7.162 -1.7107 -0.8660 -1.4636
 4910SOL    HW226190   0.416   3.511   7.294  1.6785 -2.5978 -0.2496
 4911SOL     OW26191   2.757   1.557   8.738 -0.1055  0.3948  0.2587
 4911SOL    HW126192   2.802   1.511   8.809 -1.4213 -1.6347 -0.2026
 4911SOL    HW226193   2.725   1.486   8.682  1.0268  0.2284 -0.1607
 4912SOL     OW26194   0.644   0.918   8.042  0.5878  0.0551  0.3802
 4912SOL    HW126195   0.696   0.878   8.112 -0.7597 -0.2582  1.2105
 4912SOL    HW226196   0.579   0.962   8.098  0.6110 -0.9254  1.1880
 4913SOL     OW26197   3.177   1.137  13.387  0.3521  0.4955 -0.2848
 4913SOL    HW126198   3.208   1.220  13.350 -1.2276  1.0543 -0.3283
 4913SOL    HW226199   3.087   1.158  13.411  0.3575 -2.2614  2.1726
 4914SOL     OW26200   3.398   0.060   1.420  0.1436  0.0119  0.5556
 4914SOL    HW126201   3.309   0.028   1.412  0.3246 -0.1717 -0.7881
 4914SOL    HW226202   3.430   0.012   1.496 -1.7377 -0.2041  1.1866
 4915SOL     OW26203   3.078   3.970   8.025  0.5541 -0.1144  0.1167
 4915SOL    HW126204   3.010   3.961   8.092 -2.8374 -2.9613 -3.6932
 4915SOL    HW226205   3.065   4.065   8.020 -1.3051 -0.3850 -0.4677
 4916SOL     OW26206   2.044   4.683  13.352 -0.5608  0.0932  0.6395
 4916SOL    HW126207   2.112   0.005  13.299 -0.6860 -2.7542 -1.7725
 4916SOL    HW226208   2.063   4.708  13.443  0.7966  0.1615  0.3456
 4917SOL     OW26209   4.395   3.376  10.735 -0.5884  0.7438  0.2554
 4917SOL    HW126210   4.388   3.324  10.655 -0.6967  2.4267 -0.8458
 4917SOL    HW226211   4.439   3.452  10.697  0.7812  0.3099  0.9560
 4918SOL     OW26212   0.405   0.312  13.648 -0.1622  0.2535  0.6148
 4918SOL    HW126213   0.479   0.265  13.611 -0.3147 -0.2404  0.9298
 4918SOL    HW226214   0.429   0.309  13.741 -1.1627 -1.3017  0.8178
 4919SOL     OW26215   3.383   3.044   0.604 -0.5337 -0.0450 -0.5457
 4919SOL    HW126216   3.402   2.977   0.538 -2.4579 -1.5824  0.4778
 4919SOL    HW226217   3.288   3.036   0.597 -0.1926 -4.0776 -0.5921
 4920SOL     OW26218   0.407   0.498  14.956  0.0693 -0.0010  1.0637
 4920SOL    HW126219   0.483   0.553  14.979  1.8879 -1.7907 -0.6927
 4920SOL    HW226220   0.436   0.477  14.868  0.2360 -0.4858  1.2351
 4921SOL     OW26221   3.345   1.434  10.274  0.1979 -1.1573 -0.2683
 4921SOL    HW126222   3.339   1.528  10.257 -0.5029 -1.2982 -0.8165
 4921SOL    HW226223   3.434   1.432  10.309 -0.1809 -2.9531  0.5848
 4922SOL     OW26224   4.094   4.700   3.900  0.5294  0.5266 -0.2918
 4922SOL    HW126225   4.116   0.036   3.974 -0.4825  1.6246 -0.8336
 4922SOL    HW226226   4.077   0.044   3.832  0.9023 -0.7327 -1.5764
 4923SOL     OW26227   2.593   1.346   7.363 -0.1384  0.0507 -0.7427
 4923SOL    HW126228   2.575   1.265   7.315 -0.5008 -0.2009 -0.1882
 4923SOL    HW226229   2.516   1.346   7.420  1.0330  0.8179  0.8541
 4924SOL     OW26230   0.904   0.026   8.536 -0.0397  0.0523  0.4918
 4924SOL    HW126231   0.892   0.009   8.443 -4.0677 -1.0612  1.1842
 4924SOL    HW226232   0.959   0.104   8.537 -1.3167  0.9310  3.6527
 4925SOL     OW26233   4.377   0.429  13.553  0.2516 -0.0069 -0.2195
 4925SOL    HW126234   4.288   0.402  13.577 -0.9052  1.3786 -2.8971
 4925SOL    HW226235   4.388   0.497  13.621 -0.3067 -1.5640  1.4257
 4926SOL     OW26236   1.151   3.236  11.671 -0.1996  1.0664  0.2318
 4926SOL    HW126237   1.105   3.174  11.728  1.0997  0.6383  0.8186
 4926SOL    HW226238   1.162   3.312  11.727  1.9684  0.3998  0.6996
 4927SOL     OW26239   0.520   0.665   9.369  0.3104 -0.0775  0.6073
 4927SOL    HW126240   0.574   0.700   9.440 -0.8916  0.4977  1.2281
 4927SOL    HW226241   0.435   0.659   9.411 -0.2485  1.7425 -0.2456
 4928SOL     OW26242   2.305   0.736   3.756  0.5758 -0.2224 -0.1937
 4928SOL    HW126243   2.224   0.698   3.722 -0.9114  3.0827 -0.3071
 4928SOL    HW226244   2.288   0.748   3.850 -2.3337 -1.4390 -0.5898
 4929SOL     OW26245   1.420   4.113   2.735 -0.7753 -0.0362  0.1537
 4929SOL    HW126246   1.488   4.180   2.721 -1.9202  0.9663 -0.6177
 4929SOL    HW226247   1.455   4.060   2.807  1.5061 -0.2171 -1.1018
 4930SOL     OW26248   2.765   2.683  14.339  0.4497  0.0892  0.2631
 4930SOL    HW126249   2.838   2.699  14.279  0.9364  2.6253  1.5256
 4930SOL    HW226250   2.752   2.588  14.343  0.6608  0.0542  0.1038
 4931SOL     OW26251   4.367   3.295   2.130 -0.6070 -0.3777 -0.4583
 4931SOL    HW126252   4.287   3.348   2.119 -1.1227 -1.0624 -0.0050
 4931SOL    HW226253   4.417   3.344   2.195  1.9571 -0.6230 -2.2584
 4932SOL     OW26254   0.354   0.860   9.609  0.5915  0.3138 -0.7689
 4932SOL    HW126255   0.388   0.791   9.666  0.3080 -0.3067 -1.3490
 4932SOL    HW226256   0.289   0.895   9.669  0.5619 -0.6896 -0.2258
 4933SOL     OW26257   0.931   0.454   4.283  0.2729 -0.0963 -0.3523
 4933SOL    HW126258   0.922   0.359   4.285 -0.3197 -0.1002 -3.4775
 4933SOL    HW226259   0.882   0.474   4.203 -1.3421 -2.1267  0.1239
 4934SOL     OW26260   0.128   4.613  12.641 -0.4154 -0.5738  0.0707
 4934SOL    HW126261   0.065   4.585  12.574  0.7402 -4.4011  0.5598
 4934SOL    HW226262   0.070   4.612  12.718  0.7806 -1.5085  0.9666
 4935SOL     OW26263   1.711   1.723  12.680 -0.1738  0.7210  0.2438
 4935SOL    HW126264   1.686   1.740  12.590 -3.2797 -2.2947  0.5500
 4935SOL    HW226265   1.806   1.721  12.666 -0.0753 -2.8991  1.4424
 4936SOL     OW26266   4.689   1.615   0.589 -0.1447 -0.6751  0.0951
 4936SOL    HW126267   0.062   1.619   0.567 -0.0360  0.8606  0.8441
 4936SOL    HW226268   4.654   1.603   0.501 -0.0293  0.7884 -0.1556
 4937SOL     OW26269   4.459   1.941   1.634 -0.5832  0.8217  0.2547
 4937SOL    HW126270   4.370   1.915   1.614 -0.1359 -0.1158 -0.5203
 4937SOL    HW226271   4.484   1.864   1.684  0.5999 -0.1406 -1.7775
 4938SOL     OW26272   0.636   4.409   6.091  0.0454  0.0357 -0.4639
 4938SOL    HW126273   0.547   4.442   6.104  0.0832 -0.4846  1.1278
 4938SOL    HW226274   0.680   4.404   6.176  0.1360 -1.2353 -0.5938
 4939SOL     OW26275   0.341   3.457  15.799 -0.2711 -0.0186 -0.3601
 4939SOL    HW126276   0.417   3.504  15.766  1.1191 -0.1723  2.6331
 4939SOL    HW226277   0.349   3.369  15.763 -0.7808  0.5251 -1.7971
 4940SOL     OW26278   0.258   3.507   7.573  0.1491 -0.4661  0.0721
 4940SOL    HW126279   0.264   3.579   7.636  1.1456  0.4365 -1.0800
 4940SOL    HW226280   0.315   3.549   7.509 -0.8008  1.8523  0.7593
 4941SOL     OW26281   4.488   4.636  16.189  0.3981  0.2203  0.4038
 4941SOL    HW126282   4.454   4.713  16.142  1.5521 -0.4631 -1.5490
 4941SOL    HW226283   4.523   4.583  16.118  1.4452  2.1539 -0.5366
 4942SOL     OW26284   4.113   2.910   2.898  0.5783 -0.1270  0.1253
 4942SOL    HW126285   4.100   2.998   2.934  0.1848  0.2226 -0.8710
 4942SOL    HW226286   4.054   2.863   2.958  0.8166 -0.3659  0.1724
 4943SOL     OW26287   4.332   2.443  13.860  0.1210  0.2663 -0.2658
 4943SOL    HW126288   4.385   2.482  13.791 -1.0415  0.0236 -1.3052
 4943SOL    HW226289   4.262   2.508  13.865 -0.1718  0.0231 -1.1413
 4944SOL     OW26290   1.384   3.468   6.219  0.0561  0.8156  0.1433
 4944SOL    HW126291   1.454   3.428   6.271  0.3915  1.0119 -0.1543
 4944SOL    HW226292   1.363   3.401   6.154  1.2607  0.6028 -0.0333
 4945SOL     OW26293   1.095   0.986   8.619 -0.2039  0.0367 -0.5137
 4945SOL    HW126294   1.044   0.988   8.701 -0.0356 -1.0695 -0.3849
 4945SOL    HW226295   1.132   1.074   8.615  0.7401 -0.2968  0.8409
 4946SOL     OW26296   2.387   0.878  11.871 -0.4295 -0.4585  0.4135
 4946SOL    HW126297   2.467   0.827  11.857 -0.4106 -0.0966 -0.8027
 4946SOL    HW226298   2.364   0.837  11.954 -0.5008  2.0804  1.6594
 4947SOL     OW26299   2.247   1.116   9.474 -0.0665 -0.3819  0.0015
 4947SOL    HW126300   2.165   1.085   9.513  0.5764 -1.2562  0.6388
 4947SOL    HW226301   2.270   1.048   9.411  0.2846 -2.2512  2.1553
 4948SOL     OW26302   0.118   0.461   5.164 -0.3119 -0.5838  0.6337
 4948SOL    HW126303   0.073   0.422   5.089  3.1103 -1.5870 -0.9259
 4948SOL    HW226304   0.065   0.539   5.182  2.0804  1.4913 -1.2481
 4949SOL     OW26305   3.212   3.800   2.168 -0.3245  0.3764  0.0597
 4949SOL    HW126306   3.158   3.871   2.202  0.1396  1.7867 -2.1627
 4949SOL    HW226307   3.281   3.855   2.132 -0.1752  0.8358  1.0406
 4950SOL     OW26308   1.765   2.960   4.615 -0.3066  0.0998  0.4694
 4950SOL    HW126309   1.810   3.043   4.597  1.7769 -0.9148  0.9622
 4950SOL    HW226310   1.706   2.991   4.683 -0.1409  0.3344  0.5045
 4951SOL     OW26311   4.048   2.991   1.823  0.0226 -0.0151  0.2928
 4951SOL    HW126312   3.955   2.970   1.827 -0.4082  2.1568  1.4775
 4951SOL    HW226313   4.086   2.905   1.844 -3.6999 -1.5209  0.7441
 4952SOL     OW26314   0.880   3.899   5.444 -0.2405  0.3316  0.1650
 4952SOL    HW126315   0.915   3.890   5.533 -2.2316 -2.4450  0.6519
 4952SOL    HW226316   0.957   3.937   5.401  0.8641 -2.2377 -0.1095
 4953SOL     OW26317   0.500   0.993   1.356  0.0294 -0.0316 -0.1346
 4953SOL    HW126318   0.507   0.974   1.263 -1.1741  0.3152 -0.2902
 4953SOL    HW226319   0.545   0.916   1.391  0.4225  0.1038 -0.3381
 4954SOL     OW26320   4.457   4.528  12.340  0.8365  0.2897  0.2486
 4954SOL    HW126321   4.450   4.618  12.310 -0.2672  0.3194  0.5987
 4954SOL    HW226322   4.402   4.521  12.418 -1.1647  0.2365 -1.1840
 4955SOL     OW26323   2.155   0.284  17.101 -0.1124  0.3564  0.2814
 4955SOL    HW126324   2.117   0.351  17.157  0.2374 -0.0016  0.9362
 4955SOL    HW226325   2.170   0.214  17.165 -3.2971  0.6483  1.3576
 4956SOL     OW26326   2.571   3.896  11.071  0.1094 -0.3891 -0.0397
 4956SOL    HW126327   2.491   3.947  11.057 -0.7548 -1.5349  0.7091
 4956SOL    HW226328   2.538   3.811  11.041  1.3586 -0.1033 -2.2273
 4957SOL     OW26329   2.521   3.173  17.138 -0.3722 -0.5755 -0.2411
 4957SOL    HW126330   2.609   3.143  17.158  1.5107  3.1373 -3.1185
 4957SOL    HW226331   2.506   3.106  17.072  1.2538 -0.6139 -0.5606
 4958SOL     OW26332   1.563   1.438   9.602  0.3308 -0.1056 -0.0876
 4958SOL    HW126333   1.656   1.418   9.619  0.2369 -1.2126 -0.8282
 4958SOL    HW226334   1.527   1.351   9.583  0.1406  0.0491 -0.4279
 4959SOL     OW26335   0.872   3.098   2.730  0.5095  0.1011 -0.2950
 4959SOL    HW126336   0.782   3.084   2.699  0.5453  0.4340 -0.5518
 4959SOL    HW226337   0.884   3.180   2.683 -0.3181  1.5829  2.1203
 4960SOL     OW26338   4.290   4.395  14.468 -0.3459 -0.4297 -0.0148
 4960SOL    HW126339   4.198   4.421  14.470  0.5971  2.9845 -0.0430
 4960SOL    HW226340   4.300   4.385  14.373 -1.3976 -0.3025 -0.1393
 4961SOL     OW26341   2.846   3.948  11.561 -0.0361 -0.1295  0.1036
 4961SOL    HW126342   2.882   4.003  11.491 -0.6834 -1.2482 -1.1148
 4961SOL    HW226343   2.754   3.966  11.542  0.0045 -0.9650 -0.8883
 4962SOL     OW26344   4.475   4.043   8.939  0.8908  0.5131  0.3002
 4962SOL    HW126345   4.555   4.013   8.981 -0.8167 -0.6334  2.7739
 4962SOL    HW226346   4.413   3.990   8.990  0.3893  0.3530 -0.4904
 4963SOL     OW26347   4.069   4.031   1.932  0.2265  0.8655  0.2944
 4963SOL    HW126348   4.100   4.078   1.855 -0.8877  1.0224 -0.0713
 4963SOL    HW226349   4.140   4.045   1.994  1.0999 -3.1083  0.1668
 4964SOL     OW26350   1.425   3.406   2.662 -0.0463  0.3590  0.1121
 4964SOL    HW126351   1.453   3.493   2.633  1.0816 -0.3055 -0.7668
 4964SOL    HW226352   1.479   3.392   2.740 -0.4257  2.1076  0.6932
 4965SOL     OW26353   3.953   2.397   0.428  0.5751 -0.5326  0.6356
 4965SOL    HW126354   3.863   2.365   0.422 -0.0530  1.4077 -0.4737
 4965SOL    HW226355   3.966   2.402   0.523  1.0931  0.4173  0.5136
 4966SOL     OW26356   0.923   3.011   3.153 -0.3717  0.1833  0.0198
 4966SOL    HW126357   0.845   2.973   3.193 -0.5844 -1.0658 -1.5832
 4966SOL    HW226358   0.924   2.967   3.068  1.0958  2.2556 -1.0254
 4967SOL     OW26359   1.342   3.338   7.626  0.0503  0.6008  0.8920
 4967SOL    HW126360   1.393   3.307   7.701  0.5614  0.3307  0.4363
 4967SOL    HW226361   1.299   3.409   7.674 -0.8997 -0.6072  1.8260
 4968SOL     OW26362   1.960   0.972  14.969  0.3575  0.0298 -0.2909
 4968SOL    HW126363   1.871   0.938  14.977  0.1103  0.0650 -2.7126
 4968SOL    HW226364   1.954   1.062  14.939 -0.8124 -0.1365 -0.5563
 4969SOL     OW26365   4.059   1.100   7.755 -0.0832 -0.2313  0.5188
 4969SOL    HW126366   4.005   1.094   7.833  0.8285 -0.5193  1.1213
 4969SOL    HW226367   4.074   1.005   7.754 -1.3911 -0.4255 -0.7478
 4970SOL     OW26368   4.185   4.307   0.492 -0.1538 -0.3683  0.0925
 4970SOL    HW126369   4.185   4.290   0.398  2.6216 -3.8459  0.7080
 4970SOL    HW226370   4.218   4.396   0.505 -2.1949  0.3209  0.5937
 4971SOL     OW26371   2.754   0.920  15.391  0.3251 -0.1562  0.2893
 4971SOL    HW126372   2.774   1.001  15.437  0.2453  0.2192 -0.3376
 4971SOL    HW226373   2.677   0.945  15.339  1.7821  1.2235 -1.2042
 4972SOL     OW26374   3.052   1.556   5.041 -0.2928 -0.3269  0.3013
 4972SOL    HW126375   3.038   1.540   4.947 -0.8620 -1.4868  0.5850
 4972SOL    HW226376   3.020   1.646   5.036  1.5494  0.2739 -0.6358
 4973SOL     OW26377   1.764   1.198  14.995  0.9434  0.4513  0.1480
 4973SOL    HW126378   1.838   1.246  14.958  0.6052  1.2737  0.5323
 4973SOL    HW226379   1.704   1.269  15.017  0.4027  0.1742 -0.4420
 4974SOL     OW26380   0.029   1.116   6.404 -0.3099 -0.1785 -0.4483
 4974SOL    HW126381   0.033   1.029   6.364 -2.8371 -1.4831  2.1746
 4974SOL    HW226382   0.024   1.081   6.493  0.5242 -0.5834 -0.5620
 4975SOL     OW26383   4.664   0.634   9.021 -0.2977 -0.1442 -0.1743
 4975SOL    HW126384   0.022   0.664   9.066  1.1386 -2.8250 -0.8644
 4975SOL    HW226385   4.683   0.540   9.024  0.1263 -0.0515  0.2031
 4976SOL     OW26386   1.988   1.392   0.494  0.2867 -0.3670 -0.1945
 4976SOL    HW126387   2.046   1.458   0.455 -0.0604  0.2045  0.2532
 4976SOL    HW226388   2.032   1.369   0.576 -0.9479 -2.0974 -0.0208
 4977SOL     OW26389   4.446   2.630   0.808 -0.1849 -0.3287  0.0220
 4977SOL    HW126390   4.538   2.650   0.823 -0.4528  0.4484  0.6103
 4977SOL    HW226391   4.426   2.596   0.896  0.4630 -1.7456 -0.3772
 4978SOL     OW26392   0.982   0.854  15.706  0.6365 -0.4485  0.3226
 4978SOL    HW126393   0.980   0.923  15.640  0.1017  1.2442  2.0943
 4978SOL    HW226394   0.888   0.852  15.727  0.6781 -0.9209  0.4678
 4979SOL     OW26395   0.278   2.656   2.912 -0.8838 -0.4574  0.0965
 4979SOL    HW126396   0.197   2.654   2.861 -0.7197  0.5226 -0.1974
 4979SOL    HW226397   0.250   2.731   2.963 -0.7356 -0.3945  0.0849
 4980SOL     OW26398   1.647   0.804  10.367 -0.4933 -0.3905 -0.0231
 4980SOL    HW126399   1.720   0.776  10.311 -0.4059  1.2619 -0.7612
 4980SOL    HW226400   1.607   0.722  10.394  0.8059 -0.5152  1.5456
 4981SOL     OW26401   3.196   3.972   1.317  0.5067  0.1150 -0.2808
 4981SOL    HW126402   3.142   3.894   1.318 -0.0907  0.5243 -1.1144
 4981SOL    HW226403   3.246   3.966   1.236 -2.9461  1.0267 -2.4778
 4982SOL     OW26404   3.187   4.264   2.106 -0.4598  0.2120  0.4292
 4982SOL    HW126405   3.281   4.248   2.116 -0.1957 -0.8023 -3.6440
 4982SOL    HW226406   3.166   4.227   2.021  1.4883 -1.1391  0.5304
 4983SOL     OW26407   3.022   2.568  10.998 -0.1477 -0.0813 -0.4478
 4983SOL    HW126408   3.071   2.501  11.045 -0.4921  0.4422  0.6621
 4983SOL    HW226409   2.953   2.595  11.059  0.9260 -2.6066  1.8956
 4984SOL     OW26410   1.885   1.938   5.883  0.5369 -0.1315 -0.8416
 4984SOL    HW126411   1.850   1.895   5.805 -1.0143  3.3028 -2.0279
 4984SOL    HW226412   1.977   1.913   5.876  0.3269 -0.8485 -1.0317
 4985SOL     OW26413   3.587   3.223   4.669 -0.8118 -0.0459  0.0452
 4985SOL    HW126414   3.586   3.128   4.678 -0.1471  0.1612  2.1717
 4985SOL    HW226415   3.672   3.256   4.700 -0.5877  1.5418 -2.2388
 4986SOL     OW26416   0.565   1.150   7.584  0.3695  0.7177 -0.3332
 4986SOL    HW126417   0.480   1.193   7.578 -0.5086 -0.7714  1.2372
 4986SOL    HW226418   0.546   1.073   7.639 -0.8329  1.0704 -0.2449
 4987SOL     OW26419   1.735   4.682   0.753  0.0419 -0.5505 -0.0372
 4987SOL    HW126420   1.680   4.674   0.675 -1.2890  1.4377  0.6983
 4987SOL    HW226421   1.753   0.055   0.750  1.8955 -0.8372  1.9873
 4988SOL     OW26422   0.978   0.531  14.847  0.8170  0.3555 -0.1853
 4988SOL    HW126423   0.997   0.625  14.848 -3.8773  1.2695  0.8303
 4988SOL    HW226424   0.927   0.526  14.927  0.7633  0.1034 -0.2371
 4989SOL     OW26425   1.611   2.992   1.762 -0.1631  0.0217  0.2174
 4989SOL    HW126426   1.690   3.015   1.713 -0.9341  0.6230 -0.7347
 4989SOL    HW226427   1.639   2.999   1.853 -1.4973 -0.1699  0.6496
 4990SOL     OW26428   0.494   1.054   8.211  0.4009  0.5487 -0.0987
 4990SOL    HW126429   0.411   1.100   8.220  0.1282 -0.4434  2.2777
 4990SOL    HW226430   0.498   1.026   8.302  1.1602 -0.7545 -0.5447
 4991SOL     OW26431   3.837   0.393   5.896  0.5162 -0.3881 -0.8060
 4991SOL    HW126432   3.857   0.389   5.990 -2.1344 -0.6416 -0.2533
 4991SOL    HW226433   3.808   0.303   5.881  0.7287 -0.5016 -0.5419
 4992SOL     OW26434   3.081   4.020   2.255 -0.0394  0.3533  0.2206
 4992SOL    HW126435   3.008   4.083   2.252 -1.6444 -1.6065 -2.3224
 4992SOL    HW226436   3.146   4.084   2.225  0.9364 -1.9453 -2.5707
 4993SOL     OW26437   0.660   3.315   7.504 -0.0816 -0.4232  0.3465
 4993SOL    HW126438   0.605   3.295   7.428 -0.1028 -0.2951  0.3268
 4993SOL    HW226439   0.728   3.250   7.489  0.0555 -0.4409  1.0304
 4994SOL     OW26440   3.690   4.036  14.543  0.0098 -0.2474  0.5122
 4994SOL    HW126441   3.621   4.064  14.483  0.5332 -0.2077 -0.0722
 4994SOL    HW226442   3.759   4.099  14.522  0.8780 -1.1204  0.7444
 4995SOL     OW26443   2.062   1.269  11.302 -0.3552 -0.4571 -0.5737
 4995SOL    HW126444   2.080   1.306  11.389 -3.5877  0.3830 -0.2584
 4995SOL    HW226445   1.966   1.268  11.305 -0.3405  0.2408  0.3175
 4996SOL     OW26446   2.262   3.323  10.896 -0.6619 -0.1307 -0.3443
 4996SOL    HW126447   2.204   3.248  10.904 -1.3486  0.2933 -1.2722
 4996SOL    HW226448   2.345   3.286  10.926 -0.5029  2.3517  2.2729
 4997SOL     OW26449   4.043   3.394  17.596 -0.2481 -0.0466 -0.4281
 4997SOL    HW126450   4.121   3.428  17.553 -0.0374 -1.3245 -1.0798
 4997SOL    HW226451   4.076   3.375  17.683 -0.2707 -1.8071 -0.7853
 4998SOL     OW26452   1.424   2.117  14.508  0.2163 -0.6937 -0.0675
 4998SOL    HW126453   1.335   2.087  14.524 -0.4417  0.9222 -0.6361
 4998SOL    HW226454   1.436   2.181  14.578  0.6795  0.1421 -0.9084
 4999SOL     OW26455   1.897   2.013   8.040  0.7731  0.1635 -0.0836
 4999SOL    HW126456   1.922   2.080   8.104 -1.1466  1.7543 -0.9921
 4999SOL    HW226457   1.981   1.978   8.011  1.4291  1.4156  0.2938
 5000SOL     OW26458   4.668   0.889   9.645 -0.0562  0.6251 -0.2599
 5000SOL    HW126459   4.653   0.983   9.653 -0.5802  0.4727  0.5175
 5000SOL    HW226460   0.007   0.877   9.572  3.0832 -0.9372  2.5668
 5001SOL     OW26461   1.206   3.924   9.227  0.2754  0.2760  0.7758
 5001SOL    HW126462   1.224   4.016   9.246  1.4292  0.0774  0.6083
 5001SOL    HW226463   1.144   3.945   9.157 -0.8065 -1.8778  1.0706
 5002SOL     OW26464   3.786   1.120   7.248  0.2451  0.2378  0.5198
 5002SOL    HW126465   3.710   1.062   7.249  1.0922 -0.9605 -3.3810
 5002SOL    HW226466   3.851   1.076   7.194  1.5457  1.6881  0.9016
 5003SOL     OW26467   2.631   1.935   3.726 -0.3713 -0.2110 -0.0172
 5003SOL    HW126468   2.679   1.860   3.759 -1.5067 -0.2156  1.6201
 5003SOL    HW226469   2.651   1.934   3.633  1.8569  0.6087  0.4586
 5004SOL     OW26470   2.112   2.738   4.749  0.0131 -0.5364  0.0285
 5004SOL    HW126471   2.027   2.777   4.767 -0.5078 -1.0885 -1.2531
 5004SOL    HW226472   2.175   2.791   4.798  0.3776 -0.8481 -0.1065
 5005SOL     OW26473   0.688   2.474   9.113  0.8294 -0.2441 -0.0184
 5005SOL    HW126474   0.638   2.489   9.193  0.0688  0.7776 -0.6928
 5005SOL    HW226475   0.693   2.379   9.125 -0.2792 -0.2886  0.0957
 5006SOL     OW26476   4.090   2.737   2.444  0.1197  0.2839 -0.3391
 5006SOL    HW126477   4.003   2.699   2.436 -0.2729  0.3232  3.7868
 5006SOL    HW226478   4.077   2.827   2.412  1.1412  1.1213  1.6046
 5007SOL     OW26479   3.075   2.854   5.516 -0.5592 -0.2984  0.6593
 5007SOL    HW126480   3.057   2.760   5.508  1.5465 -0.6143 -0.2826
 5007SOL    HW226481   3.163   2.856   5.552 -0.2450  1.3925 -0.2122
 5008SOL     OW26482   2.897   0.098  12.752  0.0425 -0.1130 -0.2754
 5008SOL    HW126483   2.820   0.075  12.701  0.2614 -1.1666 -0.1375
 5008SOL    HW226484   2.871   0.044  12.827 -0.1980 -0.8848 -0.9093
 5009SOL     OW26485   1.649   4.599  16.100 -0.6614 -1.1239  0.1620
 5009SOL    HW126486   1.579   4.657  16.072  1.2096  1.4951  0.9333
 5009SOL    HW226487   1.721   4.661  16.091 -1.0292 -1.1398 -3.1733
 5010SOL     OW26488   2.815   3.050   3.094  0.2275  0.2823  0.7108
 5010SOL    HW126489   2.779   3.063   3.006  0.2783  0.2495  0.6852
 5010SOL    HW226490   2.768   3.121   3.138  1.0080  1.0200  0.3449
 5011SOL     OW26491   2.419   3.581   3.155  0.5973  0.1287  0.1259
 5011SOL    HW126492   2.371   3.501   3.133 -2.1332  1.7559  0.1458
 5011SOL    HW226493   2.390   3.606   3.242 -0.0653  0.2859 -0.1377
 5012SOL     OW26494   2.741   0.463  11.974  0.4171  0.1604 -0.3214
 5012SOL    HW126495   2.653   0.492  11.997  0.1634  0.5221 -1.7921
 5012SOL    HW226496   2.749   0.386  12.031  1.2363  0.2654 -0.2936
 5013SOL     OW26497   2.437   3.484  11.717  0.2665 -0.3511 -0.4599
 5013SOL    HW126498   2.407   3.564  11.760 -0.2662 -0.9139  0.2244
 5013SOL    HW226499   2.362   3.432  11.746 -1.0240  2.8139  1.9312
 5014SOL     OW26500   3.903   1.198   4.967  0.6574 -0.4739  0.3279
 5014SOL    HW126501   3.891   1.172   4.876 -2.3969 -0.0075  0.6143
 5014SOL    HW226502   3.984   1.160   5.003  0.6569 -1.3530 -0.6092
 5015SOL     OW26503   2.751   2.461   7.374 -0.1404 -0.3313 -0.2885
 5015SOL    HW126504   2.736   2.422   7.461 -1.6680  0.8473 -0.0135
 5015SOL    HW226505   2.663   2.497   7.359 -0.5854 -1.6103 -0.8141
 5016SOL     OW26506   4.128   1.362  11.374 -0.3698 -0.4256  0.4173
 5016SOL    HW126507   4.188   1.429  11.407 -1.4250  0.9344 -0.4291
 5016SOL    HW226508   4.148   1.385  11.283 -0.8916  0.4338  0.5180
 5017SOL     OW26509   3.183   3.151   4.894 -0.5527 -0.0647  0.3568
 5017SOL    HW126510   3.196   3.158   4.800 -1.3451  0.6906  0.3070
 5017SOL    HW226511   3.088   3.164   4.899 -0.1229  3.5336 -1.4801
 5018SOL     OW26512   4.103   0.014   7.130 -0.0543  0.1085  0.0996
 5018SOL    HW126513   4.164   4.661   7.131  1.3626  1.2852 -0.2277
 5018SOL    HW226514   4.140   0.065   7.202 -0.7527  1.4770 -0.5209
 5019SOL     OW26515   3.881   2.952   3.093 -0.0504  0.6416  0.1962
 5019SOL    HW126516   3.787   2.946   3.106 -0.1041 -1.7373 -1.2524
 5019SOL    HW226517   3.899   3.042   3.064  1.0677  1.0542  2.1291
 5020SOL     OW26518   4.458   3.927  12.350  0.8262  0.4028  0.0416
 5020SOL    HW126519   4.494   3.993  12.410  0.8574 -1.3826  1.9779
 5020SOL    HW226520   4.475   3.839  12.382 -1.3556 -0.7321 -1.9777
 5021SOL     OW26521   4.095   1.320   1.759 -0.6531 -0.0421 -0.6995
 5021SOL    HW126522   4.017   1.264   1.755 -0.5644 -0.2622  0.8959
 5021SOL    HW226523   4.064   1.401   1.717 -0.9653  0.7414  1.0294
 5022SOL     OW26524   2.069   2.876  16.488  0.4778  0.0484  0.3446
 5022SOL    HW126525   2.113   2.879  16.403 -3.6810  0.4318 -1.7774
 5022SOL    HW226526   1.981   2.850  16.462 -0.2089  2.5496  0.1990
 5023SOL     OW26527   3.425   3.918   4.644 -0.2159 -0.1440  0.1391
 5023SOL    HW126528   3.484   3.986   4.613  0.1958 -0.1774  0.8721
 5023SOL    HW226529   3.373   3.978   4.697  1.4305  0.6903  0.8168
 5024SOL     OW26530   0.570   2.124  14.831 -0.4282  0.3573  0.5536
 5024SOL    HW126531   0.637   2.069  14.871 -0.8558  0.3007  1.1920
 5024SOL    HW226532   0.522   2.049  14.798 -1.0072  1.2051 -0.5295
 5025SOL     OW26533   3.776   0.186   1.435  0.1121 -0.2736  0.2582
 5025SOL    HW126534   3.710   0.245   1.470  0.3633  0.2982 -0.2335
 5025SOL    HW226535   3.777   0.209   1.342  2.9935 -1.4525 -0.0048
 5026SOL     OW26536   0.200   1.066   3.662 -0.1723 -0.0159  0.0173
 5026SOL    HW126537   0.135   1.052   3.731 -1.1995  0.3442 -0.8931
 5026SOL    HW226538   0.177   1.150   3.624 -0.4743  0.4851  1.3124
 5027SOL     OW26539   3.601   3.976   3.026 -0.5383 -0.0380  0.5017
 5027SOL    HW126540   3.545   3.907   2.990  0.3089 -0.9615  0.9417
 5027SOL    HW226541   3.689   3.948   3.000 -0.3352  1.3251 -0.2746
 5028SOL     OW26542   2.938   3.167   3.392 -0.4075  0.2367 -0.1061
 5028SOL    HW126543   2.910   3.122   3.472  0.1225 -0.2498 -0.1982
 5028SOL    HW226544   2.909   3.106   3.324  2.2084 -0.9651 -0.1192
 5029SOL     OW26545   3.997   3.622   4.399 -0.1183  0.0564 -0.7086
 5029SOL    HW126546   3.932   3.586   4.459  1.1471  0.2819  0.8154
 5029SOL    HW226547   4.041   3.538   4.386 -1.2158 -0.6932  0.5022
 5030SOL     OW26548   3.049   3.615   2.828 -0.3297  0.4525  0.4319
 5030SOL    HW126549   3.123   3.672   2.848  0.4977  0.5085 -2.8239
 5030SOL    HW226550   3.023   3.585   2.915  1.1364 -2.0210  0.0304
 5031SOL     OW26551   2.695   4.115   8.658 -0.1116 -0.3402  0.4440
 5031SOL    HW126552   2.641   4.036   8.661 -1.0071  0.2138 -1.1083
 5031SOL    HW226553   2.750   4.100   8.735 -1.8908 -2.0403  1.4060
 5032SOL     OW26554   1.943   0.533   5.386  0.2068 -0.0263 -0.7818
 5032SOL    HW126555   1.876   0.495   5.329 -0.0027 -0.9139  0.0649
 5032SOL    HW226556   1.983   0.600   5.330  0.5419  1.8668  1.7587
 5033SOL     OW26557   2.640   1.895   5.555 -0.4099 -0.2586 -0.1336
 5033SOL    HW126558   2.546   1.878   5.544 -0.2084 -1.6313  0.1969
 5033SOL    HW226559   2.666   1.814   5.599 -0.5311 -0.5320 -0.5662
 5034SOL     OW26560   2.265   3.464   4.286 -0.2750  0.2220 -0.6836
 5034SOL    HW126561   2.302   3.377   4.296 -0.0464  0.3332 -0.5647
 5034SOL    HW226562   2.227   3.479   4.373 -1.4017  1.9494 -1.4620
 5035SOL     OW26563   3.100   3.385   9.001 -0.6940  0.4041 -0.1066
 5035SOL    HW126564   3.188   3.424   8.998 -0.6535  0.2686 -0.7809
 5035SOL    HW226565   3.053   3.452   9.050 -2.6452 -1.5740  0.6939
 5036SOL     OW26566   2.472   3.320  15.988 -0.5028  0.0623  0.0634
 5036SOL    HW126567   2.559   3.307  16.027 -0.9396 -1.3170  0.5789
 5036SOL    HW226568   2.491   3.393  15.930 -0.5729 -1.1480 -1.4670
 5037SOL     OW26569   3.604   4.074  10.604 -0.5823 -0.9317 -0.2695
 5037SOL    HW126570   3.633   4.117  10.684 -0.7101 -1.8563  0.2734
 5037SOL    HW226571   3.662   4.108  10.536 -0.0469 -0.1852  0.5656
 5038SOL     OW26572   1.432   4.364   4.199 -0.3070  0.3249  0.0826
 5038SOL    HW126573   1.344   4.331   4.214 -1.3135  2.1171 -1.9134
 5038SOL    HW226574   1.481   4.315   4.265  1.8796  3.3557  0.7186
 5039SOL     OW26575   3.762   2.035   3.517  0.7461 -0.2311  0.3556
 5039SOL    HW126576   3.792   1.979   3.445  0.3679 -0.3165  0.2672
 5039SOL    HW226577   3.834   2.028   3.579  0.1470 -2.2285  0.8114
 5040SOL     OW26578   2.168   3.431   8.015  0.9917 -0.3263 -0.5393
 5040SOL    HW126579   2.211   3.368   8.072  3.2147  0.9498 -0.8086
 5040SOL    HW226580   2.146   3.502   8.075 -1.7899  0.3814 -2.4071
 5041SOL     OW26581   2.168   3.544   8.473  0.2203 -0.3352 -0.0706
 5041SOL    HW126582   2.245   3.502   8.512  0.6394  0.5166  0.0157
 5041SOL    HW226583   2.187   3.637   8.483 -2.8183 -0.0356  2.9563
 5042SOL     OW26584   3.121   3.601   4.276 -0.0228 -0.2569 -0.3448
 5042SOL    HW126585   3.120   3.574   4.184  4.8499  0.6499 -0.6198
 5042SOL    HW226586   3.212   3.600   4.305  0.3364 -0.6536 -1.4780
 5043SOL     OW26587   1.844   3.869   9.951 -0.4263  0.5132  0.1943
 5043SOL    HW126588   1.804   3.850   9.866 -0.0152 -0.8615  0.2980
 5043SOL    HW226589   1.860   3.783   9.990 -0.0636  1.0432  1.2358
 5044SOL     OW26590   1.646   0.576   6.550 -0.4759  0.2176  0.5675
 5044SOL    HW126591   1.582   0.504   6.547  1.2174 -1.2814 -0.2569
 5044SOL    HW226592   1.717   0.540   6.497 -1.1806 -0.9488  0.4113
 5045SOL     OW26593   3.136   4.273   2.443  0.4573 -0.0446  0.0885
 5045SOL    HW126594   3.205   4.207   2.450 -0.1594 -0.6801  0.1031
 5045SOL    HW226595   3.178   4.354   2.473 -0.4818  0.2187  0.6906
 5046SOL     OW26596   0.424   3.078   4.253 -0.0129  0.2347 -0.1612
 5046SOL    HW126597   0.408   3.063   4.346  0.8531 -0.3816 -0.1122
 5046SOL    HW226598   0.379   3.005   4.211  1.0747  0.0857 -1.0729
 5047SOL     OW26599   2.002   1.647   8.350 -0.4303 -0.4853 -0.5768
 5047SOL    HW126600   1.977   1.611   8.435 -0.5778  1.7045  0.3264
 5047SOL    HW226601   2.049   1.726   8.377 -0.6477 -0.5961  0.1362
 5048SOL     OW26602   4.091   3.373   4.410  1.0441  0.1356 -0.9685
 5048SOL    HW126603   4.103   3.321   4.489  0.7450 -0.6640 -1.4577
 5048SOL    HW226604   4.176   3.349   4.373  1.9436  1.8641 -0.0523
 5049SOL     OW26605   4.320   0.436   1.552  0.1357 -0.3165  0.0101
 5049SOL    HW126606   4.394   0.458   1.609  0.1490 -2.0041  0.6648
 5049SOL    HW226607   4.334   0.486   1.472  0.8419  0.8664  0.8896
 5050SOL     OW26608   3.426   3.100  10.174  0.5782  0.3801  0.4807
 5050SOL    HW126609   3.481   3.022  10.177 -0.6481 -0.4995  0.1124
 5050SOL    HW226610   3.476   3.174  10.210  3.0809 -0.2834 -1.6772
 5051SOL     OW26611   0.012   0.163   5.976  0.6415 -0.8395  0.1187
 5051SOL    HW126612   0.003   0.073   5.943 -1.9253 -0.0644 -1.2438
 5051SOL    HW226613   4.674   0.208   5.916  0.8984 -1.8214 -0.8576
 5052SOL     OW26614   2.999   2.110  12.493  0.0810 -0.0515  0.7811
 5052SOL    HW126615   3.090   2.082  12.481  0.0916 -0.4251  1.7719
 5052SOL    HW226616   2.965   2.054  12.563 -3.9585 -0.6177 -1.6415
 5053SOL     OW26617   4.560   0.939   6.622  0.7223 -0.4578  0.2150
 5053SOL    HW126618   4.592   0.850   6.637  2.2796  0.3103  1.4539
 5053SOL    HW226619   4.563   0.974   6.711  0.4866  0.1234 -0.0011
 5054SOL     OW26620   3.639   2.648   3.397 -0.3928  0.0742 -0.1620
 5054SOL    HW126621   3.555   2.603   3.402 -0.4857  0.2840  0.1420
 5054SOL    HW226622   3.690   2.567   3.403 -1.5515 -0.5292  1.2362
 5055SOL     OW26623   3.207   0.953   7.021 -0.7193  0.3627  0.6707
 5055SOL    HW126624   3.196   1.029   6.965  0.4849  0.0580  0.0122
 5055SOL    HW226625   3.120   0.914   7.014 -1.0546  1.7056 -2.8046
 5056SOL     OW26626   1.636   1.265   4.948  0.4813  0.1980 -0.2083
 5056SOL    HW126627   1.726   1.283   4.921  0.6502  0.0704  0.2583
 5056SOL    HW226628   1.585   1.244   4.870 -1.3236  0.9534  0.7418
 5057SOL     OW26629   1.579   4.599   7.150  0.2923 -0.4225  0.0737
 5057SOL    HW126630   1.616   4.550   7.223  0.5562 -1.9797 -1.1290
 5057SOL    HW226631   1.620   4.684   7.166  0.3490 -0.8749  2.3358
 5058SOL     OW26632   0.439   1.769   6.591  0.0543  0.3885  0.4935
 5058SOL    HW126633   0.420   1.790   6.682 -1.1697 -0.9949  0.5610
 5058SOL    HW226634   0.477   1.681   6.585 -0.7882  0.1477 -1.5141
 5059SOL     OW26635   2.676   3.536   9.320  0.6360  0.2831 -0.3353
 5059SOL    HW126636   2.714   3.582   9.395  0.2607 -1.8735  1.1808
 5059SOL    HW226637   2.723   3.452   9.315 -2.1016 -1.1460 -1.7772
 5060SOL     OW26638   0.564   3.653   2.678 -0.2093 -0.2385  0.2579
 5060SOL    HW126639   0.502   3.640   2.606 -2.3513  0.4696  1.9515
 5060SOL    HW226640   0.565   3.572   2.729 -3.0507 -1.9478 -2.3548
 5061SOL     OW26641   1.021   0.147  15.443 -0.1562 -0.2885 -0.2475
 5061SOL    HW126642   1.050   0.094  15.517 -0.9904  2.7991  2.2985
 5061SOL    HW226643   1.090   0.214  15.452  0.9381 -1.4504  0.0092
 5062SOL     OW26644   0.113   3.774   5.438 -0.1318  0.4243 -0.0748
 5062SOL    HW126645   0.112   3.870   5.433  1.3591  0.4085 -0.6380
 5062SOL    HW226646   0.172   3.747   5.367 -0.8695 -2.7735  0.5370
 5063SOL     OW26647   2.020   0.808   8.496  0.1290 -0.6034  0.0600
 5063SOL    HW126648   2.016   0.898   8.528 -0.1325 -0.9255  0.9498
 5063SOL    HW226649   2.079   0.782   8.566  0.4746 -0.4294 -0.1719
 5064SOL     OW26650   0.717   3.732   8.528 -0.7163 -0.0326 -0.0266
 5064SOL    HW126651   0.650   3.716   8.594 -0.3527 -2.1324 -0.1767
 5064SOL    HW226652   0.776   3.795   8.569 -0.0263 -1.5347  1.2413
 5065SOL     OW26653   1.393   3.053   7.520  0.0839 -0.1369  0.0373
 5065SOL    HW126654   1.329   3.018   7.582 -0.2776 -0.3514 -0.4551
 5065SOL    HW226655   1.375   3.147   7.523  0.4285 -0.0207 -1.4760
 5066SOL     OW26656   2.222   0.792   4.429 -0.4251 -0.2189 -0.2060
 5066SOL    HW126657   2.162   0.734   4.382 -0.3554 -1.6486  1.4744
 5066SOL    HW226658   2.297   0.788   4.369 -0.1799 -1.5032  0.1795
 5067SOL     OW26659   4.140   0.626   1.046 -0.3994  0.4262 -0.2151
 5067SOL    HW126660   4.113   0.678   1.122  1.2568  0.7448  0.1613
 5067SOL    HW226661   4.089   0.665   0.975 -1.2663 -1.9652 -0.9053
 5068SOL     OW26662   0.271   1.934  17.374 -0.2149  0.2179 -0.0870
 5068SOL    HW126663   0.213   2.009  17.391  1.0058  0.7255  1.7279
 5068SOL    HW226664   0.222   1.860  17.338  0.6778 -1.3703  2.0065
 5069SOL     OW26665   4.385   3.035  15.713  0.0973  0.1953 -0.0920
 5069SOL    HW126666   4.416   2.979  15.642 -1.3654 -0.0928 -0.5000
 5069SOL    HW226667   4.406   3.123  15.683  1.9793 -0.0509  0.5366
 5070SOL     OW26668   2.986   1.803   3.289 -0.2921 -0.1088 -0.2226
 5070SOL    HW126669   2.976   1.893   3.260 -1.4023  0.1851  1.0506
 5070SOL    HW226670   3.062   1.812   3.346 -0.2142  1.5505 -0.5952
 5071SOL     OW26671   1.185   0.470   2.570 -0.2054  0.1885  0.0284
 5071SOL    HW126672   1.152   0.546   2.521 -0.3700 -0.0925 -0.2986
 5071SOL    HW226673   1.102   0.422   2.571  0.4483 -0.9568 -0.5217
 5072SOL     OW26674   3.842   0.601  12.960  0.3492  0.1751 -0.2038
 5072SOL    HW126675   3.928   0.640  12.977 -0.7467  1.9022  1.3132
 5072SOL    HW226676   3.860   0.573  12.870  1.6534  1.2923 -0.2961
 5073SOL     OW26677   0.314   4.138   9.612 -0.5004  0.6345 -0.1021
 5073SOL    HW126678   0.348   4.227   9.623  2.1366 -0.5438  1.1747
 5073SOL    HW226679   0.336   4.122   9.520 -1.6413 -1.2475 -0.0395
 5074SOL     OW26680   0.424   1.267   0.958  0.4691  0.4142 -0.1169
 5074SOL    HW126681   0.332   1.292   0.956 -0.3871 -2.4681  1.8538
 5074SOL    HW226682   0.471   1.334   0.908  2.2372 -1.2401 -0.7150
 5075SOL     OW26683   4.399   3.403   1.232 -0.1737 -0.0621  0.1596
 5075SOL    HW126684   4.424   3.494   1.214 -1.9212  0.2674 -0.5892
 5075SOL    HW226685   4.432   3.388   1.321  0.0677  0.4971  0.1657
 5076SOL     OW26686   3.704   3.749   0.394 -0.1573  0.1727  0.0157
 5076SOL    HW126687   3.790   3.762   0.432  0.8686 -1.6081 -1.7072
 5076SOL    HW226688   3.651   3.726   0.470  0.8217 -0.9543  0.3388
 5077SOL     OW26689   3.260   4.248   0.967  0.2287  0.6152 -0.0943
 5077SOL    HW126690   3.319   4.275   1.036  0.3973 -0.3551  0.1399
 5077SOL    HW226691   3.203   4.324   0.952 -1.9773 -0.7774  1.2089
 5078SOL     OW26692   4.126   2.611   6.412 -0.7483 -0.1589  0.0724
 5078SOL    HW126693   4.144   2.705   6.419  0.1767 -0.2069 -1.8940
 5078SOL    HW226694   4.183   2.595   6.337 -0.6571 -0.5777  0.2277
 5079SOL     OW26695   1.555   2.548   7.462 -0.1101  0.0768 -0.0892
 5079SOL    HW126696   1.612   2.532   7.537  0.1293  0.9105 -0.0903
 5079SOL    HW226697   1.606   2.511   7.390  1.9061  0.3951  1.1556
 5080SOL     OW26698   0.167   0.099  14.971 -0.2289 -0.2662  0.2771
 5080SOL    HW126699   0.133   0.173  14.920 -1.1983 -1.8348 -1.3563
 5080SOL    HW226700   0.230   0.151  15.020 -1.2388  0.9967  0.2441
 5081SOL     OW26701   0.550   3.244   8.281  0.4699  0.3372  0.5940
 5081SOL    HW126702   0.593   3.176   8.334 -0.3453 -1.3897 -0.9539
 5081SOL    HW226703   0.457   3.236   8.301  1.4489 -1.6871  4.3281
 5082SOL     OW26704   1.639   3.899   2.099 -0.4476  0.0820 -0.1642
 5082SOL    HW126705   1.561   3.912   2.153 -1.2843  1.2630 -1.6633
 5082SOL    HW226706   1.700   3.969   2.120  1.6777 -1.5931 -0.7309
 5083SOL     OW26707   3.100   1.762   2.719  0.4635 -0.1369 -0.5877
 5083SOL    HW126708   3.086   1.743   2.812 -1.2414 -1.6446 -1.1406
 5083SOL    HW226709   3.170   1.698   2.704 -0.5229 -1.3591  0.0114
 5084SOL     OW26710   3.579   1.422   3.541 -0.8278  0.5469 -0.5871
 5084SOL    HW126711   3.542   1.419   3.453  0.2268  0.9942 -1.0499
 5084SOL    HW226712   3.673   1.430   3.531 -0.8279  1.1859 -0.1124
 5085SOL     OW26713   3.237   2.179   5.627  0.4200 -0.1708 -0.2663
 5085SOL    HW126714   3.224   2.267   5.663 -0.0346 -0.1215 -0.5569
 5085SOL    HW226715   3.224   2.118   5.700  0.6422  0.3801  0.2288
 5086SOL     OW26716   0.955   0.878   6.777 -0.7579  0.3397 -0.1371
 5086SOL    HW126717   0.929   0.829   6.698  1.6871  1.4155 -1.5996
 5086SOL    HW226718   0.882   0.938   6.795 -0.4108  0.4382  0.8883
 5087SOL     OW26719   0.928   1.978   2.535 -0.2779  0.2174 -0.3255
 5087SOL    HW126720   0.892   1.931   2.610  2.8447 -1.2081  0.2403
 5087SOL    HW226721   0.847   2.025   2.511 -0.6431  1.0912  2.5863
 5088SOL     OW26722   4.189   1.216   6.076  0.5322 -0.4809 -0.1727
 5088SOL    HW126723   4.155   1.270   6.147  2.2363 -0.4608  0.6131
 5088SOL    HW226724   4.281   1.237   6.088  0.5103 -1.5645  1.8390
 5089SOL     OW26725   0.213   1.579   9.243  0.5108 -0.2118 -0.5116
 5089SOL    HW126726   0.291   1.544   9.284 -0.2168 -1.6739 -0.3580
 5089SOL    HW226727   0.138   1.553   9.296  1.4384 -1.1715  0.3034
 5090SOL     OW26728   1.072   1.341   4.552  0.1292  0.1014 -0.7054
 5090SOL    HW126729   1.157   1.325   4.511  0.5850  1.6902 -0.3702
 5090SOL    HW226730   1.061   1.436   4.554 -0.4620  0.0208 -0.2423
 5091SOL     OW26731   3.551   4.443   7.399 -0.3734 -0.2840  0.4568
 5091SOL    HW126732   3.605   4.415   7.325  0.4566  1.0903  0.5454
 5091SOL    HW226733   3.484   4.496   7.356 -1.5056 -1.8889  0.2298
 5092SOL     OW26734   1.990   1.060   9.523  0.4073 -0.1082  0.2772
 5092SOL    HW126735   1.915   1.002   9.529 -0.5152  1.0075 -0.3862
 5092SOL    HW226736   1.990   1.107   9.606  2.2554 -2.3438  1.5114
 5093SOL     OW26737   2.512   0.445   8.035 -0.3506 -0.1559 -0.3190
 5093SOL    HW126738   2.477   0.510   7.974  0.8478  0.6483 -0.1521
 5093SOL    HW226739   2.458   0.367   8.020  0.5468 -0.9630  0.5962
 5094SOL     OW26740   1.024   1.805  10.375 -0.4146 -0.2031 -0.1171
 5094SOL    HW126741   1.053   1.895  10.388 -1.0542 -0.4524  2.9236
 5094SOL    HW226742   1.010   1.763  10.460  0.9650 -0.2389  0.0858
 5095SOL     OW26743   4.303   4.141   5.770  0.3842 -0.4254 -0.1563
 5095SOL    HW126744   4.240   4.162   5.840 -1.0463 -1.0874 -1.2388
 5095SOL    HW226745   4.245   4.093   5.711  0.4664 -0.8090  0.0685
 5096SOL     OW26746   0.055   3.040   4.042  0.7786 -0.3263 -0.1616
 5096SOL    HW126747   0.100   3.124   4.042 -0.1197  0.1629  0.0715
 5096SOL    HW226748   0.122   2.975   4.059  2.3399  1.1191 -0.8125
 5097SOL     OW26749   1.953   0.363   6.857 -0.2165  0.0577 -0.0255
 5097SOL    HW126750   2.030   0.369   6.914 -2.1135 -0.9650  2.6604
 5097SOL    HW226751   1.975   0.434   6.797 -0.5625 -0.3940 -0.6822
 5098SOL     OW26752   2.220   1.488  10.009 -0.4193 -0.2291  0.1177
 5098SOL    HW126753   2.181   1.424   9.950  0.6700 -0.9843  0.2176
 5098SOL    HW226754   2.290   1.434  10.046  0.2054  0.4699 -0.0428
 5099SOL     OW26755   2.762   0.627   3.187  0.1565  0.4018  0.8004
 5099SOL    HW126756   2.745   0.540   3.223 -0.1777 -0.2179 -0.8813
 5099SOL    HW226757   2.837   0.612   3.130 -0.1450  1.2040  0.1918
 5100SOL     OW26758   2.513   2.685  11.903 -0.6314 -0.3958 -0.5831
 5100SOL    HW126759   2.522   2.590  11.901 -1.1139 -0.3891 -2.5564
 5100SOL    HW226760   2.549   2.715  11.820  2.7724 -1.5297  0.5155
 5101SOL     OW26761   4.364   1.522   5.291  0.2164 -0.8321 -0.1608
 5101SOL    HW126762   4.363   1.582   5.365 -0.4124  0.4097 -1.1656
 5101SOL    HW226763   4.344   1.443   5.340 -0.5185  0.2946  1.3437
 5102SOL     OW26764   4.461   2.292   7.573  0.3592  0.4044  0.1592
 5102SOL    HW126765   4.512   2.258   7.500  0.1819 -0.4713  0.4398
 5102SOL    HW226766   4.517   2.256   7.642  0.1364 -1.4232 -0.5994
 5103SOL     OW26767   3.431   0.986  12.344  0.8875  0.1648 -0.0386
 5103SOL    HW126768   3.347   0.944  12.325 -0.3667  3.0008 -0.7161
 5103SOL    HW226769   3.417   1.074  12.308 -1.1091 -0.5038 -0.9260
 5104SOL     OW26770   3.485   2.074  14.335 -0.7925  0.7012  0.2110
 5104SOL    HW126771   3.536   1.993  14.331  2.0291  2.4383  0.8868
 5104SOL    HW226772   3.422   2.048  14.268  0.5376 -1.1820 -0.3394
 5105SOL     OW26773   1.251   0.430   0.468 -0.1922 -0.0273 -0.3267
 5105SOL    HW126774   1.264   0.407   0.376 -0.9544 -0.6957 -0.2679
 5105SOL    HW226775   1.277   0.345   0.503 -0.3275 -0.2966 -0.8692
 5106SOL     OW26776   3.926   1.238   0.661 -0.2914  0.1890 -0.1922
 5106SOL    HW126777   3.877   1.300   0.716  3.5124  2.8492  0.1729
 5106SOL    HW226778   3.973   1.295   0.600 -0.7190  0.4951 -0.2340
 5107SOL     OW26779   1.731   3.859  15.807  0.4998 -0.2128  0.2780
 5107SOL    HW126780   1.662   3.811  15.761 -0.7209  0.8992  0.9492
 5107SOL    HW226781   1.707   3.842  15.898  1.7855  1.0395  0.8627
 5108SOL     OW26782   0.308   3.659   3.176 -0.1881 -0.1486  0.1904
 5108SOL    HW126783   0.312   3.563   3.169  0.2612 -0.1810  0.9196
 5108SOL    HW226784   0.382   3.698   3.131  0.4958 -0.5988  0.9288
 5109SOL     OW26785   1.755   3.188   6.591  0.0462  0.6024 -0.1573
 5109SOL    HW126786   1.775   3.101   6.626 -1.3377  1.6598  3.2444
 5109SOL    HW226787   1.769   3.176   6.498 -0.9329  1.1794 -0.3824
 5110SOL     OW26788   1.350   1.086   3.445 -0.6284  0.2329 -0.5611
 5110SOL    HW126789   1.292   1.158   3.418  0.3322  0.7769 -1.1595
 5110SOL    HW226790   1.434   1.124   3.420  1.1457 -2.5503  1.2249
 5111SOL     OW26791   3.255   3.458  16.820 -0.1253  0.1146  0.0666
 5111SOL    HW126792   3.252   3.512  16.899  0.8049 -0.5433  0.5561
 5111SOL    HW226793   3.182   3.397  16.830 -0.2482  0.3990  0.8914
 5112SOL     OW26794   2.920   1.635   2.022 -0.2342  0.2838  0.6992
 5112SOL    HW126795   2.949   1.600   1.938 -0.3699 -0.3029  0.9021
 5112SOL    HW226796   2.999   1.682   2.050  0.3519  0.4788 -1.2771
 5113SOL     OW26797   4.187   2.172  14.774  0.2484  0.2904  0.3344
 5113SOL    HW126798   4.159   2.144  14.687 -1.2260 -2.1369  1.6075
 5113SOL    HW226799   4.118   2.237  14.792 -0.9558 -0.5218 -1.4019
 5114SOL     OW26800   4.326   0.267   8.532  0.5783 -0.2705  0.6970
 5114SOL    HW126801   4.295   0.194   8.587 -0.2301 -0.0072  0.5967
 5114SOL    HW226802   4.418   0.252   8.553  0.7534  0.6578  0.5929
 5115SOL     OW26803   4.161   1.287   9.473  0.0120  0.2343  0.5858
 5115SOL    HW126804   4.249   1.318   9.453  0.1812  0.2631  1.3720
 5115SOL    HW226805   4.125   1.370   9.502 -2.0181 -0.9472  1.4529
 5116SOL     OW26806   4.051   1.338   1.100  0.3907 -0.2938 -0.1484
 5116SOL    HW126807   4.091   1.376   1.022  0.2924  0.1218  0.0064
 5116SOL    HW226808   4.133   1.304   1.137 -0.5603 -1.5878  0.7821
 5117SOL     OW26809   0.884   2.044   5.918  0.4017 -0.5954 -0.5021
 5117SOL    HW126810   0.800   1.998   5.921 -0.2235  0.5448 -0.7583
 5117SOL    HW226811   0.948   1.975   5.903  1.3479  0.7419 -2.5456
 5118SOL     OW26812   2.931   3.006   4.347  0.4141  0.1451  1.0306
 5118SOL    HW126813   2.869   2.938   4.322  0.6410  1.0481 -1.9584
 5118SOL    HW226814   2.937   3.008   4.443 -0.1714 -0.3070  1.0790
 5119SOL     OW26815   3.781   0.127   5.785  0.1293  0.1684 -0.8425
 5119SOL    HW126816   3.850   0.107   5.722  0.7945 -1.6488  0.4844
 5119SOL    HW226817   3.796   0.061   5.853  0.4523  0.2161 -0.8673
 5120SOL     OW26818   1.538   0.926   8.067  0.0985 -0.1968 -0.2833
 5120SOL    HW126819   1.530   0.839   8.028  1.3587 -0.3914 -0.1105
 5120SOL    HW226820   1.610   0.967   8.018  0.0934  0.4787  0.2765
 5121SOL     OW26821   3.651   1.659  13.320 -0.3582 -0.0668  0.0150
 5121SOL    HW126822   3.616   1.731  13.373 -0.5998  0.5540 -0.9805
 5121SOL    HW226823   3.568   1.610  13.321 -0.6997  0.4849 -1.6982
 5122SOL     OW26824   4.443   0.647   0.225 -0.5664 -0.8099  0.2888
 5122SOL    HW126825   4.424   0.710   0.155  2.0117  0.2108  0.5010
 5122SOL    HW226826   4.390   0.572   0.200 -3.9299  2.0932 -1.3824
 5123SOL     OW26827   0.497   0.221   4.997 -0.2705 -0.0639  0.1405
 5123SOL    HW126828   0.448   0.257   4.923  3.5410  1.1567 -1.7925
 5123SOL    HW226829   0.525   0.135   4.965 -0.0972  0.0629 -0.0510
 5124SOL     OW26830   1.563   3.302  10.157  0.5702  0.0034  0.3994
 5124SOL    HW126831   1.577   3.365  10.228 -2.6056 -0.5522  1.5481
 5124SOL    HW226832   1.638   3.308  10.098  1.5307  3.2645  1.9434
 5125SOL     OW26833   1.324   4.235   9.958  0.7229 -0.0369  0.4602
 5125SOL    HW126834   1.341   4.276   9.873  1.2980 -0.5945  0.3045
 5125SOL    HW226835   1.234   4.207   9.943  0.0358  1.3927  1.8795
 5126SOL     OW26836   0.700   1.979   2.721  0.2142 -0.2512 -0.1129
 5126SOL    HW126837   0.638   1.935   2.663  1.2659  0.0182 -1.4333
 5126SOL    HW226838   0.693   2.068   2.687 -0.8814 -0.3640 -0.1674
 5127SOL     OW26839   4.499   0.729   8.379  0.3040  0.0715  0.0403
 5127SOL    HW126840   4.455   0.703   8.460 -2.4411  2.9217 -0.5466
 5127SOL    HW226841   4.422   0.732   8.323 -0.4238 -0.1686  1.0300
 5128SOL     OW26842   2.808   1.531   5.928  0.1631 -0.7096  0.5404
 5128SOL    HW126843   2.735   1.525   5.990  0.3167  2.5064  1.0300
 5128SOL    HW226844   2.778   1.455   5.879 -0.3783 -1.4606  2.0232
 5129SOL     OW26845   1.506   2.763   6.172  0.2114 -0.5742  0.1281
 5129SOL    HW126846   1.410   2.765   6.177  0.1232 -0.9091 -1.5759
 5129SOL    HW226847   1.508   2.697   6.103  0.2485 -1.0580  0.5886
 5130SOL     OW26848   4.624   1.430   4.583  0.4610  0.4838 -0.1799
 5130SOL    HW126849   4.682   1.444   4.658  2.2481  0.6191 -1.5867
 5130SOL    HW226850   4.607   1.336   4.590  0.6046  0.5366  0.8361
 5131SOL     OW26851   0.191   2.582  14.403 -0.1241  0.2116  0.0231
 5131SOL    HW126852   0.147   2.653  14.449  1.4712  0.3358  1.3574
 5131SOL    HW226853   0.247   2.548  14.473 -0.3629 -0.5204 -0.1395
 5132SOL     OW26854   1.219   0.708   5.236  0.0937  0.3455  0.3583
 5132SOL    HW126855   1.289   0.664   5.189  0.7510 -0.5702  2.1967
 5132SOL    HW226856   1.277   0.756   5.295  2.2840 -3.0996  0.9774
 5133SOL     OW26857   0.864   1.451   7.123  0.0393  0.2668  0.0256
 5133SOL    HW126858   0.873   1.546   7.119  0.7380  0.0548 -3.4246
 5133SOL    HW226859   0.787   1.434   7.177 -0.6547 -0.2391 -1.1046
 5134SOL     OW26860   2.174   4.631   9.912  0.1740 -0.1800 -0.3547
 5134SOL    HW126861   2.234   4.694   9.953  0.2034 -1.6489  1.8089
 5134SOL    HW226862   2.204   4.637   9.821  0.1749  2.2210 -0.1999
 5135SOL     OW26863   4.368   0.632  12.462  0.0079  0.1011  0.4960
 5135SOL    HW126864   4.393   0.694  12.394 -2.3161 -1.0679 -1.4538
 5135SOL    HW226865   4.450   0.589  12.484  0.0584  0.1889  0.4793
 5136SOL     OW26866   2.082   0.300  14.712  0.4481  0.2797 -0.1571
 5136SOL    HW126867   2.004   0.356  14.711  1.4748  1.7266  0.1480
 5136SOL    HW226868   2.136   0.353  14.771  1.2686  0.8353 -1.3928
 5137SOL     OW26869   2.706   1.776  17.652  0.3682 -0.4773  0.5244
 5137SOL    HW126870   2.782   1.808  17.603  2.2300  0.0657  3.7403
 5137SOL    HW226871   2.662   1.855  17.684  2.9314 -0.9111  5.1630
 5138SOL     OW26872   1.597   4.589   2.730  0.0764 -0.5357 -0.0338
 5138SOL    HW126873   1.501   4.590   2.730  0.0914  0.7824  1.7458
 5138SOL    HW226874   1.615   4.633   2.813 -0.4352 -1.4388  0.5527
 5139SOL     OW26875   4.359   2.791   5.364  0.3868  0.1746  0.3860
 5139SOL    HW126876   4.351   2.866   5.423  1.0916 -0.4905  1.3178
 5139SOL    HW226877   4.398   2.732   5.427 -1.5965 -0.6471  0.8344
 5140SOL     OW26878   2.570   2.162   7.524 -0.3020 -0.2689  0.5926
 5140SOL    HW126879   2.532   2.087   7.478 -0.9720  0.5951 -0.2462
 5140SOL    HW226880   2.542   2.225   7.458  1.0848 -0.0678  0.1976
 5141SOL     OW26881   1.459   0.459  10.877 -0.7991  0.7531  0.7158
 5141SOL    HW126882   1.491   0.457  10.967  0.1868  2.2434  0.3915
 5141SOL    HW226883   1.511   0.530  10.841 -1.3798  1.2437  0.8497
 5142SOL     OW26884   1.780   4.570  17.526  0.2800 -0.0433 -0.1212
 5142SOL    HW126885   1.786   4.651  17.476  0.8635 -0.7923 -1.2540
 5142SOL    HW226886   1.821   4.515  17.460  0.5411 -0.3085  0.2649
 5143SOL     OW26887   1.173   4.484   7.849 -0.6203 -0.2219  0.0465
 5143SOL    HW126888   1.093   4.480   7.902 -0.4964 -0.4296  0.2180
 5143SOL    HW226889   1.177   4.572   7.810  0.0033 -1.1490 -1.9652
 5144SOL     OW26890   1.706   4.552   8.354 -0.1513 -0.2115 -0.0764
 5144SOL    HW126891   1.627   4.554   8.408 -1.2903  2.3240 -1.8360
 5144SOL    HW226892   1.734   4.463   8.376  0.0887 -0.2583 -0.5694
 5145SOL     OW26893   4.718   4.493   3.022  0.1664  0.0419  0.2925
 5145SOL    HW126894   0.046   4.477   2.941  1.9818  0.2117  1.3625
 5145SOL    HW226895   0.044   4.443   3.088 -0.0093 -1.1694 -0.5074
 5146SOL     OW26896   2.250   2.530   4.843 -0.3334 -0.0978 -0.2271
 5146SOL    HW126897   2.209   2.594   4.786  0.2846 -0.3975 -1.0141
 5146SOL    HW226898   2.328   2.575   4.875 -0.5228  0.6744 -0.8824
 5147SOL     OW26899   1.455   1.362  10.795 -0.4432 -0.2628 -1.0455
 5147SOL    HW126900   1.420   1.273  10.790  0.0125 -0.5435  0.9686
 5147SOL    HW226901   1.484   1.364  10.704  1.2695 -0.6639 -0.4993
 5148SOL     OW26902   0.161   4.131  11.288  0.6127  0.2463  0.3122
 5148SOL    HW126903   0.124   4.160  11.205  2.0703  1.5354  0.1283
 5148SOL    HW226904   0.210   4.211  11.305 -0.6259  0.9949  0.3576
 5149SOL     OW26905   1.922   0.249   3.224 -0.0258  0.0857 -0.3012
 5149SOL    HW126906   2.010   0.241   3.189  0.6060 -0.1993  1.3598
 5149SOL    HW226907   1.885   0.317   3.167 -2.2686 -2.5027 -1.9385
 5150SOL     OW26908   3.286   0.526   3.493 -0.4996  0.3505 -0.5030
 5150SOL    HW126909   3.238   0.483   3.563  2.5218 -1.9089  0.2066
 5150SOL    HW226910   3.217   0.531   3.427 -1.0900 -2.3717 -0.0942
 5151SOL     OW26911   2.473   0.635   4.020  0.4109  0.1250 -0.1270
 5151SOL    HW126912   2.398   0.576   4.014  0.5838  0.1712 -2.4986
 5151SOL    HW226913   2.524   0.584   3.957 -0.5487 -0.7973 -0.1561
 5152SOL     OW26914   0.342   0.429   4.105 -0.7458  0.1457  0.2516
 5152SOL    HW126915   0.324   0.489   4.178 -1.5327 -0.0216  0.1982
 5152SOL    HW226916   0.267   0.369   4.106 -0.0368 -0.7554 -0.8343
 5153SOL     OW26917   1.821   4.628  12.624  0.2915 -0.8777  0.4001
 5153SOL    HW126918   1.872   4.690  12.572 -1.3332  0.9486  0.9643
 5153SOL    HW226919   1.848   4.540  12.599  0.0271 -0.3925 -1.5732
 5154SOL     OW26920   2.281   2.275   2.572  0.4769  0.8178  0.2418
 5154SOL    HW126921   2.289   2.286   2.667  1.3082 -1.8814  0.4866
 5154SOL    HW226922   2.296   2.182   2.558 -1.6932  0.4927  0.1023
 5155SOL     OW26923   0.681   4.217   5.809 -0.2924 -0.2189 -0.7869
 5155SOL    HW126924   0.679   4.133   5.854 -1.0137  0.3362  0.2130
 5155SOL    HW226925   0.746   4.275   5.849 -0.6185 -0.0375 -0.5175
 5156SOL     OW26926   2.055   0.980  11.266  0.0338 -0.4296  0.1865
 5156SOL    HW126927   1.965   1.011  11.257  1.1461  2.6467 -0.4490
 5156SOL    HW226928   2.072   1.002  11.357 -1.0045 -2.1018  0.7868
 5157SOL     OW26929   4.067   1.559   1.909  0.0678  0.2440  0.0214
 5157SOL    HW126930   4.025   1.525   1.830  0.5672 -3.6110  1.4325
 5157SOL    HW226931   4.141   1.613   1.880  1.4106 -3.1299 -2.6947
 5158SOL     OW26932   3.793   3.849   4.438  0.1342 -0.4300 -0.2392
 5158SOL    HW126933   3.697   3.846   4.434  0.2265 -0.6291 -2.1843
 5158SOL    HW226934   3.819   3.762   4.408  2.3493  0.8862 -2.1281
 5159SOL     OW26935   2.340   1.297   5.778  0.2670 -0.1025 -0.5382
 5159SOL    HW126936   2.312   1.228   5.718  1.4099 -0.4446 -0.6811
 5159SOL    HW226937   2.321   1.256   5.862  1.8293 -0.2318 -0.2608
 5160SOL     OW26938   4.127   2.608   7.934 -0.0307 -0.1700 -0.0681
 5160SOL    HW126939   4.046   2.597   7.983  0.0630 -2.6363 -0.4515
 5160SOL    HW226940   4.113   2.543   7.864 -1.1567 -0.1628  0.1482
 5161SOL     OW26941   3.687   3.275   3.281 -0.3135  0.4971 -0.4196
 5161SOL    HW126942   3.710   3.367   3.268  0.1550  0.1111 -2.3912
 5161SOL    HW226943   3.744   3.241   3.350 -0.4901  2.8836  0.9082
 5162SOL     OW26944   4.065   2.974   4.311  0.7259 -0.1065 -0.1287
 5162SOL    HW126945   3.976   3.006   4.327  0.7565 -0.6797  1.1408
 5162SOL    HW226946   4.112   3.057   4.298  2.8364 -0.9753  2.0060
 5163SOL     OW26947   4.240   0.125   6.756  0.0035 -0.1048  0.1303
 5163SOL    HW126948   4.218   0.065   6.828  0.0129  0.8030  0.8876
 5163SOL    HW226949   4.165   0.113   6.698  0.6363 -0.8465 -0.5310
 5164SOL     OW26950   3.323   3.063   5.479 -0.0470  0.0986 -0.2245
 5164SOL    HW126951   3.333   3.102   5.393 -1.3164 -1.1774 -0.9652
 5164SOL    HW226952   3.335   3.131   5.546  1.7888  1.0594 -1.5576
 5165SOL     OW26953   0.799   0.624   5.137  0.3102  0.0976 -0.3202
 5165SOL    HW126954   0.847   0.542   5.134 -1.2446 -0.7705 -1.6624
 5165SOL    HW226955   0.794   0.635   5.232 -4.2571 -0.7129 -0.4349
 5166SOL     OW26956   4.230   2.067  12.056  0.5716  0.0006  0.3095
 5166SOL    HW126957   4.252   2.002  12.123  1.1133 -0.2778 -0.1366
 5166SOL    HW226958   4.244   2.016  11.976  2.2081  0.6821  0.1416
 5167SOL     OW26959   4.260   0.076  16.745  0.1838 -0.1776  1.3035
 5167SOL    HW126960   4.288   0.034  16.664  2.4901  0.5251  1.7251
 5167SOL    HW226961   4.179   0.034  16.773  1.0153 -1.3722  1.9227
 5168SOL     OW26962   2.420   0.143   7.665 -0.1939 -0.0007 -0.4315
 5168SOL    HW126963   2.486   0.197   7.708 -2.8402  2.8402  0.0849
 5168SOL    HW226964   2.408   0.187   7.581  0.2151  0.8288 -0.0570
 5169SOL     OW26965   4.078   3.384   2.103 -0.2461 -0.6367  0.3595
 5169SOL    HW126966   4.069   3.413   2.012  1.0611  0.8108  0.6989
 5169SOL    HW226967   3.987   3.358   2.115 -0.8761  2.9056  3.3164
 5170SOL     OW26968   4.354   1.082   9.660 -0.0038  0.1285  0.4204
 5170SOL    HW126969   4.359   0.986   9.663  0.6218  0.1922  1.9149
 5170SOL    HW226970   4.281   1.098   9.719  0.8220 -1.2866  1.8389
 5171SOL     OW26971   4.043   1.775  10.520  0.3411  0.2291  0.0927
 5171SOL    HW126972   4.028   1.715  10.447  0.3369 -0.5272  0.7231
 5171SOL    HW226973   3.952   1.792  10.543 -0.3478 -4.7252  0.9981
 5172SOL     OW26974   4.017   2.433   7.755  0.0172 -0.2768  0.4483
 5172SOL    HW126975   3.926   2.460   7.769  0.0098  1.2745 -2.4318
 5172SOL    HW226976   4.005   2.349   7.798  2.0931 -1.3238 -1.0011
 5173SOL     OW26977   2.614   2.249   4.602 -0.1712  0.3996  0.5791
 5173SOL    HW126978   2.522   2.260   4.575  0.5345 -0.7079 -2.2778
 5173SOL    HW226979   2.604   2.188   4.675  0.5211  0.9733  1.1545
 5174SOL     OW26980   2.539   2.296   6.250  0.0692  0.2792 -0.4759
 5174SOL    HW126981   2.459   2.255   6.283  0.2754  0.1301 -0.1547
 5174SOL    HW226982   2.598   2.229   6.286 -2.4954 -1.8903 -0.3677
 5175SOL     OW26983   1.807   1.598  10.123 -0.2801 -0.0013  0.6197
 5175SOL    HW126984   1.843   1.686  10.108  0.0347 -0.3002 -0.3392
 5175SOL    HW226985   1.714   1.621  10.136 -0.5386  0.1289 -1.4787
 5176SOL     OW26986   3.140   0.341   6.631 -0.9932 -0.1885 -0.2811
 5176SOL    HW126987   3.148   0.436   6.623  1.7673 -0.3412  0.6039
 5176SOL    HW226988   3.232   0.319   6.616 -1.5167 -0.4000 -3.2730
 5177SOL     OW26989   3.619   1.881   2.197  0.1741 -0.3861  0.1248
 5177SOL    HW126990   3.711   1.900   2.179 -0.2653  1.3304 -0.3260
 5177SOL    HW226991   3.583   1.892   2.109  0.3027 -1.6404 -0.0829
 5178SOL     OW26992   1.253   3.097   2.826 -0.0803  0.4526 -0.1820
 5178SOL    HW126993   1.294   3.022   2.783  2.9484  1.7453  0.4284
 5178SOL    HW226994   1.273   3.166   2.763  0.1926  0.8526  0.3450
 5179SOL     OW26995   4.221   3.748   6.360  0.3738 -0.3811 -0.1561
 5179SOL    HW126996   4.187   3.778   6.275 -1.8671 -3.2841 -0.2757
 5179SOL    HW226997   4.181   3.817   6.412 -0.1047 -0.0953 -0.9010
 5180SOL     OW26998   0.604   0.798   0.326 -0.8869 -0.3460 -0.5097
 5180SOL    HW126999   0.674   0.735   0.344  1.3545  1.4335 -2.9278
 5180SOL    HW227000   0.655   0.877   0.309 -0.8298 -0.4670 -0.8857
 5181SOL     OW27001   1.256   2.289   5.632  0.1792  0.0698 -0.5254
 5181SOL    HW127002   1.310   2.258   5.705 -2.3352 -1.0632  0.8628
 5181SOL    HW227003   1.282   2.235   5.558 -1.7662 -0.6008 -0.7067
 5182SOL     OW27004   3.519   1.529   8.416 -0.1918 -0.7490  0.5452
 5182SOL    HW127005   3.462   1.498   8.486 -0.1344  0.3990  1.1009
 5182SOL    HW227006   3.458   1.576   8.360  1.3055  0.3529 -0.1455
 5183SOL     OW27007   0.700   4.172   8.575 -0.1843 -0.9260 -0.1029
 5183SOL    HW127008   0.753   4.095   8.598  1.1964 -0.2329 -0.9453
 5183SOL    HW227009   0.743   4.195   8.493  1.4130 -1.9825  0.4507
 5184SOL     OW27010   1.008   3.954   9.870 -0.0102  0.4694  0.5552
 5184SOL    HW127011   0.917   3.937   9.893  0.5935 -4.3980 -0.5482
 5184SOL    HW227012   1.048   3.868   9.851 -0.2695  0.6718 -0.8976
 5185SOL     OW27013   0.204   3.547   3.438  0.1671  0.0172  0.6996
 5185SOL    HW127014   0.160   3.576   3.517 -0.1633  0.9035  0.1818
 5185SOL    HW227015   0.229   3.628   3.394  1.7560  0.1698  1.8711
 5186SOL     OW27016   3.917   1.403   7.897 -0.4859  0.2130  0.6234
 5186SOL    HW127017   4.009   1.381   7.892 -0.7660 -0.3220 -2.3000
 5186SOL    HW227018   3.903   1.361   7.982 -1.8586 -0.7495 -0.0844
 5187SOL     OW27019   1.330   1.012   4.842 -0.2655  0.3426 -0.3952
 5187SOL    HW127020   1.382   0.944   4.885 -0.2317  0.0309 -0.9399
 5187SOL    HW227021   1.395   1.069   4.799  0.5451 -1.4238 -1.4976
 5188SOL     OW27022   2.225   1.886  13.925 -0.3421  0.3226  0.8078
 5188SOL    HW127023   2.186   1.830  13.992 -0.2033  2.2894  2.5503
 5188SOL    HW227024   2.183   1.845  13.849  0.9437  0.9799 -0.2612
 5189SOL     OW27025   4.076   3.277  11.246 -0.0112  0.0607 -0.4735
 5189SOL    HW127026   4.048   3.186  11.243 -0.1885  0.0776  0.5196
 5189SOL    HW227027   4.085   3.289  11.341 -1.6812 -2.2286 -0.0179
 5190SOL     OW27028   4.466   1.342   5.046 -0.3872 -0.5264  0.4316
 5190SOL    HW127029   4.429   1.395   5.116  0.0009  0.6393 -0.2576
 5190SOL    HW227030   4.561   1.350   5.055 -0.6471  2.4462  0.4732
 5191SOL     OW27031   1.309   2.810   4.144 -0.5424  0.2697 -0.5807
 5191SOL    HW127032   1.217   2.784   4.140 -0.0121 -1.4483 -1.6192
 5191SOL    HW227033   1.352   2.736   4.101 -0.0138  0.5367 -0.5104
 5192SOL     OW27034   3.706   4.237  15.444  0.2617  0.6785 -0.7403
 5192SOL    HW127035   3.695   4.290  15.523  2.9004 -0.4507  0.3808
 5192SOL    HW227036   3.619   4.213  15.413 -0.9915  2.4891  1.3457
 5193SOL     OW27037   1.806   3.971   4.991  0.0791 -0.0416 -0.1455
 5193SOL    HW127038   1.776   3.978   5.081  2.2383  2.4988  0.3683
 5193SOL    HW227039   1.864   4.047   4.991 -0.3798  0.3074  1.1744
 5194SOL     OW27040   1.783   3.071  10.241 -0.0305 -0.2087 -0.6161
 5194SOL    HW127041   1.716   3.032  10.297  1.0297 -0.5185  0.4409
 5194SOL    HW227042   1.730   3.129  10.186 -0.4155 -1.6932 -1.8347
 5195SOL     OW27043   4.096   0.074   9.825  0.1218  0.1513 -0.9546
 5195SOL    HW127044   4.146   0.154   9.813  2.3525 -0.7358  2.4924
 5195SOL    HW227045   4.021   0.113   9.870  0.0333 -1.0046 -0.0946
 5196SOL     OW27046   3.861   1.734   7.896  0.6906  0.1013 -0.0826
 5196SOL    HW127047   3.863   1.639   7.901 -3.8007 -0.1320 -2.7908
 5196SOL    HW227048   3.788   1.756   7.955  1.2577  0.2189  0.5663
 5197SOL     OW27049   1.289   1.830   5.398  0.0460  0.3931  0.2593
 5197SOL    HW127050   1.204   1.823   5.441  0.4770 -2.3678  0.6804
 5197SOL    HW227051   1.253   1.873   5.321 -0.5362  1.5364  1.1813
 5198SOL     OW27052   4.713   4.458   0.808  0.0011  0.4258  0.3766
 5198SOL    HW127053   0.080   4.463   0.847 -0.0389  1.6199  0.3189
 5198SOL    HW227054   4.708   4.363   0.796  0.0709  0.6063 -1.0895
 5199SOL     OW27055   3.046   3.393  11.062 -0.0913 -0.3008 -0.2185
 5199SOL    HW127056   3.129   3.382  11.016 -0.0677  0.6428 -0.4071
 5199SOL    HW227057   3.068   3.430  11.148 -0.3827 -0.1653 -0.2028
 5200SOL     OW27058   1.584   0.035   6.134 -0.8389 -0.2026  0.4713
 5200SOL    HW127059   1.674   0.060   6.111 -0.4499 -0.9783  1.1314
 5200SOL    HW227060   1.592   0.029   6.229  0.9528  0.4914  0.3736
 5201SOL     OW27061   1.589   3.965   2.871 -0.5204 -0.5039  0.2054
 5201SOL    HW127062   1.615   3.885   2.916  2.5906  0.8732  0.8370
 5201SOL    HW227063   1.660   3.975   2.807 -1.9901  1.5813 -1.1364
 5202SOL     OW27064   2.575   4.204   8.064 -0.6742 -0.4863 -0.3739
 5202SOL    HW127065   2.639   4.143   8.103  0.2231 -0.2076 -1.4097
 5202SOL    HW227066   2.629   4.262   8.010  1.4841 -0.5373  1.6976
 5203SOL     OW27067   1.914   2.152   6.225 -0.2557  0.3483 -0.0151
 5203SOL    HW127068   1.855   2.159   6.300 -0.2074  2.9057 -0.2098
 5203SOL    HW227069   1.960   2.070   6.244  1.4905  1.6313  1.2778
 5204SOL     OW27070   4.397   4.603  10.613  0.1529  0.8344 -0.2817
 5204SOL    HW127071   4.313   4.560  10.626  0.6807 -0.2854 -0.5879
 5204SOL    HW227072   4.392   4.673  10.677  0.8010 -0.4859  1.1997
 5205SOL     OW27073   1.885   4.071   4.626 -0.2732  0.2018 -0.1508
 5205SOL    HW127074   1.836   3.994   4.656 -0.1571  0.3207  0.3549
 5205SOL    HW227075   1.823   4.137   4.658  2.8365  1.4875  3.2388
 5206SOL     OW27076   4.593   0.077  10.794 -0.1880 -0.0884  0.3281
 5206SOL    HW127077   4.533   0.103  10.863  0.4586  1.8898  0.1590
 5206SOL    HW227078   4.674   0.082  10.845 -1.6736 -2.5101  2.8884
 5207SOL     OW27079   2.565   1.581  10.071  1.0303  0.3451 -0.4772
 5207SOL    HW127080   2.502   1.509  10.069 -0.8804  2.0121 -0.2172
 5207SOL    HW227081   2.601   1.592  10.159 -0.2248 -1.6813  0.3008
 5208SOL     OW27082   1.073   0.677   2.460 -0.0999 -0.0151 -0.1677
 5208SOL    HW127083   1.081   0.757   2.409  2.0128 -0.4455 -0.5047
 5208SOL    HW227084   1.006   0.637   2.405 -1.3838  1.4772  0.3030
 5209SOL     OW27085   1.030   1.704   2.872 -0.1199  0.4817 -0.8810
 5209SOL    HW127086   1.075   1.787   2.856 -0.2202  0.6031 -0.5249
 5209SOL    HW227087   1.108   1.654   2.844  0.4769  1.6259 -1.2480
 5210SOL     OW27088   4.554   4.364   7.716 -0.4981  0.8265 -0.5490
 5210SOL    HW127089   4.598   4.305   7.778  0.3874  1.0448 -0.9756
 5210SOL    HW227090   4.560   4.445   7.767 -3.5611  0.5722  0.2014
 5211SOL     OW27091   4.697   0.066   7.104  0.0658 -0.0309  0.3433
 5211SOL    HW127092   0.021   0.108   7.178  2.5089 -0.2478 -0.9850
 5211SOL    HW227093   4.618   0.119   7.105  2.1238  3.0171 -1.6729
 5212SOL     OW27094   1.889   3.519  10.598  0.5853  0.2186 -0.4853
 5212SOL    HW127095   1.920   3.536  10.509  0.8547 -1.7149 -0.7513
 5212SOL    HW227096   1.813   3.464  10.579 -0.6357  1.9562 -0.6368
 5213SOL     OW27097   2.959   3.757  11.344 -1.1201 -0.5375  0.3284
 5213SOL    HW127098   2.934   3.809  11.268 -1.4979 -0.4487  0.5115
 5213SOL    HW227099   2.966   3.668  11.308  0.3713 -0.5350  0.6125
 5214SOL     OW27100   4.262   4.302  13.354 -0.0892 -0.2044 -0.3325
 5214SOL    HW127101   4.345   4.350  13.359 -0.7104  0.7355  0.7203
 5214SOL    HW227102   4.232   4.317  13.443  1.1531  1.8813 -0.2643
 5215SOL     OW27103   3.624   2.917   7.265  0.4040  0.4278  0.2820
 5215SOL    HW127104   3.591   2.835   7.304  2.7394  0.2543  1.8773
 5215SOL    HW227105   3.704   2.924   7.316  0.4470 -0.8779  0.4078
 5216SOL     OW27106   2.265   4.194   8.129  0.7836  0.1410 -0.4574
 5216SOL    HW127107   2.356   4.176   8.106 -0.1242 -1.3343 -2.9813
 5216SOL    HW227108   2.231   4.115   8.087  1.7477  0.3435 -1.6106
 5217SOL     OW27109   3.534   2.863  15.869  0.2627  0.2780 -0.6263
 5217SOL    HW127110   3.625   2.881  15.845 -0.3016  2.9199 -0.7814
 5217SOL    HW227111   3.504   2.818  15.790 -0.1794 -2.5181  1.1428
 5218SOL     OW27112   2.764   3.906  10.545 -0.2503 -0.3516  0.3058
 5218SOL    HW127113   2.701   3.969  10.580  0.4523  0.0376  0.8734
 5218SOL    HW227114   2.783   3.944  10.459 -2.0587  1.6423  0.7891
 5219SOL     OW27115   0.623   0.680   2.444 -0.5978 -0.3296 -0.1554
 5219SOL    HW127116   0.621   0.586   2.430  0.8894 -0.3093 -0.5059
 5219SOL    HW227117   0.610   0.692   2.538 -1.5032 -2.0572 -0.0691
 5220SOL     OW27118   1.702   3.464  10.325 -0.3705 -0.2333 -0.4236
 5220SOL    HW127119   1.793   3.456  10.354 -0.4332  0.7752  0.0524
 5220SOL    HW227120   1.663   3.449  10.411  1.1708  0.4712  0.4130
 5221SOL     OW27121   1.913   3.722   4.927  0.3402  0.1672 -1.2388
 5221SOL    HW127122   1.892   3.812   4.952 -2.5939 -0.9865  0.5019
 5221SOL    HW227123   1.832   3.684   4.961  0.6802 -0.0177 -0.6453
 5222SOL     OW27124   4.385   1.380   4.398  0.1591 -0.3795 -0.0759
 5222SOL    HW127125   4.451   1.442   4.365 -0.4955 -0.8903 -2.3704
 5222SOL    HW227126   4.427   1.372   4.484 -0.6820 -0.9781  0.2736
 5223SOL     OW27127   0.121   2.505  15.721 -0.3017 -0.7594 -0.2352
 5223SOL    HW127128   0.036   2.499  15.765 -0.4603 -0.6118 -0.5203
 5223SOL    HW227129   0.100   2.508  15.628 -1.6291  0.1711  0.0864
 5224SOL     OW27130   0.578   3.285   8.002  0.8121 -0.0962 -0.5430
 5224SOL    HW127131   0.501   3.319   7.957  1.3780  0.0123 -1.4353
 5224SOL    HW227132   0.536   3.252   8.082  0.9237 -0.2549 -0.5503
 5225SOL     OW27133   0.664   1.832   8.636 -0.2259  0.4655 -0.3034
 5225SOL    HW127134   0.578   1.791   8.639  0.3362 -0.6868  0.0295
 5225SOL    HW227135   0.637   1.923   8.625 -1.2118  0.5909  3.0418
 5226SOL     OW27136   1.250   3.079  13.009 -0.1274 -0.0336 -0.2212
 5226SOL    HW127137   1.211   3.162  12.982 -0.9916 -0.7764 -1.2755
 5226SOL    HW227138   1.328   3.086  12.953  0.6542 -0.9366  0.7561
 5227SOL     OW27139   1.650   3.460   2.436 -0.4151  0.0759 -0.0382
 5227SOL    HW127140   1.733   3.452   2.390  0.0554 -1.5631  1.0710
 5227SOL    HW227141   1.605   3.380   2.409 -1.5047  0.1033  1.6943
 5228SOL     OW27142   2.846   2.668   9.818 -0.5812  0.0142 -0.2971
 5228SOL    HW127143   2.879   2.582   9.847  1.4694  1.1303  0.6280
 5228SOL    HW227144   2.770   2.644   9.764 -1.6026 -0.2923  1.2601
 5229SOL     OW27145   0.747   0.802  14.089  0.5889 -0.3955  0.2841
 5229SOL    HW127146   0.712   0.822  14.003  1.4752  2.6946  0.6111
 5229SOL    HW227147   0.707   0.878  14.132  1.9450 -0.6489  2.0301
 5230SOL     OW27148   1.560   4.614   0.103 -0.3175  0.1559 -0.4901
 5230SOL    HW127149   1.612   4.639   0.027  0.8934  0.3503  0.4105
 5230SOL    HW227150   1.634   4.611   0.164  0.3714  1.3450 -1.2872
 5231SOL     OW27151   0.798   1.607   4.301  0.1515 -0.0518 -0.4478
 5231SOL    HW127152   0.797   1.594   4.206  0.9522 -1.3693 -0.2733
 5231SOL    HW227153   0.860   1.536   4.317 -0.1258 -0.1034  0.4017
 5232SOL     OW27154   0.890   2.620   8.102  0.3352  0.1341  0.4245
 5232SOL    HW127155   0.872   2.594   8.193  3.2187 -0.5462  0.7969
 5232SOL    HW227156   0.849   2.544   8.062  0.4783 -0.6119  1.6948
 5233SOL     OW27157   1.381   1.626   3.473  0.2256 -0.3530  0.2914
 5233SOL    HW127158   1.441   1.572   3.422 -1.2341 -0.3938 -1.3820
 5233SOL    HW227159   1.302   1.574   3.465  0.1632 -0.4286  1.3422
 5234SOL     OW27160   3.029   1.664  14.961  0.0007 -0.5542  0.4989
 5234SOL    HW127161   3.096   1.656  15.028 -1.5515  1.8578  2.3217
 5234SOL    HW227162   3.012   1.758  14.955 -0.6741 -0.7048 -0.0361
 5235SOL     OW27163   0.944   3.411   7.660 -0.6004  0.0431 -0.3800
 5235SOL    HW127164   0.870   3.421   7.720 -1.3863  0.2459 -1.3738
 5235SOL    HW227165   0.934   3.315   7.663  1.7501 -0.0965  2.3457
 5236SOL     OW27166   4.697   1.169   3.483 -0.1083 -0.2510  0.2188
 5236SOL    HW127167   0.058   1.199   3.445  0.6755  1.4448  3.2588
 5236SOL    HW227168   4.646   1.156   3.403  0.9036  1.2315 -0.6617
 5237SOL     OW27169   2.107   3.207  16.818  0.0962  0.4537  0.3177
 5237SOL    HW127170   2.127   3.256  16.898  1.1689 -0.8646  0.8535
 5237SOL    HW227171   2.011   3.211  16.822 -0.0305 -2.2853 -0.2873
 5238SOL     OW27172   3.320   4.687   8.561 -0.1953  0.0986  0.2102
 5238SOL    HW127173   3.356   4.604   8.529  0.9634  0.6885  0.0096
 5238SOL    HW227174   3.314   0.022   8.484 -1.3154  2.5741  2.1063
 5239SOL     OW27175   2.785   2.767   8.911 -0.0114  0.8491  0.2808
 5239SOL    HW127176   2.856   2.739   8.854  0.3725  0.0117  1.1791
 5239SOL    HW227177   2.772   2.856   8.878  1.8565  0.5406 -1.2380
 5240SOL     OW27178   2.435   3.077  10.690 -0.3050  0.7110  0.0305
 5240SOL    HW127179   2.402   3.003  10.638 -2.3009  2.5836 -1.3597
 5240SOL    HW227180   2.402   3.152  10.641 -1.7077 -1.7277 -2.7977
 5241SOL     OW27181   2.249   3.976  13.904 -0.0312  0.2745  0.3698
 5241SOL    HW127182   2.284   4.046  13.959  0.3982  1.0875 -0.9476
 5241SOL    HW227183   2.232   3.908  13.969 -1.5764  0.5204  0.2152
 5242SOL     OW27184   2.078   3.023   5.817  0.0769 -0.2168 -0.6886
 5242SOL    HW127185   2.165   3.061   5.826 -0.3504  1.0328 -1.6914
 5242SOL    HW227186   2.076   2.992   5.726  1.7882 -0.7175 -0.5498
 5243SOL     OW27187   0.680   3.635  17.066  0.3106 -0.2848 -0.3053
 5243SOL    HW127188   0.639   3.673  17.144 -0.0771  0.0049 -0.6507
 5243SOL    HW227189   0.644   3.547  17.064  0.2707 -0.2477 -1.3986
 5244SOL     OW27190   3.606   3.922   4.966  0.2387 -1.0155  0.2032
 5244SOL    HW127191   3.694   3.924   4.930 -0.5594  1.5522 -1.6429
 5244SOL    HW227192   3.543   3.951   4.900 -0.8700  0.3126  1.8319
 5245SOL     OW27193   1.623   2.003   2.998  0.5357 -0.3981 -0.3045
 5245SOL    HW127194   1.554   1.970   3.056 -0.4214  1.4756 -0.3577
 5245SOL    HW227195   1.618   2.098   3.012 -0.4357 -0.8148  2.1479
 5246SOL     OW27196   0.722   0.451   9.040  0.4702 -0.4180  0.2033
 5246SOL    HW127197   0.700   0.417   8.953  0.1983 -3.2764  1.3941
 5246SOL    HW227198   0.771   0.531   9.021 -0.9041  0.9815  2.5966
 5247SOL     OW27199   1.196   3.740   2.306  0.1065 -0.3617  0.3828
 5247SOL    HW127200   1.187   3.649   2.277  1.0055 -0.4884  0.5147
 5247SOL    HW227201   1.113   3.764   2.265  1.3583  1.9887 -0.7461
 5248SOL     OW27202   4.014   0.198  17.181 -0.1636  0.0379  0.4127
 5248SOL    HW127203   3.960   0.119  17.170  0.2053 -0.1259 -0.2012
 5248SOL    HW227204   4.079   0.178  17.249 -0.7109 -0.8023  0.6986
 5249SOL     OW27205   1.763   2.841   9.630 -0.1210  0.4221 -0.0500
 5249SOL    HW127206   1.838   2.862   9.686 -0.5804  0.5228  0.5167
 5249SOL    HW227207   1.813   2.816   9.551 -1.4724 -0.1954 -0.7032
 5250SOL     OW27208   1.865   0.853   1.185  0.1731  0.0245  0.4228
 5250SOL    HW127209   1.861   0.758   1.193 -0.0281  0.0679  0.8505
 5250SOL    HW227210   1.946   0.868   1.233  0.7773 -0.8344 -0.3339
 5251SOL     OW27211   4.283   2.748   9.244 -0.9717  0.1460  0.3902
 5251SOL    HW127212   4.281   2.843   9.232 -0.2906  0.0037 -0.8341
 5251SOL    HW227213   4.242   2.733   9.159 -0.2674  0.1507  0.0516
 5252SOL     OW27214   1.577   2.309   8.183 -0.3050 -0.4582 -0.4091
 5252SOL    HW127215   1.525   2.390   8.188 -0.0318 -0.4413  2.4045
 5252SOL    HW227216   1.631   2.327   8.260 -0.1943 -2.4651 -0.0349
 5253SOL     OW27217   0.571   1.271   3.637  0.0919  0.0845 -0.1739
 5253SOL    HW127218   0.653   1.251   3.591  0.8683 -0.1331  1.2807
 5253SOL    HW227219   0.531   1.336   3.579  0.0297  0.0687 -0.1485
 5254SOL     OW27220   2.009   0.685   4.274  0.2678  0.2119  0.4011
 5254SOL    HW127221   1.914   0.698   4.271  0.1208 -1.0631 -0.1476
 5254SOL    HW227222   2.002   0.597   4.312 -1.5701  1.0246  1.9642
 5255SOL     OW27223   0.162   1.905   3.284 -0.0881  0.0809 -0.0770
 5255SOL    HW127224   0.221   1.854   3.229  0.3086  0.4538 -0.0001
 5255SOL    HW227225   0.105   1.943   3.217 -0.7419 -3.3339 -1.4224
 5256SOL     OW27226   1.308   4.560   8.295  1.1381 -0.5959  0.1316
 5256SOL    HW127227   1.336   4.645   8.329  0.6588 -0.0363 -0.8908
 5256SOL    HW227228   1.347   4.551   8.208 -1.3060 -2.5996 -0.7616
 5257SOL     OW27229   3.507   0.837  12.060 -0.7772  0.1639  0.6819
 5257SOL    HW127230   3.584   0.842  12.117  0.0218 -1.0232 -0.2866
 5257SOL    HW227231   3.468   0.922  12.080 -0.4220  0.6401 -0.6405
 5258SOL     OW27232   0.098   3.306   6.504 -0.4765  0.4515  0.2115
 5258SOL    HW127233   0.150   3.321   6.424 -0.1457  1.2528  0.5755
 5258SOL    HW227234   0.153   3.245   6.553 -0.7054 -0.1105 -0.2374
 5259SOL     OW27235   0.566   2.107   9.032 -0.3637 -0.0728 -0.0899
 5259SOL    HW127236   0.616   2.146   9.104  0.0655 -2.8047  1.0907
 5259SOL    HW227237   0.564   2.019   9.069 -1.4016  0.0516  0.1339
 5260SOL     OW27238   0.175   0.601  10.504 -0.6306  0.3082 -0.0281
 5260SOL    HW127239   0.188   0.574  10.413 -0.5351 -0.1992  0.1386
 5260SOL    HW227240   0.184   0.515  10.544  2.5041 -0.6743 -2.8800
 5261SOL     OW27241   0.953   1.271   5.700 -0.0300  0.3143  0.1007
 5261SOL    HW127242   1.025   1.315   5.745  2.0771 -1.6895 -1.3006
 5261SOL    HW227243   0.934   1.200   5.761 -0.7671 -0.7761 -1.3978
 5262SOL     OW27244   1.564   2.923   7.855  0.3436 -0.1453  0.6417
 5262SOL    HW127245   1.505   2.855   7.888 -1.4866  0.0569 -2.1857
 5262SOL    HW227246   1.643   2.909   7.908  1.4271 -0.0611 -0.9451
 5263SOL     OW27247   3.341   1.501   6.716 -0.3172  0.0680  0.3379
 5263SOL    HW127248   3.261   1.470   6.759 -1.8567  1.6937 -1.3767
 5263SOL    HW227249   3.364   1.426   6.661  2.0554 -0.9674  2.7554
 5264SOL     OW27250   2.675   3.653   0.458 -0.0123 -0.1297 -0.1916
 5264SOL    HW127251   2.759   3.606   0.454 -0.0178 -0.1684  0.1637
 5264SOL    HW227252   2.616   3.605   0.516  1.1111  1.0520  1.9223
 5265SOL     OW27253   1.846   4.328   7.462  0.1289  0.2669 -0.5088
 5265SOL    HW127254   1.915   4.296   7.520  0.8942  0.0165 -1.5605
 5265SOL    HW227255   1.832   4.253   7.404  1.0813 -1.2426  1.1917
 5266SOL     OW27256   0.659   1.547   6.663 -0.0144 -0.2779  0.0416
 5266SOL    HW127257   0.688   1.496   6.739 -1.8454 -2.5217 -0.7685
 5266SOL    HW227258   0.730   1.532   6.601 -1.8735 -0.7115 -1.9865
 5267SOL     OW27259   2.228   3.480  16.669  0.3313 -0.3516 -0.1889
 5267SOL    HW127260   2.198   3.389  16.674 -1.1490  0.2959  2.3190
 5267SOL    HW227261   2.302   3.478  16.729  0.3773 -0.3067 -0.2442
 5268SOL     OW27262   2.336   4.102  12.149 -0.4264  0.1626  0.0654
 5268SOL    HW127263   2.255   4.058  12.175 -0.4775 -0.1831 -0.6933
 5268SOL    HW227264   2.351   4.167  12.218  1.6228  0.7212 -0.8837
 5269SOL     OW27265   0.558   0.421  16.980 -0.0098  0.3085 -0.4169
 5269SOL    HW127266   0.580   0.499  16.930  0.0541 -0.3966 -1.4903
 5269SOL    HW227267   0.577   0.450  17.069 -0.9904  1.3051 -0.5403
 5270SOL     OW27268   3.944   4.059   3.288 -0.1044 -0.2390  0.6127
 5270SOL    HW127269   3.902   4.096   3.211  0.0467  1.1956  1.2155
 5270SOL    HW227270   3.965   4.142   3.332 -1.4310 -0.6553  2.0207
 5271SOL     OW27271   1.508   1.754   9.083  0.1484 -0.1330  0.0714
 5271SOL    HW127272   1.447   1.809   9.034 -0.5337  0.7490  1.9233
 5271SOL    HW227273   1.461   1.670   9.080  0.8815 -0.5858  1.3876
 5272SOL     OW27274   3.283   1.494   5.614  0.3629 -0.3063  0.5928
 5272SOL    HW127275   3.283   1.527   5.704 -1.6353 -0.7297  0.7428
 5272SOL    HW227276   3.279   1.576   5.565  1.1460 -0.0653  0.9246
 5273SOL     OW27277   2.131   1.609   1.228 -0.5248 -0.1931  0.4590
 5273SOL    HW127278   2.095   1.554   1.298  2.5345 -1.5427  1.0081
 5273SOL    HW227279   2.081   1.580   1.152  0.6619 -0.4051 -0.2414
 5274SOL     OW27280   2.417   3.063   5.237 -0.0926  0.3633 -0.4615
 5274SOL    HW127281   2.365   3.085   5.314 -2.5095 -1.3542 -1.5921
 5274SOL    HW227282   2.354   3.014   5.184 -0.6160 -0.8954  1.2973
 5275SOL     OW27283   1.734   2.455   9.052 -0.3514  0.5840  0.2847
 5275SOL    HW127284   1.708   2.547   9.048 -4.0847 -0.4359  0.3745
 5275SOL    HW227285   1.814   2.457   9.105 -0.1246 -1.4487  0.0394
 5276SOL     OW27286   1.495   2.082   6.808  0.0713 -0.0443  0.2677
 5276SOL    HW127287   1.431   2.107   6.875 -0.4331 -0.4383 -0.0642
 5276SOL    HW227288   1.516   1.994   6.837  1.7108  0.7387  1.4195
 5277SOL     OW27289   0.082   3.728   2.439 -0.3366  0.3852  0.1759
 5277SOL    HW127290   0.063   3.696   2.350 -1.2632  0.2354  0.4221
 5277SOL    HW227291   0.175   3.709   2.447 -0.5990 -0.1157  1.9355
 5278SOL     OW27292   4.681   4.143   7.856 -0.2204  0.2257  0.4899
 5278SOL    HW127293   0.051   4.136   7.827 -0.1622 -1.3155  1.0436
 5278SOL    HW227294   4.652   4.069   7.802 -0.4477  2.5900 -2.6510
 5279SOL     OW27295   4.172   0.167   7.795  1.1092  0.2759  0.1277
 5279SOL    HW127296   4.098   0.172   7.736  1.2265 -1.1544 -0.1447
 5279SOL    HW227297   4.152   0.074   7.805  2.3867 -0.1237 -0.9661
 5280SOL     OW27298   1.026   2.852   5.226  0.1671 -0.0406 -0.0751
 5280SOL    HW127299   1.113   2.819   5.248  0.0265  0.6241  1.5164
 5280SOL    HW227300   1.037   2.867   5.132  1.5017  3.5427  0.6540
 5281SOL     OW27301   1.342   1.721   4.436  0.1678 -0.2400  0.6090
 5281SOL    HW127302   1.320   1.747   4.525 -2.2306 -1.2412  0.3091
 5281SOL    HW227303   1.376   1.633   4.445  2.0002  0.6106  2.0150
 5282SOL     OW27304   2.409   2.287   7.717  0.4881 -0.3536  0.0826
 5282SOL    HW127305   2.483   2.276   7.658  1.5522  0.7077  1.2099
 5282SOL    HW227306   2.341   2.317   7.657 -1.0499  0.0625  2.0089
 5283SOL     OW27307   1.634   1.850   1.632 -0.0273 -0.1215  1.1247
 5283SOL    HW127308   1.575   1.778   1.654  0.7309 -1.4563 -1.2467
 5283SOL    HW227309   1.583   1.925   1.660  1.8122  0.7714  2.1195
 5284SOL     OW27310   1.637   1.769   4.462 -0.2789  0.1533  0.3502
 5284SOL    HW127311   1.623   1.723   4.379  0.2046  0.3381  0.1657
 5284SOL    HW227312   1.548   1.797   4.482 -0.8541 -1.5655  0.2577
 5285SOL     OW27313   1.757   1.981   1.983  0.3481  0.1441 -0.6176
 5285SOL    HW127314   1.766   2.050   2.048  2.6675  0.4834 -1.2893
 5285SOL    HW227315   1.756   2.039   1.907  0.1117  1.0289  0.0615
 5286SOL     OW27316   0.978   3.701   9.750 -0.4890 -0.3389 -0.3530
 5286SOL    HW127317   0.898   3.746   9.725  2.5570  4.0624 -2.3024
 5286SOL    HW227318   0.937   3.626   9.792 -0.5452  0.9224  1.8840
 5287SOL     OW27319   3.804   2.425   4.177  0.1334 -0.0593 -0.2385
 5287SOL    HW127320   3.843   2.505   4.141 -0.4092 -0.5629 -1.9689
 5287SOL    HW227321   3.712   2.441   4.156  0.2094 -1.2268 -1.4593
 5288SOL     OW27322   4.040   1.415  13.627 -0.2554  0.2661  0.1819
 5288SOL    HW127323   3.968   1.358  13.654 -0.2261 -0.2419 -0.8207
 5288SOL    HW227324   3.996   1.496  13.600  1.4301  0.7299 -1.1760
 5289SOL     OW27325   2.173   4.615   6.419  0.2159 -0.0321  0.2827
 5289SOL    HW127326   2.233   4.650   6.485 -0.0103 -1.3217  1.1681
 5289SOL    HW227327   2.101   4.598   6.479 -1.3415  2.7572 -0.8059
 5290SOL     OW27328   1.567   4.315   8.977  0.3936  0.1207 -0.3898
 5290SOL    HW127329   1.549   4.399   9.018  2.2870  1.0266 -1.3741
 5290SOL    HW227330   1.565   4.261   9.056  0.9479  0.9101  0.1665
 5291SOL     OW27331   4.396   1.852   8.859  0.4102 -0.4025  0.4153
 5291SOL    HW127332   4.340   1.901   8.918 -0.3046  0.9104 -1.3545
 5291SOL    HW227333   4.480   1.855   8.904  0.8967  0.3264 -0.5447
 5292SOL     OW27334   0.889   4.336   5.928  0.0829  0.2803  0.1959
 5292SOL    HW127335   0.868   4.407   5.989 -0.1772  0.4710 -0.1161
 5292SOL    HW227336   0.899   4.394   5.852  2.9447 -0.2107  0.1813
 5293SOL     OW27337   3.597   2.981  12.855 -0.0678  0.3289  1.4230
 5293SOL    HW127338   3.527   3.040  12.882 -0.4600 -0.1160  1.3860
 5293SOL    HW227339   3.628   2.962  12.944  1.6344  1.7728  1.1303
 5294SOL     OW27340   3.725   4.053   3.849  0.0338  0.2322  0.5154
 5294SOL    HW127341   3.743   3.978   3.906  1.4481 -0.0170 -0.2649
 5294SOL    HW227342   3.663   4.102   3.904 -0.5767  0.5790 -0.4900
 5295SOL     OW27343   0.519   1.527   2.902  0.4508  0.3870  0.6963
 5295SOL    HW127344   0.614   1.540   2.905  0.4325  1.1168 -1.7762
 5295SOL    HW227345   0.504   1.563   2.814  1.4612 -0.2888  0.2511
 5296SOL     OW27346   3.484   2.498   4.445  0.0327  0.1720  0.1981
 5296SOL    HW127347   3.491   2.529   4.355  3.2155  0.6859  0.6451
 5296SOL    HW227348   3.396   2.528   4.470  0.0986 -1.4574  2.5010
 5297SOL     OW27349   1.790   1.782   5.672  0.1085  0.0545 -0.3311
 5297SOL    HW127350   1.765   1.690   5.674 -2.3394  0.6244 -3.7456
 5297SOL    HW227351   1.834   1.780   5.587  0.0250 -2.2520 -0.3196
 5298SOL     OW27352   1.189   0.845   7.764 -0.5164 -0.8361 -0.1105
 5298SOL    HW127353   1.259   0.800   7.717 -1.0746 -0.2288 -1.5089
 5298SOL    HW227354   1.134   0.874   7.691 -0.3164 -0.0959  0.0349
 5299SOL     OW27355   2.880   1.938   8.227  0.0490 -0.0188  0.2670
 5299SOL    HW127356   2.944   1.964   8.160  0.6528 -0.3862  0.6984
 5299SOL    HW227357   2.802   1.976   8.186  1.9530  1.7036 -1.8036
 5300SOL     OW27358   3.943   1.220   2.942  0.0101  0.5556 -0.0150
 5300SOL    HW127359   3.962   1.144   2.997 -2.5700  0.0088  0.1070
 5300SOL    HW227360   4.016   1.234   2.881 -0.3090  0.9343 -0.3076
 5301SOL     OW27361   4.074   1.077   5.380  0.0378 -0.5523  0.0013
 5301SOL    HW127362   4.045   1.062   5.470 -2.6126 -0.1217 -0.7819
 5301SOL    HW227363   3.998   1.103   5.327 -0.6081  0.2729  1.3264
 5302SOL     OW27364   4.109   3.227  17.410  0.2707  0.1053  0.1880
 5302SOL    HW127365   4.084   3.298  17.469 -0.9058  0.4406 -0.7362
 5302SOL    HW227366   4.081   3.250  17.322  0.8814  0.4395  0.0822
 5303SOL     OW27367   0.173   1.525  14.081 -0.0069  0.5222  0.3582
 5303SOL    HW127368   0.134   1.474  14.010  0.8970  1.2038 -0.6243
 5303SOL    HW227369   0.094   1.518  14.135  0.8415 -0.3802  1.4750
 5304SOL     OW27370   3.713   2.650   2.779 -0.4444 -0.1091  0.0839
 5304SOL    HW127371   3.648   2.692   2.723 -1.8704 -3.1902 -0.5581
 5304SOL    HW227372   3.743   2.734   2.814  0.1389  0.6012 -2.1381
 5305SOL     OW27373   3.430   3.729   2.610  0.4742 -0.7407 -0.3851
 5305SOL    HW127374   3.475   3.666   2.553  0.7778 -1.8788  1.1265
 5305SOL    HW227375   3.480   3.806   2.583  1.4612 -1.4834 -0.6779
 5306SOL     OW27376   0.067   3.826   6.727 -0.1171 -0.0618  0.1748
 5306SOL    HW127377   0.151   3.871   6.713 -0.4175  0.5882  0.4794
 5306SOL    HW227378   0.061   3.772   6.648  0.1547 -0.1680  0.2255
 5307SOL     OW27379   4.062   4.709   3.374  0.0385  0.3541  0.5473
 5307SOL    HW127380   4.125   0.039   3.426 -1.8041  1.2563  1.8842
 5307SOL    HW227381   4.001   0.061   3.363 -0.3944 -0.4776 -2.4778
 5308SOL     OW27382   1.052   3.722  12.342  0.3580  0.2088 -0.3236
 5308SOL    HW127383   1.017   3.635  12.323  3.3883 -1.0444 -0.1390
 5308SOL    HW227384   0.982   3.767  12.390  1.6723  2.6772 -0.7027
 5309SOL     OW27385   1.389   3.946   6.022 -0.3467 -0.1951 -0.3773
 5309SOL    HW127386   1.410   3.867   6.072  2.5199 -1.4982 -3.6225
 5309SOL    HW227387   1.474   3.985   6.042 -1.0649  0.8709  0.5636
 5310SOL     OW27388   3.938   1.548   1.662 -0.6983  0.1190 -0.4243
 5310SOL    HW127389   3.846   1.530   1.679 -0.2058 -0.1253  1.9715
 5310SOL    HW227390   3.921   1.625   1.607 -0.2906  0.0843 -0.6032
 5311SOL     OW27391   2.756   0.152  14.929  0.2297  0.0898 -0.0179
 5311SOL    HW127392   2.702   0.225  14.899 -0.0884 -0.4764 -0.8223
 5311SOL    HW227393   2.831   0.174  14.873  0.7680  0.7260  0.9588
 5312SOL     OW27394   4.051   2.169  16.646 -1.4081  0.2502  0.0242
 5312SOL    HW127395   3.996   2.230  16.597 -2.2674 -1.5076 -1.2143
 5312SOL    HW227396   3.996   2.135  16.717 -0.3787 -3.1254 -0.7815
 5313SOL     OW27397   0.771   2.761  17.477 -0.2581  0.6855  0.5884
 5313SOL    HW127398   0.785   2.671  17.507  1.5761 -0.1569 -2.7595
 5313SOL    HW227399   0.861   2.786  17.459  0.2639 -0.6553  1.3234
 5314SOL     OW27400   1.777   2.228   2.123 -0.0386 -0.0114  0.1806
 5314SOL    HW127401   1.693   2.269   2.145 -1.0766 -0.7550 -2.4163
 5314SOL    HW227402   1.828   2.295   2.078 -0.9548  0.5048 -0.0846
 5315SOL     OW27403   3.671   2.240   6.125  0.5997  0.2993 -0.1460
 5315SOL    HW127404   3.723   2.174   6.079 -1.7158 -1.6826  0.0763
 5315SOL    HW227405   3.691   2.212   6.214  0.2749  1.4644  0.2922
 5316SOL     OW27406   2.008   0.616   8.053 -0.0490 -0.5824 -0.4262
 5316SOL    HW127407   1.949   0.574   7.991  2.4917 -0.4080 -3.0239
 5316SOL    HW227408   1.997   0.564   8.132  2.6611  1.9890  1.6816
 5317SOL     OW27409   0.589   1.139  17.518  0.3162 -0.3144  0.1063
 5317SOL    HW127410   0.678   1.103  17.517  1.3582  2.1832  0.9532
 5317SOL    HW227411   0.570   1.153  17.611 -0.5709  0.0626 -0.1385
 5318SOL     OW27412   2.088   0.755  15.573 -0.0891  0.1497  0.6584
 5318SOL    HW127413   2.132   0.670  15.577 -0.3222 -0.0699 -1.5728
 5318SOL    HW227414   2.049   0.769  15.659 -0.3097 -0.8504  0.7281
 5319SOL     OW27415   2.721   4.185   7.490 -0.0193 -0.2031  0.4312
 5319SOL    HW127416   2.664   4.216   7.561 -2.7309 -3.7540 -0.1825
 5319SOL    HW227417   2.708   4.091   7.489 -1.6315  0.0067  1.4540
 5320SOL     OW27418   3.763   2.949  15.727 -0.3886  0.7332  0.7056
 5320SOL    HW127419   3.833   2.973  15.786 -0.4654 -1.0401  1.5190
 5320SOL    HW227420   3.808   2.913  15.650 -1.4312 -0.4660  0.6534
 5321SOL     OW27421   2.948   4.660   6.347 -0.0178 -0.1179  0.7786
 5321SOL    HW127422   2.858   4.691   6.360 -0.5887 -1.1704 -0.6310
 5321SOL    HW227423   2.981   4.704   6.269 -1.1543 -0.2875  0.1935
 5322SOL     OW27424   4.419   1.330   9.544  0.1536 -0.7309  0.2345
 5322SOL    HW127425   4.365   1.252   9.559 -3.0439  0.8484 -3.1479
 5322SOL    HW227426   4.430   1.354   9.636 -0.2690 -0.3458  0.1854
 5323SOL     OW27427   0.927   1.043   0.636  0.2051 -0.1999  0.1405
 5323SOL    HW127428   0.970   1.046   0.722  0.9576  1.0026 -0.2925
 5323SOL    HW227429   0.980   0.978   0.589  0.7537 -1.3957  2.3995
 5324SOL     OW27430   1.361   1.731   0.677  0.0525  0.2680 -0.4105
 5324SOL    HW127431   1.293   1.726   0.745  0.4872 -0.3983 -0.0210
 5324SOL    HW227432   1.388   1.640   0.666  0.9626  0.5673 -0.6022
 5325SOL     OW27433   2.217   0.072   5.265  0.0307  0.4970 -0.4637
 5325SOL    HW127434   2.294   0.016   5.257  1.1400  1.7227  1.6155
 5325SOL    HW227435   2.211   0.099   5.174 -0.6488 -0.4610 -0.7006
 5326SOL     OW27436   4.698   2.849   0.759 -0.6276  0.1553 -0.2545
 5326SOL    HW127437   0.034   2.838   0.683  1.4484  1.2918  1.1368
 5326SOL    HW227438   4.642   2.919   0.726 -1.3177  0.2686  1.1387
 5327SOL     OW27439   2.820   2.143  13.703 -0.1887  0.3524  0.2319
 5327SOL    HW127440   2.904   2.144  13.748  0.0449 -2.8952 -0.1759
 5327SOL    HW227441   2.785   2.060  13.735 -1.0459  0.2368 -0.9971
 5328SOL     OW27442   3.319   3.353   4.986 -0.1158  0.3856  0.8414
 5328SOL    HW127443   3.280   3.271   4.955 -2.3006  0.8055  2.5026
 5328SOL    HW227444   3.304   3.410   4.910 -1.1656  1.9383  2.2284
 5329SOL     OW27445   3.063   0.239  13.466  0.5165 -0.0680 -0.7305
 5329SOL    HW127446   3.106   0.279  13.541 -1.1876 -1.7398  1.1485
 5329SOL    HW227447   3.007   0.310  13.434  0.5469 -0.0738 -0.7961
 5330SOL     OW27448   0.664   3.643  14.023  0.3663 -0.3709 -0.3325
 5330SOL    HW127449   0.725   3.582  13.982 -1.9407 -3.6727  1.1630
 5330SOL    HW227450   0.596   3.599  14.074 -0.1817 -0.7992 -1.4276
 5331SOL     OW27451   4.662   1.580   5.157  0.5094 -0.5885  0.0551
 5331SOL    HW127452   4.691   1.663   5.120 -4.2641  0.2527 -1.7658
 5331SOL    HW227453   4.619   1.609   5.238  1.9502  2.1007 -0.1496
 5332SOL     OW27454   1.819   1.032   5.833 -0.2063 -0.4570  0.5026
 5332SOL    HW127455   1.829   1.092   5.908 -2.9729  0.7993 -0.1194
 5332SOL    HW227456   1.908   1.025   5.798 -1.1877  1.2943 -2.3708
 5333SOL     OW27457   1.372   0.087   3.239  0.0705 -0.4008  0.1351
 5333SOL    HW127458   1.284   0.052   3.229  0.6186 -2.0544  1.0340
 5333SOL    HW227459   1.403   0.021   3.301  0.0074  1.4001  2.0590
 5334SOL     OW27460   2.996   1.593   3.942 -0.1983 -0.3910  0.7730
 5334SOL    HW127461   3.084   1.557   3.956  0.2287 -0.3885 -1.8507
 5334SOL    HW227462   2.983   1.637   4.026 -0.0654  0.4781  0.3306
 5335SOL     OW27463   1.270   2.316   8.293 -0.0864 -0.4431 -0.0456
 5335SOL    HW127464   1.178   2.309   8.268 -0.0071 -0.5795 -0.2887
 5335SOL    HW227465   1.279   2.243   8.355 -1.4682 -0.5271  0.0556
 5336SOL     OW27466   1.359   1.141   0.466  0.0761 -0.0123  0.5397
 5336SOL    HW127467   1.442   1.150   0.512  1.0137 -0.4419 -1.0794
 5336SOL    HW227468   1.325   1.229   0.485 -0.7754 -0.3420  0.5697
 5337SOL     OW27469   0.483   1.868   4.090 -0.2764  0.0143 -0.3173
 5337SOL    HW127470   0.455   1.782   4.057  1.3374 -0.3764 -0.6614
 5337SOL    HW227471   0.549   1.892   4.026  0.6879  0.8082  0.9699
 5338SOL     OW27472   1.776   1.390   7.649  0.4379 -0.3874 -0.5259
 5338SOL    HW127473   1.814   1.443   7.719 -0.5109  0.9566 -1.0313
 5338SOL    HW227474   1.827   1.310   7.664 -0.8147 -0.5405  2.8852
 5339SOL     OW27475   0.282   3.193   5.440  0.0401  0.2041 -0.2228
 5339SOL    HW127476   0.351   3.183   5.375 -0.4959  1.0630 -0.9293
 5339SOL    HW227477   0.330   3.239   5.508  2.0667  0.2744 -1.6869
 5340SOL     OW27478   0.306   1.375   5.615  0.3583 -0.0940  0.2305
 5340SOL    HW127479   0.318   1.468   5.636  2.8580 -0.5691  0.9186
 5340SOL    HW227480   0.314   1.343   5.705 -1.6221 -1.1828  0.0319
 5341SOL     OW27481   2.049   3.299   7.649  0.2427 -0.4416  0.7217
 5341SOL    HW127482   2.130   3.317   7.696  0.2543 -1.4023  1.0897
 5341SOL    HW227483   1.996   3.379   7.657  1.7165  0.5596  0.3551
 5342SOL     OW27484   1.425   1.713   8.307  0.0334 -0.4127 -0.2556
 5342SOL    HW127485   1.338   1.742   8.279  0.9755 -1.4094 -4.2027
 5342SOL    HW227486   1.433   1.757   8.392  1.3171 -2.1712  0.5265
 5343SOL     OW27487   4.486   2.175  12.253  0.5903 -0.2142 -0.1340
 5343SOL    HW127488   4.399   2.138  12.238  0.4961  0.3212 -0.8815
 5343SOL    HW227489   4.539   2.095  12.253  1.4689  0.3637  1.0493
 5344SOL     OW27490   1.884   3.415   1.431 -0.0570  0.5297  0.0236
 5344SOL    HW127491   1.877   3.412   1.335  1.3862 -0.3680 -0.0587
 5344SOL    HW227492   1.797   3.381   1.452 -1.4117  3.7962 -0.3172
 5345SOL     OW27493   3.056   4.292   5.045 -0.0353  0.2817  0.1134
 5345SOL    HW127494   3.025   4.380   5.067 -1.8785  0.0974 -1.6565
 5345SOL    HW227495   3.116   4.318   4.975 -0.3467  0.3445 -0.1339
 5346SOL     OW27496   4.585   4.303   7.258  0.4275 -0.3457  0.0458
 5346SOL    HW127497   4.607   4.379   7.311  0.1852 -0.1496 -0.1372
 5346SOL    HW227498   4.582   4.342   7.171  0.2464 -2.0935 -0.7491
 5347SOL     OW27499   1.341   1.444   1.983 -0.0564 -0.3209  0.3699
 5347SOL    HW127500   1.251   1.438   1.950 -0.5650  2.5643  1.2419
 5347SOL    HW227501   1.380   1.377   1.927 -1.0029 -0.5168 -0.0474
 5348SOL     OW27502   3.510   3.686   1.935 -0.2999 -0.6518  0.1411
 5348SOL    HW127503   3.580   3.733   1.979  3.2637 -2.0971 -3.9508
 5348SOL    HW227504   3.451   3.761   1.927  1.0499  0.1860 -1.9093
 5349SOL     OW27505   0.343   3.468  16.183 -0.3676 -0.7541 -0.0076
 5349SOL    HW127506   0.366   3.429  16.267 -1.8731 -0.5957  0.4789
 5349SOL    HW227507   0.356   3.392  16.126 -0.6151 -0.3667 -0.5778
 5350SOL     OW27508   1.197   2.937   3.708 -0.4332  0.0150  0.3096
 5350SOL    HW127509   1.199   3.019   3.660  0.1925 -1.0550 -1.4735
 5350SOL    HW227510   1.190   2.875   3.635  2.0171 -0.9011  0.8446
 5351SOL     OW27511   0.478   1.106   4.478  0.4033  1.0720 -0.2361
 5351SOL    HW127512   0.555   1.130   4.427  2.8257 -2.6500  1.7144
 5351SOL    HW227513   0.413   1.081   4.412  0.2311  2.3578 -0.5597
 5352SOL     OW27514   4.568   3.202   5.055 -0.4403  0.5385 -0.0998
 5352SOL    HW127515   4.473   3.211   5.053 -0.5491 -0.1864  1.4078
 5352SOL    HW227516   4.588   3.166   4.969  1.7065  1.6719 -0.0888
 5353SOL     OW27517   4.483   2.415  16.146 -0.1950 -0.0083 -0.0336
 5353SOL    HW127518   4.414   2.374  16.199  0.1612  0.3129  0.6701
 5353SOL    HW227519   4.524   2.335  16.114 -2.0439 -0.1844 -1.9452
 5354SOL     OW27520   0.984   3.628   7.009  0.0285  0.5030 -0.0268
 5354SOL    HW127521   1.080   3.626   7.013 -0.1310 -0.8985  3.4877
 5354SOL    HW227522   0.960   3.681   7.085 -1.2111  1.4309 -1.0600
 5355SOL     OW27523   2.483   3.644   6.775  0.4648  0.2808 -0.3046
 5355SOL    HW127524   2.482   3.665   6.681  1.2586 -1.0727 -0.6077
 5355SOL    HW227525   2.396   3.604   6.773  0.5068  0.1769  0.0377
 5356SOL     OW27526   0.791   3.324   1.467 -0.7560 -0.5928 -0.1304
 5356SOL    HW127527   0.749   3.408   1.453 -0.7188 -0.7178 -0.9634
 5356SOL    HW227528   0.721   3.263   1.444 -1.1571  0.6675 -2.1916
 5357SOL     OW27529   1.938   4.186   0.236  0.0864  0.6258  0.1151
 5357SOL    HW127530   1.964   4.240   0.311  0.2282  2.1068 -1.0035
 5357SOL    HW227531   1.843   4.193   0.244  0.0411  0.9336 -0.7095
 5358SOL     OW27532   0.236   2.824   4.124 -0.5764 -0.2488 -0.1016
 5358SOL    HW127533   0.192   2.745   4.156 -2.0587  0.4354 -0.4453
 5358SOL    HW227534   0.323   2.788   4.110 -0.3304  1.3102 -2.5574
 5359SOL     OW27535   2.348   1.023   5.663 -0.2841  1.0086  0.5178
 5359SOL    HW127536   2.338   0.936   5.625 -1.5630  1.3259  0.1248
 5359SOL    HW227537   2.398   1.065   5.593  1.5968 -3.1663 -0.6790
 5360SOL     OW27538   1.046   0.334  15.669 -0.4322 -0.3566 -0.5596
 5360SOL    HW127539   1.065   0.423  15.637  0.9438 -0.0704  1.0262
 5360SOL    HW227540   0.952   0.342  15.657 -0.4835 -0.4995 -0.2414
 5361SOL     OW27541   3.977   2.178   7.408  0.2909  0.7124  0.3427
 5361SOL    HW127542   4.053   2.204   7.460  0.2423  1.9007 -0.1957
 5361SOL    HW227543   3.974   2.084   7.426 -0.4784  0.8403  0.8560
 5362SOL     OW27544   3.399   3.143  11.637  0.8490 -0.3973  0.0165
 5362SOL    HW127545   3.469   3.101  11.687  1.6151  2.1324  1.0961
 5362SOL    HW227546   3.422   3.236  11.638  1.3176 -0.5115 -0.2665
 5363SOL     OW27547   2.380   2.587  16.361 -0.2011 -0.4662 -0.0163
 5363SOL    HW127548   2.313   2.538  16.314 -0.3050 -0.7597  0.4393
 5363SOL    HW227549   2.390   2.529  16.436 -2.1894  2.0249  2.2152
 5364SOL     OW27550   1.751   1.225   6.699 -0.5803  0.0228 -0.7934
 5364SOL    HW127551   1.752   1.134   6.728  0.6008  0.0124 -0.8821
 5364SOL    HW227552   1.655   1.221   6.696 -0.5920 -1.2841  1.3336
 5365SOL     OW27553   3.483   4.174   8.800 -0.0869 -0.5779  0.1027
 5365SOL    HW127554   3.418   4.203   8.736 -1.2976 -2.2240  0.5857
 5365SOL    HW227555   3.563   4.210   8.761  0.9593 -1.8327  1.1107
 5366SOL     OW27556   1.114   4.483   9.448 -0.5469 -0.3331  0.0224
 5366SOL    HW127557   1.112   4.560   9.505  2.0663 -1.1915  1.2710
 5366SOL    HW227558   1.144   4.416   9.509  1.1043 -0.0203 -0.4557
 5367SOL     OW27559   4.320   2.360  13.203  0.4302  0.1007  0.7244
 5367SOL    HW127560   4.230   2.369  13.235  0.4708  1.1581  0.5314
 5367SOL    HW227561   4.332   2.453  13.185 -1.3002  0.0927 -0.4820
 5368SOL     OW27562   3.918   3.799   3.335  1.0655 -0.0859 -0.1797
 5368SOL    HW127563   3.914   3.872   3.274  1.7058 -1.5545 -1.9920
 5368SOL    HW227564   3.918   3.841   3.421 -0.3067  1.8961 -1.1478
 5369SOL     OW27565   2.422   3.817   5.743 -0.1254  0.0690 -0.4192
 5369SOL    HW127566   2.464   3.733   5.763 -0.9820 -0.1767  0.3220
 5369SOL    HW227567   2.446   3.815   5.650  2.2522 -0.6826  0.2119
 5370SOL     OW27568   0.310   1.200   1.309  0.1819  0.6605 -0.0832
 5370SOL    HW127569   0.360   1.275   1.342 -1.9148  1.7718  0.5546
 5370SOL    HW227570   0.366   1.124   1.329 -0.6821 -0.2905 -1.2685
 5371SOL     OW27571   3.187   4.563  17.454 -0.0169 -0.7178  0.4183
 5371SOL    HW127572   3.127   4.636  17.438 -0.6316 -0.8149  2.3283
 5371SOL    HW227573   3.152   4.518  17.531  2.4507 -0.4586  1.7006
 5372SOL     OW27574   3.088   3.534  12.420  0.2872 -0.3581  0.0662
 5372SOL    HW127575   3.026   3.489  12.477 -0.4824 -0.6926 -1.0391
 5372SOL    HW227576   3.175   3.509  12.450  1.6429  1.1922 -2.5079
 5373SOL     OW27577   3.775   1.461  11.750 -0.1986  0.2800  0.0223
 5373SOL    HW127578   3.694   1.492  11.710 -0.5195  0.2768  0.6771
 5373SOL    HW227579   3.746   1.407  11.824 -0.7864 -1.4733 -1.4796
 5374SOL     OW27580   4.340   2.575   2.397  0.2498  0.2725 -0.2638
 5374SOL    HW127581   4.376   2.569   2.485 -0.9329 -0.9381  0.1428
 5374SOL    HW227582   4.266   2.633   2.416  1.0075  0.9847  0.5292
 5375SOL     OW27583   2.929   0.219   0.507 -0.3622  0.7219 -0.2680
 5375SOL    HW127584   2.848   0.211   0.558 -0.3322 -0.5725 -0.4333
 5375SOL    HW227585   2.966   0.291   0.558 -1.9175  1.3277 -0.0147
 5376SOL     OW27586   0.834   2.373   6.537  0.3912 -0.1514  0.8304
 5376SOL    HW127587   0.751   2.410   6.508  0.8612  0.4595  0.2525
 5376SOL    HW227588   0.834   2.428   6.616  2.0704  0.1752  0.6033
 5377SOL     OW27589   3.537   1.762   6.241 -0.0655  0.3707 -0.2685
 5377SOL    HW127590   3.474   1.825   6.276  1.6030  2.0129 -0.2088
 5377SOL    HW227591   3.524   1.772   6.147  1.0391  3.1014 -0.1405
 5378SOL     OW27592   1.494   1.591   4.230 -0.1967 -0.0399  0.0570
 5378SOL    HW127593   1.467   1.670   4.182 -0.4598 -0.4999 -0.5586
 5378SOL    HW227594   1.502   1.527   4.159  0.3311 -0.8253  0.8371
 5379SOL     OW27595   1.088   0.782  14.816  0.2517  0.5870  0.2458
 5379SOL    HW127596   1.096   0.861  14.762 -0.1682  1.1954  1.0746
 5379SOL    HW227597   1.108   0.815  14.904 -0.6895 -1.5159  1.2364
 5380SOL     OW27598   2.302   3.730   0.928 -0.0510  0.1131  0.6765
 5380SOL    HW127599   2.346   3.797   0.876 -2.7826 -0.4048 -2.3303
 5380SOL    HW227600   2.353   3.734   1.009  1.3706 -0.8584 -0.1848
 5381SOL     OW27601   2.981   0.447   0.635 -0.4801 -0.6103  0.1576
 5381SOL    HW127602   3.070   0.426   0.663  0.2481 -0.2466 -1.9243
 5381SOL    HW227603   2.975   0.541   0.651  1.4216 -0.1716 -1.6800
 5382SOL     OW27604   2.123   3.599   5.034 -0.5054  0.5216  0.1717
 5382SOL    HW127605   2.044   3.643   5.003 -0.5855 -0.0994 -0.4927
 5382SOL    HW227606   2.093   3.568   5.120 -1.3716 -1.0242 -0.6834
 5383SOL     OW27607   1.263   3.342   5.987  0.1313  0.1013  0.5736
 5383SOL    HW127608   1.185   3.334   5.933 -1.7307 -1.0101  3.4762
 5383SOL    HW227609   1.226   3.325   6.073 -1.3532 -0.9118 -0.2669
 5384SOL     OW27610   0.642   3.079   8.488 -0.1895 -0.5056 -0.1426
 5384SOL    HW127611   0.594   3.099   8.569  0.3566  0.4926 -0.0702
 5384SOL    HW227612   0.727   3.120   8.502  0.4341 -0.8993 -2.7588
 5385SOL     OW27613   0.870   2.007   5.365 -0.5834  0.1597 -0.2086
 5385SOL    HW127614   0.784   2.017   5.408 -0.8487  0.2699 -0.7704
 5385SOL    HW227615   0.866   2.068   5.292  1.7750  1.0121  0.3799
 5386SOL     OW27616   3.735   1.528   8.913 -0.0925 -0.5393  0.0019
 5386SOL    HW127617   3.646   1.562   8.911 -0.9706 -2.8550 -1.0161
 5386SOL    HW227618   3.735   1.493   8.824  1.1902  0.8145 -0.5271
 5387SOL     OW27619   1.118   1.886   5.151 -0.3069  0.2953 -0.3336
 5387SOL    HW127620   1.026   1.910   5.160 -0.2934 -0.7700  2.6746
 5387SOL    HW227621   1.107   1.803   5.104  0.9341  0.9011 -1.6776
 5388SOL     OW27622   2.790   0.691   3.459 -0.1907  0.0587  0.0931
 5388SOL    HW127623   2.873   0.712   3.416 -1.0761  1.0984 -1.1221
 5388SOL    HW227624   2.767   0.620   3.399 -0.0292 -0.8175  1.0540
 5389SOL     OW27625   4.337   0.424   1.079 -0.1733  0.1773  1.0783
 5389SOL    HW127626   4.271   0.482   1.042  1.6690  0.9785 -0.9654
 5389SOL    HW227627   4.411   0.434   1.018 -0.4185  1.3379  0.9791
 5390SOL     OW27628   3.179   2.119   4.441  0.4691 -0.2958 -0.0528
 5390SOL    HW127629   3.175   2.174   4.520 -0.6348 -0.4747  0.0237
 5390SOL    HW227630   3.222   2.185   4.386 -0.7802  0.1076 -0.5503
 5391SOL     OW27631   0.182   4.469   4.996  0.2121 -0.5650  0.7756
 5391SOL    HW127632   0.153   4.382   4.968 -0.4046 -1.3118  3.6487
 5391SOL    HW227633   0.159   4.513   4.915 -0.6302 -1.7803  0.3605
 5392SOL     OW27634   0.633   0.657   4.920 -0.5614 -0.3053  0.7044
 5392SOL    HW127635   0.672   0.676   5.006 -0.1203  1.2901  0.1510
 5392SOL    HW227636   0.675   0.573   4.902  1.4359  0.7222  0.5559
 5393SOL     OW27637   2.168   1.528   6.441  0.2017  0.2741  0.2085
 5393SOL    HW127638   2.113   1.454   6.467  0.9313  0.0652  1.1722
 5393SOL    HW227639   2.218   1.555   6.518 -3.1768  2.4178  1.6259
 5394SOL     OW27640   1.072   0.585   1.741 -0.3165 -0.0584  0.1867
 5394SOL    HW127641   1.131   0.510   1.737 -0.5797 -0.2205 -0.5033
 5394SOL    HW227642   0.998   0.539   1.702  0.8604 -2.7626  1.1616
 5395SOL     OW27643   1.248   3.442  12.428 -0.0686  0.3235  0.5527
 5395SOL    HW127644   1.291   3.477  12.505  1.2874 -0.6477  0.2273
 5395SOL    HW227645   1.160   3.443  12.467 -1.4339 -3.7289 -2.4036
 5396SOL     OW27646   0.884   0.074  14.231  0.0362 -0.1341 -0.7647
 5396SOL    HW127647   0.864   0.008  14.297  1.4653 -0.7557 -0.9425
 5396SOL    HW227648   0.828   0.145  14.263 -0.8282 -1.9501  1.7116
 5397SOL     OW27649   0.140   4.293   4.254 -0.1061 -0.8833  0.5596
 5397SOL    HW127650   0.226   4.279   4.215  0.3693  0.9561  0.9696
 5397SOL    HW227651   0.083   4.307   4.178  2.7717 -0.5253 -1.4887
 5398SOL     OW27652   1.290   2.554   6.374  0.0537  0.1642 -0.2050
 5398SOL    HW127653   1.363   2.498   6.349 -0.2784 -0.3586 -0.0030
 5398SOL    HW227654   1.236   2.499   6.431  1.3836 -1.3087 -0.3507
 5399SOL     OW27655   0.621   1.395   7.262  0.3155 -0.3781 -0.3027
 5399SOL    HW127656   0.599   1.467   7.320 -0.8983 -0.7467 -0.3012
 5399SOL    HW227657   0.538   1.346   7.268  1.6474 -2.6812 -0.7576
 5400SOL     OW27658   3.923   4.434   9.037 -0.0276  0.4378  0.0036
 5400SOL    HW127659   3.935   4.358   8.980 -0.6613 -0.3452  0.9034
 5400SOL    HW227660   3.833   4.449   9.007  0.0767 -2.8604 -1.9829
 5401SOL     OW27661   1.293   2.798   5.253  0.5351 -0.1136 -0.1246
 5401SOL    HW127662   1.303   2.710   5.289 -0.0488 -0.1762 -0.1089
 5401SOL    HW227663   1.367   2.807   5.193  0.5911 -1.1042 -0.2090
 5402SOL     OW27664   3.795   0.870   9.880 -0.0139 -0.2113  0.1518
 5402SOL    HW127665   3.727   0.938   9.874 -0.4608 -0.6269  0.4928
 5402SOL    HW227666   3.831   0.888   9.967  1.5095  0.9702 -0.7373
 5403SOL     OW27667   4.505   0.260   3.790 -0.4122 -0.0459 -0.7163
 5403SOL    HW127668   4.546   0.174   3.787  1.2838  0.7782 -1.1631
 5403SOL    HW227669   4.569   0.314   3.744  1.8842  0.6429  3.3029
 5404SOL     OW27670   0.721   0.966   8.981 -0.2352 -0.3911 -0.2492
 5404SOL    HW127671   0.675   0.966   9.065  0.8990  0.0179  0.3659
 5404SOL    HW227672   0.755   0.877   8.973  1.7304  0.5372 -2.3704
 5405SOL     OW27673   1.731   1.795  17.152  0.2080 -0.3754 -0.0358
 5405SOL    HW127674   1.639   1.821  17.159  0.0594 -1.4162  1.8215
 5405SOL    HW227675   1.775   1.862  17.204 -0.0394 -0.9009  0.8482
 5406SOL     OW27676   0.232   3.405  13.645 -0.0404 -0.1571 -0.1759
 5406SOL    HW127677   0.275   3.337  13.695  1.6725 -0.6659 -2.3459
 5406SOL    HW227678   0.213   3.475  13.708  0.4660 -1.1110  1.0221
 5407SOL     OW27679   2.961   3.699   2.439  0.0222  0.2500  0.1257
 5407SOL    HW127680   2.958   3.725   2.347  0.9287 -1.0978 -0.2813
 5407SOL    HW227681   2.968   3.604   2.434  0.6245  0.3156 -0.2411
 5408SOL     OW27682   3.036   2.723   5.918  0.1102  0.1684 -0.3751
 5408SOL    HW127683   2.956   2.770   5.894  0.1468  0.8626  0.8657
 5408SOL    HW227684   3.096   2.771   5.861  0.3667 -1.6186 -1.6184
 5409SOL     OW27685   2.933   4.141   4.062  0.3372  0.1491  0.2314
 5409SOL    HW127686   2.931   4.234   4.039  1.0898  0.2814  0.7078
 5409SOL    HW227687   2.886   4.103   3.988 -1.1301  1.4039  0.5027
 5410SOL     OW27688   2.549   1.921   1.119  0.7072  0.4688 -0.4679
 5410SOL    HW127689   2.606   1.997   1.134  2.8011 -0.8448 -1.7973
 5410SOL    HW227690   2.580   1.864   1.189 -1.1956 -2.1931 -1.8184
 5411SOL     OW27691   0.771   0.413  15.583  0.6227  0.0706  0.5001
 5411SOL    HW127692   0.751   0.485  15.643 -0.9172 -1.3266  1.6652
 5411SOL    HW227693   0.728   0.343  15.632 -1.0260 -0.7234 -2.0709
 5412SOL     OW27694   4.058   1.617   6.476  0.0812 -0.2269 -0.8359
 5412SOL    HW127695   3.973   1.588   6.509  0.3705 -1.6117 -1.3034
 5412SOL    HW227696   4.054   1.688   6.412 -1.1352 -0.2194 -0.7523
 5413SOL     OW27697   3.814   0.526   6.581  0.2534  0.1585 -0.3855
 5413SOL    HW127698   3.852   0.454   6.632  1.7577  1.3189  0.1470
 5413SOL    HW227699   3.867   0.597   6.617 -0.4044  0.1757  0.5749
 5414SOL     OW27700   0.524   1.677   2.071 -0.1512  0.3612 -0.4377
 5414SOL    HW127701   0.454   1.741   2.080 -0.9329 -0.5740  0.0847
 5414SOL    HW227702   0.581   1.705   2.142  1.0582 -0.1585 -1.2054
 5415SOL     OW27703   2.079   3.794   3.198 -0.3025 -0.4996  0.3901
 5415SOL    HW127704   2.134   3.869   3.176  0.0137 -0.7547  0.3013
 5415SOL    HW227705   2.126   3.771   3.279 -1.0183  1.2986  1.3033
 5416SOL     OW27706   2.882   4.614  15.804  0.1825 -0.0215 -0.1180
 5416SOL    HW127707   2.865   4.670  15.728  0.7456  0.1045 -0.1525
 5416SOL    HW227708   2.978   4.610  15.798  0.4147  1.3514  2.8371
 5417SOL     OW27709   3.056   0.613  12.578 -0.0573  0.4390 -0.1683
 5417SOL    HW127710   2.991   0.549  12.607  1.4264 -0.4935  1.1629
 5417SOL    HW227711   3.124   0.549  12.555 -0.8605 -0.1506 -0.8892
 5418SOL     OW27712   1.535   3.838   9.010 -0.1992 -0.3130 -0.0137
 5418SOL    HW127713   1.622   3.877   9.011  0.2515 -1.3178  0.1133
 5418SOL    HW227714   1.540   3.781   8.933 -0.2994 -1.2911  0.7017
 5419SOL     OW27715   1.538   3.263   3.717 -0.2411  0.1351  0.5943
 5419SOL    HW127716   1.523   3.170   3.732  0.5356 -0.1679 -0.4732
 5419SOL    HW227717   1.468   3.287   3.657 -0.0211 -0.0009  0.2792
 5420SOL     OW27718   2.371   1.967   6.526 -0.4563  0.7991 -0.1128
 5420SOL    HW127719   2.402   2.057   6.524  0.4774  0.5133  1.4442
 5420SOL    HW227720   2.395   1.947   6.617  1.6170 -0.8728 -1.0242
 5421SOL     OW27721   0.170   0.910   4.625 -0.1082  0.3594 -0.3224
 5421SOL    HW127722   0.196   0.991   4.669 -2.3916 -0.0539  1.7682
 5421SOL    HW227723   0.256   0.874   4.603 -0.5413 -0.8188 -0.1246
 5422SOL     OW27724   3.957   4.169   6.424  0.4508  0.5357 -0.0567
 5422SOL    HW127725   3.927   4.116   6.350 -1.2995 -0.4342  1.3441
 5422SOL    HW227726   3.992   4.096   6.475 -0.7547  0.6035  0.8679
 5423SOL     OW27727   3.970   1.995   5.365 -0.5596 -0.0593 -0.1355
 5423SOL    HW127728   4.037   2.059   5.388 -1.1767  1.7336 -3.3253
 5423SOL    HW227729   3.909   2.026   5.432 -2.5745 -1.5505 -1.2968
 5424SOL     OW27730   0.496   0.653   3.952  0.1116 -0.1896 -0.4209
 5424SOL    HW127731   0.469   0.743   3.967 -0.0505 -0.7151  2.4516
 5424SOL    HW227732   0.423   0.609   3.907  0.1465  0.8532 -1.4944
 5425SOL     OW27733   3.426   4.143   3.113  0.3879  0.0982 -0.5174
 5425SOL    HW127734   3.487   4.071   3.097 -0.9430 -1.5458  1.8847
 5425SOL    HW227735   3.460   4.184   3.193  1.2596  0.3851 -1.0324
 5426SOL     OW27736   0.811   2.691   0.422 -0.0534 -0.2865  0.5148
 5426SOL    HW127737   0.792   2.613   0.474  2.7779 -0.7858  0.7931
 5426SOL    HW227738   0.738   2.722   0.369  0.5030 -3.3112 -2.0177
 5427SOL     OW27739   3.872   4.003   9.720 -0.0973 -0.2841  0.2792
 5427SOL    HW127740   3.807   3.938   9.748 -1.2931 -0.0613 -1.9277
 5427SOL    HW227741   3.912   4.005   9.807 -1.5440 -0.1361  0.9444
 5428SOL     OW27742   3.743   0.393  12.571  0.0601 -0.6510 -0.0198
 5428SOL    HW127743   3.811   0.410  12.505 -0.0084 -0.6993 -0.1017
 5428SOL    HW227744   3.663   0.387  12.519  0.8630  2.2135 -1.6310
 5429SOL     OW27745   1.475   2.763   5.066  0.1201  0.5861  0.6689
 5429SOL    HW127746   1.533   2.688   5.082  1.9968  2.3259  2.0632
 5429SOL    HW227747   1.454   2.754   4.973  1.9724 -4.9116  0.7997
 5430SOL     OW27748   3.549   0.121   5.653  0.7661 -0.0892  0.0430
 5430SOL    HW127749   3.592   0.074   5.581  0.3775 -0.8449  0.2989
 5430SOL    HW227750   3.630   0.136   5.701  1.0283  0.3792 -0.5379
 5431SOL     OW27751   2.985   3.494  14.845 -0.3950  0.0116 -0.3416
 5431SOL    HW127752   2.952   3.421  14.792  0.5739 -0.8090  0.1879
 5431SOL    HW227753   2.981   3.571  14.788  1.7430  1.2311  1.1609
 5432SOL     OW27754   3.183   1.619   9.133 -0.5286  0.5458 -0.2282
 5432SOL    HW127755   3.277   1.636   9.141  0.2346 -2.9441 -1.6001
 5432SOL    HW227756   3.155   1.710   9.131 -0.6124  0.5335  0.6356
 5433SOL     OW27757   2.226   3.383  15.538  0.3526  0.6056 -0.2009
 5433SOL    HW127758   2.205   3.290  15.541 -1.3725  0.9301 -1.9083
 5433SOL    HW227759   2.310   3.388  15.584  0.4483  0.8202 -0.3946
 5434SOL     OW27760   1.844   4.242   0.560 -0.3478  0.3218 -0.1707
 5434SOL    HW127761   1.920   4.206   0.607  0.8798  0.8564 -1.7789
 5434SOL    HW227762   1.859   4.335   0.573 -0.7102  0.2242  0.9504
 5435SOL     OW27763   4.465   4.070   3.611  0.1617  0.2270  0.1822
 5435SOL    HW127764   4.422   3.990   3.639 -2.6625  1.1083 -1.5718
 5435SOL    HW227765   4.503   4.056   3.524 -0.0389 -1.9719  0.4714
 5436SOL     OW27766   1.189   2.361   9.803 -0.2777 -0.4467 -0.1992
 5436SOL    HW127767   1.158   2.271   9.787  2.6077 -1.8457  2.0645
 5436SOL    HW227768   1.164   2.405   9.722 -1.0771  0.1418  0.3696
 5437SOL     OW27769   0.118   2.620   3.735 -0.3132 -0.3961  0.1139
 5437SOL    HW127770   0.140   2.594   3.646 -0.0943  1.6132 -0.4085
 5437SOL    HW227771   0.113   2.713   3.716  0.2706 -0.1743  1.0667
 5438SOL     OW27772   3.453   0.863   9.229 -0.1295  0.7148  0.0266
 5438SOL    HW127773   3.504   0.840   9.306 -1.5248  0.3023  0.8245
 5438SOL    HW227774   3.375   0.892   9.276 -1.4038 -0.7507 -1.1586
 5439SOL     OW27775   1.517   3.316   7.368 -0.6525  0.3677  0.1293
 5439SOL    HW127776   1.606   3.294   7.395 -0.9161 -2.4708 -1.3688
 5439SOL    HW227777   1.474   3.314   7.453 -0.3872  0.5588  0.2691
 5440SOL     OW27778   1.596   3.392   2.911  0.1859 -0.2663 -0.0215
 5440SOL    HW127779   1.555   3.362   2.992 -0.0929 -1.9511 -0.7937
 5440SOL    HW227780   1.677   3.434   2.941 -0.3870  1.9064 -1.5264
 5441SOL     OW27781   3.343   0.725   8.087  0.0600 -0.3139 -0.5197
 5441SOL    HW127782   3.286   0.649   8.084 -1.2538  0.6731 -0.2384
 5441SOL    HW227783   3.286   0.791   8.126 -0.5800 -1.6628  0.8190
 5442SOL     OW27784   0.900   0.416  13.699 -0.2981  0.6939  0.2862
 5442SOL    HW127785   0.984   0.418  13.744 -0.7849  0.5746  1.2085
 5442SOL    HW227786   0.886   0.507  13.672 -0.0898  0.7205  0.2712
 5443SOL     OW27787   2.928   2.943   4.610  0.1833  0.2976  0.0227
 5443SOL    HW127788   2.926   2.884   4.685  1.2334  0.7548  0.4127
 5443SOL    HW227789   2.877   3.018   4.641  0.5194  1.0300 -1.1550
 5444SOL     OW27790   4.384   4.622   6.856  0.6496 -0.4478  0.4964
 5444SOL    HW127791   4.477   4.610   6.833  0.3489 -1.8303 -0.0183
 5444SOL    HW227792   4.393   4.651   6.947  0.2240 -1.6223  0.9141
 5445SOL     OW27793   0.868   2.145   4.285 -0.0340  0.7107  0.2732
 5445SOL    HW127794   0.936   2.089   4.249 -0.9876 -0.6232  0.5443
 5445SOL    HW227795   0.792   2.092   4.307 -1.6022  2.4396 -1.0013
 5446SOL     OW27796   4.244   1.238  16.943 -0.2671  0.3271  0.4783
 5446SOL    HW127797   4.162   1.262  16.986 -0.7271 -0.1134 -0.1616
 5446SOL    HW227798   4.248   1.310  16.880  0.6061  0.4738  0.7041
 5447SOL     OW27799   3.905   2.871  15.463 -0.2920 -0.2780  0.2753
 5447SOL    HW127800   3.949   2.941  15.415  0.6662 -0.3411  1.0771
 5447SOL    HW227801   3.894   2.800  15.400  0.2534 -0.5639  0.5082
 5448SOL     OW27802   3.033   4.003   5.043 -0.0101 -0.0080  0.1726
 5448SOL    HW127803   3.043   3.960   4.958  0.1787  0.3043  0.0367
 5448SOL    HW227804   3.009   4.092   5.017  0.4094 -0.1991 -0.8572
 5449SOL     OW27805   2.986   1.211   0.427  0.2974 -0.2194 -0.2685
 5449SOL    HW127806   3.025   1.298   0.437  1.2047 -0.7243  0.6734
 5449SOL    HW227807   2.916   1.225   0.491  0.9141 -1.0312  0.5860
 5450SOL     OW27808   1.635   1.676   1.009  0.0313  0.8188  0.1267
 5450SOL    HW127809   1.663   1.639   1.093  0.5948  0.6911 -0.1177
 5450SOL    HW227810   1.542   1.685   1.025 -0.1000 -0.6993  0.2265
 5451SOL     OW27811   4.265   0.322   7.999  0.0872  0.9555 -0.5159
 5451SOL    HW127812   4.230   0.281   8.079 -0.8761  1.1893 -0.8233
 5451SOL    HW227813   4.256   0.253   7.933  0.4160  0.3593  0.0589
 5452SOL     OW27814   3.337   3.425   7.820  0.0744 -0.0271 -0.0936
 5452SOL    HW127815   3.348   3.509   7.866 -1.2646 -0.5201  1.1160
 5452SOL    HW227816   3.340   3.365   7.894  0.8882 -0.7873 -0.7416
 5453SOL     OW27817   2.425   3.341  12.310  0.1874 -0.0683 -0.1818
 5453SOL    HW127818   2.353   3.319  12.250 -1.7984  2.0683  1.4278
 5453SOL    HW227819   2.440   3.251  12.340  1.4011  0.9320  2.1844
 5454SOL     OW27820   3.383   1.186   4.053 -0.3738 -0.2496 -0.4762
 5454SOL    HW127821   3.389   1.271   4.097  1.5742  0.0706 -1.3237
 5454SOL    HW227822   3.433   1.135   4.117 -1.2086 -0.3161  0.1198
 5455SOL     OW27823   0.013   1.570   2.847  0.1054 -0.5958  0.1553
 5455SOL    HW127824   0.023   1.524   2.930 -3.8878  0.2108  1.0578
 5455SOL    HW227825   0.088   1.542   2.795  2.0414 -0.7869  3.0626
 5456SOL     OW27826   3.557   1.901   2.460 -0.1063 -0.1130 -0.1023
 5456SOL    HW127827   3.561   1.876   2.367 -0.4370 -0.2104 -0.0909
 5456SOL    HW227828   3.613   1.830   2.493  0.0363 -0.3113 -0.7726
 5457SOL     OW27829   2.447   3.055   1.926  0.5919 -0.0022 -0.1008
 5457SOL    HW127830   2.365   3.094   1.956  1.1611  1.1287 -0.0181
 5457SOL    HW227831   2.420   2.973   1.884  1.2011  0.0922 -0.6834
 5458SOL     OW27832   2.612   4.306   6.433 -0.4850  0.4331  0.3692
 5458SOL    HW127833   2.542   4.367   6.407 -1.5876 -1.2365 -0.5228
 5458SOL    HW227834   2.586   4.257   6.511 -0.3605  0.6148  0.5264
 5459SOL     OW27835   3.663   3.417  10.853 -0.1521 -0.2068 -0.2405
 5459SOL    HW127836   3.631   3.507  10.847 -0.8483 -0.3376  1.5373
 5459SOL    HW227837   3.630   3.377  10.772 -1.6820  0.4734  0.0365
 5460SOL     OW27838   3.695   2.984  16.097 -0.5953  0.4727  0.0867
 5460SOL    HW127839   3.753   3.038  16.043  0.7674 -1.5080 -0.4178
 5460SOL    HW227840   3.733   2.898  16.079 -1.7190  0.2882 -1.4454
 5461SOL     OW27841   4.351   0.446   3.662 -0.3231  0.2012  0.3641
 5461SOL    HW127842   4.348   0.477   3.571 -2.8867 -1.7827 -0.2294
 5461SOL    HW227843   4.404   0.366   3.666 -2.0708 -0.8675  2.0641
 5462SOL     OW27844   1.305   3.409   3.207  0.9146  0.5248  0.2706
 5462SOL    HW127845   1.219   3.368   3.215  1.1077  0.5378  2.4987
 5462SOL    HW227846   1.298   3.499   3.175 -2.4742  0.4094  0.6800
 5463SOL     OW27847   1.533   1.631   3.729 -0.6334 -0.3601 -0.0584
 5463SOL    HW127848   1.469   1.646   3.660  1.1165 -0.7836 -1.8036
 5463SOL    HW227849   1.614   1.670   3.696 -1.1958  0.3453 -0.5987
 5464SOL     OW27850   3.691   0.619   5.842 -0.3152  0.1783 -0.0316
 5464SOL    HW127851   3.769   0.649   5.889  0.4294  2.9351 -3.1190
 5464SOL    HW227852   3.703   0.524   5.854  2.9194  0.4446 -1.2889
 5465SOL     OW27853   2.751   2.637  10.689 -0.3090  0.2527 -0.7320
 5465SOL    HW127854   2.721   2.547  10.699  0.2998  0.0301 -0.9187
 5465SOL    HW227855   2.674   2.676  10.648 -0.6558 -0.2996 -0.6012
 5466SOL     OW27856   2.659   0.018   4.612 -0.0147 -0.1264 -0.0305
 5466SOL    HW127857   2.606   4.691   4.676  1.7645 -0.4446  1.2013
 5466SOL    HW227858   2.716   0.059   4.676  1.8123 -1.2083 -0.9519
 5467SOL     OW27859   4.198   2.580   3.112 -0.1024  0.1057  0.4739
 5467SOL    HW127860   4.155   2.621   3.187  1.3782  0.9220  0.8729
 5467SOL    HW227861   4.129   2.524   3.077 -0.6381 -0.0395  1.7640
 5468SOL     OW27862   2.913   0.661  10.676 -0.5327 -0.0201 -0.0736
 5468SOL    HW127863   2.923   0.583  10.621  2.3212  0.4288 -0.2194
 5468SOL    HW227864   2.993   0.707  10.651  0.9856 -2.4599  0.2854
 5469SOL     OW27865   4.246   1.293   0.193 -0.2667  0.0536  0.0683
 5469SOL    HW127866   4.256   1.240   0.114  1.7929  2.1595 -1.0450
 5469SOL    HW227867   4.274   1.379   0.164  0.5030 -0.6167 -1.1939
 5470SOL     OW27868   0.096   3.897  16.784 -0.7076 -0.0925  0.0220
 5470SOL    HW127869   0.112   3.803  16.798  3.4328  0.4220 -1.2682
 5470SOL    HW227870   0.042   3.914  16.861 -1.6802 -1.0913 -0.4366
 5471SOL     OW27871   1.648   0.100  14.837  0.3879  0.9283  0.2427
 5471SOL    HW127872   1.577   0.037  14.824 -0.0690  1.2252  1.3102
 5471SOL    HW227873   1.637   0.145  14.920  1.5870 -0.2482  1.0312
 5472SOL     OW27874   3.986   3.513   5.211  0.3977  0.4273  0.3414
 5472SOL    HW127875   4.046   3.485   5.142  0.6732  0.6435  0.4920
 5472SOL    HW227876   3.981   3.430   5.259  4.1277  0.2681  0.4551
 5473SOL     OW27877   1.764   1.506  11.167  0.2427 -0.0116  0.5099
 5473SOL    HW127878   1.712   1.581  11.139 -0.5774 -1.4457 -1.7456
 5473SOL    HW227879   1.849   1.542  11.143  0.1314  0.5396  0.9335
 5474SOL     OW27880   1.701   0.850   4.471 -0.5420 -0.1208  0.2027
 5474SOL    HW127881   1.708   0.755   4.485 -1.6297 -0.0175  1.4688
 5474SOL    HW227882   1.753   0.863   4.392 -0.5350  0.5293  0.3147
 5475SOL     OW27883   1.232   2.430   3.637  0.4039  0.2706  0.1676
 5475SOL    HW127884   1.318   2.454   3.602  0.6551 -0.2984  0.3896
 5475SOL    HW227885   1.215   2.506   3.693 -3.1291 -1.2979  1.1887
 5476SOL     OW27886   3.616   1.970  13.265  0.3298  0.1623 -0.2744
 5476SOL    HW127887   3.566   1.914  13.324  0.2406 -0.5093 -0.9934
 5476SOL    HW227888   3.592   2.056  13.301 -0.5905  0.0168 -0.5461
 5477SOL     OW27889   0.709   2.797   7.090 -0.1024 -0.4203  0.2087
 5477SOL    HW127890   0.685   2.871   7.145 -2.7650 -1.4269  0.4144
 5477SOL    HW227891   0.642   2.735   7.118  2.0885 -1.8536  2.3681
 5478SOL     OW27892   3.673   0.914  17.042  0.1543  0.5400  0.1130
 5478SOL    HW127893   3.579   0.934  17.039  0.7192  3.1280 -0.0373
 5478SOL    HW227894   3.698   0.956  17.124 -1.1208  1.3488  0.0887
 5479SOL     OW27895   2.955   4.163   6.199  0.1584 -0.2545  0.3293
 5479SOL    HW127896   2.975   4.203   6.284 -0.7490  1.1177 -0.0933
 5479SOL    HW227897   2.921   4.077   6.221 -2.1215  1.3575  3.0764
 5480SOL     OW27898   3.857   3.231   7.291 -0.7927 -0.2531  0.1106
 5480SOL    HW127899   3.951   3.216   7.302 -0.3800  1.4337 -1.1108
 5480SOL    HW227900   3.854   3.313   7.242 -2.2632 -0.6150 -0.4250
 5481SOL     OW27901   0.163   1.077   5.238 -0.3359 -0.3515  0.1184
 5481SOL    HW127902   0.222   1.054   5.310 -1.1995 -0.7454  0.7010
 5481SOL    HW227903   0.107   1.142   5.281 -0.3312  0.3626 -0.9664
 5482SOL     OW27904   2.524   4.597  15.573 -0.0686  0.4330  0.4078
 5482SOL    HW127905   2.585   4.652  15.622 -0.8739  1.9687 -0.3171
 5482SOL    HW227906   2.547   4.607  15.480  1.5232  0.0243  0.7471
 5483SOL     OW27907   2.733   2.588   4.930  0.2644  0.0022  0.1533
 5483SOL    HW127908   2.740   2.578   5.025  0.5975 -0.4017  0.0839
 5483SOL    HW227909   2.755   2.500   4.898  1.9710  0.3935  0.2006
 5484SOL     OW27910   3.207   0.886  11.077 -0.0487  0.2135 -0.4089
 5484SOL    HW127911   3.221   0.920  11.166  0.1208  1.6736 -0.9942
 5484SOL    HW227912   3.125   0.845  11.106 -0.9310  0.0880 -3.1262
 5485SOL     OW27913   0.987   3.052  14.344 -0.0205 -0.2577 -0.1664
 5485SOL    HW127914   1.023   2.992  14.408  2.2545 -0.1783 -1.3442
 5485SOL    HW227915   0.894   3.033  14.349 -0.0813  0.5684  1.6657
 5486SOL     OW27916   2.148   1.064   5.421  0.0410  0.3319  0.2626
 5486SOL    HW127917   2.165   0.971   5.437 -0.0818  0.0183 -1.4515
 5486SOL    HW227918   2.065   1.079   5.465 -0.1586 -1.9282  0.6716
 5487SOL     OW27919   2.847   1.042  14.378  0.5955 -0.4010  0.0956
 5487SOL    HW127920   2.756   1.056  14.352  0.5286 -2.7336 -0.8796
 5487SOL    HW227921   2.890   1.119  14.342 -2.4070  0.3210 -1.9660
 5488SOL     OW27922   1.014   2.353   1.936 -0.0583 -0.4190  0.6140
 5488SOL    HW127923   1.105   2.367   1.962 -0.5553 -0.1818  2.1984
 5488SOL    HW227924   0.975   2.330   2.020 -2.1325  2.3771  0.4176
 5489SOL     OW27925   0.886   1.081   3.151 -0.9212  0.0731 -0.1575
 5489SOL    HW127926   0.821   1.026   3.194  0.0662 -0.3251  0.8136
 5489SOL    HW227927   0.828   1.149   3.115  0.7740  1.9187  0.5944
 5490SOL     OW27928   0.762   0.812  14.866 -0.4455 -0.3687  0.1757
 5490SOL    HW127929   0.854   0.798  14.843 -0.2112 -1.5225  1.8546
 5490SOL    HW227930   0.725   0.848  14.785 -0.2650 -0.3423  0.1039
 5491SOL     OW27931   2.330   1.574   4.405  0.5544  0.1263  0.2425
 5491SOL    HW127932   2.348   1.612   4.320  1.1741  3.6312  1.9402
 5491SOL    HW227933   2.236   1.586   4.407  0.3129 -1.8495  0.8889
 5492SOL     OW27934   0.451   2.522   1.261  0.2095 -0.1918  0.4705
 5492SOL    HW127935   0.371   2.494   1.306 -0.9177 -2.0398 -2.7216
 5492SOL    HW227936   0.458   2.455   1.194  2.8794  1.3963 -0.8343
 5493SOL     OW27937   2.937   4.431  13.699  0.0086  0.2702 -0.6972
 5493SOL    HW127938   2.935   4.423  13.794  1.1196  1.2381 -0.5900
 5493SOL    HW227939   2.951   4.524  13.684  0.2815 -0.0884 -2.7794
 5494SOL     OW27940   2.734   3.041  13.176  0.3846 -0.4709  0.2752
 5494SOL    HW127941   2.642   3.063  13.195 -0.2856 -1.8069 -1.4127
 5494SOL    HW227942   2.766   2.988  13.249  1.0375  0.3197  0.5522
 5495SOL     OW27943   4.212   0.670   8.219 -0.3949  0.8263 -0.7642
 5495SOL    HW127944   4.129   0.717   8.211  0.4301  2.3606 -0.3960
 5495SOL    HW227945   4.187   0.581   8.242 -2.0701  1.3502 -0.5769
 5496SOL     OW27946   2.826   3.868   4.592  0.5459  0.6923 -0.2697
 5496SOL    HW127947   2.882   3.795   4.567  0.0180 -0.1961  1.1382
 5496SOL    HW227948   2.888   3.936   4.566  1.7919 -0.3143  0.1056
 5497SOL     OW27949   1.765   3.151  10.590  0.0489 -0.1547  0.4182
 5497SOL    HW127950   1.688   3.096  10.601 -0.5425  0.5135 -0.4004
 5497SOL    HW227951   1.732   3.240  10.581 -0.9123 -0.5381  0.1818
 5498SOL     OW27952   3.163   1.319   3.409 -0.3000  0.1392  0.6735
 5498SOL    HW127953   3.162   1.370   3.328 -0.3397  0.5139  0.9074
 5498SOL    HW227954   3.086   1.263   3.397 -0.5865  1.1931 -2.4075
 5499SOL     OW27955   1.081   0.381  10.874 -0.1602 -0.1736 -0.0471
 5499SOL    HW127956   1.064   0.345  10.787  1.9944  1.4778 -1.1366
 5499SOL    HW227957   1.069   0.475  10.863 -3.6753 -0.5684  0.5901
 5500SOL     OW27958   3.433   1.268   6.591 -0.0835  0.2135  0.1131
 5500SOL    HW127959   3.518   1.290   6.554 -0.5179  2.5863  0.5268
 5500SOL    HW227960   3.455   1.183   6.631  0.8433 -0.1377 -1.1513
 5501SOL     OW27961   4.338   1.288   8.510 -0.0266  0.2638 -0.1041
 5501SOL    HW127962   4.401   1.358   8.524  0.3423  0.3732 -2.1864
 5501SOL    HW227963   4.366   1.221   8.572 -0.6675  1.2536  1.2274
 5502SOL     OW27964   4.056   0.758  17.679  0.2321  0.4412 -0.1858
 5502SOL    HW127965   4.112   0.744   0.070 -1.9516 -0.4800  1.2463
 5502SOL    HW227966   4.126   0.795  17.624 -0.0337  1.3158  0.0589
 5503SOL     OW27967   2.449   1.778   8.297 -0.2342  0.2383  0.4294
 5503SOL    HW127968   2.536   1.819   8.295  0.8873 -2.1839 -1.1675
 5503SOL    HW227969   2.418   1.786   8.387 -0.8408  0.0817  0.2320
 5504SOL     OW27970   2.281   3.473   5.255  0.2685 -0.4835 -0.1197
 5504SOL    HW127971   2.193   3.442   5.274 -0.3608  0.8938 -0.7871
 5504SOL    HW227972   2.300   3.419   5.179  0.5912  1.2467 -1.2849
 5505SOL     OW27973   0.082   4.605  11.707 -0.2295 -0.3180 -0.4141
 5505SOL    HW127974   0.002   4.657  11.710 -1.5945 -2.4111 -0.8654
 5505SOL    HW227975   0.128   4.646  11.780 -1.7983  0.1697  0.3025
 5506SOL     OW27976   1.932   1.515   5.256 -0.4064  0.1558 -0.0142
 5506SOL    HW127977   1.995   1.443   5.254 -0.4695  0.0821  0.8286
 5506SOL    HW227978   1.854   1.461   5.270  0.9864 -1.3308  2.0142
 5507SOL     OW27979   1.332   2.817   3.194  0.0337 -0.1052 -0.1413
 5507SOL    HW127980   1.406   2.847   3.247  0.0084  0.7623 -0.5842
 5507SOL    HW227981   1.379   2.816   3.111  1.4800 -0.9719  0.7072
 5508SOL     OW27982   0.909   2.121   1.250 -0.4616  0.0046  0.1662
 5508SOL    HW127983   0.860   2.090   1.174  2.1756 -1.4255 -0.9753
 5508SOL    HW227984   0.989   2.071   1.232 -0.2825  0.0383  0.8964
 5509SOL     OW27985   1.902   3.429   1.145  0.3202 -0.0484 -0.2064
 5509SOL    HW127986   1.976   3.474   1.104 -0.9812  2.6215  0.3673
 5509SOL    HW227987   1.829   3.490   1.134  1.1433  1.0150  0.2513
 5510SOL     OW27988   2.699   1.725   1.281 -0.1728 -0.0880  0.7123
 5510SOL    HW127989   2.761   1.779   1.330  0.1845  0.2202 -0.0757
 5510SOL    HW227990   2.762   1.685   1.222 -2.0781 -0.0893 -1.3480
 5511SOL     OW27991   4.321   4.608   6.266 -0.3215 -0.1799  0.1531
 5511SOL    HW127992   4.338   4.640   6.355  0.5050 -0.7087  0.1823
 5511SOL    HW227993   4.385   4.654   6.212 -0.1396  0.0542  0.5677
 5512SOL     OW27994   0.056   3.624  16.805  0.0425  0.2195  0.0965
 5512SOL    HW127995   0.026   3.544  16.848  0.4544 -1.4158 -2.7107
 5512SOL    HW227996   0.149   3.615  16.824  0.0767  0.4014  0.0143
 5513SOL     OW27997   0.714   1.322   4.543  0.2886 -0.4583 -0.1564
 5513SOL    HW127998   0.639   1.331   4.601 -1.0592 -0.8944 -1.8196
 5513SOL    HW227999   0.756   1.408   4.537  0.9374 -0.7257  0.5937
 5514SOL     OW28000   3.514   3.512  15.719  0.1716  0.2165  0.2630
 5514SOL    HW128001   3.435   3.505  15.664 -0.0985 -0.4373  0.7235
 5514SOL    HW228002   3.566   3.583  15.681 -0.2446 -1.8330 -4.2462
 5515SOL     OW28003   2.845   4.600   2.423 -0.1246  0.2952  0.2903
 5515SOL    HW128004   2.848   4.537   2.352  2.4376 -0.9699  1.5467
 5515SOL    HW228005   2.907   4.671   2.404  0.1755  0.6539  2.5418
 5516SOL     OW28006   3.431   0.925   3.304  0.3056 -0.4420 -0.7281
 5516SOL    HW128007   3.357   0.941   3.363  0.2497  1.2326 -1.2482
 5516SOL    HW228008   3.401   0.988   3.239  0.6722 -0.8984 -1.3377
 5517SOL     OW28009   2.283   4.133   7.770 -0.0440 -0.3399  0.5158
 5517SOL    HW128010   2.339   4.205   7.740  1.8177 -2.3570 -0.7818
 5517SOL    HW228011   2.345   4.097   7.833  4.0073  2.0339 -2.1392
 5518SOL     OW28012   4.159   3.931   4.437 -0.2726 -0.0635 -0.1696
 5518SOL    HW128013   4.143   3.870   4.366  2.6139 -1.6751  0.5729
 5518SOL    HW228014   4.165   4.009   4.382  0.6290  0.3074  0.4519
 5519SOL     OW28015   1.652   4.550   5.047  0.1680  0.6571  0.3673
 5519SOL    HW128016   1.685   4.587   5.129 -1.5055 -1.3736  1.9415
 5519SOL    HW228017   1.586   4.498   5.092  1.0878 -0.5530  0.3373
 5520SOL     OW28018   3.314   3.497  15.542 -0.2669 -0.2073 -0.5879
 5520SOL    HW128019   3.269   3.459  15.466 -0.5196 -0.6187 -0.2327
 5520SOL    HW228020   3.267   3.580  15.553 -0.6942 -0.3665 -1.1951
 5521SOL     OW28021   2.368   4.449  12.619  0.0914 -0.1271 -0.7021
 5521SOL    HW128022   2.411   4.534  12.629 -1.3342  0.4367  0.5584
 5521SOL    HW228023   2.392   4.404  12.699 -2.3821 -2.3186 -1.2014
 5522SOL     OW28024   2.995   4.563   6.966 -0.2362  0.1182  0.8633
 5522SOL    HW128025   3.055   4.592   6.898 -0.9893  0.9686  0.5551
 5522SOL    HW228026   2.981   4.642   7.019  1.6731  1.4039 -0.5638
 5523SOL     OW28027   1.703   3.597   1.075 -0.4535 -0.2004  0.4881
 5523SOL    HW128028   1.701   3.660   1.146  2.6148 -0.9104  1.1930
 5523SOL    HW228029   1.760   3.631   1.006  0.1891 -1.0888  0.5760
 5524SOL     OW28030   0.330   4.546   6.799  0.1061 -0.0429  0.0875
 5524SOL    HW128031   0.283   4.628   6.784  1.2677  0.4483 -0.7982
 5524SOL    HW228032   0.256   4.486   6.787 -3.1047  3.4488  2.2859
 5525SOL     OW28033   3.924   3.781   5.768 -0.4183  0.1292  0.1968
 5525SOL    HW128034   3.841   3.759   5.725 -1.8672  0.7786  2.7076
 5525SOL    HW228035   3.968   3.696   5.775 -2.2726 -0.7368  1.1128
 5526SOL     OW28036   0.630   0.758   3.539 -0.0075  0.0076  0.2652
 5526SOL    HW128037   0.537   0.761   3.561 -0.3190  2.5688 -1.3408
 5526SOL    HW228038   0.646   0.668   3.511  1.7930  1.1567 -2.4164
 5527SOL     OW28039   2.553   2.928   8.697  0.2952 -0.6524 -0.5112
 5527SOL    HW128040   2.585   2.981   8.770 -2.2745  0.2453 -0.0193
 5527SOL    HW228041   2.617   2.858   8.703  0.0968 -0.8452 -0.6463
 5528SOL     OW28042   0.886   3.542   8.437 -0.0349 -0.4740  0.2695
 5528SOL    HW128043   0.826   3.615   8.443  1.4618  0.9260 -1.9308
 5528SOL    HW228044   0.833   3.492   8.375 -0.1718 -0.4709  0.3837
 5529SOL     OW28045   3.494   4.493   3.595  0.3431  0.0845 -0.1743
 5529SOL    HW128046   3.423   4.456   3.543 -2.8611 -0.3020  4.4978
 5529SOL    HW228047   3.498   4.431   3.667 -0.0591 -0.3447 -0.5261
 5530SOL     OW28048   0.793   0.650   7.355 -0.3595  0.0445 -0.0896
 5530SOL    HW128049   0.820   0.573   7.405 -0.0448 -0.2757 -0.7508
 5530SOL    HW228050   0.836   0.648   7.270 -1.5357  1.0866 -0.7107
 5531SOL     OW28051   2.155   3.392  10.541 -0.0264 -0.2765 -0.1192
 5531SOL    HW128052   2.127   3.300  10.532 -2.1949  0.0409  3.6094
 5531SOL    HW228053   2.088   3.413  10.606 -0.7541 -1.5533 -0.4370
 5532SOL     OW28054   4.209   1.853   1.508  0.4253 -0.5804  0.5110
 5532SOL    HW128055   4.147   1.788   1.537 -0.0189 -0.0412  0.7672
 5532SOL    HW228056   4.155   1.932   1.513  1.6169  0.3971 -1.6045
 5533SOL     OW28057   4.091   2.189   0.309  0.2637 -0.7531  0.1944
 5533SOL    HW128058   4.018   2.151   0.260 -1.5070  2.4834  0.2896
 5533SOL    HW228059   4.051   2.265   0.352  3.5553  1.1955 -0.2457
 5534SOL     OW28060   3.372   4.090  13.160 -0.7320 -0.3854 -0.2087
 5534SOL    HW128061   3.301   4.062  13.102  0.2729  0.2230 -1.7264
 5534SOL    HW228062   3.428   4.125  13.092  0.7910 -0.3534  1.0633
 5535SOL     OW28063   2.052   1.845   3.529 -0.3766 -0.0187 -0.4190
 5535SOL    HW128064   2.138   1.832   3.569  0.6426  1.7927 -2.0388
 5535SOL    HW228065   2.066   1.933   3.495 -0.3519 -0.4615 -1.5733
 5536SOL     OW28066   1.795   4.515   2.549 -0.1424 -0.6371  0.1383
 5536SOL    HW128067   1.732   4.532   2.619  0.1345  0.2812  0.1573
 5536SOL    HW228068   1.803   4.420   2.540 -1.9785 -0.8072  0.3639
 5537SOL     OW28069   3.783   2.943   9.090  0.4277 -0.2227 -0.1852
 5537SOL    HW128070   3.773   2.870   9.029 -2.6572  0.7397 -0.7995
 5537SOL    HW228071   3.773   2.904   9.177 -0.3274 -0.0376 -0.1924
 5538SOL     OW28072   0.289   1.258   5.863 -0.6557 -0.1607  0.2041
 5538SOL    HW128073   0.237   1.187   5.900 -0.7905 -0.3326 -0.3176
 5538SOL    HW228074   0.370   1.208   5.850 -0.0838  1.0517 -0.9590
 5539SOL     OW28075   1.208   4.154   8.266 -0.0129  0.2615  0.8062
 5539SOL    HW128076   1.202   4.125   8.357  2.8445  0.6665  1.1237
 5539SOL    HW228077   1.186   4.246   8.262 -2.9286 -0.5893 -2.4720
 5540SOL     OW28078   4.334   0.139   7.554  0.2665  0.1894  0.0592
 5540SOL    HW128079   4.427   0.159   7.540  0.5338 -0.4008  0.9613
 5540SOL    HW228080   4.315   0.164   7.645  0.8296  1.0544 -0.0515
 5541SOL     OW28081   1.793   3.210   7.402  0.2626  0.1296 -0.5570
 5541SOL    HW128082   1.882   3.196   7.433  0.0906 -0.3203 -0.2667
 5541SOL    HW228083   1.789   3.139   7.338  1.9977 -1.6056  1.2976
 5542SOL     OW28084   0.995   3.682  11.667  0.6047 -0.5887  0.9646
 5542SOL    HW128085   0.979   3.677  11.761 -1.3451 -0.6487  0.6309
 5542SOL    HW228086   0.945   3.609  11.631 -0.6593  1.1184 -0.7461
 5543SOL     OW28087   0.096   4.304   8.255  0.3190  0.1371  0.2307
 5543SOL    HW128088   0.040   4.381   8.265  1.1595  0.6868  0.7778
 5543SOL    HW228089   0.166   4.314   8.319 -0.0978  0.4166  0.6429
 5544SOL     OW28090   1.349   2.445  14.057  0.1820  0.3733 -0.1466
 5544SOL    HW128091   1.359   2.539  14.074  0.3499  0.0646  1.4400
 5544SOL    HW228092   1.325   2.420  14.147  0.9195  2.1798  0.5586
 5545SOL     OW28093   1.041   2.021   8.513 -0.0218  0.1066 -0.1144
 5545SOL    HW128094   0.974   2.035   8.446 -1.1329  1.1578  1.2340
 5545SOL    HW228095   1.014   1.935   8.546  0.7907  0.0863  0.5007
 5546SOL     OW28096   1.799   4.305   7.015 -0.3870 -0.2072 -0.0706
 5546SOL    HW128097   1.860   4.319   7.088 -1.2421  0.0699  0.5907
 5546SOL    HW228098   1.832   4.223   6.978  1.9955  0.6103  0.2276
 5547SOL     OW28099   0.367   0.832   6.762 -0.6992  0.2728  0.1455
 5547SOL    HW128100   0.289   0.870   6.803 -1.8641 -1.7230 -0.1551
 5547SOL    HW228101   0.434   0.833   6.830  0.5701  0.6082 -1.1205
 5548SOL     OW28102   1.426   2.052  16.997  0.1672  0.1302 -0.4865
 5548SOL    HW128103   1.341   2.081  16.964  1.2095  1.1995 -2.1883
 5548SOL    HW228104   1.464   2.137  17.018  2.1009 -0.9058  0.1728
 5549SOL     OW28105   0.080   3.633   6.538  0.4584  0.1368 -0.6572
 5549SOL    HW128106   0.142   3.564   6.513 -0.2613 -0.5019 -0.6833
 5549SOL    HW228107   0.016   3.590   6.595 -0.1921  0.7770 -0.9120
 5550SOL     OW28108   4.264   2.145   8.671  0.3198 -0.4522 -0.1830
 5550SOL    HW128109   4.239   2.152   8.579 -0.4161  1.1379  0.1373
 5550SOL    HW228110   4.286   2.235   8.694 -0.0176 -0.4432  0.1002
 5551SOL     OW28111   2.920   0.320   7.135 -0.0514 -0.3025  0.4200
 5551SOL    HW128112   2.948   0.313   7.044 -0.4652  2.6830  0.0741
 5551SOL    HW228113   2.996   0.295   7.188 -0.0368 -1.6572 -0.2201
 5552SOL     OW28114   3.516   0.701   5.095  0.1801  0.8700  0.2496
 5552SOL    HW128115   3.609   0.695   5.076 -0.0020 -3.0116  0.5462
 5552SOL    HW228116   3.505   0.661   5.182  0.2243 -0.2289 -0.2529
 5553SOL     OW28117   0.731   1.301  15.424  0.3749 -0.7339  0.3431
 5553SOL    HW128118   0.694   1.297  15.336 -2.1797 -0.0254  1.3709
 5553SOL    HW228119   0.665   1.256  15.477 -1.0484  0.0796 -0.7567
 5554SOL     OW28120   1.644   1.094  15.951  0.8507 -0.2644 -0.3544
 5554SOL    HW128121   1.667   1.059  15.865 -0.9295 -0.0169 -0.9279
 5554SOL    HW228122   1.553   1.123  15.941  1.1266  0.1363 -1.6840
 5555SOL     OW28123   0.256   0.902   8.077  0.1254  0.6528 -0.1473
 5555SOL    HW128124   0.299   0.817   8.083  2.2321  1.5131 -3.0924
 5555SOL    HW228125   0.240   0.895   7.983 -0.9326  1.5807 -0.0367
 5556SOL     OW28126   3.969   0.626   8.654 -0.0605 -0.3711 -0.5724
 5556SOL    HW128127   4.033   0.680   8.700 -1.0517  1.1400 -0.9887
 5556SOL    HW228128   3.893   0.683   8.652 -1.3020 -2.0406 -1.0018
 5557SOL     OW28129   1.403   1.820   3.077  0.8173  0.0033 -0.0650
 5557SOL    HW128130   1.443   1.734   3.092  0.6442  0.0560  0.6693
 5557SOL    HW228131   1.331   1.813   3.139 -0.4694 -1.2458 -1.6846
 5558SOL     OW28132   2.337   0.932  15.690  0.5990 -0.0926  0.3260
 5558SOL    HW128133   2.254   0.888  15.673  1.3452 -1.2635 -0.2837
 5558SOL    HW228134   2.342   0.988  15.612  1.8617  1.2830  1.3925
 5559SOL     OW28135   4.589   2.335   5.294 -0.6303  0.3662 -0.0327
 5559SOL    HW128136   4.515   2.303   5.242 -1.0629 -0.2188  0.9314
 5559SOL    HW228137   4.630   2.401   5.238 -1.7201  0.0769 -1.1726
 5560SOL     OW28138   1.918   2.032   2.602  0.6011 -0.2516  0.0062
 5560SOL    HW128139   1.949   2.002   2.688  0.6165  1.1416  0.4827
 5560SOL    HW228140   1.864   1.956   2.581  1.7601 -1.5230  1.5746
 5561SOL     OW28141   1.791   3.167   9.239 -0.2183 -0.1155  0.4834
 5561SOL    HW128142   1.765   3.111   9.313  1.4638 -0.5044  0.7882
 5561SOL    HW228143   1.707   3.197   9.205  0.5212  1.1443 -0.2256
 5562SOL     OW28144   3.444   3.133   0.265  0.3914 -0.2935  0.3070
 5562SOL    HW128145   3.473   3.201   0.205 -0.1836 -0.2448  0.0841
 5562SOL    HW228146   3.475   3.164   0.350  2.4470 -1.4273 -0.0440
 5563SOL     OW28147   3.521   0.703   1.392  0.3366  0.3313 -0.0292
 5563SOL    HW128148   3.574   0.636   1.435 -0.0260  1.1184  1.6176
 5563SOL    HW228149   3.477   0.739   1.468 -2.7851  0.2294 -1.7755
 5564SOL     OW28150   4.657   3.393  11.784  0.0706 -0.2282  0.5790
 5564SOL    HW128151   4.692   3.314  11.824  2.1675  0.3156 -0.1575
 5564SOL    HW228152   4.571   3.369  11.751  0.4438 -0.8555  0.0647
 5565SOL     OW28153   3.498   3.267   0.499  0.1914 -0.3843  0.2252
 5565SOL    HW128154   3.439   3.342   0.506 -0.3183 -0.6345 -1.3543
 5565SOL    HW228155   3.459   3.196   0.551 -0.5294 -1.3040 -1.5825
 5566SOL     OW28156   2.967   3.516   3.803  0.4019  0.4005  0.0917
 5566SOL    HW128157   2.906   3.555   3.740 -1.1988 -1.4748  0.4913
 5566SOL    HW228158   3.005   3.458   3.738 -0.4887 -1.8929  1.6218
 5567SOL     OW28159   0.064   2.904   8.633  0.1876 -0.0210 -0.1807
 5567SOL    HW128160   0.023   2.886   8.549 -1.0965  1.7105  0.0851
 5567SOL    HW228161   4.715   2.953   8.676  2.0130  1.7605  0.7536
 5568SOL     OW28162   0.759   1.773  11.769  0.2668  0.7970 -0.7595
 5568SOL    HW128163   0.850   1.798  11.786  0.3998 -0.0374 -0.2348
 5568SOL    HW228164   0.721   1.860  11.765 -1.4524  0.1168  0.7335
 5569SOL     OW28165   1.225   3.904   3.596 -0.7262 -0.3175  0.4682
 5569SOL    HW128166   1.247   3.995   3.613  1.7522 -0.5418 -1.5069
 5569SOL    HW228167   1.144   3.900   3.545 -0.1417  0.1820 -0.5016
 5570SOL     OW28168   2.549   2.947  16.964  0.7142  0.1302  0.4133
 5570SOL    HW128169   2.521   2.861  16.932  2.6540  0.1961 -1.4289
 5570SOL    HW228170   2.642   2.925  16.967  0.9408  1.2586  1.8251
 5571SOL     OW28171   4.464   4.469   4.834 -0.2225  0.0712  0.3297
 5571SOL    HW128172   4.488   4.408   4.904  0.5592  1.2500  1.1045
 5571SOL    HW228173   4.373   4.441   4.821 -0.1354  1.4269 -3.1347
 5572SOL     OW28174   1.571   4.569   8.817 -0.4080  0.1588 -0.0724
 5572SOL    HW128175   1.543   4.549   8.728  1.6141 -0.7655 -0.4995
 5572SOL    HW228176   1.638   4.501   8.823  1.1845  1.6357 -1.0413
 5573SOL     OW28177   4.436   3.487   8.528 -0.6172  0.7388 -0.2850
 5573SOL    HW128178   4.481   3.555   8.579  0.8338 -0.6087  0.2402
 5573SOL    HW228179   4.373   3.463   8.595 -0.3765 -1.3359 -0.8084
 5574SOL     OW28180   4.302   0.692   4.589  0.1088  0.1997  0.3705
 5574SOL    HW128181   4.222   0.742   4.604 -0.1265  0.3021 -1.2980
 5574SOL    HW228182   4.364   0.760   4.616  0.4490 -0.1659  0.5005
 5575SOL     OW28183   1.766   1.672  11.863  0.5103 -0.1074 -0.2618
 5575SOL    HW128184   1.759   1.731  11.938  0.0189  0.3748 -0.6933
 5575SOL    HW228185   1.685   1.625  11.879  0.4706  0.1041  0.1459
 5576SOL     OW28186   2.101   0.720   5.925 -0.1880  0.7528 -0.1653
 5576SOL    HW128187   2.181   0.773   5.925  0.7135 -0.6274 -1.4435
 5576SOL    HW228188   2.041   0.772   5.978 -0.6020  0.9021 -0.7705
 5577SOL     OW28189   3.121   3.985   3.868  0.0864 -0.0708  0.6851
 5577SOL    HW128190   3.107   3.914   3.930 -1.9685  0.4817  0.8393
 5577SOL    HW228191   3.192   3.964   3.807 -0.2517 -2.8889  1.2922
 5578SOL     OW28192   3.054   1.258   8.718  0.6822  0.5518  0.7833
 5578SOL    HW128193   3.124   1.198   8.691  0.6657  0.5651  0.7114
 5578SOL    HW228194   3.083   1.274   8.808  1.8056  0.2024  0.4818
 5579SOL     OW28195   3.663   0.917   5.969 -0.1364  0.0161  0.2973
 5579SOL    HW128196   3.680   0.848   6.033 -0.7407  0.4819  0.9574
 5579SOL    HW228197   3.618   0.981   6.023  1.3884  0.6795  0.7724
 5580SOL     OW28198   3.259   3.678   5.282  0.6757 -0.1772  0.7301
 5580SOL    HW128199   3.318   3.752   5.295  0.6302  0.2479 -1.3723
 5580SOL    HW228200   3.319   3.628   5.227  0.2780 -0.3987  0.4961
 5581SOL     OW28201   1.076   3.524   8.630 -0.6462 -0.5956  0.4569
 5581SOL    HW128202   1.138   3.583   8.589 -0.2553 -0.8072  0.7416
 5581SOL    HW228203   1.007   3.510   8.566  1.1007 -0.6603 -1.3818
 5582SOL     OW28204   2.427   3.360  17.329 -0.2592 -0.3472  0.6042
 5582SOL    HW128205   2.495   3.314  17.379  0.4200 -1.7062 -1.5623
 5582SOL    HW228206   2.439   3.326  17.240 -2.5147 -1.7861  0.8337
 5583SOL     OW28207   3.562   1.769  13.057  0.2606  0.6320 -0.3143
 5583SOL    HW128208   3.491   1.806  13.109  0.9571 -0.7325  1.5858
 5583SOL    HW228209   3.542   1.802  12.969 -2.6786 -2.5006 -0.8139
 5584SOL     OW28210   0.542   2.824  13.823  0.4620  0.6417  0.0762
 5584SOL    HW128211   0.519   2.741  13.782  1.1525 -0.2996  1.5841
 5584SOL    HW228212   0.454   2.861  13.829 -0.2893 -0.9016 -1.6588
 5585SOL     OW28213   4.486   2.586   3.158  0.6068 -0.1774  0.2185
 5585SOL    HW128214   4.399   2.607   3.126  1.0181  1.0826 -0.0962
 5585SOL    HW228215   4.499   2.508   3.105  1.7283  0.7858 -0.9226
 5586SOL     OW28216   0.289   0.109   2.724 -0.1836  0.1193  0.3742
 5586SOL    HW128217   0.367   0.140   2.770  0.5808 -0.2276 -0.6957
 5586SOL    HW228218   0.328   0.073   2.644  2.0281  0.4451  1.2926
 5587SOL     OW28219   2.269   2.894  11.596 -0.1007 -0.5971 -0.3461
 5587SOL    HW128220   2.254   2.954  11.522 -0.7941 -0.6268 -0.2345
 5587SOL    HW228221   2.364   2.902  11.603  0.0172 -1.9256 -0.5403
 5588SOL     OW28222   0.617   2.757  15.116  0.1367 -0.5692 -0.6464
 5588SOL    HW128223   0.607   2.764  15.211  0.6352 -0.1308 -0.6229
 5588SOL    HW228224   0.586   2.667  15.111 -1.1553 -0.1897  0.4612
 5589SOL     OW28225   0.365   0.135  14.641 -0.2763  0.4440 -0.0067
 5589SOL    HW128226   0.330   0.211  14.594  0.6756  1.6131  1.1692
 5589SOL    HW228227   0.442   0.172  14.685 -0.4658 -0.6400  1.2351
 5590SOL     OW28228   0.679   3.441   8.620  0.1109  0.9720  0.2417
 5590SOL    HW128229   0.630   3.376   8.670  0.8390 -1.4087 -2.1841
 5590SOL    HW228230   0.617   3.465   8.552 -0.2673 -0.3169  0.1292
 5591SOL     OW28231   1.897   0.497  10.606  0.2223  0.5536 -0.0596
 5591SOL    HW128232   1.920   0.520  10.516  0.4428  0.8606  0.0730
 5591SOL    HW228233   1.846   0.419  10.586 -0.0052  0.7415 -0.2125
 5592SOL     OW28234   2.556   0.075   8.722  0.2042 -0.4224 -0.5013
 5592SOL    HW128235   2.491   0.111   8.782 -0.2964 -0.4294 -1.0408
 5592SOL    HW228236   2.634   0.070   8.777 -1.2266  1.6433  1.7367
 5593SOL     OW28237   0.029   2.296   7.613  0.5609 -0.1744 -0.0670
 5593SOL    HW128238   0.026   2.366   7.679  0.5107  1.9361 -2.3119
 5593SOL    HW228239   0.012   2.338   7.529 -0.7563  1.2614  0.9339
 5594SOL     OW28240   1.022   1.765  10.110 -0.1710  0.7335 -0.3991
 5594SOL    HW128241   1.030   1.777  10.205 -0.6939  2.2415 -0.5423
 5594SOL    HW228242   1.044   1.673  10.117 -2.3255  0.5651  4.1568
 5595SOL     OW28243   0.817   0.688   8.937 -0.0992 -0.4347  0.5650
 5595SOL    HW128244   0.856   0.717   9.020 -0.2542  3.5223 -0.7573
 5595SOL    HW228245   0.888   0.677   8.874  0.5601  0.4212  1.1594
 5596SOL     OW28246   2.013   4.101   2.525 -0.1947  0.2582  0.9320
 5596SOL    HW128247   1.939   4.156   2.499  0.3241 -0.3430 -1.8546
 5596SOL    HW228248   2.085   4.146   2.480  0.2588 -3.0890 -1.7061
 5597SOL     OW28249   1.135   4.697  14.189  0.1885  0.4362 -0.0525
 5597SOL    HW128250   1.050   0.019  14.190  0.1200  0.3015 -0.2021
 5597SOL    HW228251   1.128   4.640  14.112  2.5288 -2.4277  1.8610
 5598SOL     OW28252   2.705   3.312   9.056  0.4903  0.3938  0.4043
 5598SOL    HW128253   2.700   3.390   9.001 -1.5114  0.9052  1.3384
 5598SOL    HW228254   2.774   3.258   9.016 -0.8296  1.6082 -3.4786
 5599SOL     OW28255   3.380   2.415   7.698 -0.1475 -0.4359  0.2069
 5599SOL    HW128256   3.438   2.339   7.691  0.2928  0.0758 -1.7172
 5599SOL    HW228257   3.430   2.471   7.638 -1.3387  1.2086  0.7738
 5600SOL     OW28258   3.236   3.547   2.249  0.1682  0.5957  0.0117
 5600SOL    HW128259   3.151   3.539   2.293  0.3344  1.3746  0.4918
 5600SOL    HW228260   3.222   3.631   2.205  3.6418  0.6660 -0.9230
 5601SOL     OW28261   4.177   4.162   9.400  0.3666  0.4305 -0.1459
 5601SOL    HW128262   4.193   4.069   9.383 -2.8616 -0.3284  0.9449
 5601SOL    HW228263   4.094   4.175   9.355 -0.0503 -0.5531  0.3288
 5602SOL     OW28264   1.505   1.812   2.090 -0.5392 -0.4244 -0.0004
 5602SOL    HW128265   1.411   1.826   2.101 -1.2570 -3.7621 -1.8674
 5602SOL    HW228266   1.525   1.846   2.003 -0.9825 -0.4023 -0.0968
 5603SOL     OW28267   2.619   2.451  16.158 -0.4878  0.1332  0.0992
 5603SOL    HW128268   2.620   2.370  16.209 -0.4113 -0.5581 -1.0027
 5603SOL    HW228269   2.676   2.428  16.085 -0.5796 -0.3926  0.1923
 5604SOL     OW28270   4.617   2.584   7.513  0.4853  0.0944  0.2416
 5604SOL    HW128271   4.643   2.557   7.601  0.7427  0.6641  0.3360
 5604SOL    HW228272   4.634   2.515   7.450 -2.2418 -1.1735  0.8639
 5605SOL     OW28273   1.173   0.753   9.640  0.7449 -0.0244 -0.0237
 5605SOL    HW128274   1.174   0.844   9.669 -0.2533  0.1978 -0.7003
 5605SOL    HW228275   1.108   0.720   9.702 -0.3336 -0.7412 -1.5571
 5606SOL     OW28276   0.467   3.376   6.465 -0.5949  0.4753 -0.0680
 5606SOL    HW128277   0.392   3.345   6.414 -0.8351  0.2799  0.4002
 5606SOL    HW228278   0.467   3.470   6.444 -2.9212  0.1285 -1.6654
 5607SOL     OW28279   2.106   0.731   7.695 -0.1525 -0.5121  0.3979
 5607SOL    HW128280   2.037   0.789   7.730  0.3581  1.5338 -1.9852
 5607SOL    HW228281   2.185   0.744   7.747 -0.7953  1.2999  0.9676
 5608SOL     OW28282   2.864   0.831   6.172 -0.2387 -0.0625 -0.2626
 5608SOL    HW128283   2.900   0.811   6.085 -1.3213 -0.8227 -0.5283
 5608SOL    HW228284   2.800   0.761   6.180  0.6020 -0.7529  0.4944
 5609SOL     OW28285   0.619   3.643   7.221  0.3152 -0.9215 -0.1152
 5609SOL    HW128286   0.578   3.651   7.135  0.4690 -2.0491 -0.2910
 5609SOL    HW228287   0.549   3.685   7.272  1.2010  1.0900 -0.5626
 5610SOL     OW28288   4.603   1.439   9.739 -0.4941 -0.1187  0.2875
 5610SOL    HW128289   4.623   1.527   9.706  1.6046 -0.6620  0.0485
 5610SOL    HW228290   4.598   1.451   9.833 -1.1574  0.8903  0.1206
 5611SOL     OW28291   3.488   3.703   2.898 -0.3174  0.0470 -0.3665
 5611SOL    HW128292   3.513   3.690   2.806 -0.3901 -1.9784 -0.1027
 5611SOL    HW228293   3.405   3.657   2.906 -0.6969  0.4195 -2.1502
 5612SOL     OW28294   4.594   3.064   5.294 -0.1356  0.4976 -0.1484
 5612SOL    HW128295   4.531   3.119   5.341  1.3957  0.1698  2.2695
 5612SOL    HW228296   4.584   3.093   5.203 -2.9909  2.0712  0.6535
 5613SOL     OW28297   4.174   3.756   4.920 -0.3336  0.4565  0.3817
 5613SOL    HW128298   4.229   3.819   4.967  2.4791 -2.0618  0.4570
 5613SOL    HW228299   4.142   3.705   4.994  1.7096  1.2012  1.7950
 5614SOL     OW28300   4.408   0.564   6.494  0.1687  0.2429  0.8276
 5614SOL    HW128301   4.392   0.493   6.556 -1.0534 -1.2946 -1.2254
 5614SOL    HW228302   4.475   0.520   6.442  0.7232  0.6790  1.1816
 5615SOL     OW28303   3.254   3.512   6.660 -0.0735  0.3407  0.6274
 5615SOL    HW128304   3.349   3.508   6.647 -0.2396 -0.0007 -0.4144
 5615SOL    HW228305   3.230   3.426   6.696  0.4748 -1.0102 -2.2465
 5616SOL     OW28306   0.245   2.708   4.621  0.0560  0.0424  0.5744
 5616SOL    HW128307   0.309   2.640   4.602 -0.4194 -0.1758 -0.2472
 5616SOL    HW228308   0.284   2.776   4.566 -0.8879 -0.1203 -0.2972
 5617SOL     OW28309   3.549   3.818  15.945 -0.4633 -0.3451  0.0737
 5617SOL    HW128310   3.576   3.756  16.014 -0.4579  1.2361  1.4899
 5617SOL    HW228311   3.547   3.900  15.994 -0.6666  0.8871 -2.0317
 5618SOL     OW28312   0.923   1.746   3.937 -0.5224  0.8651 -0.1640
 5618SOL    HW128313   0.987   1.816   3.920  0.1522  0.1805 -0.4589
 5618SOL    HW228314   0.873   1.782   4.010 -0.1874 -0.5003  0.7318
 5619SOL     OW28315   3.198   0.134   3.535 -0.1092  0.1265  0.1565
 5619SOL    HW128316   3.121   0.192   3.536 -1.6307 -1.9147  1.3345
 5619SOL    HW228317   3.159   0.052   3.506 -0.7118  0.2065  0.7382
 5620SOL     OW28318   2.025   2.443   4.029  0.2331  0.0655  0.2281
 5620SOL    HW128319   2.111   2.436   3.988 -0.8095  1.7623 -2.2724
 5620SOL    HW228320   2.008   2.536   4.015  0.0706 -0.0416 -0.2798
 5621SOL     OW28321   1.201   3.916   2.848  0.0165  0.1584 -0.1248
 5621SOL    HW128322   1.116   3.938   2.811 -0.6663  0.3482  1.5310
 5621SOL    HW228323   1.261   3.961   2.789 -1.8433  0.9476 -1.3943
 5622SOL     OW28324   3.016   2.062   3.201  0.8424 -0.4320  0.0327
 5622SOL    HW128325   3.102   2.089   3.171  1.1712 -1.0158  0.4489
 5622SOL    HW228326   2.960   2.126   3.156  1.9153  2.0759  2.2059
 5623SOL     OW28327   1.826   3.355   8.925 -0.2525 -0.5730 -0.7322
 5623SOL    HW128328   1.864   3.347   9.012 -0.7565 -1.4874 -0.5948
 5623SOL    HW228329   1.881   3.295   8.875  1.9343  1.0283 -0.2456
 5624SOL     OW28330   3.816   3.182   6.660  0.1402  0.2425  0.0694
 5624SOL    HW128331   3.775   3.148   6.740  2.1577 -2.8497 -0.2070
 5624SOL    HW228332   3.735   3.220   6.625  0.1152 -0.3385 -0.4935
 5625SOL     OW28333   4.326   1.040   6.502  0.0446  0.1105  0.1049
 5625SOL    HW128334   4.419   1.021   6.513 -0.0485 -2.3962 -3.2880
 5625SOL    HW228335   4.324   1.099   6.577  0.4114 -0.6370  0.7095
 5626SOL     OW28336   1.367   4.442  14.546 -0.4820 -0.7168  1.0174
 5626SOL    HW128337   1.371   4.400  14.460 -1.1814  0.3058  0.4929
 5626SOL    HW228338   1.276   4.420  14.566 -1.5432  0.8170 -2.2908
 5627SOL     OW28339   2.894   1.978  15.926 -0.9354  0.0546  0.2706
 5627SOL    HW128340   2.980   2.019  15.936 -0.3598 -0.6883 -1.6812
 5627SOL    HW228341   2.914   1.896  15.882 -1.7138  0.0347 -0.0442
 5628SOL     OW28342   1.476   1.067   1.220 -0.3839 -0.2804  0.4859
 5628SOL    HW128343   1.552   1.030   1.177 -0.8254  0.8619 -1.3074
 5628SOL    HW228344   1.518   1.109   1.296  1.5751 -2.0714  0.3691
 5629SOL     OW28345   3.126   1.163   6.876  0.7928  0.1301 -0.5923
 5629SOL    HW128346   3.139   1.145   6.782  2.9727 -2.4130  0.1879
 5629SOL    HW228347   3.123   1.259   6.878 -0.9770  0.0806 -0.7678
 5630SOL     OW28348   2.131   3.716  14.034  0.4199  0.8290  0.2540
 5630SOL    HW128349   2.043   3.733  14.069  0.8268 -1.0610  2.1965
 5630SOL    HW228350   2.180   3.682  14.109  0.9810 -0.1407 -0.5610
 5631SOL     OW28351   0.269   1.310   2.989 -0.4824 -0.3042 -0.0805
 5631SOL    HW128352   0.348   1.281   2.943  1.4888  1.4468  2.1686
 5631SOL    HW228353   0.299   1.278   3.075  0.2732 -1.2865 -0.7025
 5632SOL     OW28354   2.906   0.202   8.468  0.4050  0.2167 -0.0237
 5632SOL    HW128355   2.811   0.208   8.477  0.7784  5.1900  0.6285
 5632SOL    HW228356   2.911   0.127   8.409  0.0335  1.0127 -1.0585
 5633SOL     OW28357   0.559   4.278  17.241  0.0655 -0.0615 -0.1047
 5633SOL    HW128358   0.602   4.195  17.261  1.4833  1.1611  1.9709
 5633SOL    HW228359   0.629   4.335  17.210  2.3805 -2.6812  0.2993
 5634SOL     OW28360   2.874   4.497   5.420  0.5145 -0.4044  0.6408
 5634SOL    HW128361   2.817   4.530   5.351 -0.5892 -2.8674  0.3686
 5634SOL    HW228362   2.946   4.559   5.411 -1.6106  1.9996  0.1503
 5635SOL     OW28363   1.084   3.702   1.431  0.0883  0.5360  0.2752
 5635SOL    HW128364   1.066   3.609   1.417  0.2404  1.0319 -3.2234
 5635SOL    HW228365   1.085   3.739   1.343 -0.2344  1.2477  0.5663
 5636SOL     OW28366   0.590   1.552   3.826  0.5284 -0.0800 -0.8361
 5636SOL    HW128367   0.588   1.606   3.747 -1.6699 -0.7925 -1.2651
 5636SOL    HW228368   0.579   1.461   3.801 -0.0375 -0.2436  0.0076
 5637SOL     OW28369   2.858   2.005   0.194 -0.0573 -0.0501  0.0610
 5637SOL    HW128370   2.924   2.036   0.256  0.0804  0.6589 -0.4318
 5637SOL    HW228371   2.839   2.083   0.141 -0.6183  1.2361  2.1266
 5638SOL     OW28372   3.742   2.248  15.119 -0.0707 -0.1615 -0.4957
 5638SOL    HW128373   3.727   2.227  15.026  0.8287 -1.3636 -0.3593
 5638SOL    HW228374   3.717   2.340  15.123 -1.9100 -0.6173 -1.4159
 5639SOL     OW28375   4.251   1.517   0.486  0.1488 -0.3238  0.0589
 5639SOL    HW128376   4.240   1.605   0.450  1.6400  0.7134  2.1731
 5639SOL    HW228377   4.182   1.471   0.437 -2.2655  2.5812  0.6954
 5640SOL     OW28378   1.785   0.238   0.706 -0.0176  0.2918 -0.5878
 5640SOL    HW128379   1.706   0.290   0.718  0.5341  0.9892 -0.0186
 5640SOL    HW228380   1.842   0.278   0.771  1.0585 -0.7823 -0.8721
 5641SOL     OW28381   1.753   3.791   4.644  0.1160  0.6593 -0.4460
 5641SOL    HW128382   1.684   3.764   4.583  0.1105 -0.5668  0.1065
 5641SOL    HW228383   1.691   3.834   4.703  0.1119 -0.1261  0.1142
 5642SOL     OW28384   0.723   0.357   8.613  0.2477  0.4671 -0.3307
 5642SOL    HW128385   0.731   0.452   8.607 -2.1600  0.7017  0.2444
 5642SOL    HW228386   0.758   0.320   8.532 -0.2961 -0.4380 -0.1534
 5643SOL     OW28387   4.659   1.624   6.814  0.0887  0.3054  0.4030
 5643SOL    HW128388   0.030   1.637   6.793 -0.6271  1.4858 -2.0298
 5643SOL    HW228389   4.620   1.702   6.775  1.1235  0.8005  0.3702
 5644SOL     OW28390   4.043   2.976   8.978  0.1840 -0.0287 -0.2209
 5644SOL    HW128391   4.048   3.054   8.923  1.5830 -1.1022 -1.6206
 5644SOL    HW228392   3.951   2.962   8.998  0.1561  2.6694  1.6600
 5645SOL     OW28393   2.479   0.557   0.839  0.2925 -0.0082 -0.0466
 5645SOL    HW128394   2.409   0.515   0.789  0.5591  1.5733 -1.7366
 5645SOL    HW228395   2.457   0.544   0.932  0.2300  0.8023  0.0475
 5646SOL     OW28396   2.477   1.257   2.824  0.0393  0.2139 -0.2489
 5646SOL    HW128397   2.470   1.306   2.906  0.6227 -0.5164  0.2353
 5646SOL    HW228398   2.556   1.301   2.792  0.1546  0.1036 -0.1161
 5647SOL     OW28399   1.375   1.381   8.284 -0.2604 -0.0363  0.0220
 5647SOL    HW128400   1.465   1.400   8.255  0.1706 -0.3579  1.1492
 5647SOL    HW228401   1.339   1.462   8.317  0.1781 -0.3121  1.1809
 5648SOL     OW28402   2.958   1.047   5.055  0.7565  0.5947  0.2930
 5648SOL    HW128403   2.940   1.023   5.146 -1.4203  0.8357 -0.0883
 5648SOL    HW228404   2.885   1.102   5.029  1.3296  0.3763 -1.7771
 5649SOL     OW28405   2.107   1.032   0.372 -0.4695 -0.2727  0.1537
 5649SOL    HW128406   2.075   1.001   0.287 -0.9563 -0.1360  0.2890
 5649SOL    HW228407   2.184   0.976   0.380  0.2168  0.2183 -2.9004
 5650SOL     OW28408   3.370   4.177   6.178  0.7639  0.2804  0.1419
 5650SOL    HW128409   3.398   4.264   6.151 -1.0544  0.3574 -1.4858
 5650SOL    HW228410   3.457   4.137   6.171  0.0659 -1.1010 -0.5095
 5651SOL     OW28411   1.887   3.152   9.773  0.0702  0.2180  0.4757
 5651SOL    HW128412   1.923   3.149   9.684  0.8582 -1.3366  0.8409
 5651SOL    HW228413   1.902   3.064   9.808 -0.7594  0.3552  1.1791
 5652SOL     OW28414   3.807   3.465   7.145  0.3221 -0.1808 -0.6407
 5652SOL    HW128415   3.843   3.452   7.057  1.2316 -0.3757 -0.2319
 5652SOL    HW228416   3.734   3.526   7.132  1.5871  0.9616 -2.3292
 5653SOL     OW28417   1.549   4.541   0.924 -0.1743  0.1474  0.5528
 5653SOL    HW128418   1.609   4.589   0.867 -0.9309 -0.5588 -0.8275
 5653SOL    HW228419   1.530   4.468   0.865 -1.3470 -0.8411  2.1308
 5654SOL     OW28420   3.127   4.595   6.689  0.0435 -0.0083 -0.3316
 5654SOL    HW128421   3.177   4.593   6.608  1.2102  0.1070  0.3728
 5654SOL    HW228422   3.177   4.660   6.740 -1.9880 -0.7889  2.6394
 5655SOL     OW28423   1.037   1.021   0.914 -0.4464  0.2643  0.2542
 5655SOL    HW128424   1.131   1.032   0.927 -0.3997 -2.2664  2.0951
 5655SOL    HW228425   1.006   1.056   0.997  1.2679 -0.5775  1.2510
 5656SOL     OW28426   1.273   0.372   1.000 -0.4161  0.5637  0.1668
 5656SOL    HW128427   1.225   0.294   0.973 -1.0905  0.4336  1.7073
 5656SOL    HW228428   1.305   0.401   0.915  0.0405  2.0590  0.8554
 5657SOL     OW28429   2.239   3.526   7.424 -0.1231 -0.5436  0.7419
 5657SOL    HW128430   2.190   3.496   7.347  0.0283 -2.1819  1.2862
 5657SOL    HW228431   2.167   3.553   7.481  0.5975 -0.2945  1.5390
 5658SOL     OW28432   3.522   1.026   4.248  0.0699  0.2965 -0.4478
 5658SOL    HW128433   3.551   0.963   4.315 -1.7497  0.9617  0.9483
 5658SOL    HW228434   3.436   1.043   4.287  0.0661  0.2888 -0.4530
 5659SOL     OW28435   2.185   2.592   4.208  0.1372  0.2231 -0.4691
 5659SOL    HW128436   2.240   2.650   4.260 -0.4805  0.3545  0.0383
 5659SOL    HW228437   2.237   2.511   4.208  1.9326  1.3893  0.8095
 5660SOL     OW28438   0.722   0.815   4.369  0.3630  0.1867 -0.3081
 5660SOL    HW128439   0.749   0.900   4.403 -1.4541  0.9682 -0.7939
 5660SOL    HW228440   0.808   0.782   4.346  0.1671 -0.6707  0.2050
 5661SOL     OW28441   4.536   3.302   7.576 -0.5341  0.2040  0.9790
 5661SOL    HW128442   4.540   3.223   7.630  1.2584  0.8823  1.8518
 5661SOL    HW228443   4.629   3.320   7.564 -0.8426  0.0773 -1.6640
 5662SOL     OW28444   2.962   2.793   3.194  0.6350  0.3930  0.4336
 5662SOL    HW128445   2.917   2.733   3.253  1.6903 -0.1831  0.6639
 5662SOL    HW228446   2.899   2.861   3.170  0.9261 -0.0724 -1.6933
 5663SOL     OW28447   3.966   1.722   3.562  0.4084  0.4906 -0.1387
 5663SOL    HW128448   3.952   1.757   3.474  0.2460 -0.4736 -0.4951
 5663SOL    HW228449   3.932   1.633   3.560  1.8794 -0.1282  2.0518
 5664SOL     OW28450   1.360   1.963   6.568 -0.1558  0.3558 -0.3246
 5664SOL    HW128451   1.411   1.882   6.572  0.0346  0.3769 -2.2678
 5664SOL    HW228452   1.314   1.961   6.652  1.1204  1.2122  0.3991
 5665SOL     OW28453   3.327   0.711   7.113 -0.4087  0.4910  0.5836
 5665SOL    HW128454   3.243   0.694   7.072  0.2950 -0.6209 -0.3965
 5665SOL    HW228455   3.346   0.799   7.080 -1.4530  0.0622 -1.1473
 5666SOL     OW28456   4.682   2.223   6.220 -0.0961 -0.0365  0.0424
 5666SOL    HW128457   4.687   2.185   6.132  1.2428 -2.1736  1.0370
 5666SOL    HW228458   4.595   2.263   6.225 -0.3288 -0.4706 -0.4525
 5667SOL     OW28459   0.236   2.204   3.094  0.1759  0.5164  0.0923
 5667SOL    HW128460   0.184   2.201   3.014  0.0659  0.5272  0.1642
 5667SOL    HW228461   0.271   2.293   3.097 -1.6295  1.2232  0.0784
 5668SOL     OW28462   4.644   1.814   2.914 -0.3280 -0.3521  0.2482
 5668SOL    HW128463   4.659   1.860   2.831  0.5478 -0.1303  0.5274
 5668SOL    HW228464   4.671   1.729   2.880 -1.4276 -0.6195  0.0402
 5669SOL     OW28465   3.411   1.370   7.977 -0.0349 -0.8095  0.7501
 5669SOL    HW128466   3.358   1.445   7.952 -0.4999 -0.8681  1.5805
 5669SOL    HW228467   3.486   1.427   7.996  0.7082 -1.7716  0.7456
 5670SOL     OW28468   4.051   3.007   2.396 -0.1648  0.1683  0.9605
 5670SOL    HW128469   4.019   3.051   2.317  0.5851 -1.1942 -0.1059
 5670SOL    HW228470   3.971   3.014   2.447 -1.0575  1.5782 -0.6115
 5671SOL     OW28471   2.825   4.375  13.969  0.5021  0.1774  0.3244
 5671SOL    HW128472   2.736   4.378  14.003 -0.3442  0.4418 -1.9802
 5671SOL    HW228473   2.871   4.359  14.052  1.5409  1.1949 -0.0562
 5672SOL     OW28474   4.058   2.914   4.040 -0.1055 -0.0185 -0.3695
 5672SOL    HW128475   4.065   2.910   4.135 -0.8121 -0.6476 -0.3489
 5672SOL    HW228476   4.149   2.931   4.013  0.4899 -0.3204  1.4328
 5673SOL     OW28477   3.841   1.858   3.314 -0.2758 -0.0043 -0.3512
 5673SOL    HW128478   3.866   1.916   3.241  4.8934  0.8132  2.0757
 5673SOL    HW228479   3.807   1.783   3.265 -1.0194  0.4987 -0.6101
 5674SOL     OW28480   4.289   4.619   1.574  0.0081  0.1317 -0.4763
 5674SOL    HW128481   4.259   4.701   1.612  0.0088 -0.7251  1.3734
 5674SOL    HW228482   4.363   4.644   1.519  0.3110  0.6164  0.1527
 5675SOL     OW28483   4.384   3.370  14.008  0.0037 -0.2877  0.5648
 5675SOL    HW128484   4.328   3.356  13.932  0.3093 -2.2332  0.6941
 5675SOL    HW228485   4.434   3.289  14.009  0.8848  0.2491  0.0819
 5676SOL     OW28486   3.449   2.386   7.185 -0.6583 -0.6808 -0.7694
 5676SOL    HW128487   3.476   2.451   7.120 -1.2766 -0.5260 -0.8746
 5676SOL    HW228488   3.371   2.431   7.219  0.3782 -0.9997  2.0333
 5677SOL     OW28489   2.101   3.010   4.640  0.0367  0.5440  0.1082
 5677SOL    HW128490   2.176   3.015   4.700  0.8498 -0.1127 -0.8489
 5677SOL    HW228491   2.042   3.078   4.672 -2.1985 -0.5150 -1.7426
 5678SOL     OW28492   0.584   0.901   6.012 -0.1454  0.0949 -0.7195
 5678SOL    HW128493   0.551   0.965   5.949 -0.7123  0.2337 -0.2825
 5678SOL    HW228494   0.575   0.811   5.979 -3.0763  0.0244  0.2754
 5679SOL     OW28495   1.938   4.465   4.383  0.0438  0.0241  0.3432
 5679SOL    HW128496   1.923   4.425   4.468 -2.2397 -2.0146 -1.0201
 5679SOL    HW228497   1.854   4.509   4.370 -0.2529 -1.0090 -1.3099
 5680SOL     OW28498   1.895   1.517   9.894 -0.6382 -0.0962 -0.0698
 5680SOL    HW128499   1.946   1.437   9.912  2.2310  1.6310 -0.5395
 5680SOL    HW228500   1.873   1.544   9.983 -1.3148 -2.7369  0.5730
 5681SOL     OW28501   0.841   2.729   7.798  0.2057  0.1210 -0.3436
 5681SOL    HW128502   0.878   2.712   7.885  0.2581  0.8450 -0.2293
 5681SOL    HW228503   0.766   2.669   7.797 -1.9546  2.7594  3.0097
 5682SOL     OW28504   0.803   1.985  14.890 -0.5402 -0.0010  0.5039
 5682SOL    HW128505   0.753   1.904  14.904 -1.0353  0.3545  0.7889
 5682SOL    HW228506   0.891   1.964  14.922 -0.6326 -1.1161  0.0400
 5683SOL     OW28507   0.381   3.942   5.555 -0.4784  0.3091 -0.1903
 5683SOL    HW128508   0.363   4.032   5.528 -0.1912  1.1102  2.2634
 5683SOL    HW228509   0.402   3.957   5.648  1.7567 -3.1238 -0.1589
 5684SOL     OW28510   0.007   4.676   5.420 -0.2829  0.0384 -0.6615
 5684SOL    HW128511   0.079   4.640   5.369 -0.2542 -1.9816  0.7752
 5684SOL    HW228512   4.714   4.605   5.483  0.5160  0.7253  0.2733
 5685SOL     OW28513   0.731   3.569   9.059  0.4067 -0.2285 -0.3280
 5685SOL    HW128514   0.785   3.579   8.980  3.2066 -0.6147  1.5455
 5685SOL    HW228515   0.803   3.546   9.117  1.0954 -1.7303 -1.7901
 5686SOL     OW28516   1.598   2.319   5.694  0.3504 -0.7332  0.3239
 5686SOL    HW128517   1.647   2.365   5.763 -0.0693  0.4412 -0.1554
 5686SOL    HW228518   1.542   2.263   5.747 -1.0675  1.8334  1.5162
 5687SOL     OW28519   4.476   2.451   3.966 -0.8534  1.0722 -0.9713
 5687SOL    HW128520   4.507   2.384   4.027 -0.9839  1.0734 -0.9032
 5687SOL    HW228521   4.459   2.396   3.890  0.8039 -1.6463  0.5938
 5688SOL     OW28522   1.549   0.311  16.787 -0.4707 -0.0548 -0.4240
 5688SOL    HW128523   1.640   0.328  16.763  0.0549 -1.3625  0.7213
 5688SOL    HW228524   1.572   0.257  16.862 -2.3411  0.8732  0.8170
 5689SOL     OW28525   3.569   3.126   7.100  0.2181 -0.1804 -0.4778
 5689SOL    HW128526   3.563   3.189   7.172  3.5328  0.5732 -0.8364
 5689SOL    HW228527   3.602   3.052   7.152  2.2556  1.9396  1.2289
 5690SOL     OW28528   4.634   3.362   9.264 -0.4268  0.2907  0.6299
 5690SOL    HW128529   4.713   3.323   9.300  1.1829  0.1026 -3.1152
 5690SOL    HW228530   4.602   3.278   9.231  1.5258  0.8518 -2.5978
 5691SOL     OW28531   4.688   0.734   0.934  0.1520  0.3433  0.2910
 5691SOL    HW128532   4.594   0.729   0.917  0.0495  0.0055  0.9487
 5691SOL    HW228533   4.696   0.661   0.996 -3.7766 -0.2779  0.0659
 5692SOL     OW28534   2.395   3.506   3.438 -0.2661  0.0949  0.1301
 5692SOL    HW128535   2.482   3.471   3.419 -0.0088  1.1140 -0.5948
 5692SOL    HW228536   2.359   3.428   3.479  1.2709 -0.3272  0.6830
 5693SOL     OW28537   0.160   0.941  16.897  0.0180  0.1835  0.0648
 5693SOL    HW128538   0.205   1.000  16.957  0.7268  0.4870 -0.7540
 5693SOL    HW228539   0.087   0.922  16.956  1.0504 -3.2322  0.2774
 5694SOL     OW28540   0.381   0.512   8.691 -0.4510 -0.1683 -0.6513
 5694SOL    HW128541   0.322   0.490   8.620 -0.3110  2.0207 -1.4431
 5694SOL    HW228542   0.317   0.570   8.732  0.4192 -1.0397  1.9632
 5695SOL     OW28543   1.858   0.063   4.159 -0.0107  0.1309  0.2343
 5695SOL    HW128544   1.806   0.101   4.088 -0.0429  0.3494  0.3759
 5695SOL    HW228545   1.894   4.705   4.118 -0.8201 -1.5559  2.7834
 5696SOL     OW28546   3.512   0.046   6.707 -0.6399 -0.2664  0.3794
 5696SOL    HW128547   3.603   0.077   6.702 -0.5842 -1.0651 -3.5312
 5696SOL    HW228548   3.529   4.676   6.680  0.0156 -0.8341  2.7141
 5697SOL     OW28549   2.000   2.037  13.780 -0.6819  0.5004 -0.3099
 5697SOL    HW128550   2.048   2.005  13.856  0.0759  0.1285 -0.9336
 5697SOL    HW228551   1.929   2.080  13.826  0.0187 -0.9946  2.1269
 5698SOL     OW28552   4.001   4.281   3.449 -0.6527  0.3422 -0.0690
 5698SOL    HW128553   3.923   4.280   3.505 -1.0263 -0.9867 -0.6197
 5698SOL    HW228554   4.070   4.255   3.510 -0.4889  0.6236 -0.1336
 5699SOL     OW28555   2.454   1.852  13.055 -0.1716 -0.5590  0.1678
 5699SOL    HW128556   2.514   1.849  13.130  0.4663 -2.7359 -0.4262
 5699SOL    HW228557   2.421   1.941  13.040 -2.0970 -1.0208  1.6638
 5700SOL     OW28558   1.927   2.204   3.474 -0.6128  0.2564 -0.1733
 5700SOL    HW128559   1.999   2.170   3.527 -1.8729 -0.0467  1.3431
 5700SOL    HW228560   1.975   2.232   3.396  1.7758 -1.4618  0.6924
 5701SOL     OW28561   1.411   4.056   4.660  0.1112  0.2634  0.4711
 5701SOL    HW128562   1.405   3.962   4.642 -0.3294  1.1809 -4.3180
 5701SOL    HW228563   1.347   4.088   4.596 -1.2980 -2.5992  0.4570
 5702SOL     OW28564   2.709   1.517   4.313 -0.3280  0.3615  0.1463
 5702SOL    HW128565   2.716   1.447   4.378  2.0114  0.1207 -0.3700
 5702SOL    HW228566   2.697   1.590   4.375 -1.6357 -0.8170  1.2703
 5703SOL     OW28567   0.059   2.232   3.484  0.2534 -0.4911 -0.1127
 5703SOL    HW128568   0.031   2.248   3.394  0.6456  0.7885  0.0022
 5703SOL    HW228569   4.710   2.177   3.519 -1.0122  1.3707  0.2174
 5704SOL     OW28570   1.589   1.497   1.295  0.6499  0.1410  0.0793
 5704SOL    HW128571   1.501   1.461   1.285  0.8412 -0.9896  2.5328
 5704SOL    HW228572   1.566   1.587   1.319 -0.2058 -0.8087  2.7098
 5705SOL     OW28573   2.982   3.181  16.023 -0.1994  0.1014 -0.5178
 5705SOL    HW128574   3.075   3.199  16.041 -0.9504  2.0149  1.4712
 5705SOL    HW228575   2.955   3.271  16.005  0.7815  0.7228  1.0490
 5706SOL     OW28576   4.404   0.837   8.075  0.0792 -0.0898 -0.1478
 5706SOL    HW128577   4.310   0.853   8.076 -0.0973 -1.1259 -0.9722
 5706SOL    HW228578   4.417   0.743   8.072  0.1717 -0.0631 -0.6136
 5707SOL     OW28579   0.913   0.011   1.253 -0.7912 -0.0119 -0.3311
 5707SOL    HW128580   0.977   0.006   1.324  0.5827 -0.8737 -1.6129
 5707SOL    HW228581   0.837   0.040   1.303 -0.3949  1.2121 -0.4498
 5708SOL     OW28582   0.614   2.385   6.081  0.4590 -0.3137 -0.4396
 5708SOL    HW128583   0.707   2.370   6.098  1.2701  1.6253 -2.9766
 5708SOL    HW228584   0.614   2.405   5.987 -1.1028 -0.7285 -0.5229
 5709SOL     OW28585   0.579   2.288   5.479 -0.1726 -0.4652 -0.4775
 5709SOL    HW128586   0.589   2.232   5.401  2.2843 -0.0164 -0.4651
 5709SOL    HW228587   0.496   2.258   5.517 -0.3133  2.3279  1.3870
 5710SOL     OW28588   1.877   4.259   3.420 -0.4160  0.4268 -0.0329
 5710SOL    HW128589   1.815   4.330   3.411  0.1555  1.1779  2.1560
 5710SOL    HW228590   1.907   4.255   3.329 -0.2435  1.9810 -0.0389
 5711SOL     OW28591   4.173   3.974   5.143 -0.0877 -0.3143 -0.7804
 5711SOL    HW128592   4.169   4.058   5.097 -0.2672 -0.1969 -0.5492
 5711SOL    HW228593   4.174   3.993   5.236 -0.6741 -0.4934 -0.7384
 5712SOL     OW28594   3.874   3.085   0.573  0.4916 -0.3359 -0.0055
 5712SOL    HW128595   3.863   3.104   0.666  0.1746  2.0791 -0.5524
 5712SOL    HW228596   3.821   3.155   0.534  1.8664  0.5925 -0.1995
 5713SOL     OW28597   4.559   1.498  16.819 -0.3956 -1.0396  0.0459
 5713SOL    HW128598   4.518   1.456  16.895  0.7192 -1.4930  0.3966
 5713SOL    HW228599   4.478   1.543  16.794  1.1091 -0.3108 -3.3625
 5714SOL     OW28600   4.504   2.854   8.421 -0.1278  0.3043  0.4702
 5714SOL    HW128601   4.430   2.825   8.474 -0.6718 -2.0713 -1.5805
 5714SOL    HW228602   4.447   2.885   8.350  0.6003 -0.2751 -0.3841
 5715SOL     OW28603   2.353   0.251  11.339 -0.1487  0.2122 -0.0616
 5715SOL    HW128604   2.309   0.169  11.317  2.1747 -0.9037 -0.6288
 5715SOL    HW228605   2.404   0.230  11.417 -0.0835  0.4205 -0.0483
 5716SOL     OW28606   3.645   4.373  14.586 -0.1440  0.2135 -0.0297
 5716SOL    HW128607   3.735   4.339  14.580 -0.1112  0.3569 -0.3545
 5716SOL    HW228608   3.601   4.337  14.509  0.1384  0.2624 -0.2168
 5717SOL     OW28609   0.131   1.082   1.170  0.0019 -0.2732 -0.2813
 5717SOL    HW128610   0.069   1.146   1.205  0.5536  0.3778 -0.4808
 5717SOL    HW228611   0.211   1.111   1.215 -1.4147 -0.5390  2.3887
 5718SOL     OW28612   0.885   3.729   8.127 -0.2744  0.7549  0.5974
 5718SOL    HW128613   0.959   3.678   8.159 -0.7275 -1.6357 -2.2675
 5718SOL    HW228614   0.875   3.790   8.201 -1.8323 -0.5171  1.4272
 5719SOL     OW28615   1.509   0.096   0.423  0.6495  0.3621  0.6344
 5719SOL    HW128616   1.480   0.043   0.349  0.4717  1.5145 -0.1219
 5719SOL    HW228617   1.605   0.096   0.419  0.4542 -1.9856 -3.6142
 5720SOL     OW28618   2.082   4.366  15.168 -0.4367  0.4382  0.4716
 5720SOL    HW128619   2.091   4.451  15.123  1.2273 -0.6683 -1.2675
 5720SOL    HW228620   2.086   4.401  15.257  0.4015 -0.5919  0.8308
 5721SOL     OW28621   3.277   2.389  14.187 -0.8245 -0.3896 -0.0635
 5721SOL    HW128622   3.266   2.376  14.093  0.5208  1.5687 -0.4974
 5721SOL    HW228623   3.268   2.484  14.198  2.0561 -0.2903  1.3702
 5722SOL     OW28624   2.253   0.522   0.456 -0.3278  0.2761  0.0956
 5722SOL    HW128625   2.248   0.475   0.539  0.7558 -0.5978 -0.3295
 5722SOL    HW228626   2.282   0.447   0.403  2.5574  0.9039  0.8136
 5723SOL     OW28627   0.384   3.751   3.553 -0.0425  0.3514 -0.1262
 5723SOL    HW128628   0.461   3.789   3.596  0.7073 -0.9614 -0.3293
 5723SOL    HW228629   0.340   3.836   3.546  2.8044  1.6256 -2.7601
 5724SOL     OW28630   1.840   3.270  10.816  0.2013 -0.5884  0.3112
 5724SOL    HW128631   1.833   3.236  10.727  1.6075 -0.5925  0.2012
 5724SOL    HW228632   1.757   3.242  10.855  0.0255  0.5452  0.7280
 5725SOL     OW28633   4.430   2.377   6.510  0.3323 -0.0127  0.2546
 5725SOL    HW128634   4.479   2.440   6.561  0.5075 -2.1056  2.6308
 5725SOL    HW228635   4.429   2.307   6.575  1.0610 -1.1937 -1.0024
 5726SOL     OW28636   1.908   0.207   1.394  0.0976 -0.9112 -0.1817
 5726SOL    HW128637   1.916   0.258   1.474 -1.9048 -0.2065 -0.4382
 5726SOL    HW228638   1.871   0.124   1.426 -1.4627 -0.1685 -0.0741
 5727SOL     OW28639   2.418   2.671   1.291  0.0246  0.2679  0.2132
 5727SOL    HW128640   2.512   2.655   1.296 -0.0963 -0.8180 -1.2617
 5727SOL    HW228641   2.412   2.729   1.367 -0.5391  0.2279  0.1955
 5728SOL     OW28642   3.515   3.641   3.263  0.2396 -0.4028  0.5464
 5728SOL    HW128643   3.497   3.591   3.183 -1.0217  1.2981 -0.2526
 5728SOL    HW228644   3.547   3.726   3.230 -1.9591 -0.7980 -2.6207
 5729SOL     OW28645   2.586   3.822  17.445  0.5467  0.3956 -0.2169
 5729SOL    HW128646   2.585   3.888  17.376 -1.0902  0.1210 -0.4400
 5729SOL    HW228647   2.500   3.833  17.485  0.8819 -0.9353  0.8986
 5730SOL     OW28648   1.595   2.012   4.187  0.0244 -0.0335  0.3914
 5730SOL    HW128649   1.610   1.973   4.100 -0.9457  0.7582 -0.1240
 5730SOL    HW228650   1.504   2.034   4.170 -0.0852  0.6422  1.8845
 5731SOL     OW28651   0.707   1.231   1.832  0.0058  0.3516  0.0310
 5731SOL    HW128652   0.725   1.144   1.795  2.8981  0.1208  2.0169
 5731SOL    HW228653   0.774   1.250   1.897  1.6166  0.1861 -1.5826
 5732SOL     OW28654   1.194   0.610   6.655  0.6902 -0.6294 -0.4458
 5732SOL    HW128655   1.200   0.666   6.578  2.1317  2.5224  1.9406
 5732SOL    HW228656   1.098   0.610   6.665  0.5221 -2.1517 -1.9496
 5733SOL     OW28657   1.502   1.734   6.604 -0.2288 -0.0611 -0.6810
 5733SOL    HW128658   1.591   1.765   6.625 -0.2093 -0.2081 -0.5515
 5733SOL    HW228659   1.462   1.702   6.684  0.1215 -0.5219 -0.6907
 5734SOL     OW28660   3.730   3.724   3.765  0.4498  0.4207 -0.0378
 5734SOL    HW128661   3.714   3.768   3.848  0.7792 -0.0892  0.2973
 5734SOL    HW228662   3.825   3.714   3.759  0.5592 -0.7976  3.4202
 5735SOL     OW28663   1.821   3.355   6.911  0.5659 -0.4273 -0.5957
 5735SOL    HW128664   1.748   3.305   6.873  1.3745 -1.0625 -1.3351
 5735SOL    HW228665   1.835   3.424   6.846  1.6893 -0.1034 -0.0032
 5736SOL     OW28666   1.546   0.655  11.403  0.1147  0.5089  0.2229
 5736SOL    HW128667   1.618   0.718  11.410  0.4350  0.1566  0.0466
 5736SOL    HW228668   1.527   0.647  11.497  0.2479  2.9666  0.4696
 5737SOL     OW28669   0.478   3.117   5.255 -0.8008  0.3266 -0.1356
 5737SOL    HW128670   0.486   3.192   5.196 -2.2374  1.1490  0.7025
 5737SOL    HW228671   0.401   3.075   5.215 -0.8427 -0.0555  0.3549
 5738SOL     OW28672   4.543   2.629   2.167 -0.3446  0.2770  0.1253
 5738SOL    HW128673   4.477   2.564   2.191 -1.4526  1.4030  0.1731
 5738SOL    HW228674   4.532   2.685   2.244  1.1590 -0.3063  0.7604
 5739SOL     OW28675   3.257   0.385  12.184  0.6238 -0.2614  0.1009
 5739SOL    HW128676   3.274   0.332  12.106 -1.2054 -0.4348 -0.1767
 5739SOL    HW228677   3.162   0.371  12.191  0.7160 -0.4330  1.0186
 5740SOL     OW28678   4.180   1.378   6.548 -0.4487  0.4035 -0.1392
 5740SOL    HW128679   4.232   1.407   6.624 -0.4818  0.5516 -0.1719
 5740SOL    HW228680   4.142   1.463   6.527  1.0263  0.4463 -2.6253
 5741SOL     OW28681   2.346   2.649   1.564  0.3202 -0.7982 -0.1960
 5741SOL    HW128682   2.297   2.688   1.637 -0.0329  0.4664 -1.1109
 5741SOL    HW228683   2.424   2.612   1.606  1.1887  0.4893 -0.6933
 5742SOL     OW28684   4.627   2.780   1.951 -0.2770  0.1234 -0.3254
 5742SOL    HW128685   4.579   2.747   2.027 -0.0213 -0.0159 -0.2262
 5742SOL    HW228686   4.675   2.699   1.934 -1.5893 -0.9664  1.1699
 5743SOL     OW28687   0.950   1.724   3.631 -0.7785 -0.1466 -0.1697
 5743SOL    HW128688   0.975   1.815   3.615 -1.6834  0.3362  1.2222
 5743SOL    HW228689   0.934   1.720   3.725  1.5101 -2.1104  0.1418
 5744SOL     OW28690   1.367   1.923   5.849 -0.4193 -0.3557  0.0947
 5744SOL    HW128691   1.451   1.897   5.887  0.2800  0.3357 -0.9938
 5744SOL    HW228692   1.376   2.017   5.863  0.6629 -0.3763 -0.4993
 5745SOL     OW28693   4.134   2.351   4.410  0.3116  0.3482  0.1187
 5745SOL    HW128694   4.194   2.277   4.418 -0.3242 -0.0689  1.0269
 5745SOL    HW228695   4.047   2.319   4.430  0.1578  0.4870 -0.3218
 5746SOL     OW28696   4.506   3.095   2.028 -0.4219 -0.7402 -0.5698
 5746SOL    HW128697   4.452   3.172   2.047 -1.0748 -1.6454  1.1574
 5746SOL    HW228698   4.454   3.035   2.081 -0.2309 -1.1719 -0.8720
 5747SOL     OW28699   2.020   4.693   3.099 -0.1871 -0.3091 -0.3984
 5747SOL    HW128700   1.976   0.023   3.167 -0.4960  0.3373 -1.0897
 5747SOL    HW228701   2.097   0.023   3.075 -0.9521  0.5045 -1.1024
 5748SOL     OW28702   0.004   3.902   3.625  0.9543  0.3872 -0.1373
 5748SOL    HW128703   4.649   3.868   3.576  0.5511  0.2277  0.5964
 5748SOL    HW228704   0.047   3.820   3.649  0.4023  0.1554  0.0687
 5749SOL     OW28705   0.174   1.116   4.851  0.0285 -1.1344  0.2703
 5749SOL    HW128706   0.237   1.168   4.801 -0.2515  0.8087  1.9622
 5749SOL    HW228707   0.133   1.179   4.910  1.8252 -0.6813  1.0354
 5750SOL     OW28708   4.537   4.649   4.659 -0.2662  0.3274 -0.0331
 5750SOL    HW128709   4.511   4.586   4.727  1.7581  0.1606  0.6025
 5750SOL    HW228710   4.632   4.637   4.654 -0.3958 -0.5528 -0.3207
 5751SOL     OW28711   2.795   1.059   7.204  0.3361 -0.2743 -0.1619
 5751SOL    HW128712   2.853   1.091   7.274  0.8325 -0.0240 -0.6904
 5751SOL    HW228713   2.836   0.979   7.172  0.9913 -0.6786  1.7001
 5752SOL     OW28714   3.555   1.638   5.636  0.0420  0.3767 -0.1097
 5752SOL    HW128715   3.482   1.700   5.631  0.7786  1.2732  0.2134
 5752SOL    HW228716   3.623   1.693   5.595 -1.4949  1.4106 -1.2574
 5753SOL     OW28717   0.742   3.428   8.247  0.1692 -0.0061 -0.1832
 5753SOL    HW128718   0.800   3.371   8.196  0.2216 -0.4047  0.3142
 5753SOL    HW228719   0.665   3.372   8.258 -0.5836  1.0844  0.0872
 5754SOL     OW28720   2.605   1.341   3.724  0.0354 -0.2149 -0.6234
 5754SOL    HW128721   2.550   1.357   3.801 -1.0456 -0.7787 -1.2827
 5754SOL    HW228722   2.563   1.260   3.696 -1.4175  0.2114  0.3051
 5755SOL     OW28723   2.794   2.563   6.065 -0.2943 -0.0307  0.5022
 5755SOL    HW128724   2.761   2.591   6.151 -0.8009  3.9685 -1.0295
 5755SOL    HW228725   2.832   2.638   6.019  1.4628 -1.9671 -1.2145
 5756SOL     OW28726   3.024   4.531  13.298 -0.0696 -0.2534 -0.1287
 5756SOL    HW128727   3.087   4.495  13.236 -1.8930 -0.8340 -1.6677
 5756SOL    HW228728   3.040   4.623  13.279  1.0294  0.0579  2.2684
 5757SOL     OW28729   3.126   2.007  15.234 -0.2026  0.1664  0.5777
 5757SOL    HW128730   3.140   2.006  15.139  3.0287  0.0977  1.0612
 5757SOL    HW228731   3.092   1.920  15.254 -0.6065 -0.1355 -1.4110
 5758SOL     OW28732   1.104   1.530   1.210  1.0327 -0.4929 -0.0160
 5758SOL    HW128733   1.071   1.612   1.172 -0.9382 -0.9573  0.6921
 5758SOL    HW228734   1.042   1.527   1.282  1.1744 -1.1363  0.0798
 5759SOL     OW28735   3.600   4.221   3.321  0.0080  0.0175 -0.3848
 5759SOL    HW128736   3.668   4.283   3.296  0.6518 -0.1543  0.9132
 5759SOL    HW228737   3.581   4.262   3.405 -0.4180 -1.3671  0.2006
 5760SOL     OW28738   0.079   3.929   5.131  0.4780 -0.0576  0.3556
 5760SOL    HW128739   0.128   3.847   5.138 -1.5688 -1.3804 -0.8322
 5760SOL    HW228740   0.121   3.984   5.197  1.6632 -1.3767  0.7296
 5761SOL     OW28741   0.604   3.391   2.807  0.5285 -0.1756 -0.5525
 5761SOL    HW128742   0.637   3.372   2.895 -0.0020 -0.1543 -0.3462
 5761SOL    HW228743   0.688   3.390   2.763  0.8034 -1.9598  0.0277
 5762SOL     OW28744   1.374   2.117   2.284 -0.0875  0.4267  0.3054
 5762SOL    HW128745   1.284   2.102   2.255 -0.3194 -1.1212  1.8110
 5762SOL    HW228746   1.405   2.031   2.255  4.3839  1.8618  0.7746
 5763SOL     OW28747   4.205   3.037   8.610 -0.1320  0.0296 -0.1206
 5763SOL    HW128748   4.192   2.944   8.592 -2.5711  0.0397  1.6283
 5763SOL    HW228749   4.116   3.069   8.599  0.5498  1.0719 -2.7251
 5764SOL     OW28750   4.304   2.454   1.967 -0.0080 -0.0902 -0.4786
 5764SOL    HW128751   4.299   2.372   1.917  0.2307 -0.1693 -0.3704
 5764SOL    HW228752   4.218   2.456   2.010  0.4746 -1.2997  0.5398
 5765SOL     OW28753   3.015   0.015   9.628  0.6456 -0.7332 -0.1099
 5765SOL    HW128754   3.064   0.097   9.624 -0.8287  0.1802  0.2877
 5765SOL    HW228755   3.076   4.693   9.688  2.3331  1.2483 -0.4325
 5766SOL     OW28756   1.383   0.501  16.711 -0.2626 -0.0413 -0.4585
 5766SOL    HW128757   1.447   0.560  16.671 -1.0431  0.1274 -1.4722
 5766SOL    HW228758   1.437   0.424  16.727  1.1242  0.7288 -1.4224
 5767SOL     OW28759   2.312   1.806   0.717 -0.0423 -0.3717  0.0196
 5767SOL    HW128760   2.273   1.890   0.690 -0.3623 -0.5353 -0.0268
 5767SOL    HW228761   2.293   1.760   0.635 -1.1223  0.8515 -0.4323
 5768SOL     OW28762   1.725   1.347  16.378 -0.5338  0.7342  0.0510
 5768SOL    HW128763   1.773   1.419  16.420 -0.4864  0.3399  0.6736
 5768SOL    HW228764   1.644   1.350  16.429 -1.0698  1.1702 -0.8301
 5769SOL     OW28765   2.219   2.196   8.087  0.1282 -0.4975  0.2222
 5769SOL    HW128766   2.282   2.159   8.148  0.5584  2.1168  1.3943
 5769SOL    HW228767   2.230   2.142   8.008  0.5984  0.5466 -0.4364
 5770SOL     OW28768   2.084   2.409   6.227 -0.2153  0.2242  0.0919
 5770SOL    HW128769   2.075   2.332   6.171  4.1651  0.7676 -1.3669
 5770SOL    HW228770   2.057   2.488   6.180 -2.9813  0.0771  1.4788
 5771SOL     OW28771   0.106   4.029   0.208 -0.1010 -0.1485 -0.1810
 5771SOL    HW128772   0.091   4.055   0.298 -3.6489 -1.0156 -0.5302
 5771SOL    HW228773   0.201   4.017   0.203  0.4526  3.0879  2.8786
 5772SOL     OW28774   2.813   3.066   1.528 -0.6510 -0.4946  0.4214
 5772SOL    HW128775   2.728   3.032   1.501 -0.1481 -1.4707  0.1000
 5772SOL    HW228776   2.864   2.993   1.562 -1.1366  0.2874  2.8187
 5773SOL     OW28777   2.132   1.446   6.791 -0.5219 -0.0510  0.0340
 5773SOL    HW128778   2.163   1.383   6.726 -0.7624  0.9684 -1.0679
 5773SOL    HW228779   2.078   1.502   6.736 -1.8867 -2.0820 -0.6822
 5774SOL     OW28780   1.953   3.857  13.898  0.2390 -0.4501 -0.0541
 5774SOL    HW128781   1.954   3.866  13.994 -1.8577 -1.3303  0.0557
 5774SOL    HW228782   2.044   3.840  13.874  0.4052  1.9025 -1.0363
 5775SOL     OW28783   0.059   3.955  16.314 -0.6951 -0.7795  1.1045
 5775SOL    HW128784   4.686   3.975  16.318 -0.5247  0.1651  0.3379
 5775SOL    HW228785   0.060   3.861  16.298  0.2049 -0.5828 -0.0364
 5776SOL     OW28786   2.361   3.207   0.615  0.2251  0.0498  0.0929
 5776SOL    HW128787   2.273   3.241   0.601 -0.1640 -1.3539 -0.9790
 5776SOL    HW228788   2.379   3.271   0.683 -2.2979 -0.5203  1.3125
 5777SOL     OW28789   3.991   0.494  13.726 -0.0441 -0.3637 -0.1277
 5777SOL    HW128790   4.051   0.565  13.751 -0.9139  0.5857 -0.6923
 5777SOL    HW228791   4.046   0.439  13.670 -1.1448  0.2913 -1.8700
 5778SOL     OW28792   1.667   0.684  14.636 -0.1592 -0.4214  0.6028
 5778SOL    HW128793   1.759   0.688  14.663  0.3545  1.8879 -1.4712
 5778SOL    HW228794   1.647   0.591  14.624  2.0353 -0.7653 -0.4571
 5779SOL     OW28795   4.121   1.459   5.093 -0.1949  0.1817  0.0316
 5779SOL    HW128796   4.170   1.503   5.163  2.5743  0.0672 -1.8554
 5779SOL    HW228797   4.147   1.516   5.021  1.4814  1.2471  1.4775
 5780SOL     OW28798   0.492   1.501   7.486 -0.0713  0.2193 -0.8720
 5780SOL    HW128799   0.543   1.509   7.567  0.1055 -0.0627 -0.9537
 5780SOL    HW228800   0.410   1.493   7.533  0.4794  1.2357  0.2479
 5781SOL     OW28801   1.175   2.118   1.991  0.5463  0.3789 -0.0137
 5781SOL    HW128802   1.137   2.194   1.947  0.9347 -0.6189 -2.0687
 5781SOL    HW228803   1.262   2.106   1.954  0.6458 -0.0587  0.3715
 5782SOL     OW28804   4.057   3.528   0.420  0.8465 -0.1394 -0.2685
 5782SOL    HW128805   4.028   3.619   0.415 -1.2124 -0.7291  0.7976
 5782SOL    HW228806   4.056   3.535   0.516 -1.3636  0.9857 -0.3592
 5783SOL     OW28807   1.675   0.382   8.511 -0.7465 -0.3563 -0.3998
 5783SOL    HW128808   1.733   0.420   8.578 -0.4526 -1.3467 -0.0940
 5783SOL    HW228809   1.604   0.372   8.574 -0.2476  4.1030  0.8653
 5784SOL     OW28810   1.179   0.871   7.285  0.1671 -0.1761 -0.2314
 5784SOL    HW128811   1.266   0.845   7.254 -0.4060  0.5354 -2.4016
 5784SOL    HW228812   1.134   0.865   7.201 -0.9465 -0.7745  0.4179
 5785SOL     OW28813   0.810   1.571   4.615 -0.8851  0.6546  0.6132
 5785SOL    HW128814   0.850   1.564   4.702  0.3492  1.0844  0.0822
 5785SOL    HW228815   0.880   1.615   4.567 -1.5018  0.2384 -0.6502
 5786SOL     OW28816   2.840   1.002   4.075  0.1686 -0.1973  0.2348
 5786SOL    HW128817   2.897   0.950   4.020  0.6233 -0.0363  0.5507
 5786SOL    HW228818   2.761   0.949   4.068 -0.1161  0.2372  0.1603
 5787SOL     OW28819   0.849   3.343   2.635  0.3841  0.3896 -0.2527
 5787SOL    HW128820   0.895   3.417   2.595 -0.5538  1.2899  0.3419
 5787SOL    HW228821   0.772   3.339   2.578 -1.2578 -0.3332  2.0291
 5788SOL     OW28822   3.832   2.597   3.719 -1.3378 -0.3278 -0.3563
 5788SOL    HW128823   3.876   2.517   3.692  1.6275  1.2823 -0.3772
 5788SOL    HW228824   3.766   2.564   3.780 -1.2718 -0.3381 -0.2896
 5789SOL     OW28825   2.106   1.446   4.830 -0.3664 -0.1717 -0.0052
 5789SOL    HW128826   2.047   1.512   4.866 -2.6670 -0.8502 -2.5294
 5789SOL    HW228827   2.193   1.483   4.845 -0.6178  1.1795 -1.7688
 5790SOL     OW28828   1.417   1.061   7.234 -0.0922 -0.1179  0.4413
 5790SOL    HW128829   1.380   1.087   7.150  3.2866  3.0373 -0.0905
 5790SOL    HW228830   1.445   0.973   7.210  0.6038  0.6210 -1.4441
 5791SOL     OW28831   2.481   2.119  16.685 -0.5686 -0.7700 -0.6311
 5791SOL    HW128832   2.463   2.028  16.665 -0.8985 -1.1359  1.3150
 5791SOL    HW228833   2.395   2.153  16.711 -0.4536  0.2209 -1.5096
 5792SOL     OW28834   0.501   2.477  13.224  0.2853  0.1898  0.1742
 5792SOL    HW128835   0.510   2.568  13.253  2.9612  0.3210 -1.0865
 5792SOL    HW228836   0.584   2.449  13.261 -1.1641 -0.6233  2.8229
 5793SOL     OW28837   1.516   0.170   2.953  0.0789 -0.7419  0.0091
 5793SOL    HW128838   1.458   0.127   3.015 -0.0233 -0.4063  0.1441
 5793SOL    HW228839   1.596   0.118   2.948  1.1630  0.8132  0.8784
 5794SOL     OW28840   0.507   0.638  15.349  0.5545  0.4131 -0.1667
 5794SOL    HW128841   0.525   0.629  15.443  2.1198 -1.2149 -0.6136
 5794SOL    HW228842   0.557   0.716  15.327  0.6224  0.8709  1.6105
 5795SOL     OW28843   2.346   4.049  11.081 -0.4521  0.1034 -0.3152
 5795SOL    HW128844   2.331   4.139  11.051  1.3359  0.1312 -1.1184
 5795SOL    HW228845   2.256   4.024  11.103 -0.9930  1.4187 -1.0081
 5796SOL     OW28846   2.026   2.121   8.278  0.0287 -0.3771 -0.1240
 5796SOL    HW128847   1.990   2.189   8.336 -0.1906  0.9930 -1.8512
 5796SOL    HW228848   2.098   2.171   8.240 -0.5930  1.7523  1.4662
 5797SOL     OW28849   1.426   0.712   3.627  0.4822 -0.1373  0.4105
 5797SOL    HW128850   1.521   0.707   3.625  0.6435  3.5909 -0.9539
 5797SOL    HW228851   1.420   0.800   3.664 -0.4962 -0.5797  1.3000
 5798SOL     OW28852   0.439   1.496   3.459  0.4117  0.4846  0.1845
 5798SOL    HW128853   0.470   1.532   3.375  2.4919 -0.8711  0.3609
 5798SOL    HW228854   0.404   1.572   3.504  2.1822  1.1795  0.4044
 5799SOL     OW28855   3.619   3.142  12.331  1.0588 -0.0134  0.3400
 5799SOL    HW128856   3.674   3.220  12.329 -1.0396  1.4439 -0.2588
 5799SOL    HW228857   3.594   3.154  12.423  1.1674  0.2510  0.3337
 5800SOL     OW28858   1.019   3.577   2.530 -0.1510  0.4464  0.2463
 5800SOL    HW128859   1.067   3.601   2.610  0.7056 -1.5772  0.3255
 5800SOL    HW228860   0.999   3.666   2.500  3.0940  1.6709  1.7024
 5801SOL     OW28861   2.174   0.433  11.438  0.4229  0.8312 -0.0748
 5801SOL    HW128862   2.094   0.427  11.386  0.1006  1.0364  0.3990
 5801SOL    HW228863   2.226   0.362  11.401 -0.4156  0.3905 -0.3916
 5802SOL     OW28864   2.269   2.168   1.708 -0.1603 -0.4274  0.4654
 5802SOL    HW128865   2.295   2.252   1.746 -1.6959  0.4197 -0.3553
 5802SOL    HW228866   2.197   2.148   1.768  0.0070  0.1643  0.8658
 5803SOL     OW28867   2.759   1.729  11.143 -0.6002 -0.0224 -0.5245
 5803SOL    HW128868   2.801   1.663  11.088  0.2173 -1.1420  1.4563
 5803SOL    HW228869   2.843   1.770  11.164 -0.3436  0.0257 -1.6697
 5804SOL     OW28870   1.359   4.705   2.263 -0.6587  0.1386 -0.1715
 5804SOL    HW128871   1.395   4.628   2.220  1.4800  0.8014  0.4560
 5804SOL    HW228872   1.442   0.002   2.306  0.5655 -1.3379 -1.9300
 5805SOL     OW28873   3.244   2.855   5.782  0.4196 -0.1160 -0.3536
 5805SOL    HW128874   3.242   2.945   5.749  1.0890 -0.6942 -1.9651
 5805SOL    HW228875   3.330   2.824   5.753 -0.1635 -2.6005  0.5380
 5806SOL     OW28876   4.421   0.636  13.924 -0.3071  0.0413  0.3151
 5806SOL    HW128877   4.398   0.559  13.976  0.3658 -0.2272  0.2098
 5806SOL    HW228878   4.504   0.662  13.964  0.6393 -2.6729  0.1280
 5807SOL     OW28879   2.226   0.172  15.863 -0.1136 -0.0945  0.3174
 5807SOL    HW128880   2.167   0.211  15.798  0.4096  2.5589  1.4061
 5807SOL    HW228881   2.189   0.214  15.941 -1.5366 -0.6054 -0.0925
 5808SOL     OW28882   4.040   2.347   3.361  0.3637 -0.2693 -0.4366
 5808SOL    HW128883   4.013   2.359   3.270  1.4151 -0.1463 -0.7270
 5808SOL    HW228884   4.047   2.439   3.384 -1.1020 -0.5458  1.1102
 5809SOL     OW28885   4.431   3.023  10.089  0.6190 -0.0286 -0.9278
 5809SOL    HW128886   4.465   3.091  10.147  0.0775 -0.2472 -0.3560
 5809SOL    HW228887   4.477   2.951  10.132  0.9479 -0.4680 -1.9960
 5810SOL     OW28888   3.920   4.374   7.308 -0.4286 -0.1473  0.7868
 5810SOL    HW128889   3.956   4.302   7.361 -1.9746 -2.0705 -0.8036
 5810SOL    HW228890   3.984   4.370   7.237 -1.0863  2.5099  0.0621
 5811SOL     OW28891   1.479   1.260   6.542 -0.0048 -0.8336  0.2529
 5811SOL    HW128892   1.448   1.268   6.452 -1.2277  2.5869  0.9817
 5811SOL    HW228893   1.428   1.330   6.582 -2.5612 -1.2634 -2.2979
 5812SOL     OW28894   0.339   3.598  13.135  0.2109 -0.6848 -0.0377
 5812SOL    HW128895   0.289   3.541  13.076 -1.2441  2.0298 -1.4643
 5812SOL    HW228896   0.326   3.555  13.219  2.5257 -2.2377 -0.4754
 5813SOL     OW28897   0.271   0.430   9.179  0.1570 -0.4135 -0.1738
 5813SOL    HW128898   0.301   0.374   9.108  0.1793  0.6640 -1.0275
 5813SOL    HW228899   0.260   0.510   9.127  3.4457  0.4715  0.4500
 5814SOL     OW28900   1.335   1.566   5.023 -0.0620  0.3076  0.1846
 5814SOL    HW128901   1.425   1.599   5.018  0.1811 -0.4192 -0.2329
 5814SOL    HW228902   1.359   1.478   5.050  0.1810  0.3059 -0.0313
 5815SOL     OW28903   2.559   2.971   1.597  0.0273 -0.0994  0.1498
 5815SOL    HW128904   2.525   2.926   1.675 -0.8716 -0.6297 -0.5470
 5815SOL    HW228905   2.544   3.064   1.609 -0.2745 -0.2093  0.6461
 5816SOL     OW28906   0.890   3.221   8.508 -0.4204 -0.3853 -0.2715
 5816SOL    HW128907   0.876   3.206   8.415 -1.0452 -1.2261 -0.0334
 5816SOL    HW228908   0.883   3.316   8.523 -0.4897 -0.9065  2.9791
 5817SOL     OW28909   1.986   3.961   3.418 -0.0163 -0.5768  0.0879
 5817SOL    HW128910   1.950   4.049   3.405 -1.4053 -1.1779 -0.1583
 5817SOL    HW228911   1.969   3.922   3.332 -2.4535  1.3069 -0.2554
 5818SOL     OW28912   1.737   2.096  12.480 -0.1119  0.1409 -0.4625
 5818SOL    HW128913   1.785   2.129  12.556 -1.4031  0.3214  0.2709
 5818SOL    HW228914   1.707   2.180  12.444 -0.4773  1.1692  2.2516
 5819SOL     OW28915   2.876   0.036   1.875  0.3827 -0.0926  0.0654
 5819SOL    HW128916   2.953   4.700   1.874 -0.3769 -1.1203  0.0518
 5819SOL    HW228917   2.809   4.688   1.878  0.4896 -0.1685  0.7394
 5820SOL     OW28918   3.464   4.414  10.379  0.2004  0.3800 -0.1885
 5820SOL    HW128919   3.545   4.413  10.431 -0.6578  1.6801  1.1662
 5820SOL    HW228920   3.502   4.451  10.299 -1.1584 -0.5202 -1.2462
 5821SOL     OW28921   4.339   0.257  17.086  0.1198  0.2488  0.0681
 5821SOL    HW128922   4.402   0.295  17.148 -1.1375 -1.4422  2.3628
 5821SOL    HW228923   4.343   0.171  17.128  2.5362 -0.4993 -1.6694
 5822SOL     OW28924   4.591   0.112   1.484  0.3614 -0.4604  0.1344
 5822SOL    HW128925   4.566   0.190   1.434  1.6682 -0.8549 -1.1097
 5822SOL    HW228926   4.616   0.141   1.572  0.7229  1.4201 -0.5753
 5823SOL     OW28927   2.915   3.052  12.646  0.0793 -0.5004 -0.0287
 5823SOL    HW128928   2.902   2.959  12.625 -0.1745 -0.5181  0.2032
 5823SOL    HW228929   2.990   3.075  12.591  0.2189  0.5688  0.6157
 5824SOL     OW28930   0.518   1.109   5.846 -0.4474 -0.0078  0.4008
 5824SOL    HW128931   0.554   1.197   5.857 -0.9133  0.1534  0.6277
 5824SOL    HW228932   0.542   1.072   5.762  1.6332  0.5835  0.7249
 5825SOL     OW28933   2.572   4.554   5.472  0.2374  0.5713 -0.8372
 5825SOL    HW128934   2.590   4.483   5.409  0.8516  0.1183 -0.1456
 5825SOL    HW228935   2.566   4.499   5.550 -1.1591  0.2935 -1.1379
 5826SOL     OW28936   2.376   3.948   3.432 -0.4985  0.0953  0.1921
 5826SOL    HW128937   2.327   3.947   3.514 -1.2823  2.3948 -0.2673
 5826SOL    HW228938   2.460   3.976   3.469 -0.1851 -0.7739  0.1593
 5827SOL     OW28939   0.344   1.521  13.708  0.5620  0.7329 -0.4985
 5827SOL    HW128940   0.316   1.605  13.672 -1.2163 -0.5243 -2.1010
 5827SOL    HW228941   0.388   1.551  13.787  0.8300  1.1252 -0.7936
 5828SOL     OW28942   2.557   2.135  15.158  0.6127 -0.1633 -0.9232
 5828SOL    HW128943   2.642   2.181  15.156  0.8741 -0.7226 -2.8295
 5828SOL    HW228944   2.543   2.134  15.253  2.3963 -0.3319 -0.6633
 5829SOL     OW28945   3.124   3.723   3.584  0.1954 -0.2720  0.2928
 5829SOL    HW128946   3.030   3.736   3.578 -0.1090 -0.8302  4.2093
 5829SOL    HW228947   3.129   3.630   3.608  0.5346 -1.1549 -3.1289
 5830SOL     OW28948   2.787   2.009   8.883  0.2579 -1.0480  0.9409
 5830SOL    HW128949   2.860   1.948   8.896  3.1086  1.8608 -1.6078
 5830SOL    HW228950   2.721   1.966   8.828  1.0169  1.9350 -2.2786
 5831SOL     OW28951   0.186   2.074   6.235 -0.3132  0.3988 -0.4526
 5831SOL    HW128952   0.256   2.119   6.188  1.1349 -2.5016 -1.0772
 5831SOL    HW228953   0.142   2.150   6.272 -1.1967 -1.5262  2.5254
 5832SOL     OW28954   2.038   0.931   3.848  0.0018 -0.0787  0.2167
 5832SOL    HW128955   2.089   0.873   3.904  0.6306 -0.3333 -0.6295
 5832SOL    HW228956   2.082   0.930   3.763  0.7770  1.1781  0.5964
 5833SOL     OW28957   4.242   4.582   9.790 -0.0872 -0.1592  0.1202
 5833SOL    HW128958   4.200   4.668   9.795  2.1757  0.8649  1.5257
 5833SOL    HW228959   4.183   4.537   9.850  0.2169 -0.0051  0.5333
 5834SOL     OW28960   1.014   1.697   7.656 -0.1674  0.4944  0.7097
 5834SOL    HW128961   1.062   1.716   7.737 -0.3164  0.3194  0.8391
 5834SOL    HW228962   0.939   1.650   7.693  0.0269  0.7951  1.4732
 5835SOL     OW28963   3.085   0.989   3.078 -0.2110 -0.0674  0.2289
 5835SOL    HW128964   3.012   1.039   3.041 -1.8538 -1.8484  1.0411
 5835SOL    HW228965   3.099   0.919   3.013 -1.3117  0.5590 -0.6898
 5836SOL     OW28966   2.037   1.721  12.613  0.5057 -0.5996  0.2631
 5836SOL    HW128967   2.128   1.750  12.622  0.6152 -1.1904  1.1135
 5836SOL    HW228968   2.001   1.775  12.543 -2.0068 -2.1639  0.3363
 5837SOL     OW28969   0.338   0.599   5.779  1.3347 -0.0397  0.1868
 5837SOL    HW128970   0.252   0.640   5.784  1.7430  0.9350 -0.8882
 5837SOL    HW228971   0.326   0.507   5.801 -2.4293  0.3877  0.0008
 5838SOL     OW28972   0.219   4.089  16.165  0.0313 -0.2367  0.4227
 5838SOL    HW128973   0.153   4.040  16.214 -0.5499 -0.4110 -0.5353
 5838SOL    HW228974   0.192   4.176  16.195 -2.3353 -1.6825  2.4898
 5839SOL     OW28975   1.415   0.383   4.585 -0.4630 -0.8279  0.3521
 5839SOL    HW128976   1.396   0.453   4.523 -0.2277 -1.2330 -0.1757
 5839SOL    HW228977   1.464   0.438   4.646  1.1785 -0.0988 -1.5922
 5840SOL     OW28978   3.245   1.652   6.154  0.4335  0.6913 -0.4148
 5840SOL    HW128979   3.226   1.746   6.157  0.8752  0.8208 -1.6999
 5840SOL    HW228980   3.258   1.642   6.248  1.0340  1.3653 -0.4238
 5841SOL     OW28981   1.531   1.883   2.519  0.0123 -0.0165 -0.1344
 5841SOL    HW128982   1.508   1.976   2.514 -0.8351 -0.1062  2.4462
 5841SOL    HW228983   1.561   1.874   2.609 -0.9913 -3.1096 -0.0913
 5842SOL     OW28984   2.174   4.028   5.237  0.0414 -0.2695 -0.6932
 5842SOL    HW128985   2.126   3.991   5.162 -0.5883 -1.5746  0.3545
 5842SOL    HW228986   2.184   4.119   5.209  3.1429 -0.9593 -1.8349
 5843SOL     OW28987   3.621   0.418   4.944  0.0006 -0.2443  0.7960
 5843SOL    HW128988   3.658   0.472   5.014  1.9042  0.1874 -0.5320
 5843SOL    HW228989   3.604   0.472   4.867  0.0421  1.3511  1.9012
 5844SOL     OW28990   3.705   3.652   5.004 -0.3543  0.1043 -0.1388
 5844SOL    HW128991   3.664   3.737   5.012  0.3393  0.4269  0.0415
 5844SOL    HW228992   3.797   3.681   5.002  0.0263 -0.9321  1.4627
 5845SOL     OW28993   1.633   0.129  12.673  0.3864 -0.2309  0.1001
 5845SOL    HW128994   1.594   0.125  12.760 -0.1640 -2.0706 -0.2497
 5845SOL    HW228995   1.698   0.059  12.669  1.8960  1.1753  0.1294
 5846SOL     OW28996   2.974   2.402   3.829 -0.0468 -0.2528  0.2802
 5846SOL    HW128997   2.925   2.320   3.833 -0.1675 -0.2447 -0.7961
 5846SOL    HW228998   2.964   2.420   3.735  0.5273  1.1100  0.4742
 5847SOL     OW28999   2.329   2.070   7.847  0.0983  0.3471  0.1374
 5847SOL    HW129000   2.411   2.029   7.820 -0.0435  0.1691 -0.0226
 5847SOL    HW229001   2.347   2.157   7.811  0.8875 -1.0607 -2.8856
 5848SOL     OW29002   2.653   1.781  16.843  0.4280 -0.0642 -0.1559
 5848SOL    HW129003   2.728   1.722  16.847 -0.3630 -0.8559  2.6360
 5848SOL    HW229004   2.680   1.873  16.835  1.6355 -0.6539 -2.8748
 5849SOL     OW29005   3.875   1.959  15.471 -0.2824 -0.5221  0.7099
 5849SOL    HW129006   3.786   1.984  15.446 -0.1099  0.7204  1.3458
 5849SOL    HW229007   3.857   1.907  15.549 -0.5205 -2.4039 -0.6073
 5850SOL     OW29008   4.372   3.622   0.369 -0.1069  0.6727 -0.3189
 5850SOL    HW129009   4.367   3.526   0.373  1.4066  0.5256 -1.4648
 5850SOL    HW229010   4.348   3.653   0.456 -0.5289  3.1577 -1.3399
 5851SOL     OW29011   2.881   1.676   9.746  0.3916  0.0344  0.6354
 5851SOL    HW129012   2.855   1.629   9.825 -0.4446 -0.2136  0.2143
 5851SOL    HW229013   2.812   1.742   9.750  0.4483 -0.0276  2.6980
 5852SOL     OW29014   2.261   3.558  16.390 -0.5627 -0.1706  0.5963
 5852SOL    HW129015   2.257   3.533  16.482 -0.1911 -0.0567  0.6440
 5852SOL    HW229016   2.321   3.492  16.356 -1.2937 -1.1270  1.1532
 5853SOL     OW29017   3.614   0.386   8.576  0.4634  0.1117 -0.1294
 5853SOL    HW129018   3.568   0.456   8.622  0.7157  0.1427  0.0767
 5853SOL    HW229019   3.646   0.338   8.652 -0.4596  0.0585  0.2220
 5854SOL     OW29020   2.794   2.780  17.012 -0.1903 -0.0751  0.3263
 5854SOL    HW129021   2.883   2.766  16.982 -0.3741  2.3508 -1.3397
 5854SOL    HW229022   2.798   2.734  17.096  2.4017 -1.0527 -0.3392
 5855SOL     OW29023   2.280   0.650   3.053  0.5028  0.1370 -0.4692
 5855SOL    HW129024   2.352   0.651   2.990  0.2547  2.2634 -0.7250
 5855SOL    HW229025   2.216   0.698   3.000 -0.9529  0.1840  1.3595
 5856SOL     OW29026   0.536   2.469  11.910  0.1202 -0.6682 -0.2580
 5856SOL    HW129027   0.463   2.529  11.894 -1.2000 -2.1792  0.0898
 5856SOL    HW229028   0.613   2.524  11.920 -0.7930  0.6394 -0.4416
 5857SOL     OW29029   0.445   1.910   7.725 -0.3933  0.2522  0.4058
 5857SOL    HW129030   0.419   1.945   7.810  0.4485  1.2377  0.2683
 5857SOL    HW229031   0.540   1.909   7.734 -0.2837  0.2378 -0.7259
 5858SOL     OW29032   0.140   2.839   8.164  0.4728  0.3585 -0.0408
 5858SOL    HW129033   0.231   2.869   8.166  0.1839  1.1783  0.9701
 5858SOL    HW229034   0.162   2.749   8.140 -0.5739 -0.0943  0.7170
 5859SOL     OW29035   3.330   2.052   7.513 -0.0363  0.4088 -0.1577
 5859SOL    HW129036   3.371   1.969   7.537  0.0826  0.5671  0.1783
 5859SOL    HW229037   3.406   2.105   7.487 -0.3764  0.0385 -1.9329
 5860SOL     OW29038   0.651   3.678   0.421  0.5282 -0.0782  0.5283
 5860SOL    HW129039   0.563   3.716   0.422  0.3953 -0.4041  1.3132
 5860SOL    HW229040   0.625   3.605   0.478  2.3775 -0.6644  0.6029
 5861SOL     OW29041   3.929   1.734   5.318  0.0689  0.0473 -0.1342
 5861SOL    HW129042   4.020   1.717   5.296 -0.2960 -1.0881 -0.7237
 5861SOL    HW229043   3.940   1.829   5.325 -1.5610  0.2035  0.2306
 5862SOL     OW29044   3.293   0.788   3.578 -0.4056  0.3554 -0.8459
 5862SOL    HW129045   3.201   0.798   3.598 -0.2519  2.0202 -1.0116
 5862SOL    HW229046   3.293   0.694   3.559 -0.2953 -0.1293  1.5819
 5863SOL     OW29047   3.938   0.379   7.343  0.0612 -0.4061  0.1641
 5863SOL    HW129048   3.898   0.454   7.298 -0.7625 -1.3328 -0.6667
 5863SOL    HW229049   3.863   0.344   7.391 -0.7726 -2.1497 -2.4207
 5864SOL     OW29050   4.204   1.958  16.040  0.1419 -0.5635 -0.2912
 5864SOL    HW129051   4.131   1.966  15.979  0.3485  1.6220 -0.2413
 5864SOL    HW229052   4.193   1.871  16.079  0.1182 -1.0180 -1.3090
 5865SOL     OW29053   4.593   3.502   4.696  0.0911  0.3518 -0.1858
 5865SOL    HW129054   4.624   3.591   4.680  1.2404  0.1566  0.9213
 5865SOL    HW229055   4.605   3.490   4.790 -1.9542  0.8549  0.1398
 5866SOL     OW29056   2.029   4.309   7.178 -0.1401 -0.2158 -0.3431
 5866SOL    HW129057   2.035   4.245   7.249 -1.4986 -0.0267 -0.0559
 5866SOL    HW229058   2.114   4.294   7.136  1.0507  0.4473  1.7937
 5867SOL     OW29059   1.532   4.100   5.480 -0.2039  0.0826 -0.3531
 5867SOL    HW129060   1.534   4.186   5.521 -0.0987  0.2546 -0.7128
 5867SOL    HW229061   1.565   4.035   5.541  0.3185  0.1194 -0.6014
 5868SOL     OW29062   0.410   1.631   9.570 -0.2801  0.1787 -0.0865
 5868SOL    HW129063   0.481   1.625   9.634  0.7595 -1.8486 -1.4402
 5868SOL    HW229064   0.425   1.712   9.521  1.5413 -0.6278 -0.8466
 5869SOL     OW29065   3.343   1.817   5.663  0.4217  0.0923 -0.4388
 5869SOL    HW129066   3.330   1.852   5.752  0.6872 -3.7832  1.1076
 5869SOL    HW229067   3.256   1.823   5.623  1.1036  3.6937 -1.4062
 5870SOL     OW29068   3.635   2.880   1.056 -0.6692  0.1180  0.0415
 5870SOL    HW129069   3.583   2.907   0.980 -0.9660 -2.0911 -0.5437
 5870SOL    HW229070   3.596   2.795   1.074  0.5859  0.0238  2.3275
 5871SOL     OW29071   0.674   4.663   1.535 -0.0920  0.6673  0.0709
 5871SOL    HW129072   0.759   4.667   1.578 -1.2954  1.9116  2.3493
 5871SOL    HW229073   0.679   0.019   1.478 -1.2834 -1.1359 -2.5077
 5872SOL     OW29074   3.592   1.843   8.776  0.2358 -0.1877  0.3082
 5872SOL    HW129075   3.597   1.791   8.857  0.3109 -2.6085 -1.2587
 5872SOL    HW229076   3.499   1.840   8.754 -0.0884  0.5711  1.5422
 5873SOL     OW29077   2.255   3.516   1.156 -0.1242 -0.1249  0.3396
 5873SOL    HW129078   2.244   3.568   1.236 -1.3739  0.0587  0.0417
 5873SOL    HW229079   2.202   3.562   1.090 -0.0887 -0.1567  0.2892
 5874SOL     OW29080   2.570   1.379  12.299  0.6893 -0.1504  0.2791
 5874SOL    HW129081   2.634   1.377  12.228 -1.7692  0.6958 -1.9686
 5874SOL    HW229082   2.537   1.289  12.292 -3.1603  1.3689 -1.2710
 5875SOL     OW29083   1.570   2.032   1.272  0.2012 -0.3777 -0.1897
 5875SOL    HW129084   1.620   2.107   1.305 -0.1966 -1.4266  2.7931
 5875SOL    HW229085   1.506   2.079   1.217 -0.8967 -0.4087  1.0667
 5876SOL     OW29086   4.712   0.569  15.171 -0.4071  0.2816  0.1610
 5876SOL    HW129087   0.024   0.659  15.167 -0.8447  0.4852  1.3333
 5876SOL    HW229088   0.007   0.544  15.080  2.5120 -1.3040  1.0888
 5877SOL     OW29089   1.478   2.999   5.359  0.2412  0.0005 -0.4999
 5877SOL    HW129090   1.406   2.936   5.353  0.8862 -0.8565  0.6484
 5877SOL    HW229091   1.547   2.942   5.391 -1.1999 -2.0229 -0.9670
 5878SOL     OW29092   0.521   3.657  16.043 -0.5819 -0.0213  0.0195
 5878SOL    HW129093   0.461   3.605  16.096  0.2166  0.4618  1.4205
 5878SOL    HW229094   0.539   3.723  16.110 -0.8191 -1.4000  1.4356
 5879SOL     OW29095   4.055   1.397   3.777  0.1918 -0.5312 -0.5011
 5879SOL    HW129096   4.144   1.414   3.748  1.5552  2.3257  5.2833
 5879SOL    HW229097   4.047   1.303   3.795  0.5746 -0.4917 -0.1246
 5880SOL     OW29098   1.034   2.471   8.751 -0.5437  0.6819  0.0054
 5880SOL    HW129099   1.068   2.545   8.702  0.1404 -0.0413 -0.6209
 5880SOL    HW229100   1.066   2.491   8.839 -0.3865  2.0548 -0.3649
 5881SOL     OW29101   0.447   2.425  14.210 -0.3269 -0.0469 -0.2950
 5881SOL    HW129102   0.357   2.402  14.188 -0.1592  0.2480 -1.2789
 5881SOL    HW229103   0.429   2.448  14.301 -1.8090  1.9981 -1.1141
 5882SOL     OW29104   1.406   4.130   5.799 -0.9593  0.3976  0.0856
 5882SOL    HW129105   1.474   4.071   5.767 -1.8600 -1.0836  0.8477
 5882SOL    HW229106   1.396   4.095   5.888 -0.3026 -0.2987 -0.1165
 5883SOL     OW29107   1.291   0.656   7.976  0.3126 -0.0780 -0.5369
 5883SOL    HW129108   1.228   0.698   8.034 -0.7503  0.6198 -2.1855
 5883SOL    HW229109   1.268   0.694   7.891  0.8653  0.4543 -0.4568
 5884SOL     OW29110   0.928   3.316   6.444 -0.2207 -0.0806  0.2520
 5884SOL    HW129111   0.870   3.389   6.469 -0.7670 -0.4688  0.1144
 5884SOL    HW229112   0.864   3.245   6.445 -2.1177  1.6359  0.5241
 5885SOL     OW29113   0.572   1.120   0.094  0.0750 -0.1856  0.6292
 5885SOL    HW129114   0.634   1.100   0.164  0.2808  0.6532  0.6897
 5885SOL    HW229115   0.564   1.214   0.108  0.6669  0.1421 -1.1796
 5886SOL     OW29116   2.213   3.582   2.301 -0.2222  0.0652 -0.0997
 5886SOL    HW129117   2.186   3.504   2.349  1.4092  0.5724  1.6395
 5886SOL    HW229118   2.303   3.592   2.332 -0.2291  1.8822 -0.6458
 5887SOL     OW29119   1.219   3.686   3.037  0.1185 -0.5526  0.0733
 5887SOL    HW129120   1.153   3.754   3.030  0.1426 -0.5971 -0.5718
 5887SOL    HW229121   1.224   3.650   2.949  0.9135  0.0387 -0.1225
 5888SOL     OW29122   4.329   3.824   8.385 -0.1498 -0.1128  0.3510
 5888SOL    HW129123   4.424   3.819   8.375 -0.6409 -4.8440 -1.6834
 5888SOL    HW229124   4.306   3.762   8.316  0.1886 -0.9020  0.9428
 5889SOL     OW29125   2.007   0.150   5.979 -0.3779 -0.4820  1.1052
 5889SOL    HW129126   2.007   0.170   5.885 -0.5856  1.4209  1.5074
 5889SOL    HW229127   2.098   0.161   6.009  0.2471 -0.6186 -0.7224
 5890SOL     OW29128   4.529   1.182   4.564  0.5196 -0.0591 -0.3339
 5890SOL    HW129129   4.508   1.107   4.619 -0.9484  0.1288 -0.6250
 5890SOL    HW229130   4.538   1.143   4.477 -0.1920  1.8800 -1.2843
 5891SOL     OW29131   1.017   1.200  10.994  0.2226 -0.0214 -0.0051
 5891SOL    HW129132   1.095   1.231  11.040 -0.4559 -1.1066  1.8918
 5891SOL    HW229133   1.017   1.265  10.924 -1.2115 -0.0181 -0.0037
 5892SOL     OW29134   1.120   1.658   2.233 -0.0889 -0.0050 -0.9858
 5892SOL    HW129135   1.188   1.697   2.287  0.4225 -0.1185 -1.5584
 5892SOL    HW229136   1.177   1.624   2.165 -0.4874 -0.5142 -1.0708
 5893SOL     OW29137   0.629   0.931   4.882 -0.4201  0.1560  0.2856
 5893SOL    HW129138   0.658   0.841   4.865  1.9000  0.6742  1.5046
 5893SOL    HW229139   0.549   0.918   4.830 -1.4750 -0.4870  2.0310
 5894SOL     OW29140   2.023   1.691  14.079  0.2686 -0.0048  0.2914
 5894SOL    HW129141   1.932   1.708  14.058  0.4749 -0.9914 -1.4181
 5894SOL    HW229142   2.021   1.596  14.090 -2.0424 -0.2260 -2.0986
 5895SOL     OW29143   0.159   1.075   7.313 -0.1766  0.2952  0.1798
 5895SOL    HW129144   0.077   1.100   7.270 -1.7752 -2.1377  1.7993
 5895SOL    HW229145   0.208   1.020   7.252 -0.9109 -0.6324  0.4338
 5896SOL     OW29146   1.458   1.620   1.736  0.2259  0.1964  0.2032
 5896SOL    HW129147   1.476   1.621   1.831 -0.2531  0.1877  0.2902
 5896SOL    HW229148   1.459   1.529   1.707 -2.1390 -0.0271  0.8203
 5897SOL     OW29149   4.395   0.547   8.613  0.0119 -0.2170 -0.3253
 5897SOL    HW129150   4.378   0.453   8.620  0.5139 -0.4060 -1.5455
 5897SOL    HW229151   4.356   0.580   8.694 -0.9877  2.1182 -1.7334
 5898SOL     OW29152   1.818   3.393   7.192  0.0580  0.2519  0.2477
 5898SOL    HW129153   1.780   3.337   7.260  0.9629  1.7506  1.9847
 5898SOL    HW229154   1.777   3.356   7.114 -0.0189  2.3753 -0.7093
 5899SOL     OW29155   0.607   1.357  16.645  0.4965  0.0901 -0.5420
 5899SOL    HW129156   0.604   1.353  16.549 -3.4994 -0.0691 -0.4340
 5899SOL    HW229157   0.563   1.441  16.662  0.0822  0.0190 -1.2615
 5900SOL     OW29158   3.204   2.038  14.520  0.1655  0.9558 -0.2728
 5900SOL    HW129159   3.261   2.066  14.593 -0.3006  2.7195 -0.5722
 5900SOL    HW229160   3.190   2.127  14.485  0.0348  0.4792 -1.4385
 5901SOL     OW29161   4.183   1.872  15.629  0.0472  0.5170 -0.4336
 5901SOL    HW129162   4.177   1.858  15.535 -2.8478  0.7676 -0.2740
 5901SOL    HW229163   4.135   1.954  15.638 -0.2453  0.1558  1.3704
 5902SOL     OW29164   2.157   1.324   7.743 -0.1343  0.1242 -0.2445
 5902SOL    HW129165   2.242   1.365   7.760 -0.2098  0.5207 -0.8295
 5902SOL    HW229166   2.141   1.304   7.835  1.5255  1.2496  0.3015
 5903SOL     OW29167   1.681   1.641   3.326  0.6665 -0.0888  0.1354
 5903SOL    HW129168   1.772   1.642   3.356  0.9644 -1.1194 -0.7398
 5903SOL    HW229169   1.669   1.736   3.320  0.5561 -0.1372 -0.4746
 5904SOL     OW29170   0.632   3.496  16.676  0.3839 -0.3429  0.2162
 5904SOL    HW129171   0.726   3.486  16.664  0.3438 -0.6727  0.1653
 5904SOL    HW229172   0.607   3.530  16.590 -3.9215  1.9178  2.3468
 5905SOL     OW29173   1.144   2.008   1.225  0.5617  0.1378 -0.0132
 5905SOL    HW129174   1.189   2.041   1.148  1.4338 -1.0929 -0.0237
 5905SOL    HW229175   1.200   1.932   1.239 -0.2689 -0.6534 -0.9792
 5906SOL     OW29176   0.114   3.109  16.783  0.2731 -0.5814  0.5909
 5906SOL    HW129177   0.036   3.053  16.785 -1.0211  1.2105 -0.3734
 5906SOL    HW229178   0.177   3.040  16.763 -0.0388 -1.0555  1.2148
 5907SOL     OW29179   1.882   0.663   5.753 -0.3352  0.8929  0.0598
 5907SOL    HW129180   1.900   0.575   5.719  1.0843  1.4435 -0.6236
 5907SOL    HW229181   1.959   0.684   5.806  0.6168  0.2387 -1.0631
 5908SOL     OW29182   1.005   0.780   4.747 -0.0188 -0.4085 -0.1692
 5908SOL    HW129183   1.011   0.773   4.842 -0.5664  0.0677 -0.0929
 5908SOL    HW229184   0.983   0.874   4.747  1.9403  0.0563  0.5452
 5909SOL     OW29185   2.374   1.136   8.212  0.1977 -0.5321  0.4122
 5909SOL    HW129186   2.341   1.188   8.285  1.0519 -2.0291  1.8645
 5909SOL    HW229187   2.388   1.049   8.250  2.9294  0.8383  2.5384
 5910SOL     OW29188   3.038   1.147  17.166 -0.8592 -0.0346 -0.0239
 5910SOL    HW129189   3.061   1.128  17.075 -0.1210  2.4708 -0.3544
 5910SOL    HW229190   3.108   1.099  17.211  0.0362  2.2002  0.9519
 5911SOL     OW29191   3.300   1.470   4.766 -0.0943 -0.3899 -0.4242
 5911SOL    HW129192   3.294   1.548   4.710 -0.0962  1.6006  2.3269
 5911SOL    HW229193   3.393   1.463   4.786  0.1252  1.7013 -0.6538
 5912SOL     OW29194   2.380   1.550   1.100  0.2660  0.3880  0.5900
 5912SOL    HW129195   2.297   1.568   1.144 -0.7776 -0.4352 -1.0515
 5912SOL    HW229196   2.433   1.546   1.179  1.6435 -1.7838 -0.4567
 5913SOL     OW29197   3.145   0.663  13.792 -0.5686  0.8171  0.1585
 5913SOL    HW129198   3.054   0.670  13.763 -1.0933  0.3044  1.6643
 5913SOL    HW229199   3.174   0.580  13.754  0.1180  0.8319  0.6505
 5914SOL     OW29200   1.278   1.862   8.052  0.9170  0.7742  0.4090
 5914SOL    HW129201   1.206   1.846   8.113  0.0509 -3.7542 -1.7495
 5914SOL    HW229202   1.316   1.942   8.088  0.7024  0.6689  0.8620
 5915SOL     OW29203   0.374   4.234   2.737 -0.0411  0.3216  0.2464
 5915SOL    HW129204   0.407   4.158   2.785  0.1634  0.6045  0.5511
 5915SOL    HW229205   0.420   4.228   2.653  1.3648 -0.4202  1.0715
 5916SOL     OW29206   0.886   2.399   3.384 -0.7165  0.4271  0.5089
 5916SOL    HW129207   0.958   2.385   3.322 -1.2560 -0.7717  0.1517
 5916SOL    HW229208   0.807   2.424   3.336 -1.2860 -1.3681  0.5100
 5917SOL     OW29209   2.211   2.589   6.442 -0.3565 -0.1253  0.6223
 5917SOL    HW129210   2.163   2.525   6.390  0.7706 -1.6715  1.4662
 5917SOL    HW229211   2.211   2.671   6.393 -1.2962 -0.8224 -0.5240
 5918SOL     OW29212   0.188   3.099   9.679  0.3892 -0.8049  0.1712
 5918SOL    HW129213   0.159   3.186   9.706  1.2648 -0.8961  1.4452
 5918SOL    HW229214   0.163   3.047   9.756  0.5743  1.2229  1.6050
 5919SOL     OW29215   2.315   2.750   9.785  0.5744 -0.3533  0.3547
 5919SOL    HW129216   2.239   2.692   9.778  1.1502 -0.6478 -3.1385
 5919SOL    HW229217   2.366   2.728   9.707 -0.1640  1.4095 -0.6163
 5920SOL     OW29218   2.380   1.321   7.500  0.1954  0.1164  0.6270
 5920SOL    HW129219   2.424   1.247   7.540  0.6741  0.6183  1.0339
 5920SOL    HW229220   2.312   1.355   7.558 -0.4368 -1.2490  0.6741
 5921SOL     OW29221   0.174   4.532   6.049  0.3448 -0.2145 -0.1980
 5921SOL    HW129222   0.219   4.540   5.964  0.3951 -0.4974 -0.1981
 5921SOL    HW229223   0.087   4.504   6.021 -0.3863  0.2208  1.6317
 5922SOL     OW29224   2.391   4.070   4.072  0.1250 -0.7554  0.2990
 5922SOL    HW129225   2.427   4.063   4.161  1.2969  2.5722  0.1090
 5922SOL    HW229226   2.315   4.013   4.069 -1.0537  0.8119  0.1740
 5923SOL     OW29227   2.152   2.321  15.878  0.0682  0.7525  0.5242
 5923SOL    HW129228   2.242   2.288  15.869 -0.8202 -1.2363 -0.9896
 5923SOL    HW229229   2.168   2.376  15.955  0.6139  4.0953 -1.9892
 5924SOL     OW29230   4.595   3.771   8.313 -0.7200 -0.1673 -0.1369
 5924SOL    HW129231   4.650   3.699   8.342 -0.7199 -0.3165 -0.5110
 5924SOL    HW229232   4.623   3.781   8.222  3.7602 -0.8786  1.1546
 5925SOL     OW29233   1.648   2.770   1.428 -0.0543 -0.3452  0.4634
 5925SOL    HW129234   1.728   2.737   1.386 -1.2967 -1.5470 -0.9502
 5925SOL    HW229235   1.611   2.825   1.359  1.0995 -2.5329 -1.9182
 5926SOL     OW29236   1.214   3.265   0.235 -0.1163  0.6668  0.1161
 5926SOL    HW129237   1.142   3.317   0.269  1.1506  0.8772  2.5228
 5926SOL    HW229238   1.236   3.233   0.323 -2.2629 -2.1234 -0.3760
 5927SOL     OW29239   0.159   0.399   0.922  0.7244 -0.1391  0.4586
 5927SOL    HW129240   0.177   0.484   0.880  2.2635 -0.4456  0.5007
 5927SOL    HW229241   0.211   0.347   0.862 -0.9306 -0.6387 -0.5410
 5928SOL     OW29242   2.568   2.794  11.317  0.2999 -0.7470  0.6543
 5928SOL    HW129243   2.580   2.700  11.331  1.2162 -0.2562  3.2772
 5928SOL    HW229244   2.648   2.814  11.269 -0.7810 -0.9446 -1.2328
 5929SOL     OW29245   3.373   0.798   4.393 -0.4273 -0.1549 -0.2907
 5929SOL    HW129246   3.328   0.774   4.473 -1.2633 -1.0969 -1.0383
 5929SOL    HW229247   3.314   0.850   4.339 -1.6362  0.5739  1.7424
 5930SOL     OW29248   2.540   2.115   1.669 -0.6099 -0.1312  0.0484
 5930SOL    HW129249   2.511   2.184   1.728  0.9715  0.4604  0.1225
 5930SOL    HW229250   2.452   2.083   1.646 -0.8531 -0.2098  1.1036
 5931SOL     OW29251   2.674   0.398  15.205  0.0062  0.9534 -0.0997
 5931SOL    HW129252   2.764   0.368  15.191  0.1798  0.6725  1.6189
 5931SOL    HW229253   2.698   0.475  15.257  0.0476  0.3715  0.7319
 5932SOL     OW29254   3.729   2.527   7.705 -0.4616 -0.2467  0.9220
 5932SOL    HW129255   3.772   2.612   7.707 -0.7729 -0.0812  0.7128
 5932SOL    HW229256   3.661   2.547   7.640 -0.7694  0.0482  1.3336
 5933SOL     OW29257   0.256   3.919  15.798  0.1629  0.1344 -0.0578
 5933SOL    HW129258   0.290   3.830  15.785  2.0022  0.8188  0.1599
 5933SOL    HW229259   0.314   3.958  15.863 -0.9108  0.4793  0.7044
 5934SOL     OW29260   4.625   0.592  12.180 -0.6633  0.1833  0.0919
 5934SOL    HW129261   4.699   0.549  12.139  0.4918  1.6071  0.6807
 5934SOL    HW229262   4.649   0.585  12.272 -0.3025  1.7139  0.1180
 5935SOL     OW29263   1.090   0.930   2.348 -0.1932  0.2710 -0.1077
 5935SOL    HW129264   1.048   0.975   2.275 -0.5484  0.7441  0.3813
 5935SOL    HW229265   1.059   0.993   2.413  0.1656  1.4169 -1.0509
 5936SOL     OW29266   3.903   3.366   1.152  0.5235 -0.7643 -0.0828
 5936SOL    HW129267   3.836   3.298   1.161  0.9313 -1.0912  0.4860
 5936SOL    HW229268   3.991   3.332   1.170  0.1993 -1.2047  0.6897
 5937SOL     OW29269   1.088   4.388   6.394  0.3643  0.0994  0.5438
 5937SOL    HW129270   1.173   4.346   6.405  0.6103  0.9799  2.0707
 5937SOL    HW229271   1.050   4.367   6.480 -0.7240  1.4989  0.3995
 5938SOL     OW29272   3.037   4.401   2.955 -0.1048 -0.5911 -0.4569
 5938SOL    HW129273   3.093   4.339   3.002  0.7253 -1.0444 -2.0336
 5938SOL    HW229274   3.018   4.365   2.868 -2.7193  0.4947 -0.3298
 5939SOL     OW29275   3.362   2.866  11.936  0.5384 -0.2817  0.3563
 5939SOL    HW129276   3.356   2.879  12.031 -1.5615 -1.7193  0.4299
 5939SOL    HW229277   3.313   2.943  11.908  3.5957  0.8329 -1.9237
 5940SOL     OW29278   0.545   0.836   6.964 -0.3922 -0.3210 -0.1560
 5940SOL    HW129279   0.563   0.753   7.007  2.0973 -0.0188 -0.5727
 5940SOL    HW229280   0.630   0.870   6.936 -0.9828  2.2547  1.1703
 5941SOL     OW29281   1.442   0.201   0.000  0.0176  0.1821 -0.9492
 5941SOL    HW129282   1.386   0.127  17.662 -0.7688 -0.3433  2.5366
 5941SOL    HW229283   1.482   0.236  17.606  1.8414  0.9647  0.2988
 5942SOL     OW29284   4.298   1.186  11.697 -0.4741 -0.0642  0.0553
 5942SOL    HW129285   4.276   1.126  11.768 -0.3595 -0.7314 -0.4799
 5942SOL    HW229286   4.258   1.142  11.623 -0.4809  0.9452 -0.5439
 5943SOL     OW29287   3.267   2.129   8.456 -0.7880 -0.5433  0.0935
 5943SOL    HW129288   3.289   2.191   8.526  1.7559 -0.4471 -0.7931
 5943SOL    HW229289   3.322   2.157   8.382 -1.1643  0.2717  0.1251
 5944SOL     OW29290   2.465   4.161  13.461  0.2303 -0.2061  0.0594
 5944SOL    HW129291   2.460   4.065  13.455  2.5771 -0.3593  0.6845
 5944SOL    HW229292   2.448   4.165  13.556 -1.4692  1.7810 -0.3329
 5945SOL     OW29293   4.455   0.264   6.889  0.4654  0.0924  0.0825
 5945SOL    HW129294   4.432   0.241   6.979 -0.8045 -1.7542 -0.7165
 5945SOL    HW229295   4.406   0.201   6.837 -1.4230  0.0757  1.8885
 5946SOL     OW29296   0.540   0.944   7.764 -0.3878 -0.0065  0.0047
 5946SOL    HW129297   0.550   0.904   7.851  0.1952 -0.5052 -0.2957
 5946SOL    HW229298   0.490   0.880   7.715  0.1704  0.3007 -0.9513
 5947SOL     OW29299   0.476   0.892   4.094  0.1993  0.6070  0.8412
 5947SOL    HW129300   0.458   0.820   4.155 -0.5208 -0.1032 -0.2219
 5947SOL    HW229301   0.570   0.875   4.087  0.0117  0.1019 -0.5086
 5948SOL     OW29302   0.170   4.462   3.509 -0.2662  1.0715 -0.1229
 5948SOL    HW129303   0.132   4.529   3.453 -1.4655 -2.2034 -3.2081
 5948SOL    HW229304   0.255   4.471   3.465  0.9307 -0.7123  1.8201
 5949SOL     OW29305   0.102   0.744   4.867 -0.0791  0.3706 -0.1181
 5949SOL    HW129306   0.081   0.792   4.947  0.2224  1.1528 -0.5014
 5949SOL    HW229307   0.120   0.821   4.813 -0.2092 -1.1416 -2.3171
 5950SOL     OW29308   0.297   2.822   7.470 -0.4479  0.7337 -0.1882
 5950SOL    HW129309   0.217   2.841   7.519 -0.7542  1.7910 -1.0956
 5950SOL    HW229310   0.362   2.845   7.537  1.1716  0.4814 -1.6684
 5951SOL     OW29311   3.363   1.005   2.394  0.2022 -0.3423  0.1584
 5951SOL    HW129312   3.275   1.011   2.356 -1.0036 -2.5804  2.5910
 5951SOL    HW229313   3.376   0.914   2.420 -0.6114  0.2723  2.7070
 5952SOL     OW29314   3.247   0.673   3.979 -0.6441 -0.2771  0.2023
 5952SOL    HW129315   3.339   0.675   4.006 -0.6555  0.7950  0.1829
 5952SOL    HW229316   3.205   0.670   4.065  0.0676  0.5590  0.5761
 5953SOL     OW29317   2.485   0.439   4.381  0.1086  0.0030 -0.0413
 5953SOL    HW129318   2.512   0.389   4.305  2.5960  1.5781 -0.1827
 5953SOL    HW229319   2.548   0.405   4.444 -0.2475 -1.5199 -0.5172
 5954SOL     OW29320   4.574   1.722   8.373 -0.0407  0.5731 -0.0994
 5954SOL    HW129321   4.640   1.749   8.437  0.0337 -0.5475  0.3020
 5954SOL    HW229322   4.621   1.722   8.290  1.1114  3.3719  0.5598
 5955SOL     OW29323   3.229   2.838   3.472  0.0201 -0.1888 -0.0863
 5955SOL    HW129324   3.221   2.777   3.545 -2.0906  0.4950  0.2321
 5955SOL    HW229325   3.138   2.856   3.449 -0.0390 -1.5031 -0.9145
 5956SOL     OW29326   2.024   0.846  11.698  0.1343 -0.4859 -0.0636
 5956SOL    HW129327   1.969   0.924  11.689 -1.0314 -0.8883  3.4683
 5956SOL    HW229328   2.047   0.850  11.790 -1.0605 -1.6365  0.3006
 5957SOL     OW29329   4.383   1.570   3.141 -0.2434 -0.7669 -0.1181
 5957SOL    HW129330   4.459   1.627   3.153 -1.4652  1.2063 -1.9304
 5957SOL    HW229331   4.429   1.486   3.144  0.0078 -0.6605 -1.0594
 5958SOL     OW29332   3.928   0.805   4.318  0.7498  0.3216 -0.6363
 5958SOL    HW129333   3.895   0.858   4.245 -1.1218  0.0696  0.0237
 5958SOL    HW229334   3.838   0.776   4.334  1.2161  0.0641  1.5303
 5959SOL     OW29335   4.050   1.308   0.389  0.2795 -0.2429 -0.6898
 5959SOL    HW129336   4.125   1.318   0.330  0.6685  0.0679 -0.1327
 5959SOL    HW229337   3.984   1.288   0.322 -1.4491  0.6987  0.7438
 5960SOL     OW29338   2.035   2.342   4.722 -0.5309  0.0933 -0.5691
 5960SOL    HW129339   2.096   2.321   4.793  1.5485  0.9740 -2.0848
 5960SOL    HW229340   1.978   2.409   4.759  1.5531  1.0045  0.9962
 5961SOL     OW29341   0.495   4.231   1.631  0.6379  0.4028 -0.1518
 5961SOL    HW129342   0.489   4.297   1.701  2.0268  2.5660 -2.0823
 5961SOL    HW229343   0.531   4.285   1.561 -1.9304  0.2388 -1.6142
 5962SOL     OW29344   0.769   1.657  12.264 -0.0690 -0.1680 -0.3876
 5962SOL    HW129345   0.760   1.599  12.188 -2.1710  1.7804 -1.6261
 5962SOL    HW229346   0.821   1.609  12.328 -0.9609 -0.9827 -0.2724
 5963SOL     OW29347   1.956   4.299   1.405 -0.5006  0.3269  0.1274
 5963SOL    HW129348   2.048   4.293   1.430 -0.1894  0.1956 -1.0667
 5963SOL    HW229349   1.959   4.351   1.325  0.7360 -0.0815 -0.0944
 5964SOL     OW29350   1.586   0.027   6.413 -0.3446 -0.3180 -0.3057
 5964SOL    HW129351   1.511   0.076   6.446  0.0889 -1.2765  2.1136
 5964SOL    HW229352   1.618   0.010   6.501 -1.5713 -0.6252  0.0802
 5965SOL     OW29353   2.364   0.105   9.964  0.5491 -0.3136  0.5017
 5965SOL    HW129354   2.388   0.178  10.022 -0.4649  0.7232 -0.3876
 5965SOL    HW229355   2.420   0.111   9.886  0.1187 -0.8916  0.1506
 5966SOL     OW29356   1.627   3.421   5.951  0.1009  0.5575 -0.1236
 5966SOL    HW129357   1.688   3.494   5.958  0.4714  0.3207 -0.8271
 5966SOL    HW229358   1.630   3.376   6.036 -1.2347 -0.4948 -0.6239
 5967SOL     OW29359   3.181   4.023  10.224 -0.2122  0.0089 -0.4177
 5967SOL    HW129360   3.143   3.989  10.305 -0.7643 -0.1401 -0.7434
 5967SOL    HW229361   3.266   4.061  10.247 -0.0666 -0.9978  0.7139
 5968SOL     OW29362   0.779   4.418  17.147  0.0481 -0.0114 -0.3831
 5968SOL    HW129363   0.756   4.511  17.153  0.2418  0.0849 -1.0688
 5968SOL    HW229364   0.759   4.400  17.055  1.0349  1.4381 -0.8873
 5969SOL     OW29365   3.302   0.705  13.403 -0.9415 -0.3090  0.2235
 5969SOL    HW129366   3.227   0.649  13.383 -0.4938 -0.1397 -1.9488
 5969SOL    HW229367   3.329   0.726  13.314  0.1149 -0.9135  0.4088
 5970SOL     OW29368   3.263   4.083   2.765  0.2011  0.2687 -0.3851
 5970SOL    HW129369   3.257   4.027   2.688 -1.8492  2.8688 -2.1212
 5970SOL    HW229370   3.172   4.112   2.765  0.1838  0.2461  0.7485
 5971SOL     OW29371   1.335   0.745  12.117 -0.2732  0.0725 -0.1690
 5971SOL    HW129372   1.268   0.689  12.077  1.0481 -1.4068 -0.3406
 5971SOL    HW229373   1.419   0.701  12.102 -0.0238 -0.2411  2.1231
 5972SOL     OW29374   4.649   3.757  12.145 -0.0438 -0.1975 -0.4323
 5972SOL    HW129375   4.563   3.747  12.104  0.1761  1.7375 -1.3402
 5972SOL    HW229376   4.642   3.843  12.185  1.1879 -0.7344  0.9348
 5973SOL     OW29377   4.293   0.516  10.110 -0.4946  0.4127  0.9052
 5973SOL    HW129378   4.377   0.504  10.065 -1.1904 -0.8607 -0.0445
 5973SOL    HW229379   4.298   0.472  10.195 -1.6308 -1.3906  0.0311
 5974SOL     OW29380   2.026   1.574  11.222 -0.1106  0.5225  0.0937
 5974SOL    HW129381   2.063   1.662  11.222  0.4212  0.2814  2.2379
 5974SOL    HW229382   2.053   1.542  11.307  4.1808  1.2832 -0.9900
 5975SOL     OW29383   2.473   2.557   7.154  0.4382  0.3816  0.0781
 5975SOL    HW129384   2.503   2.494   7.089 -2.2757  0.4757 -1.2726
 5975SOL    HW229385   2.422   2.621   7.104 -0.2554 -0.1758  0.0717
 5976SOL     OW29386   4.632   3.367  10.921 -0.2101 -0.3115 -0.0689
 5976SOL    HW129387   4.705   3.420  10.953 -0.4033 -0.8771  1.2996
 5976SOL    HW229388   4.666   3.341  10.835  0.3631  0.3365 -0.0393
 5977SOL     OW29389   0.379   0.838   3.599 -0.0494 -0.2557  0.3084
 5977SOL    HW129390   0.318   0.911   3.608 -1.5571 -1.3036 -1.4122
 5977SOL    HW229391   0.347   0.781   3.668 -0.1195 -0.9511 -0.2959
 5978SOL     OW29392   0.563   1.592   5.565 -0.4712  0.2083  0.0321
 5978SOL    HW129393   0.536   1.501   5.580 -0.0137  0.3162  1.4945
 5978SOL    HW229394   0.498   1.629   5.624 -0.2675  0.7180 -0.0690
 5979SOL     OW29395   3.787   0.720   4.997  0.4412 -0.1403  0.6162
 5979SOL    HW129396   3.836   0.723   5.079 -1.1142  0.8042  1.4954
 5979SOL    HW229397   3.835   0.781   4.941  1.0253 -0.2921  0.9485
 5980SOL     OW29398   2.159   3.908   8.003 -0.1354 -0.3116  0.2227
 5980SOL    HW129399   2.130   3.846   8.070 -0.5782 -1.6843 -1.2388
 5980SOL    HW229400   2.077   3.957   7.992 -1.0478 -1.8499  0.1379
 5981SOL     OW29401   3.383   2.528   4.919  0.1714 -0.1262 -0.3189
 5981SOL    HW129402   3.439   2.580   4.976  0.0843 -0.7999  0.3755
 5981SOL    HW229403   3.382   2.442   4.962 -1.6619 -0.5376 -1.1764
 5982SOL     OW29404   2.242   3.835   4.536 -0.5937  0.3619 -0.6216
 5982SOL    HW129405   2.271   3.788   4.458 -2.8714 -1.1623 -0.5638
 5982SOL    HW229406   2.167   3.878   4.494 -1.5004 -0.3276  0.3113
 5983SOL     OW29407   4.027   3.456   7.604  0.7837 -1.0765 -0.1274
 5983SOL    HW129408   4.121   3.446   7.587  0.2311 -0.7190 -3.3874
 5983SOL    HW229409   4.003   3.479   7.514 -1.4950 -0.6979  0.5846
 5984SOL     OW29410   3.803   3.691   5.465  0.0555 -0.7714 -0.3295
 5984SOL    HW129411   3.760   3.675   5.549 -1.8149  1.0429 -0.9593
 5984SOL    HW229412   3.896   3.679   5.487  0.5200  0.6137 -1.5334
 5985SOL     OW29413   3.880   1.978   8.332 -0.0336  0.2780 -0.1863
 5985SOL    HW129414   3.818   1.906   8.320  0.5788 -0.5137  1.4325
 5985SOL    HW229415   3.895   1.953   8.423  0.0270  1.0735  0.0227
 5986SOL     OW29416   2.797   2.693   7.847  0.2162  0.0628  0.7049
 5986SOL    HW129417   2.815   2.783   7.821  1.6960 -0.7629 -1.0692
 5986SOL    HW229418   2.885   2.662   7.868  0.4571 -0.3597 -0.9200
 5987SOL     OW29419   1.143   1.864   6.317 -0.0189  0.0871 -0.3794
 5987SOL    HW129420   1.169   1.956   6.326 -2.0664  0.4752  1.6108
 5987SOL    HW229421   1.052   1.856   6.346 -0.0574 -3.2087 -1.4640
 5988SOL     OW29422   0.810   2.189   5.184  0.2936 -0.0045 -0.6990
 5988SOL    HW129423   0.874   2.182   5.113 -0.2754 -0.8427 -1.1470
 5988SOL    HW229424   0.815   2.279   5.215 -3.2200  0.0982 -0.4341
 5989SOL     OW29425   2.641   0.869   3.139 -0.3638  0.6272  0.6939
 5989SOL    HW129426   2.683   0.786   3.161  1.9069  1.8783  1.0247
 5989SOL    HW229427   2.712   0.914   3.094 -1.3852 -0.1953 -1.7452
 5990SOL     OW29428   3.790   1.758   5.917 -0.1569 -0.5865  0.2311
 5990SOL    HW129429   3.866   1.753   5.859  0.9623 -2.0850  1.8443
 5990SOL    HW229430   3.796   1.671   5.956 -0.6112 -0.9489 -0.4959
 5991SOL     OW29431   0.760   0.113   3.262 -0.0065 -0.1661 -0.4676
 5991SOL    HW129432   0.667   0.093   3.275 -0.2909  2.5360  1.5774
 5991SOL    HW229433   0.754   0.208   3.272 -0.5572 -0.2182 -0.2979
 5992SOL     OW29434   1.898   1.468   3.117 -0.3286  0.4700 -0.5172
 5992SOL    HW129435   1.859   1.432   3.197  0.9359 -0.2488 -0.2283
 5992SOL    HW229436   1.825   1.459   3.056 -2.0295  0.3445  1.5259
 5993SOL     OW29437   1.439   4.702  13.188 -0.3406  0.3276 -0.1402
 5993SOL    HW129438   1.504   4.631  13.192  1.7948  2.2070 -1.5960
 5993SOL    HW229439   1.360   4.649  13.179  0.2470 -1.1659  3.3520
 5994SOL     OW29440   2.646   4.681   3.743  0.3238  0.1976 -0.1819
 5994SOL    HW129441   2.563   4.719   3.714  0.0237  0.7166  1.3414
 5994SOL    HW229442   2.635   4.587   3.728 -1.4444  0.6264 -1.5699
 5995SOL     OW29443   2.217   4.219   2.001 -0.3931  0.1286  0.5275
 5995SOL    HW129444   2.164   4.284   1.955  1.2124  1.2579  0.2800
 5995SOL    HW229445   2.272   4.200   1.926 -0.7855  0.1608  0.2309
 5996SOL     OW29446   2.443   1.618  16.339  0.1537 -0.2832 -0.3652
 5996SOL    HW129447   2.446   1.524  16.321  2.4852 -0.3211  0.2511
 5996SOL    HW229448   2.508   1.612  16.408 -1.6311 -1.5342  1.2186
 5997SOL     OW29449   1.829   3.151   3.524 -0.5146 -0.6432 -0.1607
 5997SOL    HW129450   1.779   3.075   3.554 -1.8777  1.3923  2.6616
 5997SOL    HW229451   1.863   3.188   3.605  0.7535  0.5685 -1.2320
 5998SOL     OW29452   1.213   1.637   2.631  0.1829  0.3125 -0.2016
 5998SOL    HW129453   1.253   1.704   2.576  1.0464 -0.3730 -0.4116
 5998SOL    HW229454   1.203   1.564   2.569 -0.5490 -0.0713  0.3780
 5999SOL     OW29455   4.453   4.005   4.227  0.3032  0.5649 -0.3426
 5999SOL    HW129456   4.538   4.003   4.183  0.0836 -2.3219 -0.6259
 5999SOL    HW229457   4.472   4.045   4.312  0.3463  3.0222 -1.5118
 6000SOL     OW29458   3.977   0.062   7.642 -0.2185 -0.1318  0.3577
 6000SOL    HW129459   3.913   0.132   7.633 -0.2640 -0.2009  0.1605
 6000SOL    HW229460   3.958   0.005   7.568  0.8918  0.3976 -0.3437
 6001SOL     OW29461   1.025   0.586  15.611 -0.1171 -0.0508 -0.0361
 6001SOL    HW129462   1.057   0.620  15.527  0.4250 -1.4450 -0.3943
 6001SOL    HW229463   1.006   0.668  15.657 -1.6498  0.0885 -0.9058
 6002SOL     OW29464   1.751   4.566   2.042  0.1828 -0.0394 -0.0455
 6002SOL    HW129465   1.760   4.480   2.001  0.1949 -0.0724  0.0263
 6002SOL    HW229466   1.708   4.604   1.965 -0.8665  0.8811  0.9919
 6003SOL     OW29467   3.929   4.350   0.584  0.1088 -0.1360 -0.4841
 6003SOL    HW129468   3.876   4.338   0.505 -0.8523 -0.4535  0.2080
 6003SOL    HW229469   4.020   4.342   0.555 -0.4721 -0.7003 -2.1484
 6004SOL     OW29470   3.312   2.114  12.787  0.1835 -0.6184  0.6508
 6004SOL    HW129471   3.388   2.088  12.735  0.4239  2.0183 -0.3282
 6004SOL    HW229472   3.301   2.034  12.838 -0.9572 -1.2430 -0.5849
 6005SOL     OW29473   3.867   2.851   8.394 -0.5848 -0.1291  0.1001
 6005SOL    HW129474   3.927   2.776   8.397 -0.0024  0.2701 -1.4620
 6005SOL    HW229475   3.783   2.805   8.391 -0.1316 -0.9794  0.4384
 6006SOL     OW29476   1.493   1.243  11.204  0.0157  0.3508  0.3541
 6006SOL    HW129477   1.578   1.267  11.166  0.5235 -1.4349  0.3520
 6006SOL    HW229478   1.449   1.327  11.213 -2.0595 -0.5351 -1.5990
 6007SOL     OW29479   2.400   1.141  15.520 -0.5755  0.2631  0.1753
 6007SOL    HW129480   2.386   1.182  15.435 -1.0950 -1.8995 -0.7846
 6007SOL    HW229481   2.491   1.172  15.529 -0.2189 -0.2989 -1.3557
 6008SOL     OW29482   3.700   3.507   4.762  0.0316  0.7820  0.6195
 6008SOL    HW129483   3.728   3.541   4.847 -1.1070 -0.2458  1.3896
 6008SOL    HW229484   3.754   3.428   4.762  0.8168  1.3183 -0.6521
 6009SOL     OW29485   3.889   1.530  10.737 -0.1782 -0.1724 -0.2405
 6009SOL    HW129486   3.845   1.478  10.670  1.1657 -1.3098 -0.2394
 6009SOL    HW229487   3.817   1.582  10.775 -2.0318 -2.7258 -0.2586
 6010SOL     OW29488   3.832   1.865   9.004 -0.2706  0.4352  0.2325
 6010SOL    HW129489   3.801   1.901   9.087 -0.0108 -0.1752  0.5981
 6010SOL    HW229490   3.915   1.913   8.995 -0.8259  1.2049 -0.7841
 6011SOL     OW29491   4.583   3.783   5.983 -0.3373 -0.6683  0.0083
 6011SOL    HW129492   4.614   3.719   5.919  2.7287 -0.2962  1.1160
 6011SOL    HW229493   4.620   3.747   6.064  0.0731  0.6381  0.4015
 6012SOL     OW29494   4.134   1.668  10.777 -0.5894  0.5283 -0.0642
 6012SOL    HW129495   4.081   1.605  10.826  0.9611 -0.9597 -0.2923
 6012SOL    HW229496   4.070   1.696  10.711  1.8879  2.3443 -1.7357
 6013SOL     OW29497   3.453   1.720  14.796  0.2199 -0.1560  0.4595
 6013SOL    HW129498   3.461   1.747  14.705 -1.3313 -0.1455  0.3268
 6013SOL    HW229499   3.537   1.675  14.806 -0.0211 -0.7861 -0.3163
 6014SOL     OW29500   0.950   3.981   7.626 -0.1654 -0.6853 -0.0145
 6014SOL    HW129501   1.038   3.986   7.587  0.1188  0.3631  0.7808
 6014SOL    HW229502   0.935   3.887   7.616 -1.1654 -0.5380  0.1189
 6015SOL     OW29503   4.134   3.730  11.080 -0.0344  0.5047 -0.3249
 6015SOL    HW129504   4.151   3.681  11.160 -0.1175  0.6782 -0.2007
 6015SOL    HW229505   4.040   3.718  11.068  0.1566 -1.4549  0.1842
 6016SOL     OW29506   4.053   1.389  17.467 -0.6747 -0.3559  0.1410
 6016SOL    HW129507   4.012   1.453  17.408  1.8842  1.3311  0.2041
 6016SOL    HW229508   4.136   1.433  17.482 -0.5602 -0.3822 -0.4190
 6017SOL     OW29509   2.127   1.998   5.463 -0.4248  0.0509 -0.7764
 6017SOL    HW129510   2.064   2.054   5.419 -2.1849 -2.5923 -1.6471
 6017SOL    HW229511   2.084   1.913   5.472 -0.2588 -0.2146 -2.3794
 6018SOL     OW29512   2.035   4.368   5.413 -0.1520 -0.4959  0.2135
 6018SOL    HW129513   2.026   4.393   5.505 -3.0417 -0.8684  0.0270
 6018SOL    HW229514   2.116   4.414   5.393 -0.0622 -0.9233 -0.4038
 6019SOL     OW29515   2.945   2.286   8.302  0.0145 -0.2418 -0.2943
 6019SOL    HW129516   2.948   2.236   8.220 -0.8624 -1.7588  0.5971
 6019SOL    HW229517   2.978   2.371   8.273 -0.1885 -0.2206 -0.4612
 6020SOL     OW29518   2.585   3.932   4.694  0.0323 -0.3160  0.7888
 6020SOL    HW129519   2.675   3.943   4.663 -0.0593  0.6591  0.8639
 6020SOL    HW229520   2.590   3.850   4.743 -0.9539  0.5652  2.3870
 6021SOL     OW29521   0.763   1.505   6.071 -0.6012 -0.2374 -0.3681
 6021SOL    HW129522   0.742   1.569   6.139  2.4418 -0.4517  0.7859
 6021SOL    HW229523   0.819   1.551   6.009  1.6014 -3.2271 -0.5749
 6022SOL     OW29524   2.209   2.564  12.166 -0.2406  0.1470 -0.6332
 6022SOL    HW129525   2.248   2.564  12.253 -2.8887 -0.1587  0.5424
 6022SOL    HW229526   2.150   2.489  12.178 -0.5822  0.0601 -2.8011
 6023SOL     OW29527   1.428   3.964   7.118  0.5842  0.1520 -0.3147
 6023SOL    HW129528   1.511   3.916   7.115  0.1339 -0.5859 -1.0998
 6023SOL    HW229529   1.461   4.054   7.111 -0.5441  0.7082  1.6995
 6024SOL     OW29530   2.450   1.559  12.491 -0.2422  0.8375  0.2224
 6024SOL    HW129531   2.365   1.599  12.473 -0.6211 -0.3733 -0.6172
 6024SOL    HW229532   2.503   1.580  12.414  1.8695  3.0450  2.2694
 6025SOL     OW29533   2.991   0.653  14.734 -0.4439 -0.4759 -0.0806
 6025SOL    HW129534   2.945   0.577  14.771 -1.7632  0.1891 -0.3641
 6025SOL    HW229535   2.938   0.674  14.657 -0.4140  0.0961  0.0539
 6026SOL     OW29536   1.611   3.357   1.508  0.0588  0.6060  0.5885
 6026SOL    HW129537   1.617   3.400   1.594  0.5643  3.3590 -0.8233
 6026SOL    HW229538   1.522   3.365   1.472  0.2120  0.6777  0.2260
 6027SOL     OW29539   3.102   4.577  12.942 -0.2029  0.1802  0.5104
 6027SOL    HW129540   3.060   4.494  12.967 -1.9656  0.6610 -0.8094
 6027SOL    HW229541   3.026   4.635  12.938 -0.3080 -0.0793 -1.3246
 6028SOL     OW29542   0.817   1.521   4.937 -0.4249 -0.3215 -0.4306
 6028SOL    HW129543   0.887   1.478   4.888  0.4346 -1.2718  1.6611
 6028SOL    HW229544   0.795   1.452   5.000  0.8726  0.5591  0.9776
 6029SOL     OW29545   3.677   4.221   7.852 -0.0176  0.9280  0.1653
 6029SOL    HW129546   3.693   4.301   7.802  3.2636  1.3134  1.8204
 6029SOL    HW229547   3.753   4.168   7.828 -0.0694  1.0876 -0.3380
 6030SOL     OW29548   0.219   1.307   3.421  0.1954  0.5563 -0.5706
 6030SOL    HW129549   0.250   1.254   3.348 -1.4247  0.1291 -0.9510
 6030SOL    HW229550   0.292   1.354   3.463  0.3696 -0.8789  0.7162
 6031SOL     OW29551   0.822   3.496   5.504 -0.0450 -0.2206  0.5009
 6031SOL    HW129552   0.895   3.527   5.557 -0.3825 -0.6033  1.1817
 6031SOL    HW229553   0.780   3.432   5.561  1.3684 -0.2047  1.5344
 6032SOL     OW29554   4.206   2.644  17.592 -0.2572 -0.1141 -0.0732
 6032SOL    HW129555   4.165   2.707  17.651  0.5750 -0.7329  1.1591
 6032SOL    HW229556   4.239   2.586  17.661 -0.2392 -0.1308 -0.0958
 6033SOL     OW29557   0.310   4.015   3.457 -0.3477  0.0386  0.0597
 6033SOL    HW129558   0.254   4.092   3.456  0.5731  0.7851  4.6113
 6033SOL    HW229559   0.393   4.041   3.418 -1.1686  0.4308 -1.4112
 6034SOL     OW29560   4.360   2.181   6.010 -0.1997  0.5071 -0.1747
 6034SOL    HW129561   4.374   2.237   6.087  2.2112  1.0136 -0.9902
 6034SOL    HW229562   4.272   2.195   5.974  0.1759  0.7746 -0.9710
 6035SOL     OW29563   4.074   0.510  14.740  0.9618  0.2394  0.5363
 6035SOL    HW129564   4.108   0.423  14.763  1.7888  0.8163  1.5504
 6035SOL    HW229565   4.141   0.567  14.778  1.1077  1.0485 -0.9544
 6036SOL     OW29566   1.257   0.496   1.261  0.4581  0.3192  0.2309
 6036SOL    HW129567   1.319   0.569   1.258 -2.0945  2.5414  1.1968
 6036SOL    HW229568   1.268   0.459   1.173  1.5460 -1.9608  1.3281
 6037SOL     OW29569   2.321   3.269   3.524 -0.3954  0.4735  0.1548
 6037SOL    HW129570   2.241   3.217   3.513  1.0023 -1.8874  1.1493
 6037SOL    HW229571   2.390   3.204   3.539 -1.8199 -1.4619 -1.5195
 6038SOL     OW29572   0.202   4.140   7.697  1.1174  0.2470  0.1002
 6038SOL    HW129573   0.256   4.109   7.624  0.5608 -0.9771  0.2094
 6038SOL    HW229574   0.223   4.233   7.705 -0.6307  0.7982 -1.4283
 6039SOL     OW29575   3.837   0.099   5.137 -0.2607  0.1883  0.2183
 6039SOL    HW129576   3.745   0.090   5.160 -1.0901  2.3107 -2.2593
 6039SOL    HW229577   3.871   0.017   5.173  0.9237  1.9142  3.0085
 6040SOL     OW29578   0.097   1.071   9.278  0.5292 -0.6477  0.0353
 6040SOL    HW129579   0.186   1.036   9.285  1.1051  0.8095 -0.0532
 6040SOL    HW229580   0.100   1.147   9.336  1.4325 -1.2216  0.7332
 6041SOL     OW29581   4.475   1.965   1.098 -0.9199  0.2428  0.6963
 6041SOL    HW129582   4.482   1.934   1.008  0.3300  1.7157  0.2909
 6041SOL    HW229583   4.513   1.891   1.146 -0.9226 -0.1719  0.0542
 6042SOL     OW29584   3.235   0.915  15.058  0.3092  0.3449  0.6709
 6042SOL    HW129585   3.209   0.925  14.966 -2.0393  0.4260  1.3370
 6042SOL    HW229586   3.161   0.954  15.105  0.1158  1.0593 -0.2227
 6043SOL     OW29587   3.085   1.020   1.458  0.0608  0.1375  0.2792
 6043SOL    HW129588   3.060   0.983   1.373  0.9174  0.8470 -0.2757
 6043SOL    HW229589   3.155   0.962   1.486  0.4195  0.2203 -0.4314
 6044SOL     OW29590   3.313   4.182   8.566 -0.5810  0.1672  0.0119
 6044SOL    HW129591   3.275   4.095   8.575 -1.9646  0.8761  1.0901
 6044SOL    HW229592   3.259   4.216   8.495  0.1123  0.6106 -0.3078
 6045SOL     OW29593   1.705   2.092   4.631  0.3517 -0.0526 -0.2612
 6045SOL    HW129594   1.694   2.172   4.683  0.0228 -0.1119 -0.2381
 6045SOL    HW229595   1.797   2.086   4.604  0.4358  0.3607 -0.0783
 6046SOL     OW29596   3.821   1.509   6.706 -0.0392  0.4664 -0.0294
 6046SOL    HW129597   3.745   1.557   6.739  0.6618  1.2109  0.4993
 6046SOL    HW229598   3.894   1.559   6.742 -0.3948 -0.9877  2.6962
 6047SOL     OW29599   1.742   2.568   4.119 -0.1892 -0.5442 -0.0645
 6047SOL    HW129600   1.738   2.474   4.137  0.8846 -0.3654  1.0896
 6047SOL    HW229601   1.822   2.594   4.165 -1.2404  0.9618  0.9047
 6048SOL     OW29602   3.312   3.735   6.074  0.4543 -0.1597  0.2489
 6048SOL    HW129603   3.250   3.717   6.146 -1.1375  0.4174 -0.9634
 6048SOL    HW229604   3.255   3.754   5.999  0.9391 -0.3269 -0.1608
 6049SOL     OW29605   0.909   1.415   2.428 -0.3349  0.4769 -0.1139
 6049SOL    HW129606   0.865   1.330   2.427 -0.3174  0.4378  2.4061
 6049SOL    HW229607   0.907   1.435   2.334 -0.6047  1.7681  0.1638
 6050SOL     OW29608   0.571   2.260   2.792  0.1881 -0.6485 -0.0432
 6050SOL    HW129609   0.513   2.187   2.815  0.8625 -1.6339 -1.4698
 6050SOL    HW229610   0.508   2.319   2.752  2.4960  2.2164  0.4859
 6051SOL     OW29611   1.802   1.746   2.962  0.1557  0.3755 -0.1241
 6051SOL    HW129612   1.725   1.797   2.938 -0.2185 -0.3862 -0.5634
 6051SOL    HW229613   1.804   1.767   3.055 -0.1882  0.9659 -0.2506
 6052SOL     OW29614   0.425   0.399   5.215 -0.0765 -0.3088 -0.2970
 6052SOL    HW129615   0.451   0.346   5.140  0.6772  1.6118 -1.4000
 6052SOL    HW229616   0.420   0.487   5.176  4.2213  0.1031  0.1317
 6053SOL     OW29617   3.831   2.525  15.620 -0.1220 -0.2701 -0.0182
 6053SOL    HW129618   3.822   2.430  15.629 -0.3097 -0.3686 -1.3314
 6053SOL    HW229619   3.790   2.557  15.701 -0.0856 -1.3034  0.4032
 6054SOL     OW29620   1.239   4.191   9.229  0.1693 -0.3099 -0.1966
 6054SOL    HW129621   1.237   4.206   9.323  2.5403 -1.2929  0.0374
 6054SOL    HW229622   1.230   4.279   9.195  1.2050  0.4117  1.3698
 6055SOL     OW29623   1.277   3.814   4.082  0.3497 -0.7401 -0.1594
 6055SOL    HW129624   1.298   3.908   4.083 -2.0839 -0.2168  1.1397
 6055SOL    HW229625   1.310   3.790   3.995  0.4302 -2.0724  0.2528
 6056SOL     OW29626   1.386   0.984   0.815 -0.3783 -0.1143  0.3253
 6056SOL    HW129627   1.376   1.070   0.773 -0.0329 -1.5317 -2.6806
 6056SOL    HW229628   1.350   1.011   0.899 -0.2984  0.4971  0.1640
 6057SOL     OW29629   1.710   2.803  15.109  0.0892 -0.2897  0.4735
 6057SOL    HW129630   1.646   2.811  15.179 -0.5348 -0.4503 -0.0787
 6057SOL    HW229631   1.663   2.754  15.042 -1.0781 -0.3429  1.3419
 6058SOL     OW29632   3.173   3.407   8.603 -0.3392  0.2441  0.5918
 6058SOL    HW129633   3.164   3.315   8.628 -0.3446  0.2901  0.7578
 6058SOL    HW229634   3.083   3.438   8.612 -1.5590 -3.2451  0.1288
 6059SOL     OW29635   2.566   0.628   3.706  0.4371 -0.3698  0.2210
 6059SOL    HW129636   2.489   0.677   3.733 -0.1260 -0.7865 -0.6377
 6059SOL    HW229637   2.545   0.537   3.730 -2.0350  0.1779  0.1559
 6060SOL     OW29638   0.727   0.390   3.291  0.0056 -0.9614  0.1089
 6060SOL    HW129639   0.769   0.472   3.317  1.2096 -0.9669 -1.8669
 6060SOL    HW229640   0.665   0.406   3.220  0.4613 -0.5842 -0.2029
 6061SOL     OW29641   4.030   3.620   7.172 -0.0455 -0.2016  0.2132
 6061SOL    HW129642   3.964   3.550   7.169  2.4387 -2.3954 -2.4239
 6061SOL    HW229643   4.061   3.620   7.081  0.9884 -0.0822  0.5662
 6062SOL     OW29644   2.167   3.727   9.960  0.7514  0.3278 -0.0555
 6062SOL    HW129645   2.077   3.709   9.932  1.1082  1.5280 -1.9543
 6062SOL    HW229646   2.179   3.820   9.938  0.4716 -0.2387 -2.6161
 6063SOL     OW29647   0.430   2.891   3.131 -0.5256 -0.4491 -0.3741
 6063SOL    HW129648   0.386   2.877   3.215 -0.0240 -1.1798 -0.2291
 6063SOL    HW229649   0.435   2.799   3.103  1.2883 -1.3004  2.6487
 6064SOL     OW29650   3.465   2.633   7.034 -0.1858 -0.2139  0.1506
 6064SOL    HW129651   3.389   2.600   6.987  0.7166 -0.9945 -0.7658
 6064SOL    HW229652   3.512   2.681   6.966 -0.5947  0.2735  0.2072
 6065SOL     OW29653   0.049   4.290   3.744  0.2356 -0.4358  0.1211
 6065SOL    HW129654   0.056   4.260   3.653 -0.8688 -1.2594  0.3020
 6065SOL    HW229655   0.091   4.375   3.729 -1.5291  0.3398 -0.4185
 6066SOL     OW29656   1.444   3.765   9.559 -0.4731  0.1005 -0.3270
 6066SOL    HW129657   1.428   3.725   9.474 -2.0986 -0.5694  0.2796
 6066SOL    HW229658   1.362   3.751   9.607 -0.2221  2.1617  0.7197
 6067SOL     OW29659   2.517   1.940   7.366  0.1958  0.4918 -0.4586
 6067SOL    HW129660   2.495   1.859   7.321  0.4092  0.6215 -0.7961
 6067SOL    HW229661   2.612   1.942   7.351  0.0315  0.2520 -1.5258
 6068SOL     OW29662   2.828   4.244   8.244 -0.4529  0.4930 -0.2517
 6068SOL    HW129663   2.837   4.285   8.330  0.6670  1.2206 -0.7153
 6068SOL    HW229664   2.792   4.318   8.195 -0.0954  0.8246 -0.0130
 6069SOL     OW29665   0.942   4.407   7.991  0.1184  0.1665 -0.4319
 6069SOL    HW129666   0.970   4.319   8.015 -1.2579 -0.6543 -1.8836
 6069SOL    HW229667   0.854   4.399   8.028  0.2348 -0.3742 -0.2629
 6070SOL     OW29668   1.494   3.200  17.270 -0.5277 -0.1143  0.3499
 6070SOL    HW129669   1.544   3.282  17.274  0.9983 -1.0089 -0.4688
 6070SOL    HW229670   1.406   3.237  17.258 -0.0621  0.2719 -1.8155
 6071SOL     OW29671   1.537   4.222   7.069 -0.1581  0.2643 -0.4027
 6071SOL    HW129672   1.509   4.299   7.019 -0.2134 -0.2057 -1.1025
 6071SOL    HW229673   1.624   4.260   7.081  0.9130 -1.9160 -1.2583
 6072SOL     OW29674   0.062   3.284   7.095  0.1909  0.6307  0.0437
 6072SOL    HW129675   0.050   3.363   7.043 -1.8627 -0.4381 -1.1263
 6072SOL    HW229676   4.707   3.298   7.152 -0.7566  3.5363 -1.9332
 6073SOL     OW29677   0.312   2.358  15.891  0.4392 -0.6589  0.0305
 6073SOL    HW129678   0.256   2.379  15.816  1.3140  0.9527 -0.1837
 6073SOL    HW229679   0.263   2.422  15.944 -0.3540 -0.9519 -0.3456
 6074SOL     OW29680   1.088   4.078   6.963 -0.7935 -0.3869 -0.8772
 6074SOL    HW129681   1.017   4.034   6.917 -0.7753 -0.7342 -0.5707
 6074SOL    HW229682   1.154   4.093   6.895  0.0238 -0.3021 -0.0591
 6075SOL     OW29683   0.842   2.000  10.597 -0.1690  0.1129 -0.6877
 6075SOL    HW129684   0.764   2.052  10.575 -1.1156 -0.7385  0.6949
 6075SOL    HW229685   0.803   1.924  10.641 -0.5698  1.3174  1.0497
 6076SOL     OW29686   1.827   4.544  10.801 -0.4374  0.5386 -0.0060
 6076SOL    HW129687   1.752   4.582  10.846  0.5075 -0.5117  2.5227
 6076SOL    HW229688   1.790   4.464  10.764 -1.1178  0.5355  0.6792
 6077SOL     OW29689   4.587   0.435   2.963  0.1085 -0.4603 -0.2254
 6077SOL    HW129690   4.632   0.510   2.923 -1.8298  0.6197 -0.4110
 6077SOL    HW229691   4.660   0.386   2.999 -1.7024 -1.0068  2.6871
 6078SOL     OW29692   0.905   1.775   8.569 -0.0340 -0.3227 -0.2947
 6078SOL    HW129693   0.936   1.745   8.654 -2.5468  3.1515  1.8257
 6078SOL    HW229694   0.813   1.797   8.582 -0.0941 -1.6373  1.4181
 6079SOL     OW29695   1.354   4.420   7.469 -0.1747 -0.1062  0.0047
 6079SOL    HW129696   1.364   4.347   7.530 -1.5690 -0.2679  0.0222
 6079SOL    HW229697   1.274   4.392   7.426  0.6744  1.0030 -2.3045
 6080SOL     OW29698   3.307   2.133   9.465  0.5744  0.0019  0.0677
 6080SOL    HW129699   3.297   2.218   9.507 -0.4229  0.3398 -0.8632
 6080SOL    HW229700   3.264   2.076   9.529 -0.0412 -0.3876 -0.6959
 6081SOL     OW29701   0.527   2.769   1.172  0.4558  0.2409  0.1655
 6081SOL    HW129702   0.451   2.812   1.132 -0.7834 -0.4155  1.7868
 6081SOL    HW229703   0.481   2.688   1.196  1.5256 -0.6955 -0.9080
 6082SOL     OW29704   3.695   1.139   9.955 -0.0781 -0.4002 -0.4195
 6082SOL    HW129705   3.719   1.213  10.011  1.0923 -0.2780 -1.0690
 6082SOL    HW229706   3.609   1.122   9.992  0.0290  0.2931  0.1448
 6083SOL     OW29707   3.770   1.366   1.041 -0.0690 -0.1442  0.4378
 6083SOL    HW129708   3.842   1.393   1.098 -0.8501  1.2740  0.7611
 6083SOL    HW229709   3.800   1.378   0.951 -1.0855 -0.8602  0.0040
 6084SOL     OW29710   0.356   3.146   4.720  0.3868 -0.5290  0.4795
 6084SOL    HW129711   0.353   3.051   4.728  3.4752 -0.8717 -2.5444
 6084SOL    HW229712   0.295   3.180   4.786  0.7972 -0.3536  0.7660
 6085SOL     OW29713   1.694   3.988   7.586 -0.1143  0.1137 -0.0635
 6085SOL    HW129714   1.617   3.933   7.568 -0.3940 -0.4232  2.6177
 6085SOL    HW229715   1.669   4.033   7.667  2.6151  0.8545  0.3636
 6086SOL     OW29716   4.371   0.105   9.960  0.6653  0.3213 -0.3242
 6086SOL    HW129717   4.315   0.040  10.002 -1.1739  3.0220  1.4191
 6086SOL    HW229718   4.336   0.184  10.000  2.0627 -0.3771  2.2720
 6087SOL     OW29719   2.110   1.116   4.034  0.3348  0.1346 -0.2849
 6087SOL    HW129720   2.066   1.191   3.992  0.6290  1.0793  1.1021
 6087SOL    HW229721   2.094   1.050   3.966  0.1120 -0.5259  0.4158
 6088SOL     OW29722   0.911   4.497   4.175 -0.1885  0.7028 -0.6407
 6088SOL    HW129723   0.950   4.509   4.088 -1.8557 -1.6865 -1.7208
 6088SOL    HW229724   0.818   4.510   4.157 -0.0029  0.3738 -1.8706
 6089SOL     OW29725   0.387   2.919   3.820 -0.6556  0.4246  0.4728
 6089SOL    HW129726   0.427   2.960   3.744  0.6762 -2.0172 -0.1299
 6089SOL    HW229727   0.357   2.834   3.788  0.4032 -0.7619  2.6582
 6090SOL     OW29728   1.815   0.117   0.470  0.2077 -0.3432  0.6264
 6090SOL    HW129729   1.877   0.175   0.425  0.8270 -2.3924 -1.1377
 6090SOL    HW229730   1.809   0.158   0.557  2.4026  2.9243 -0.7566
 6091SOL     OW29731   1.938   4.716   5.298 -0.1691  0.3291 -0.2004
 6091SOL    HW129732   1.921   0.081   5.336 -3.6123 -1.4953  2.3781
 6091SOL    HW229733   2.033   0.003   5.302 -0.3524  2.1914  0.3785
 6092SOL     OW29734   4.017   3.032   2.122  0.3499 -0.4264  0.1644
 6092SOL    HW129735   3.924   3.056   2.116  0.5579 -0.0632 -1.4784
 6092SOL    HW229736   4.042   3.009   2.033  0.2985 -2.8978  0.7940
 6093SOL     OW29737   2.779   4.382   1.663  0.0893 -0.5450 -0.0853
 6093SOL    HW129738   2.865   4.376   1.621  0.4376  2.3174  0.2042
 6093SOL    HW229739   2.795   4.362   1.755  3.0997 -1.5829 -0.8447
 6094SOL     OW29740   0.512   0.403  14.207  0.0252  0.2494  0.1309
 6094SOL    HW129741   0.515   0.308  14.220 -1.3604 -0.2065 -2.8603
 6094SOL    HW229742   0.434   0.432  14.254  0.3594 -1.6380  1.8789
 6095SOL     OW29743   2.667   3.856   6.233  0.5023 -0.0077 -0.2063
 6095SOL    HW129744   2.750   3.864   6.282  0.2018  0.8487  0.1616
 6095SOL    HW229745   2.629   3.943   6.240 -1.2540 -0.7410 -0.6372
 6096SOL     OW29746   2.149   0.859   1.740 -0.3737  0.3169 -0.3981
 6096SOL    HW129747   2.086   0.891   1.805 -0.3829 -1.0208  0.2467
 6096SOL    HW229748   2.164   0.774   1.782 -0.1877 -0.7448 -2.5883
 6097SOL     OW29749   3.128   0.085  11.942 -0.6036  0.2462  0.4711
 6097SOL    HW129750   3.141   4.712  11.929 -1.7817  0.2261 -0.5343
 6097SOL    HW229751   3.039   0.084  11.978 -0.8244  3.0181 -0.0084
 6098SOL     OW29752   3.721   0.365  17.592 -0.6020 -0.1070  0.2039
 6098SOL    HW129753   3.775   0.287  17.601  2.4958  2.1000  1.0854
 6098SOL    HW229754   3.791   0.431  17.600 -0.0114 -0.6707 -0.3605
 6099SOL     OW29755   1.575   3.519  15.790  0.2552  0.1627 -0.7511
 6099SOL    HW129756   1.533   3.598  15.757  2.3876  0.9884 -1.4578
 6099SOL    HW229757   1.663   3.555  15.776  0.6246 -0.5707 -0.3617
 6100SOL     OW29758   2.784   4.064   2.640  0.1575 -0.2973 -0.1768
 6100SOL    HW129759   2.843   3.990   2.631 -0.1641 -0.4312 -1.2812
 6100SOL    HW229760   2.724   4.046   2.567 -0.5795 -0.3209  0.4345
 6101SOL     OW29761   1.110   4.568   5.749 -0.2434 -0.2527 -0.5050
 6101SOL    HW129762   1.156   4.639   5.704 -3.1422  1.3690 -0.8915
 6101SOL    HW229763   1.188   4.517   5.774 -0.7702 -0.9821 -0.3462
 6102SOL     OW29764   0.846   2.903   2.338  0.0247  0.1197  0.2775
 6102SOL    HW129765   0.756   2.881   2.362  0.4282 -0.2215  1.4505
 6102SOL    HW229766   0.881   2.907   2.427 -2.1077 -2.8625  1.2569
 6103SOL     OW29767   0.828   1.482   6.469 -0.4987  0.2475 -0.0374
 6103SOL    HW129768   0.845   1.456   6.378 -3.3215  1.4553 -0.9362
 6103SOL    HW229769   0.914   1.498   6.507 -1.4580 -0.2313  2.3058
 6104SOL     OW29770   4.532   3.733   4.283 -0.6355  0.1600  0.2316
 6104SOL    HW129771   4.476   3.793   4.333 -1.2530 -0.9355  0.8518
 6104SOL    HW229772   4.493   3.648   4.306  0.3506 -0.8603 -1.8767
 6105SOL     OW29773   1.578   2.052   0.210 -0.2291  0.5692 -0.2640
 6105SOL    HW129774   1.509   2.036   0.147 -1.5399  0.3492  1.2195
 6105SOL    HW229775   1.534   2.091   0.286  0.4834  0.2324  0.3218
 6106SOL     OW29776   0.359   2.492  15.543 -0.0368  0.0549 -0.9049
 6106SOL    HW129777   0.291   2.490  15.476  0.7717  2.5668 -1.8103
 6106SOL    HW229778   0.388   2.401  15.548 -0.2961  0.1098  1.5305
 6107SOL     OW29779   4.146   3.425   2.388 -0.4725  0.4731  0.0967
 6107SOL    HW129780   4.181   3.512   2.405 -0.2340 -0.0349  2.2100
 6107SOL    HW229781   4.149   3.419   2.293  0.7139 -0.3461  0.1804
 6108SOL     OW29782   0.187   1.576   8.114 -0.3294  0.2317 -0.2339
 6108SOL    HW129783   0.199   1.552   8.022  2.0930 -0.5450  0.3018
 6108SOL    HW229784   0.256   1.521   8.150 -1.0483  0.1551  1.0549
 6109SOL     OW29785   2.091   4.466   0.758  0.1989 -0.0341 -0.7827
 6109SOL    HW129786   2.172   4.473   0.809  0.8988 -0.7443 -1.7954
 6109SOL    HW229787   2.015   4.450   0.814 -1.8463  3.4884 -2.5591
 6110SOL     OW29788   0.302   1.943   0.017 -0.0799  0.3025 -0.1873
 6110SOL    HW129789   0.270   1.960  17.614 -0.5255 -1.1477 -0.3175
 6110SOL    HW229790   0.284   2.022   0.067  0.8480 -0.1716  0.9037
 6111SOL     OW29791   1.466   2.226  15.908 -0.1166  0.2131 -0.2874
 6111SOL    HW129792   1.430   2.273  15.984  0.7300  0.8463 -0.2861
 6111SOL    HW229793   1.542   2.279  15.888  0.0052 -0.3023 -1.1924
 6112SOL     OW29794   1.935   1.310  15.513 -0.4029  0.2751  0.1877
 6112SOL    HW129795   1.871   1.248  15.479  2.9445 -2.8521 -0.4735
 6112SOL    HW229796   1.873   1.383  15.522  0.6415  1.1190  0.5913
 6113SOL     OW29797   3.975   3.605   9.219  0.6956  0.1976 -0.2035
 6113SOL    HW129798   3.954   3.566   9.134  0.0341 -0.2577  0.1723
 6113SOL    HW229799   3.895   3.595   9.271  1.3854 -0.1641  0.7929
 6114SOL     OW29800   3.947   0.437   2.815  0.8981 -0.2493  0.6272
 6114SOL    HW129801   3.964   0.451   2.722  0.7236  1.2286  0.8129
 6114SOL    HW229802   3.991   0.519   2.841  0.3795 -0.2963  1.6756
 6115SOL     OW29803   1.526   2.414   6.345  0.0296  0.2837 -0.4096
 6115SOL    HW129804   1.621   2.423   6.353 -0.0236  0.6304 -0.1805
 6115SOL    HW229805   1.502   2.376   6.430  0.3221  1.8641  0.3713
 6116SOL     OW29806   2.744   1.131  16.043 -0.1975  0.5705 -0.3665
 6116SOL    HW129807   2.799   1.192  15.994  1.9155  1.2608  2.8429
 6116SOL    HW229808   2.708   1.080  15.971 -2.9210  0.0908  1.3311
 6117SOL     OW29809   4.686   1.961   9.262  0.0500  0.2129 -0.7026
 6117SOL    HW129810   4.655   2.035   9.314  0.2025  0.4692 -0.9767
 6117SOL    HW229811   4.625   1.954   9.189 -1.3113  0.0011  0.4458
 6118SOL     OW29812   4.668   0.434   2.603  0.0848  0.3922  0.0477
 6118SOL    HW129813   4.639   0.468   2.519  0.5960  0.6501 -0.0186
 6118SOL    HW229814   4.643   0.500   2.667  0.5315  0.0505  0.5733
 6119SOL     OW29815   1.719   0.896  17.149 -0.1106 -0.2684 -0.0654
 6119SOL    HW129816   1.655   0.836  17.112  0.1950 -0.5259 -0.1763
 6119SOL    HW229817   1.681   0.926  17.232  3.6221  1.8374  0.9080
 6120SOL     OW29818   2.548   1.176   1.457 -0.6679 -0.3252 -0.1925
 6120SOL    HW129819   2.510   1.220   1.533  0.3679  1.8789 -0.9471
 6120SOL    HW229820   2.581   1.095   1.495 -1.5834  0.0772  1.4727
 6121SOL     OW29821   3.003   2.012   6.544 -0.5855  0.0794  0.3504
 6121SOL    HW129822   3.003   1.955   6.467 -0.7420  1.7604 -0.8973
 6121SOL    HW229823   3.036   1.947   6.606  0.5646 -1.0685 -1.4768
 6122SOL     OW29824   1.648   0.190   8.293  0.1392 -0.4401 -0.3883
 6122SOL    HW129825   1.660   0.265   8.351 -1.2173 -1.6583  1.4585
 6122SOL    HW229826   1.722   0.202   8.233 -1.7300 -0.3847 -2.6665
 6123SOL     OW29827   2.362   1.210   3.267  0.3613 -0.3959  0.0487
 6123SOL    HW129828   2.334   1.161   3.344  0.7463 -2.9374 -1.4108
 6123SOL    HW229829   2.369   1.145   3.197  0.3568  0.1050 -0.4141
 6124SOL     OW29830   4.003   4.239  13.259 -0.0602  0.4486  0.0055
 6124SOL    HW129831   3.977   4.330  13.245  3.0639  1.2664 -0.4525
 6124SOL    HW229832   4.095   4.254  13.280 -0.5973  0.3397  2.5250
 6125SOL     OW29833   1.589   1.058   2.397 -0.2697 -0.0683 -0.6156
 6125SOL    HW129834   1.602   0.964   2.384  1.4249  0.3788 -2.0264
 6125SOL    HW229835   1.510   1.064   2.451 -0.0362  1.5482 -0.4505
 6126SOL     OW29836   1.384   4.002   7.848  0.1003  1.1148  0.5499
 6126SOL    HW129837   1.322   3.999   7.921 -0.4766  0.8423  0.0434
 6126SOL    HW229838   1.354   4.084   7.809  0.4350  0.9342 -0.0971
 6127SOL     OW29839   3.985   4.687   2.898  0.1852 -0.1091 -0.0616
 6127SOL    HW129840   3.965   4.660   2.808  0.6641 -2.3756  0.5016
 6127SOL    HW229841   4.070   0.004   2.874  1.4413 -2.0992  1.3500
 6128SOL     OW29842   4.640   3.105  11.187  0.0661 -0.2944 -0.1830
 6128SOL    HW129843   4.684   3.024  11.212  0.5699  0.5745  1.6836
 6128SOL    HW229844   4.718   3.159  11.178 -0.3838  0.4120  0.0977
 6129SOL     OW29845   1.035   1.655   8.787  0.7793 -0.4884  0.5839
 6129SOL    HW129846   1.100   1.594   8.752 -1.4512 -1.6020 -1.5892
 6129SOL    HW229847   1.088   1.728   8.819  1.2294 -0.5820  0.0449
 6130SOL     OW29848   3.086   1.147   7.950 -0.6051  0.0980  0.1140
 6130SOL    HW129849   3.135   1.183   7.877 -1.7835  0.5409 -0.4513
 6130SOL    HW229850   2.996   1.162   7.921 -0.9148  0.1947  1.1014
 6131SOL     OW29851   0.432   1.613   2.578  0.2278 -0.4505 -0.3850
 6131SOL    HW129852   0.394   1.637   2.494  1.6452  0.0756 -0.8723
 6131SOL    HW229853   0.479   1.693   2.603  0.1705 -0.3825 -0.4964
 6132SOL     OW29854   2.073   3.126  10.895 -0.1843 -0.6792  0.4922
 6132SOL    HW129855   2.072   3.101  10.803 -1.2161 -1.2734  0.6581
 6132SOL    HW229856   1.990   3.174  10.901 -0.9503 -1.7959 -1.2514
 6133SOL     OW29857   4.472   1.342  17.036  0.0164 -0.7421 -0.1883
 6133SOL    HW129858   4.403   1.292  16.993 -0.8063 -1.1825  1.6285
 6133SOL    HW229859   4.517   1.276  17.089  0.7595 -1.3396 -1.5871
 6134SOL     OW29860   1.356   0.763  10.874  0.6236  0.3186 -0.0851
 6134SOL    HW129861   1.410   0.701  10.924  1.2636  0.1064 -1.0463
 6134SOL    HW229862   1.423   0.817  10.833 -0.3091  2.8289  1.6667
 6135SOL     OW29863   2.561   4.601   1.669  0.4184  0.1020 -0.2781
 6135SOL    HW129864   2.637   4.542   1.675 -0.3671 -1.0461 -1.6518
 6135SOL    HW229865   2.568   4.634   1.758 -3.6372  0.7197 -0.1977
 6136SOL     OW29866   2.645   3.030   6.870  0.1992 -0.0923 -0.2974
 6136SOL    HW129867   2.565   3.081   6.859 -1.0100 -1.8992  0.0436
 6136SOL    HW229868   2.670   3.019   6.778  1.6856 -0.8619  0.1930
 6137SOL     OW29869   0.403   0.249   7.641 -0.1636  0.0654  0.1792
 6137SOL    HW129870   0.414   0.207   7.726  0.5864  0.2776  0.1787
 6137SOL    HW229871   0.420   0.175   7.582 -1.4760 -0.1650  0.0752
 6138SOL     OW29872   4.677   2.703   0.986 -0.2648 -0.8556  0.3083
 6138SOL    HW129873   4.611   2.766   1.015 -0.1928  0.3982 -2.2548
 6138SOL    HW229874   4.718   2.741   0.908  0.3571  1.7152  1.8726
 6139SOL     OW29875   1.099   3.452   5.690 -0.4161  0.5487  0.2209
 6139SOL    HW129876   1.193   3.467   5.702 -0.4627  0.2133  1.0168
 6139SOL    HW229877   1.096   3.375   5.634  0.1291  0.9500 -0.3774
 6140SOL     OW29878   4.509   2.268   8.549 -0.3612  0.2400 -0.2440
 6140SOL    HW129879   4.502   2.357   8.514 -0.9566  0.5380  0.5976
 6140SOL    HW229880   4.478   2.293   8.636 -0.1506  2.4415 -0.7952
 6141SOL     OW29881   0.780   1.987   8.405 -0.6290 -0.1064  0.2073
 6141SOL    HW129882   0.727   2.026   8.474  0.2888  0.0481  0.8361
 6141SOL    HW229883   0.730   1.911   8.375 -1.3799  1.0195 -1.3382
 6142SOL     OW29884   3.294   1.131   2.668 -0.6408  0.2519 -0.3178
 6142SOL    HW129885   3.313   1.088   2.585  0.5040 -2.5187  1.3582
 6142SOL    HW229886   3.200   1.115   2.665 -1.0121  3.3139 -4.3274
 6143SOL     OW29887   3.010   4.524  12.165 -0.6969 -0.5390 -0.4079
 6143SOL    HW129888   3.037   4.606  12.205  1.6701 -0.8067 -1.4908
 6143SOL    HW229889   2.943   4.552  12.102  1.3370  0.4936 -2.0751
 6144SOL     OW29890   4.496   4.029  12.925 -0.8658 -0.2778  0.0175
 6144SOL    HW129891   4.499   4.024  12.830  0.3093  1.3964 -0.0215
 6144SOL    HW229892   4.417   4.084  12.934 -0.7697 -0.2274  0.5706
 6145SOL     OW29893   2.249   4.283   3.057  0.1521 -0.3587  0.6813
 6145SOL    HW129894   2.246   4.254   2.966  0.1596 -0.7858  0.8191
 6145SOL    HW229895   2.280   4.373   3.058 -0.9089  0.0324 -1.2112
 6146SOL     OW29896   2.267   0.469   4.014 -0.8666  0.3649  0.1763
 6146SOL    HW129897   2.264   0.384   4.059 -0.4056 -0.0920 -0.6564
 6146SOL    HW229898   2.225   0.457   3.929  0.2583  3.2264 -0.7535
 6147SOL     OW29899   3.173   4.210   6.587  0.0852 -0.1538  0.1628
 6147SOL    HW129900   3.146   4.282   6.531  1.4278 -0.9456 -1.5282
 6147SOL    HW229901   3.192   4.249   6.672 -0.3150  0.2056  0.0823
 6148SOL     OW29902   1.175   3.897   4.424 -0.2731 -0.3601  0.2863
 6148SOL    HW129903   1.087   3.903   4.461  0.4342  0.7321  1.8225
 6148SOL    HW229904   1.207   3.986   4.439 -0.3709  0.4071 -4.1038
 6149SOL     OW29905   2.386   2.944  17.269 -0.3472 -0.0502  0.0397
 6149SOL    HW129906   2.463   2.923  17.322 -1.1537  0.1336  1.2904
 6149SOL    HW229907   2.415   3.033  17.249  1.0667 -0.0506  2.0850
 6150SOL     OW29908   1.321   4.592  10.950 -0.8012 -0.0757  0.3045
 6150SOL    HW129909   1.265   4.542  11.009 -2.1910  0.7750 -0.3006
 6150SOL    HW229910   1.260   4.629  10.886  0.4124 -1.3062 -1.5942
 6151SOL     OW29911   2.593   2.569   8.886  0.3425  0.0028  0.2110
 6151SOL    HW129912   2.640   2.652   8.899  0.0037  0.1375  0.5981
 6151SOL    HW229913   2.653   2.516   8.938  0.3326  1.3958  1.6512
 6152SOL     OW29914   2.975   0.441   5.192 -0.0933  0.1374 -0.5157
 6152SOL    HW129915   3.035   0.415   5.122 -1.2310 -0.5942 -1.2329
 6152SOL    HW229916   3.024   0.514   5.228 -0.8564 -0.5769  1.9561
 6153SOL     OW29917   1.146   0.139   3.899 -0.1042 -0.5243  0.2608
 6153SOL    HW129918   1.074   0.097   3.946  0.0297 -0.0780  0.8670
 6153SOL    HW229919   1.139   0.228   3.934 -2.0660  0.2267 -2.0013
 6154SOL     OW29920   0.573   2.353   7.601 -0.4406 -0.6588  0.1492
 6154SOL    HW129921   0.577   2.448   7.616  0.5761 -0.8848  1.3332
 6154SOL    HW229922   0.478   2.341   7.598 -0.2111 -2.5276  0.1706
 6155SOL     OW29923   0.111   1.601  12.963 -0.3096 -0.2812  0.2289
 6155SOL    HW129924   0.044   1.620  12.897  0.5048 -0.4665 -0.6574
 6155SOL    HW229925   0.067   1.531  13.011 -0.9880 -1.2527 -1.8114
 6156SOL     OW29926   2.024   3.167   8.866 -0.4535 -0.5377  0.0595
 6156SOL    HW129927   2.024   3.175   8.962  0.8704 -0.0614  0.0265
 6156SOL    HW229928   2.083   3.093   8.857 -1.0260 -1.1538  1.4003
 6157SOL     OW29929   3.914   1.507  16.983  0.4862 -0.5634  0.2597
 6157SOL    HW129930   3.923   1.471  16.895 -0.0803 -0.0473 -0.0031
 6157SOL    HW229931   3.849   1.575  16.967 -0.7757 -1.6253  0.8576
 6158SOL     OW29932   0.460   1.427   1.936 -0.1168  0.4369 -0.3269
 6158SOL    HW129933   0.508   1.500   1.975  0.4049  1.6783 -3.2887
 6158SOL    HW229934   0.372   1.448   1.966 -0.1108 -0.3274  0.2152
 6159SOL     OW29935   1.025   4.485   1.258  0.5092  0.1612  0.2483
 6159SOL    HW129936   0.949   4.427   1.263 -0.4813  1.4173 -0.1130
 6159SOL    HW229937   0.982   4.569   1.246  0.4635  0.1351  0.2301
 6160SOL     OW29938   1.384   4.707   8.944  0.0694 -0.2871  0.2225
 6160SOL    HW129939   1.455   4.657   8.903  2.2017  2.2159  0.8416
 6160SOL    HW229940   1.432   0.033   9.012  0.1221 -0.1736  0.1081
 6161SOL     OW29941   3.908   1.139  11.453  0.2475  0.1843 -0.2581
 6161SOL    HW129942   3.852   1.096  11.518 -0.6520  1.2497 -0.3510
 6161SOL    HW229943   3.854   1.214  11.430  0.0295 -0.0076 -0.3690
 6162SOL     OW29944   1.769   3.029   6.931 -0.1204 -0.5081 -0.4610
 6162SOL    HW129945   1.847   3.080   6.914  0.4920 -1.2742  0.0373
 6162SOL    HW229946   1.757   2.983   6.847 -1.5606  0.5460 -0.8342
 6163SOL     OW29947   0.394   4.143   7.408  0.3344 -0.2651  0.4391
 6163SOL    HW129948   0.429   4.138   7.319 -0.7190 -0.8390  0.0597
 6163SOL    HW229949   0.385   4.239   7.408  0.7726 -0.2218  0.0708
 6164SOL     OW29950   0.200   2.333  12.438 -0.2803  0.3673  0.5703
 6164SOL    HW129951   0.285   2.351  12.398 -0.6907  0.9640 -0.0351
 6164SOL    HW229952   0.221   2.311  12.529 -2.4959  0.5106  1.1095
 6165SOL     OW29953   4.434   0.036   3.052  0.0672  0.1241  0.1744
 6165SOL    HW129954   4.478   0.002   2.974  0.5093  1.3125 -0.0976
 6165SOL    HW229955   4.464   4.690   3.114  0.1428  1.0715  1.1631
 6166SOL     OW29956   3.408   1.808   7.566  0.2298  0.2858  0.0188
 6166SOL    HW129957   3.468   1.800   7.640  0.1778 -1.3249 -0.0976
 6166SOL    HW229958   3.415   1.720   7.529 -2.5687  0.2774 -0.5188
 6167SOL     OW29959   4.431   2.528   2.870  0.0105 -0.4677 -0.3086
 6167SOL    HW129960   4.376   2.601   2.841  0.2049  0.5827  1.9360
 6167SOL    HW229961   4.492   2.511   2.798 -1.2251 -1.4577 -1.1132
 6168SOL     OW29962   4.709   2.413   7.346 -0.0876 -0.0478  0.0106
 6168SOL    HW129963   4.683   2.321   7.341  2.5282 -0.7452 -0.4013
 6168SOL    HW229964   0.020   2.438   7.259 -0.8548 -0.8793 -0.5100
 6169SOL     OW29965   2.103   1.586  11.498  0.1311 -0.2524 -0.0888
 6169SOL    HW129966   2.083   1.680  11.500 -0.8575 -0.4718  0.3622
 6169SOL    HW229967   2.069   1.559  11.583 -0.4740 -0.0545 -0.2646
 6170SOL     OW29968   0.550   1.890   9.173  0.3466 -0.6086 -0.0829
 6170SOL    HW129969   0.618   1.857   9.232  0.9707 -1.5750 -1.3410
 6170SOL    HW229970   0.540   1.813   9.117 -3.1309 -1.6677  2.0224
 6171SOL     OW29971   0.262   1.632   1.679  0.4249 -0.0550 -0.3694
 6171SOL    HW129972   0.260   1.595   1.768  1.7651 -0.8625 -0.6844
 6171SOL    HW229973   0.192   1.698   1.689 -0.3215 -1.1249  1.4999
 6172SOL     OW29974   3.396   4.628   0.938 -0.6893  0.3054 -0.4727
 6172SOL    HW129975   3.373   4.712   0.979 -2.1298 -1.4235  2.2262
 6172SOL    HW229976   3.322   4.571   0.958 -4.0239  3.8075 -2.8801
 6173SOL     OW29977   1.748   1.114   0.737  0.1141  0.1339 -0.1676
 6173SOL    HW129978   1.695   1.035   0.750 -1.7970  1.5034  0.5197
 6173SOL    HW229979   1.820   1.087   0.681  1.6218  3.2764  0.2548
 6174SOL     OW29980   1.431   0.628   3.238 -0.2696 -0.2803 -0.2243
 6174SOL    HW129981   1.347   0.674   3.228 -1.4879 -2.2919  0.9934
 6174SOL    HW229982   1.402   0.557   3.295 -2.5573  1.4222  0.7298
 6175SOL     OW29983   3.741   3.584   3.391  0.2061 -0.0574  0.8408
 6175SOL    HW129984   3.789   3.665   3.370  1.1025 -1.0884 -1.1391
 6175SOL    HW229985   3.652   3.598   3.360  0.8053  1.3122 -0.2975
 6176SOL     OW29986   4.670   1.616   1.424  0.5173 -0.5282 -0.0897
 6176SOL    HW129987   0.010   1.667   1.370 -0.3440  0.2766 -0.2984
 6176SOL    HW229988   0.007   1.545   1.450  1.6695 -0.2037 -1.7344
 6177SOL     OW29989   2.570   2.413   7.893  0.5538  0.1027  0.0019
 6177SOL    HW129990   2.626   2.428   7.817 -0.4394  0.1743 -0.7090
 6177SOL    HW229991   2.501   2.360   7.853  0.9130 -0.5050  0.1887
 6178SOL     OW29992   2.856   1.670   0.898 -0.6827  0.1465 -0.3359
 6178SOL    HW129993   2.922   1.600   0.898  1.1012  1.8279 -0.7809
 6178SOL    HW229994   2.915   1.745   0.899 -0.2797 -0.1741 -0.2591
 6179SOL     OW29995   1.839   3.130   5.865 -0.3513 -0.0504  0.2816
 6179SOL    HW129996   1.930   3.108   5.848 -0.6341  0.0886 -1.4399
 6179SOL    HW229997   1.843   3.137   5.960 -0.6675  1.6221  0.1743
 6180SOL     OW29998   4.303   0.262   9.035 -0.4009 -0.1555 -0.5164
 6180SOL    HW129999   4.316   0.335   9.095  0.2981 -0.7813  0.0965
 6180SOL    HW230000   4.223   0.281   8.985 -0.3041  0.6210 -0.3668
 6181SOL     OW30001   4.322   2.771  15.590 -0.4392  0.4355  0.1688
 6181SOL    HW130002   4.247   2.713  15.601 -0.3460  0.3692  0.4603
 6181SOL    HW230003   4.307   2.797  15.499 -0.2220 -1.2303 -0.3392
 6182SOL     OW30004   3.598   0.995   2.850 -0.2501  0.3747 -0.1586
 6182SOL    HW130005   3.576   1.054   2.777  0.1476 -0.8937 -1.3042
 6182SOL    HW230006   3.657   0.935   2.805  1.9926  2.8267 -0.4874
 6183SOL     OW30007   1.098   2.609  10.232 -0.3548  0.7978  0.0174
 6183SOL    HW130008   1.184   2.575  10.255 -0.8014  0.1928  0.8136
 6183SOL    HW230009   1.104   2.628  10.139  1.4406 -2.0136 -0.4299
 6184SOL     OW30010   3.577   2.788  15.127  0.7907  0.1698 -0.8707
 6184SOL    HW130011   3.607   2.814  15.040 -0.9791  2.2528 -0.8507
 6184SOL    HW230012   3.483   2.796  15.115  0.7428  0.5053 -0.2790
 6185SOL     OW30013   0.264   3.923  17.136 -0.4658 -0.2108 -0.0555
 6185SOL    HW130014   0.281   3.829  17.124 -0.5761 -0.3375  0.7792
 6185SOL    HW230015   0.353   3.958  17.139  0.7007 -3.1371 -0.1679
 6186SOL     OW30016   0.234   2.213   9.183 -0.2869  0.8154  0.2327
 6186SOL    HW130017   0.236   2.249   9.094  0.6846  2.4862  0.9155
 6186SOL    HW230018   0.142   2.195   9.202 -0.8024  2.7294 -0.4641
 6187SOL     OW30019   0.365   1.806   8.380  0.5473  0.2272  0.3526
 6187SOL    HW130020   0.426   1.843   8.317 -1.2820 -0.3832 -1.7610
 6187SOL    HW230021   0.369   1.880   8.441 -0.0484  0.0428  0.6262
 6188SOL     OW30022   2.854   2.048   4.871 -0.9894 -0.0369  0.5144
 6188SOL    HW130023   2.928   1.991   4.891  1.7962  3.2834 -0.3721
 6188SOL    HW230024   2.787   2.015   4.932 -0.2385  2.3622  2.6408
 6189SOL     OW30025   3.659   1.363   6.496  0.2379 -0.4919 -0.6355
 6189SOL    HW130026   3.715   1.429   6.538  1.3432 -1.1327 -1.1295
 6189SOL    HW230027   3.643   1.399   6.409 -1.0787 -0.3901 -0.3526
 6190SOL     OW30028   4.021   1.427  10.143  0.0032 -0.3557  0.0875
 6190SOL    HW130029   4.071   1.481  10.082 -1.6917 -0.6728 -1.5882
 6190SOL    HW230030   4.097   1.382  10.181  1.3313  1.3276 -0.5611
 6191SOL     OW30031   1.835   4.447   8.853  0.0502 -0.5895 -0.2226
 6191SOL    HW130032   1.854   4.467   8.945 -1.4373  3.3829 -0.7442
 6191SOL    HW230033   1.921   4.462   8.815  0.1914  0.8825  0.6712
 6192SOL     OW30034   4.553   3.332   4.494 -0.1759  0.2784 -0.2630
 6192SOL    HW130035   4.504   3.261   4.536 -2.6741  1.3590 -1.3037
 6192SOL    HW230036   4.556   3.392   4.569  0.8888 -0.6482  0.4289
 6193SOL     OW30037   2.880   4.477  17.026 -0.6517 -0.2627 -0.0300
 6193SOL    HW130038   2.801   4.431  17.053 -2.6631  3.0644 -0.2560
 6193SOL    HW230039   2.864   4.478  16.931  0.0602  0.5863 -0.1371
 6194SOL     OW30040   1.661   1.205  11.996  0.1612 -0.3624  0.5314
 6194SOL    HW130041   1.711   1.146  12.053 -0.0388 -1.1814 -0.1496
 6194SOL    HW230042   1.573   1.168  12.001  0.5903 -1.6670 -1.7610
 6195SOL     OW30043   1.709   0.692   3.620  0.5554  0.0296 -0.2381
 6195SOL    HW130044   1.747   0.735   3.544  0.1192  1.5886  0.4272
 6195SOL    HW230045   1.726   0.765   3.679  2.8897 -1.4081  0.8917
 6196SOL     OW30046   4.397   0.036  14.360 -0.2662 -0.4507 -0.5564
 6196SOL    HW130047   4.483   0.075  14.344  0.6688 -2.4377 -0.4392
 6196SOL    HW230048   4.426   4.668  14.380  1.0209  0.3712  1.2330
 6197SOL     OW30049   1.471   3.945   8.157 -0.2547 -0.5626 -0.1744
 6197SOL    HW130050   1.379   3.962   8.137  0.3733  0.6286 -2.0529
 6197SOL    HW230051   1.478   3.855   8.124 -2.2652 -0.6308 -0.3794
 6198SOL     OW30052   2.941   1.006  10.901 -0.2868  0.7090 -0.0543
 6198SOL    HW130053   2.888   1.009  10.981  0.0000  0.4445  0.1510
 6198SOL    HW230054   2.876   0.975  10.839 -1.4205  1.4239  0.7777
 6199SOL     OW30055   3.344   2.781   6.343  0.1564 -0.3722  0.1268
 6199SOL    HW130056   3.437   2.773   6.363  0.0784 -3.6505 -0.8483
 6199SOL    HW230057   3.305   2.817   6.422 -1.2448 -3.7623  1.0076
 6200SOL     OW30058   2.057   2.613   7.717 -0.6199  0.4125 -0.2994
 6200SOL    HW130059   2.014   2.607   7.802 -1.0486  1.9743 -0.4027
 6200SOL    HW230060   2.002   2.683   7.682 -1.5359 -0.3103 -0.3173
 6201SOL     OW30061   3.051   3.316   3.183 -0.2080 -0.0833  0.1611
 6201SOL    HW130062   3.012   3.263   3.253  1.4303 -0.7609  0.5635
 6201SOL    HW230063   3.078   3.247   3.123 -2.4087 -2.2104  1.6112
 6202SOL     OW30064   2.305   0.005   8.318  0.1447 -0.1399 -0.1225
 6202SOL    HW130065   2.279   0.037   8.404  0.4477 -2.8720  0.9951
 6202SOL    HW230066   2.359   4.650   8.341  2.1309  1.4268  0.3481
 6203SOL     OW30067   2.883   3.378   5.945  0.0129  0.1389 -0.2432
 6203SOL    HW130068   2.864   3.443   5.878  0.1957  0.3693 -0.0684
 6203SOL    HW230069   2.962   3.332   5.917 -1.1680 -1.0936 -1.5477
 6204SOL     OW30070   3.834   1.272   9.445 -0.2269 -0.5616 -0.2981
 6204SOL    HW130071   3.850   1.183   9.411 -2.0366 -0.7956 -0.5485
 6204SOL    HW230072   3.857   1.257   9.536  1.6676 -1.0664 -0.8482
 6205SOL     OW30073   4.692   2.019   3.109  0.4132 -0.1462 -0.0593
 6205SOL    HW130074   4.719   2.096   3.059 -1.8647  1.0659  0.5439
 6205SOL    HW230075   4.685   1.957   3.037  0.4040 -1.3502  0.9659
 6206SOL     OW30076   3.813   0.356  12.289  0.0676 -0.0395 -0.2221
 6206SOL    HW130077   3.742   0.316  12.239 -0.1181  2.8966 -2.2644
 6206SOL    HW230078   3.885   0.294  12.277 -0.4213 -0.7165  0.2790
 6207SOL     OW30079   1.842   2.723   7.378  0.1616 -0.7504  0.3502
 6207SOL    HW130080   1.881   2.746   7.462 -1.7496  2.2911  0.4189
 6207SOL    HW230081   1.886   2.641   7.358  0.9289  0.0616 -1.2736
 6208SOL     OW30082   2.695   3.898   8.432  0.3901 -0.5044  0.3319
 6208SOL    HW130083   2.694   3.803   8.419 -0.7991 -0.8789  3.2219
 6208SOL    HW230084   2.614   3.922   8.388  1.8871  2.7255 -0.6992
 6209SOL     OW30085   0.865   3.957   6.328  0.4960  0.8812  0.8104
 6209SOL    HW130086   0.843   3.968   6.235 -0.6000  2.3057  1.2562
 6209SOL    HW230087   0.961   3.949   6.327  0.6514  2.9084  0.1348
 6210SOL     OW30088   3.775   2.163   4.241  0.1910 -0.6511  0.4236
 6210SOL    HW130089   3.696   2.162   4.188  0.1613  0.4668  0.4345
 6210SOL    HW230090   3.795   2.257   4.239  1.2993 -0.8889  0.2712
 6211SOL     OW30091   0.602   2.221   0.831  0.5505 -0.4673 -0.2990
 6211SOL    HW130092   0.567   2.170   0.758 -0.8974 -0.7696  0.5982
 6211SOL    HW230093   0.679   2.169   0.855  1.4773  0.7734 -0.5862
 6212SOL     OW30094   1.775   0.196   7.607 -0.2856  0.1770  0.3809
 6212SOL    HW130095   1.796   0.105   7.585 -1.6193 -0.1910  0.6486
 6212SOL    HW230096   1.690   0.182   7.649  0.1582 -0.6769  0.9836
 6213SOL     OW30097   3.734   0.193   4.871 -0.6923 -0.0685  0.1181
 6213SOL    HW130098   3.814   0.221   4.917 -0.9794  1.0562 -0.0796
 6213SOL    HW230099   3.687   0.274   4.887 -0.4958  0.6338 -2.9678
 6214SOL     OW30100   3.451   4.514   5.495  0.3998  0.1893  0.0325
 6214SOL    HW130101   3.491   4.438   5.537  2.2164 -0.1608 -2.3204
 6214SOL    HW230102   3.389   4.475   5.433 -1.1958  0.5007  1.4365
 6215SOL     OW30103   2.041   3.150  10.617 -0.1692 -0.0977 -0.4253
 6215SOL    HW130104   1.948   3.143  10.595 -0.2608  0.2737 -0.1579
 6215SOL    HW230105   2.078   3.079  10.566 -2.0195 -1.0766 -0.3974
 6216SOL     OW30106   4.504   0.751   3.381 -0.2708  0.1145  1.0665
 6216SOL    HW130107   4.491   0.657   3.393 -0.5214  0.2351  1.7270
 6216SOL    HW230108   4.543   0.755   3.293  2.1649  0.5193  2.1510
 6217SOL     OW30109   3.277   2.008   1.449 -0.1355 -0.3112  0.5542
 6217SOL    HW130110   3.277   1.961   1.532 -1.4663 -2.7289 -0.8469
 6217SOL    HW230111   3.249   2.095   1.477  0.6146 -0.0217  0.4152
 6218SOL     OW30112   0.224   1.383   4.149  0.3630 -0.0527  0.3216
 6218SOL    HW130113   0.255   1.301   4.111  1.8852  0.7739 -0.2460
 6218SOL    HW230114   0.159   1.365   4.216 -1.9864  0.6629 -1.7727
 6219SOL     OW30115   4.435   1.965   8.009 -0.2028  0.0204  0.3364
 6219SOL    HW130116   4.465   1.876   7.993  0.9041  0.4098  0.2701
 6219SOL    HW230117   4.421   1.961   8.104 -0.7730  0.2568  0.2664
 6220SOL     OW30118   2.665   3.605   9.840 -0.3198 -0.2980  0.5904
 6220SOL    HW130119   2.609   3.567   9.908 -1.1434 -0.3678 -0.1314
 6220SOL    HW230120   2.677   3.691   9.882  2.0241  0.2798 -1.2672
 6221SOL     OW30121   4.654   3.787   7.214  0.5616 -0.0443  0.8405
 6221SOL    HW130122   4.678   3.713   7.158  0.5874 -0.3631  1.2699
 6221SOL    HW230123   4.579   3.827   7.170  2.4784  0.2917 -2.0477
 6222SOL     OW30124   3.272   1.752  17.064  0.1112 -0.3386  0.0307
 6222SOL    HW130125   3.219   1.798  16.999 -0.0618  0.6838  0.8996
 6222SOL    HW230126   3.353   1.762  17.014  1.2556  0.6158  2.0828
 6223SOL     OW30127   0.117   1.688  10.908  0.3247  0.1733  0.4958
 6223SOL    HW130128   0.144   1.703  10.999  0.4872 -2.8206  0.9344
 6223SOL    HW230129   0.022   1.687  10.910  0.3709 -0.3303  2.8568
 6224SOL     OW30130   1.946   2.603   4.328  0.0883  0.3723 -0.1070
 6224SOL    HW130131   2.034   2.594   4.293  0.4711 -0.6373  1.1180
 6224SOL    HW230132   1.960   2.678   4.386  2.5078 -0.1830 -0.0069
 6225SOL     OW30133   1.121   3.136  16.711  0.1688 -0.0002 -0.1616
 6225SOL    HW130134   1.092   3.185  16.634 -0.7053  0.0918  0.2238
 6225SOL    HW230135   1.093   3.199  16.778 -1.2354  0.6719 -1.3944
 6226SOL     OW30136   0.503   1.307   8.962 -0.2494  0.3137  0.0401
 6226SOL    HW130137   0.480   1.276   9.050  0.4078 -0.7277 -0.1538
 6226SOL    HW230138   0.588   1.268   8.939 -0.2665  1.0446 -1.2910
 6227SOL     OW30139   2.104   0.396  14.013  0.4893 -0.4998 -0.0099
 6227SOL    HW130140   2.087   0.444  14.094 -0.6427  0.4695 -0.8349
 6227SOL    HW230141   2.058   0.314  14.030 -0.6135  0.3914  1.3571
 6228SOL     OW30142   1.239   1.762   7.803 -0.1199  0.1967  0.3880
 6228SOL    HW130143   1.316   1.818   7.792 -1.0693  1.7648  1.6849
 6228SOL    HW230144   1.222   1.798   7.890 -5.0061 -0.8934 -0.1514
 6229SOL     OW30145   0.916   3.548   4.402 -0.2663 -0.2379 -0.3260
 6229SOL    HW130146   0.955   3.599   4.472  0.1612 -1.5708  0.4098
 6229SOL    HW230147   0.826   3.552   4.436  0.4978 -2.5111  2.0001
 6230SOL     OW30148   4.487   0.926   5.211  0.3351 -0.2800 -0.0116
 6230SOL    HW130149   4.453   0.898   5.296  1.0084  1.1320  0.7178
 6230SOL    HW230150   4.406   0.950   5.167 -0.0637 -2.6470 -0.5539
 6231SOL     OW30151   3.095   3.092   6.860 -0.3388 -0.3969 -0.4730
 6231SOL    HW130152   3.181   3.135   6.860 -0.6545  0.2362  0.4153
 6231SOL    HW230153   3.046   3.144   6.796 -0.3898 -0.7603 -0.7313
 6232SOL     OW30154   3.158   1.244   4.717 -0.1413  0.0932  0.1028
 6232SOL    HW130155   3.114   1.279   4.639 -3.2292 -1.1096  1.3012
 6232SOL    HW230156   3.204   1.319   4.752  1.2299 -1.4162  1.5438
 6233SOL     OW30157   3.616   4.486  12.823 -0.1369  0.3498  0.7706
 6233SOL    HW130158   3.601   4.564  12.771  0.1762 -0.9679 -1.2754
 6233SOL    HW230159   3.634   4.421  12.755 -1.6041  0.2056  0.5315
 6234SOL     OW30160   3.352   4.175   3.662  0.1142 -0.0450 -0.1701
 6234SOL    HW130161   3.370   4.083   3.646  0.1066 -0.1929  0.6996
 6234SOL    HW230162   3.314   4.198   3.577  2.6151  0.9582 -1.0123
 6235SOL     OW30163   3.984   3.937  15.540 -0.5663  0.0410  0.1540
 6235SOL    HW130164   4.015   4.012  15.489 -1.2689 -1.6606 -2.7759
 6235SOL    HW230165   3.928   3.893  15.476 -1.3062  1.0961  0.0776
 6236SOL     OW30166   1.266   4.291   1.498 -0.6208  0.2576 -0.0883
 6236SOL    HW130167   1.333   4.271   1.564 -0.0071  0.3923 -0.6644
 6236SOL    HW230168   1.228   4.205   1.478  2.5753 -0.7135 -2.1325
 6237SOL     OW30169   3.563   1.716   7.771  0.1796  0.3816 -0.0687
 6237SOL    HW130170   3.620   1.640   7.760  0.2822  0.4804 -0.2235
 6237SOL    HW230171   3.557   1.723   7.867 -0.3150 -1.8638  0.0610
 6238SOL     OW30172   2.491   3.559   2.433  0.0547 -0.0106 -0.2507
 6238SOL    HW130173   2.551   3.633   2.419 -0.0783  0.0687 -0.4093
 6238SOL    HW230174   2.479   3.568   2.527 -1.6507 -0.8820 -0.3975
 6239SOL     OW30175   3.647   1.050  15.645 -0.8216 -0.3250 -0.4145
 6239SOL    HW130176   3.553   1.034  15.644 -0.6066 -1.5982  0.3472
 6239SOL    HW230177   3.663   1.142  15.624 -0.3217 -0.4510 -0.5734
 6240SOL     OW30178   2.419   1.820   8.561 -0.0512  0.3113  0.9789
 6240SOL    HW130179   2.367   1.890   8.600  1.0244  2.1459 -0.8664
 6240SOL    HW230180   2.490   1.815   8.624  1.1285  1.0020 -0.2979
 6241SOL     OW30181   1.078   1.451   1.828 -0.9488  0.2817  0.2020
 6241SOL    HW130182   1.033   1.518   1.776  0.9933  0.8195 -0.8069
 6241SOL    HW230183   1.089   1.390   1.754 -0.7195 -0.9107  1.2297
 6242SOL     OW30184   3.260   3.172   7.320  0.5339 -0.2647 -0.5310
 6242SOL    HW130185   3.197   3.200   7.254  1.3634  0.0700 -1.1827
 6242SOL    HW230186   3.330   3.237   7.307 -0.2556  0.8119  0.5760
 6243SOL     OW30187   3.738   4.228   5.869  0.0031  0.7810 -0.3560
 6243SOL    HW130188   3.802   4.298   5.880  0.0778  0.5120  0.8848
 6243SOL    HW230189   3.787   4.167   5.814 -1.8058 -1.6114  0.6728
 6244SOL     OW30190   2.147   1.210   8.943 -0.5790 -1.3290 -0.1043
 6244SOL    HW130191   2.111   1.197   9.031  1.4952 -1.4746  0.7105
 6244SOL    HW230192   2.080   1.157   8.899 -1.6558 -0.7182  0.7920
 6245SOL     OW30193   2.420   3.155   4.870 -0.9656  0.2049  0.3096
 6245SOL    HW130194   2.369   3.215   4.924 -0.2503  2.6104 -1.7308
 6245SOL    HW230195   2.507   3.165   4.908  0.9161  0.6656 -4.1464
 6246SOL     OW30196   0.067   3.888   9.547  0.2108 -0.0921 -0.0334
 6246SOL    HW130197   4.709   3.937   9.573  0.7203  0.3116  0.7540
 6246SOL    HW230198   0.134   3.953   9.565  0.7288 -0.7490  0.4129
 6247SOL     OW30199   1.601   3.451   3.945 -0.7669 -0.8557  0.0451
 6247SOL    HW130200   1.585   3.386   3.877 -1.7280  0.5952 -1.1120
 6247SOL    HW230201   1.693   3.450   3.971 -0.8281 -1.4831  0.2420
 6248SOL     OW30202   1.630   1.040  10.519  0.2336 -0.1613 -0.7099
 6248SOL    HW130203   1.704   1.044  10.580  1.5833 -1.1916 -2.2867
 6248SOL    HW230204   1.647   0.959  10.471 -2.0256 -0.5551 -0.8637
 6249SOL     OW30205   2.365   4.395   6.665  0.0735  0.9568 -0.4075
 6249SOL    HW130206   2.411   4.455   6.607 -0.4370  0.0453 -1.7537
 6249SOL    HW230207   2.357   4.448   6.744  1.7221  1.6781 -0.7217
 6250SOL     OW30208   0.343   3.888  16.559 -0.0156 -0.0018  0.1185
 6250SOL    HW130209   0.414   3.836  16.597  1.3483  1.6896 -0.0872
 6250SOL    HW230210   0.403   3.950  16.517 -2.3576  0.1207 -3.0088
 6251SOL     OW30211   1.579   3.691   7.966  0.4813  0.5964  0.2268
 6251SOL    HW130212   1.516   3.623   7.989 -0.9010  3.2642  4.1565
 6251SOL    HW230213   1.548   3.695   7.876 -0.5295 -0.7387  0.5097
 6252SOL     OW30214   4.210   2.489  15.388 -0.1704 -0.2349 -0.3101
 6252SOL    HW130215   4.155   2.515  15.314 -3.1010 -0.7763  1.6785
 6252SOL    HW230216   4.182   2.558  15.449 -0.2847  0.4121 -1.0891
 6253SOL     OW30217   4.587   3.510   6.656  0.0191  0.0873 -0.3519
 6253SOL    HW130218   4.555   3.497   6.745 -1.2647  3.0620 -0.3797
 6253SOL    HW230219   4.566   3.432   6.605 -0.8938  0.1341 -0.0347
 6254SOL     OW30220   3.354   4.115   6.954  0.4957 -0.1296 -0.0496
 6254SOL    HW130221   3.444   4.082   6.946 -1.1586 -4.4333 -1.2164
 6254SOL    HW230222   3.311   4.048   6.902  3.2891 -2.1440  0.1981
 6255SOL     OW30223   1.818   1.331   9.624 -0.1442 -0.1978  0.1252
 6255SOL    HW130224   1.858   1.280   9.694 -0.0813 -0.9718 -0.4790
 6255SOL    HW230225   1.895   1.386   9.608 -0.7990  0.1835 -1.6702
 6256SOL     OW30226   2.116   2.439   8.708 -0.0082 -0.3031  0.1348
 6256SOL    HW130227   2.171   2.515   8.726  0.9016 -1.3614  1.9899
 6256SOL    HW230228   2.033   2.476   8.737  0.3945 -0.8037  1.9670
 6257SOL     OW30229   3.541   0.489   3.653 -0.8132 -0.5111  0.2433
 6257SOL    HW130230   3.459   0.519   3.613 -1.5535 -1.9056  0.6929
 6257SOL    HW230231   3.529   0.394   3.650 -1.2298 -0.4723  0.6974
 6258SOL     OW30232   3.879   1.600   9.886  0.0615 -0.3963 -0.0311
 6258SOL    HW130233   3.910   1.689   9.898  0.0161 -0.2444 -1.0479
 6258SOL    HW230234   3.893   1.569   9.976 -0.4951 -0.9135 -0.1193
 6259SOL     OW30235   0.599   0.580   7.056 -0.2257  0.2055  0.3431
 6259SOL    HW130236   0.692   0.564   7.070 -0.0626  0.5043 -0.4323
 6259SOL    HW230237   0.568   0.537   7.136 -1.3677 -0.8477 -0.6706
 6260SOL     OW30238   0.481   1.866   9.470  0.0063  0.2248  0.2415
 6260SOL    HW130239   0.495   1.910   9.553 -1.8755  0.7527  0.2644
 6260SOL    HW230240   0.572   1.863   9.440 -0.4239 -0.2675 -1.0134
 6261SOL     OW30241   1.477   3.269   4.263  0.7974  0.2346  0.0737
 6261SOL    HW130242   1.435   3.201   4.211  2.5646  0.0820 -1.1263
 6261SOL    HW230243   1.428   3.347   4.238  0.5238 -0.4406 -1.4781
 6262SOL     OW30244   0.224   3.905   6.986  0.0595 -0.1214 -0.4002
 6262SOL    HW130245   0.200   3.821   7.025 -1.3932 -0.2506 -1.5702
 6262SOL    HW230246   0.140   3.948   7.002 -0.4862 -2.2593  2.4170
 6263SOL     OW30247   2.503   3.659   8.674  0.1947  0.2190 -0.0903
 6263SOL    HW130248   2.571   3.611   8.627 -0.6724 -0.3699 -0.7509
 6263SOL    HW230249   2.473   3.590   8.732 -2.8631  1.7704  0.1891
 6264SOL     OW30250   4.411   0.850  11.326  0.3083  0.1136  0.3263
 6264SOL    HW130251   4.452   0.775  11.370 -0.9136 -0.0778  1.1469
 6264SOL    HW230252   4.458   0.926  11.360 -1.2176  0.1322  2.4436
 6265SOL     OW30253   1.058   2.741  17.542 -0.0906  0.4279 -0.1747
 6265SOL    HW130254   1.005   2.662  17.533  2.1992 -0.8697 -2.3300
 6265SOL    HW230255   1.106   2.732  17.624 -1.7981 -1.1485  0.6546
 6266SOL     OW30256   3.159   0.221  10.320  0.2091 -0.5313  0.0416
 6266SOL    HW130257   3.245   0.180  10.318  0.3736 -0.1854 -0.0191
 6266SOL    HW230258   3.128   0.184  10.237  0.2490  0.5674 -0.4705
 6267SOL     OW30259   2.121   1.879   8.384  0.5357 -0.2810  0.1018
 6267SOL    HW130260   2.098   1.961   8.341  0.1928 -1.3187 -1.7049
 6267SOL    HW230261   2.167   1.913   8.461  2.0651 -1.1664 -0.4186
 6268SOL     OW30262   3.026   1.370   5.591  1.0215 -0.1775  0.1524
 6268SOL    HW130263   3.044   1.346   5.681  0.9020 -0.3228  0.1363
 6268SOL    HW230264   3.116   1.398   5.572  1.7559 -1.2539  2.1756
 6269SOL     OW30265   4.465   3.356   5.352 -0.1815  0.2523 -0.1208
 6269SOL    HW130266   4.536   3.391   5.299 -0.1770 -0.5274 -0.6358
 6269SOL    HW230267   4.452   3.431   5.410 -1.8630  0.5110 -0.8408
 6270SOL     OW30268   1.384   0.570   3.904 -0.0889  0.1898  0.3049
 6270SOL    HW130269   1.456   0.633   3.906  0.2049 -0.1065 -0.9476
 6270SOL    HW230270   1.323   0.630   3.861  0.3628 -0.0278 -0.6526
 6271SOL     OW30271   0.938   1.575  11.649  0.3773 -0.0476  0.0013
 6271SOL    HW130272   0.892   1.496  11.678 -1.8698  0.8200 -1.2308
 6271SOL    HW230273   0.884   1.641  11.691 -1.0477  0.9476 -3.4152
 6272SOL     OW30274   2.122   1.792  13.062  0.3914  0.4572 -0.1300
 6272SOL    HW130275   2.098   1.883  13.077 -1.0919 -0.6038  3.9807
 6272SOL    HW230276   2.213   1.799  13.035  0.8546  0.8926  1.5611
 6273SOL     OW30277   4.148   1.860  10.975  0.3352  0.3963  0.1965
 6273SOL    HW130278   4.183   1.942  10.940 -1.8887  1.0218 -0.6054
 6273SOL    HW230279   4.172   1.793  10.911  0.8570  1.2515 -0.4915
 6274SOL     OW30280   2.935   0.167  16.381 -0.0418 -0.2006  0.4583
 6274SOL    HW130281   2.935   0.205  16.293  0.5671 -0.2002  0.4588
 6274SOL    HW230282   2.862   0.221  16.411 -0.4020 -0.6626  0.4123
 6275SOL     OW30283   2.867   0.199   2.878 -0.4827 -0.1540  0.7198
 6275SOL    HW130284   2.931   0.137   2.911 -1.1544 -1.3955 -0.3324
 6275SOL    HW230285   2.918   0.266   2.833 -1.4271 -0.0258 -0.1533
 6276SOL     OW30286   1.185   3.618   6.335 -0.1219 -0.4635  0.3025
 6276SOL    HW130287   1.202   3.614   6.429  1.9280 -1.1428 -0.1130
 6276SOL    HW230288   1.237   3.548   6.295 -0.2196 -0.7028  0.5952
 6277SOL     OW30289   0.933   0.250   1.096 -0.3147  0.0231  0.3223
 6277SOL    HW130290   1.020   0.224   1.067 -0.6132  1.3102 -1.7353
 6277SOL    HW230291   0.926   0.188   1.169 -1.7663  0.8498  0.8740
 6278SOL     OW30292   0.577   0.078   4.197  1.0072  0.1702  0.0208
 6278SOL    HW130293   0.592   0.140   4.126 -2.1719  1.2232  0.2515
 6278SOL    HW230294   0.492   0.101   4.235  1.5748  1.8810  0.2401
 6279SOL     OW30295   4.145   3.200   4.630  0.1488  0.1117  0.8617
 6279SOL    HW130296   4.092   3.123   4.650 -0.6459  0.3827 -0.2113
 6279SOL    HW230297   4.229   3.159   4.611  0.0563  1.4805 -2.6014
 6280SOL     OW30298   4.615   2.727   4.195 -0.0116  0.3745  0.2402
 6280SOL    HW130299   4.588   2.797   4.135  1.1620  2.1977  1.8617
 6280SOL    HW230300   4.619   2.657   4.129 -2.5157 -0.9657  1.5519
 6281SOL     OW30301   4.454   1.955   4.579  0.2573  0.1825 -0.7243
 6281SOL    HW130302   4.491   1.874   4.544  0.9447  0.6840 -1.1542
 6281SOL    HW230303   4.523   1.991   4.636 -2.0346  0.5441  1.8017
 6282SOL     OW30304   0.499   3.433  12.356 -0.0504 -0.2380 -0.6555
 6282SOL    HW130305   0.539   3.493  12.293 -1.0456 -0.8760 -1.8822
 6282SOL    HW230306   0.417   3.411  12.312  0.8486  0.0080 -2.4778
 6283SOL     OW30307   1.436   2.462   0.324 -0.5348  0.4105 -0.2592
 6283SOL    HW130308   1.490   2.399   0.276 -0.2994  0.1785  0.3130
 6283SOL    HW230309   1.448   2.540   0.270 -0.0819 -0.9704 -2.1862
 6284SOL     OW30310   1.452   1.349   0.093 -0.1287 -0.0436 -0.3913
 6284SOL    HW130311   1.476   1.399   0.171  1.1405  0.9287 -1.3995
 6284SOL    HW230312   1.371   1.392   0.066 -1.0920 -2.2915 -1.0459
 6285SOL     OW30313   3.676   1.693  10.809  0.6536  0.1123 -0.4465
 6285SOL    HW130314   3.591   1.728  10.837  0.9300  0.6152 -0.2278
 6285SOL    HW230315   3.731   1.708  10.885  0.7468  0.9091 -0.6654
 6286SOL     OW30316   0.606   1.090   5.090 -0.8487 -0.3286 -0.3891
 6286SOL    HW130317   0.599   1.018   5.153  0.9935 -1.7811 -1.8507
 6286SOL    HW230318   0.595   1.037   5.011  0.8305 -1.3028  0.0243
 6287SOL     OW30319   4.155   1.538   4.508  0.2761  0.9455 -0.1105
 6287SOL    HW130320   4.141   1.480   4.583 -0.0733  0.2581 -0.7094
 6287SOL    HW230321   4.187   1.483   4.437  0.5715  0.8371  0.1055
 6288SOL     OW30322   1.427   1.543   9.375 -0.9650 -0.5041 -0.0297
 6288SOL    HW130323   1.498   1.558   9.312 -0.1876  0.4901  1.0818
 6288SOL    HW230324   1.478   1.519   9.452 -1.2581  0.3629  0.4357
 6289SOL     OW30325   3.189   1.737   6.902 -0.2765 -0.0554  0.3466
 6289SOL    HW130326   3.102   1.713   6.871 -1.4350  2.1076  1.9073
 6289SOL    HW230327   3.251   1.732   6.829  2.1395  1.3597  2.3214
 6290SOL     OW30328   0.488   3.642   4.306  0.3154  0.2468  0.1033
 6290SOL    HW130329   0.495   3.723   4.256  1.5668 -2.0406 -3.4529
 6290SOL    HW230330   0.543   3.578   4.260  0.1607  1.0499 -1.2150
 6291SOL     OW30331   1.883   2.170   6.866  0.2048  0.1099 -0.2533
 6291SOL    HW130332   1.831   2.144   6.941  2.0622 -0.6290  0.7844
 6291SOL    HW230333   1.967   2.191   6.907  1.2016 -1.9494 -1.1994
 6292SOL     OW30334   1.510   1.151   4.691  0.1705 -0.4818  0.6167
 6292SOL    HW130335   1.601   1.132   4.670  0.3658 -0.4442  1.4501
 6292SOL    HW230336   1.471   1.118   4.610  1.7303 -0.9264  0.0531
 6293SOL     OW30337   2.944   0.730   3.976 -0.5364 -0.0833 -0.5716
 6293SOL    HW130338   2.912   0.718   3.887 -2.7414 -0.6404  0.2996
 6293SOL    HW230339   2.980   0.642   3.988 -0.0755  0.3669  1.3590
 6294SOL     OW30340   0.198   2.391  14.132  0.2940  0.0136 -0.2170
 6294SOL    HW130341   0.156   2.474  14.107 -2.6099 -1.0512  1.1454
 6294SOL    HW230342   0.166   2.334  14.062  1.7762 -0.6668 -0.3418
 6295SOL     OW30343   4.316   4.457   3.788  0.1418 -0.6097  0.6547
 6295SOL    HW130344   4.386   4.394   3.809  0.8700  0.1207  0.4238
 6295SOL    HW230345   4.267   4.464   3.870 -0.4751 -0.9693  0.3097
 6296SOL     OW30346   1.876   2.441   8.815 -0.5703  0.1470  0.1087
 6296SOL    HW130347   1.824   2.376   8.769 -1.2207  0.0106  1.0393
 6296SOL    HW230348   1.811   2.469   8.879 -1.2770 -2.1143  0.3769
 6297SOL     OW30349   0.115   4.535   4.047 -0.0386  0.0735  0.3991
 6297SOL    HW130350   0.206   4.545   4.020  0.6291 -0.9667  2.3510
 6297SOL    HW230351   0.100   4.611   4.104 -1.3066  0.0196  0.1540
 6298SOL     OW30352   0.087   2.369   7.078  0.1814  0.1289  0.2138
 6298SOL    HW130353   0.014   2.309   7.062  1.4666 -1.7029  1.1997
 6298SOL    HW230354   0.119   2.380   6.989 -2.6073  1.3915 -0.6485
 6299SOL     OW30355   2.979   4.197   8.566  0.4253 -0.4745  1.1288
 6299SOL    HW130356   2.896   4.212   8.610 -0.8176 -0.3029 -1.2503
 6299SOL    HW230357   3.027   4.167   8.643  1.7236  1.6282  1.1471
 6300SOL     OW30358   0.828   0.061  13.686 -0.1888 -0.5818 -0.2580
 6300SOL    HW130359   0.835   0.086  13.778  1.2716 -1.1875 -0.2087
 6300SOL    HW230360   0.780   0.137  13.654 -1.3459 -0.1081  2.6100
 6301SOL     OW30361   1.107   4.388   7.329  0.1819  0.3998  0.4620
 6301SOL    HW130362   1.150   4.464   7.290  1.8488  0.1753  1.8920
 6301SOL    HW230363   1.052   4.366   7.254 -0.9130  1.0891  1.0518
 6302SOL     OW30364   1.229   0.244   5.305  0.5698  0.1157  0.7607
 6302SOL    HW130365   1.241   0.331   5.342 -1.2759  1.5082 -1.9156
 6302SOL    HW230366   1.319   0.212   5.303  0.6890  0.3723  2.0827
 6303SOL     OW30367   1.233   0.386   7.993 -0.3946  0.5368  0.3690
 6303SOL    HW130368   1.315   0.338   8.002 -1.7333 -2.0093 -1.2866
 6303SOL    HW230369   1.254   0.478   8.009 -0.3691  0.3770  1.2947
 6304SOL     OW30370   3.619   1.484   6.254  0.7135 -0.0181 -0.1597
 6304SOL    HW130371   3.682   1.494   6.183  0.0165  0.7166 -0.6737
 6304SOL    HW230372   3.567   1.563   6.265 -0.2794 -0.7630  0.4194
 6305SOL     OW30373   1.001   0.275   8.102 -0.7474  0.0822  0.2106
 6305SOL    HW130374   1.034   0.186   8.092 -1.2380  0.0118 -0.7615
 6305SOL    HW230375   1.083   0.315   8.074 -0.7785  0.4215  0.6051
 6306SOL     OW30376   1.217   3.646   8.864  0.4892 -0.2021 -0.5321
 6306SOL    HW130377   1.132   3.689   8.878  0.2218 -1.9115  3.0534
 6306SOL    HW230378   1.194   3.563   8.822 -0.5371 -0.2387  0.0986
 6307SOL     OW30379   3.537   2.452   6.054  0.1606 -0.1011  0.5126
 6307SOL    HW130380   3.590   2.381   6.091 -0.7755 -0.7790  0.5601
 6307SOL    HW230381   3.473   2.473   6.122 -0.7577  1.8781 -0.9755
 6308SOL     OW30382   4.290   3.004   4.897  0.5229 -0.1074 -0.2818
 6308SOL    HW130383   4.238   2.935   4.855  0.4237  0.1855 -0.6411
 6308SOL    HW230384   4.307   2.968   4.984  0.7365 -0.7980 -0.6090
 6309SOL     OW30385   2.410   3.513  13.899 -0.2559 -0.5543  0.1208
 6309SOL    HW130386   2.490   3.508  13.950 -0.6407 -0.5784  0.7231
 6309SOL    HW230387   2.402   3.422  13.870 -0.2245 -0.8031  0.9034
 6310SOL     OW30388   2.862   2.295  12.113 -0.0830 -0.2675  0.2113
 6310SOL    HW130389   2.848   2.279  12.019  3.2360 -1.9957 -0.0078
 6310SOL    HW230390   2.957   2.305  12.106 -0.1218 -0.1759 -0.1853
 6311SOL     OW30391   2.222   3.274   8.685 -0.1094 -0.4376 -0.3150
 6311SOL    HW130392   2.196   3.259   8.594 -1.7111 -4.2902  0.7894
 6311SOL    HW230393   2.191   3.198   8.734  0.9847  0.8585  2.3875
 6312SOL     OW30394   2.606   4.153   3.253  0.2650 -0.0522 -0.3939
 6312SOL    HW130395   2.573   4.093   3.320  0.1021  0.7366  0.2294
 6312SOL    HW230396   2.556   4.234   3.266 -0.0775 -0.1634 -0.9889
 6313SOL     OW30397   3.841   1.962   9.353 -0.3189 -0.8399 -0.4868
 6313SOL    HW130398   3.850   1.870   9.327 -2.3622 -0.5426 -2.2497
 6313SOL    HW230399   3.767   1.984   9.297 -0.5757  0.7769  0.5169
 6314SOL     OW30400   3.977   1.030   5.619  0.1804  0.5810 -0.6474
 6314SOL    HW130401   3.988   1.049   5.713 -1.7040 -1.0020 -0.1110
 6314SOL    HW230402   3.884   1.055   5.614  0.7066  3.0014  1.4989
 6315SOL     OW30403   2.396   4.001   6.916 -0.1368 -0.0444 -0.4811
 6315SOL    HW130404   2.485   4.019   6.888 -0.0504  1.2054  0.5612
 6315SOL    HW230405   2.393   4.030   7.008 -0.5842 -1.1079 -0.1587
 6316SOL     OW30406   4.254   0.769   6.576  0.6422 -0.2674  0.3892
 6316SOL    HW130407   4.308   0.691   6.557  1.0510  0.5950 -1.9397
 6316SOL    HW230408   4.318   0.838   6.558 -1.0659  1.4005  0.7253
 6317SOL     OW30409   1.452   4.468   6.937  0.1918 -0.4670 -0.1410
 6317SOL    HW130410   1.369   4.509   6.914 -0.7935 -1.8695  0.8978
 6317SOL    HW230411   1.476   4.519   7.015  1.6142  1.0328 -1.5444
 6318SOL     OW30412   4.605   3.963   7.659 -0.2523 -0.1939 -0.5271
 6318SOL    HW130413   4.639   3.958   7.570 -1.6622  0.8933 -1.1032
 6318SOL    HW230414   4.515   3.993   7.649 -0.3079 -0.4265 -0.7198
 6319SOL     OW30415   0.647   3.954   7.995  0.9050 -0.5109 -0.4724
 6319SOL    HW130416   0.604   3.932   8.078  0.6117  1.4068 -0.1145
 6319SOL    HW230417   0.626   3.882   7.936  1.0894  0.2387 -1.4498
 6320SOL     OW30418   0.438   2.849   5.010 -0.7434 -0.6187 -0.0298
 6320SOL    HW130419   0.495   2.844   5.087 -0.1876 -1.4093 -0.4917
 6320SOL    HW230420   0.373   2.914   5.037 -1.1621 -0.2285 -1.9721
 6321SOL     OW30421   0.403   1.737  15.205 -0.2647 -0.3303 -0.2143
 6321SOL    HW130422   0.424   1.828  15.184 -0.0215 -0.2498  0.3890
 6321SOL    HW230423   0.482   1.693  15.175  0.3226  0.6304 -0.0655
 6322SOL     OW30424   1.268   0.343   0.210  0.0907  0.1817 -0.0032
 6322SOL    HW130425   1.272   0.265   0.154  1.8360 -1.1576  1.9970
 6322SOL    HW230426   1.356   0.377   0.192  0.1101  0.6015  0.9035
 6323SOL     OW30427   3.804   2.440  17.276 -0.1541 -0.4875 -0.0683
 6323SOL    HW130428   3.744   2.493  17.223  0.9759 -1.4121 -2.2945
 6323SOL    HW230429   3.798   2.492  17.356 -5.0999 -0.4960 -0.3971
 6324SOL     OW30430   3.764   2.634   5.466  0.3195  0.1212  0.2482
 6324SOL    HW130431   3.701   2.568   5.436  2.3992 -2.2529  1.1063
 6324SOL    HW230432   3.821   2.579   5.520  2.3342 -0.3866 -2.4408
 6325SOL     OW30433   1.042   1.293   8.582  0.0683  0.1864  0.9120
 6325SOL    HW130434   1.026   1.368   8.525 -3.0293 -2.1191 -1.2803
 6325SOL    HW230435   0.962   1.283   8.634 -2.7247 -0.6132 -3.4716
 6326SOL     OW30436   2.324   0.344   0.270  0.0265  0.3222  0.3131
 6326SOL    HW130437   2.393   0.278   0.274 -2.0998 -1.9895 -1.1418
 6326SOL    HW230438   2.363   0.404   0.206 -0.5472  0.4743  0.1076
 6327SOL     OW30439   3.500   3.088  12.110  0.1499  0.2671  0.3956
 6327SOL    HW130440   3.556   3.104  12.186 -0.0661  0.4398  0.5180
 6327SOL    HW230441   3.567   3.069  12.044  0.8337  1.2664  0.7895
 6328SOL     OW30442   4.136   0.997   8.064  0.2176 -0.0297  0.0349
 6328SOL    HW130443   4.212   1.053   8.050  2.0141 -2.0159  1.8648
 6328SOL    HW230444   4.080   1.054   8.116  0.8523  1.9340 -1.4529
 6329SOL     OW30445   3.695   2.403   6.908  0.2213 -0.1672  0.0015
 6329SOL    HW130446   3.637   2.359   6.846 -1.4453 -1.6638  2.6062
 6329SOL    HW230447   3.708   2.487   6.864 -0.5624 -1.0047 -1.8184
 6330SOL     OW30448   1.863   4.368   2.842  1.0300 -0.2233  0.3220
 6330SOL    HW130449   1.880   4.461   2.857  1.1422 -0.3247  0.8444
 6330SOL    HW230450   1.940   4.344   2.791  0.3317  1.1953 -1.3633
 6331SOL     OW30451   3.296   1.719   4.153  0.2822  0.0555 -0.3130
 6331SOL    HW130452   3.285   1.693   4.061 -1.8307  3.5000 -1.0434
 6331SOL    HW230453   3.389   1.714   4.176  0.5983  2.4513 -1.0923
 6332SOL     OW30454   1.273   2.967   6.575  0.2745 -0.3605  0.2333
 6332SOL    HW130455   1.295   2.875   6.588  0.6883 -0.3092 -0.1201
 6332SOL    HW230456   1.182   2.969   6.545 -0.0581 -1.1066  1.1952
 6333SOL     OW30457   0.472   4.345   6.914  0.0055 -0.2230 -0.1560
 6333SOL    HW130458   0.459   4.372   7.005 -0.7274 -1.1739  0.0256
 6333SOL    HW230459   0.426   4.413   6.865  0.3936 -1.0173 -1.6121
 6334SOL     OW30460   3.894   2.794  12.975  0.4944  0.8003  0.5284
 6334SOL    HW130461   3.908   2.718  12.919 -0.6198 -0.4431  1.9347
 6334SOL    HW230462   3.971   2.786  13.031  0.6323 -0.5406  0.1477
 6335SOL     OW30463   3.797   3.501  12.230  0.4090  0.1527 -0.4769
 6335SOL    HW130464   3.850   3.430  12.268  0.2038  0.1977 -0.1149
 6335SOL    HW230465   3.830   3.496  12.140  1.3463  1.9179 -0.2275
 6336SOL     OW30466   3.787   0.387   3.193 -0.0525  0.0600 -0.0929
 6336SOL    HW130467   3.787   0.367   3.099  0.5749  0.0551 -0.0914
 6336SOL    HW230468   3.796   0.482   3.198  0.6760 -0.0593  0.9901
 6337SOL     OW30469   2.291   2.637  15.783 -0.4439  0.2213  0.0740
 6337SOL    HW130470   2.269   2.580  15.710 -0.9517 -1.9440  1.9321
 6337SOL    HW230471   2.221   2.702  15.789 -0.3090  0.3674  0.0975
 6338SOL     OW30472   4.442   0.726   7.495 -0.7147  0.3129 -0.2162
 6338SOL    HW130473   4.374   0.784   7.461  1.8070  2.2582 -2.0404
 6338SOL    HW230474   4.470   0.673   7.420 -0.2160 -0.7756  0.7415
 6339SOL     OW30475   4.525   3.019   5.824 -0.2344 -0.6821  0.6754
 6339SOL    HW130476   4.573   2.939   5.802  3.0871  2.4266 -3.4220
 6339SOL    HW230477   4.577   3.093   5.792 -2.4013 -0.3117 -1.9038
 6340SOL     OW30478   0.460   1.678   6.191 -0.1223 -0.2647  0.1268
 6340SOL    HW130479   0.400   1.743   6.227  1.2178  1.9108 -1.5888
 6340SOL    HW230480   0.473   1.622   6.267 -0.0925 -0.7645 -0.2416
 6341SOL     OW30481   0.354   4.138   3.159  0.1406 -0.6650 -0.0782
 6341SOL    HW130482   0.290   4.209   3.166  1.8316  0.7981  0.2547
 6341SOL    HW230483   0.406   4.160   3.235  2.0338 -0.1103 -1.5407
 6342SOL     OW30484   1.554   1.016  15.127  0.5488 -0.1161 -0.5415
 6342SOL    HW130485   1.621   1.010  15.195 -0.2221 -3.2011 -0.0668
 6342SOL    HW230486   1.595   0.962  15.059  0.8878  1.3956 -1.5454
 6343SOL     OW30487   0.857   3.898   1.434 -0.1672  0.0899 -0.0007
 6343SOL    HW130488   0.934   3.857   1.473  0.3324  1.0648  0.0535
 6343SOL    HW230489   0.839   3.840   1.360 -1.1285 -0.8638  1.0076
 6344SOL     OW30490   1.579   2.733   2.734  0.2038  0.3058  0.4914
 6344SOL    HW130491   1.532   2.661   2.693  0.4062 -0.6149  1.8895
 6344SOL    HW230492   1.636   2.760   2.661 -2.3543 -2.4156 -2.5373
 6345SOL     OW30493   3.679   1.624  16.873 -0.1890  0.3010  0.4415
 6345SOL    HW130494   3.632   1.566  16.813 -2.0529 -0.9891  3.1851
 6345SOL    HW230495   3.611   1.690  16.892 -1.3508 -0.8936  0.3986
 6346SOL     OW30496   4.051   0.682   7.279 -0.2507  0.4125 -0.7167
 6346SOL    HW130497   4.053   0.616   7.349 -2.1859 -1.4453 -2.4184
 6346SOL    HW230498   4.140   0.672   7.246 -0.2353 -0.0676 -0.5404
 6347SOL     OW30499   4.051   1.914   7.518 -0.0407 -0.2808  0.1757
 6347SOL    HW130500   4.142   1.941   7.531 -0.1841  0.2360  0.0892
 6347SOL    HW230501   4.025   1.921   7.610  0.0534 -0.7698  0.2396
 6348SOL     OW30502   3.380   0.807   6.179 -0.0572  0.0857 -0.5434
 6348SOL    HW130503   3.336   0.722   6.178 -0.4295  0.2773 -0.3490
 6348SOL    HW230504   3.474   0.794   6.167 -0.8272 -4.3678 -1.9595
 6349SOL     OW30505   2.108   2.976   5.555 -0.4942  0.5762  0.5070
 6349SOL    HW130506   2.034   3.007   5.503  0.1271 -0.4460 -1.0220
 6349SOL    HW230507   2.087   2.884   5.574  0.6105  0.3672  0.7402
 6350SOL     OW30508   4.549   4.242   3.204 -0.0247 -0.8838  0.4733
 6350SOL    HW130509   4.596   4.193   3.137 -1.7551 -0.1511 -1.2656
 6350SOL    HW230510   4.474   4.185   3.221  0.5789 -1.1756  2.1772
 6351SOL     OW30511   1.140   0.002   7.766  0.1791  0.3525  0.0237
 6351SOL    HW130512   1.176   0.001   7.678  1.2904  0.8317  0.4721
 6351SOL    HW230513   1.074   0.070   7.750  0.5488  0.8575  0.6613
 6352SOL     OW30514   2.599   2.645  12.327  0.0234  0.2930 -0.1966
 6352SOL    HW130515   2.600   2.586  12.251  0.9702  0.4180 -0.2814
 6352SOL    HW230516   2.683   2.628  12.370  2.1994  2.1913 -3.6525
 6353SOL     OW30517   1.515   2.972   3.767 -0.6257 -0.1933  0.0302
 6353SOL    HW130518   1.535   2.909   3.837  1.0937  0.6841  0.3193
 6353SOL    HW230519   1.424   2.996   3.784 -1.2016 -2.2121 -0.1559
 6354SOL     OW30520   3.499   3.300   7.634  0.2280  0.4366  0.2446
 6354SOL    HW130521   3.477   3.344   7.716  0.4198 -1.7046  1.4208
 6354SOL    HW230522   3.573   3.356   7.610 -0.6642  0.5336 -2.2322
 6355SOL     OW30523   4.376   4.470   8.526 -0.9156  0.3511  0.8388
 6355SOL    HW130524   4.330   4.386   8.527 -1.9600  0.8739 -2.4989
 6355SOL    HW230525   4.371   4.490   8.619  1.0567 -1.7595  1.3808
 6356SOL     OW30526   0.289   1.086  17.085 -0.2864  0.5611  0.1059
 6356SOL    HW130527   0.275   1.180  17.098  1.5312  0.7361  0.7733
 6356SOL    HW230528   0.384   1.092  17.093 -0.3053 -1.4490  1.8407
 6357SOL     OW30529   0.754   3.420   3.910 -0.2266 -0.0969 -0.3070
 6357SOL    HW130530   0.725   3.459   3.828 -1.3665 -0.6660 -0.1746
 6357SOL    HW230531   0.823   3.363   3.875  0.6011  0.1606  0.8768
 6358SOL     OW30532   0.383   3.638   6.454 -0.1923 -0.2211 -0.3904
 6358SOL    HW130533   0.421   3.688   6.381 -0.5754  1.3973  0.5352
 6358SOL    HW230534   0.375   3.704   6.522  0.9280  1.2309 -1.6612
 6359SOL     OW30535   4.692   0.496   4.880 -0.6898 -0.1032 -0.0865
 6359SOL    HW130536   0.007   0.583   4.891 -0.7765 -0.1163  0.2873
 6359SOL    HW230537   4.646   0.514   4.798  0.7928 -0.6160 -1.0387
 6360SOL     OW30538   4.509   0.390   9.184  0.1476  0.7102 -0.8626
 6360SOL    HW130539   4.541   0.381   9.274 -0.0128  0.6797 -0.8091
 6360SOL    HW230540   4.595   0.363   9.152  0.1338 -1.5521  1.0550
 6361SOL     OW30541   4.078   3.655   8.361  0.1549  0.0430  0.0747
 6361SOL    HW130542   4.148   3.606   8.317 -1.3946 -0.4020 -1.9049
 6361SOL    HW230543   4.061   3.713   8.286 -0.6202 -0.9572 -0.5232
 6362SOL     OW30544   1.669   4.231  16.853 -0.1048 -0.5315  0.6658
 6362SOL    HW130545   1.711   4.263  16.773  2.4290  1.8499  2.9429
 6362SOL    HW230546   1.578   4.209  16.830  0.3995  0.2811 -2.0611
 6363SOL     OW30547   2.052   1.287   1.324  0.6152 -0.3963 -0.2355
 6363SOL    HW130548   2.138   1.247   1.318  0.7505  0.2708 -2.5422
 6363SOL    HW230549   2.001   1.219   1.281 -1.2064 -1.2127  3.1547
 6364SOL     OW30550   1.275   1.504   6.766 -0.3930  0.3540 -0.0899
 6364SOL    HW130551   1.371   1.505   6.761 -0.5049 -1.7262 -2.5803
 6364SOL    HW230552   1.258   1.581   6.820 -0.5677  0.3329 -0.1134
 6365SOL     OW30553   1.832   0.683   3.979 -0.1592 -0.1289  0.2983
 6365SOL    HW130554   1.924   0.669   3.999 -0.0359 -1.4548 -1.1422
 6365SOL    HW230555   1.827   0.731   3.896 -0.2681 -0.1838  0.2727
 6366SOL     OW30556   1.427   0.371   2.474 -0.0875 -0.0298 -0.1519
 6366SOL    HW130557   1.344   0.417   2.488 -0.0562 -0.2349  0.6949
 6366SOL    HW230558   1.418   0.281   2.506 -0.0804  0.6179  1.6638
 6367SOL     OW30559   3.792   3.120  14.436  0.3301 -0.2528  0.4976
 6367SOL    HW130560   3.856   3.080  14.495  0.0346 -2.7394 -0.8856
 6367SOL    HW230561   3.807   3.209  14.469  0.9952  0.3694 -1.4412
 6368SOL     OW30562   3.548   0.174   5.290  0.2072  0.4661  0.7225
 6368SOL    HW130563   3.468   0.193   5.339 -0.1809  0.0038  0.2712
 6368SOL    HW230564   3.588   0.104   5.342 -0.3494 -0.9389 -0.7108
 6369SOL     OW30565   2.974   1.667   7.995  0.1300 -0.0920  0.3335
 6369SOL    HW130566   2.986   1.592   7.938 -0.7139 -0.5941  0.8196
 6369SOL    HW230567   2.980   1.730   7.923  3.5650 -2.2323 -1.2551
 6370SOL     OW30568   1.264   4.365   6.078 -0.3925 -0.4631 -0.3452
 6370SOL    HW130569   1.293   4.337   6.165  1.5562  1.5020 -0.3496
 6370SOL    HW230570   1.197   4.302   6.054 -0.9155 -0.1712  0.3419
 6371SOL     OW30571   3.685   2.613  15.841  0.3194 -0.3700 -0.0464
 6371SOL    HW130572   3.603   2.568  15.860  0.6530 -1.3057 -0.8596
 6371SOL    HW230573   3.672   2.696  15.888 -2.8623 -1.3329  0.7226
 6372SOL     OW30574   0.130   2.379   9.425 -0.0056  0.5246  0.0399
 6372SOL    HW130575   0.075   2.300   9.429  2.6260 -1.3976 -1.6635
 6372SOL    HW230576   0.081   2.436   9.485  0.8807 -0.9683  2.1817
 6373SOL     OW30577   2.144   3.995   9.978 -0.2810  0.1342  0.1112
 6373SOL    HW130578   2.138   4.039   9.893 -0.9269 -3.6530 -1.8274
 6373SOL    HW230579   2.056   3.963   9.995 -0.3440  0.2708  0.0384
 6374SOL     OW30580   4.193   1.770   5.239 -0.7863 -0.5804 -0.0039
 6374SOL    HW130581   4.228   1.815   5.163 -3.5399 -1.3265 -1.7107
 6374SOL    HW230582   4.224   1.819   5.315 -1.4385  0.2517 -0.2855
 6375SOL     OW30583   2.127   3.438   4.551 -0.1288 -0.0353  0.1825
 6375SOL    HW130584   2.055   3.393   4.506  0.2165 -1.0139  0.6038
 6375SOL    HW230585   2.077   3.502   4.601 -0.3743  0.3888 -0.6180
 6376SOL     OW30586   3.627   0.798  16.807  0.3802  0.1060 -0.2376
 6376SOL    HW130587   3.533   0.811  16.793  0.4427  1.6318  0.6773
 6376SOL    HW230588   3.654   0.824  16.896 -3.0358  0.5217  0.6655
 6377SOL     OW30589   4.491   2.747  16.264 -0.3689 -0.8107 -0.3800
 6377SOL    HW130590   4.556   2.815  16.250 -0.5445 -0.5248  0.2003
 6377SOL    HW230591   4.515   2.687  16.193 -1.6710 -3.2358  1.2505
 6378SOL     OW30592   1.108   1.329  11.244 -0.0232 -0.4032  0.2305
 6378SOL    HW130593   1.148   1.253  11.202  0.1455 -0.1046 -0.1476
 6378SOL    HW230594   1.172   1.395  11.218 -0.5381  0.4388  1.1124
 6379SOL     OW30595   2.409   1.278   8.905  0.0250  0.1633  0.0485
 6379SOL    HW130596   2.325   1.260   8.948 -0.6008  1.1250 -0.7681
 6379SOL    HW230597   2.467   1.206   8.927 -2.0523 -1.8032 -0.8168
 6380SOL     OW30598   3.597   3.591  16.133 -0.2841 -0.2087 -0.3415
 6380SOL    HW130599   3.531   3.527  16.107  0.6155 -0.8393 -1.0483
 6380SOL    HW230600   3.677   3.538  16.136 -0.6360 -0.7803 -1.3936
 6381SOL     OW30601   2.836   4.120   7.086  0.2242 -0.4056 -0.0972
 6381SOL    HW130602   2.778   4.094   7.014  2.2509 -0.0816 -1.8808
 6381SOL    HW230603   2.883   4.191   7.042 -0.7872  0.8063  0.7770
 6382SOL     OW30604   2.567   3.799  10.268 -0.0835  0.0264 -0.0714
 6382SOL    HW130605   2.514   3.739  10.215 -1.4034 -0.5342  1.8716
 6382SOL    HW230606   2.546   3.779  10.360  3.3412  0.3325  0.7657
 6383SOL     OW30607   3.724   1.521  11.178 -0.3488 -0.7050 -0.1146
 6383SOL    HW130608   3.717   1.615  11.162 -0.3114 -0.6770  0.0243
 6383SOL    HW230609   3.641   1.495  11.138  0.9613 -0.3138 -3.0585
 6384SOL     OW30610   3.636   2.760   6.867  0.1497 -0.3848  0.0313
 6384SOL    HW130611   3.676   2.846   6.883 -1.6035  0.0182  2.3745
 6384SOL    HW230612   3.694   2.719   6.803 -0.9692 -1.5564 -0.2095
 6385SOL     OW30613   3.636   3.619  13.373  0.2057 -0.5944  0.4684
 6385SOL    HW130614   3.707   3.637  13.311  0.5136  2.1829  1.6357
 6385SOL    HW230615   3.668   3.532  13.399  0.1573 -2.1046 -4.6496
 6386SOL     OW30616   2.910   2.301   0.533 -0.1945  0.0960 -0.1350
 6386SOL    HW130617   2.829   2.254   0.552  1.3794 -1.7289  1.9584
 6386SOL    HW230618   2.972   2.246   0.580 -0.4050  0.4955  0.6248
 6387SOL     OW30619   2.349   1.866  11.727  0.7780 -0.2378 -0.2319
 6387SOL    HW130620   2.377   1.774  11.721 -0.1605 -0.5553  0.2493
 6387SOL    HW230621   2.432   1.902  11.759 -0.2950  0.7118  1.5000
 6388SOL     OW30622   2.044   1.283  14.933 -0.3389 -0.7205 -0.0926
 6388SOL    HW130623   2.125   1.329  14.914  0.2609 -1.9750 -0.5861
 6388SOL    HW230624   2.073   1.222  15.001  1.4738  0.2631  0.0178
 6389SOL     OW30625   1.941   1.287   3.918  0.8248 -0.7644  0.4333
 6389SOL    HW130626   1.984   1.341   3.851  0.7193 -0.4202  0.6400
 6389SOL    HW230627   1.887   1.233   3.860 -1.5425  0.8496  1.1454
 6390SOL     OW30628   4.011   4.156   4.917  0.8248 -0.3243 -0.3866
 6390SOL    HW130629   3.959   4.077   4.932 -1.7031  1.6119  1.0312
 6390SOL    HW230630   4.040   4.151   4.826  0.5609  2.1386 -0.6153
 6391SOL     OW30631   1.287   1.164   1.411 -0.1112  0.0940  0.2409
 6391SOL    HW130632   1.324   1.117   1.486 -0.5086 -1.4927 -0.5682
 6391SOL    HW230633   1.316   1.111   1.337  0.9633 -0.8738  1.3581
 6392SOL     OW30634   4.717   0.086   7.555  0.3481 -0.4148  0.1551
 6392SOL    HW130635   4.674   0.165   7.588  1.4662 -0.4874  1.8223
 6392SOL    HW230636   0.070   0.081   7.617 -0.6954 -2.5194  1.2211
 6393SOL     OW30637   1.479   2.345   2.752  0.4195  0.2030  0.3504
 6393SOL    HW130638   1.468   2.411   2.684  0.4917  3.3127  3.3509
 6393SOL    HW230639   1.550   2.288   2.722 -0.7656 -0.8364 -0.5098
 6394SOL     OW30640   0.012   2.314   0.473 -0.4214 -0.6126 -0.1186
 6394SOL    HW130641   0.054   2.365   0.404 -0.2525 -3.2490 -1.9665
 6394SOL    HW230642   0.002   2.375   0.547 -1.9678  0.4258 -1.1741
 6395SOL     OW30643   0.142   0.126   4.769  0.0646  0.0155  0.3114
 6395SOL    HW130644   0.096   0.163   4.693  0.2775 -0.1804  0.0846
 6395SOL    HW230645   0.212   0.192   4.772  1.0451 -1.0673  1.1670
 6396SOL     OW30646   3.489   3.902   8.219 -0.2470 -0.4828  0.0502
 6396SOL    HW130647   3.573   3.864   8.246  1.8383  3.8940 -0.3597
 6396SOL    HW230648   3.489   3.869   8.129  0.2284 -2.8433  0.9232
 6397SOL     OW30649   0.329   2.329   7.512 -0.6650  0.6712  0.1484
 6397SOL    HW130650   0.243   2.311   7.548 -1.1940  1.4408 -0.7247
 6397SOL    HW230651   0.324   2.297   7.422 -0.2480 -0.9580  0.7072
 6398SOL     OW30652   3.866   1.962   6.432  0.2475 -0.4531 -0.6092
 6398SOL    HW130653   3.891   1.919   6.350 -1.2379 -0.5828 -0.9783
 6398SOL    HW230654   3.832   1.888   6.482 -1.2593  0.2904 -0.5634
 6399SOL     OW30655   2.036   3.940   1.103  0.4076  0.0531 -0.5237
 6399SOL    HW130656   2.072   3.980   1.182  1.2758 -1.5200 -0.1371
 6399SOL    HW230657   1.995   3.858   1.132  0.2037  0.1957 -0.4064
 6400SOL     OW30658   1.552   0.109   7.754  0.1951  0.4466  0.0272
 6400SOL    HW130659   1.490   0.059   7.701  1.0426  1.2466 -1.7570
 6400SOL    HW230660   1.572   0.052   7.828  0.1500  1.1475  0.5782
 6401SOL     OW30661   0.999   3.945   3.464 -0.0329  0.3554 -0.5713
 6401SOL    HW130662   1.021   3.921   3.374  2.9863 -1.2403  0.5929
 6401SOL    HW230663   1.022   4.036   3.481  0.3733  0.4825 -1.8502
 6402SOL     OW30664   1.691   1.330   1.911 -0.0174  0.3435  0.0769
 6402SOL    HW130665   1.650   1.308   1.994 -0.9215 -1.4047 -0.8389
 6402SOL    HW230666   1.624   1.294   1.853 -0.4410  0.1586  0.6792
 6403SOL     OW30667   0.873   4.243   9.061 -0.0484 -0.4460  0.7983
 6403SOL    HW130668   0.894   4.334   9.081  0.7738 -0.7475  1.3130
 6403SOL    HW230669   0.789   4.229   9.104  0.5550 -1.3819  1.6939
 6404SOL     OW30670   2.761   1.328   8.511 -0.0313  0.8079  0.0353
 6404SOL    HW130671   2.818   1.354   8.439  1.8071 -3.8272 -0.1668
 6404SOL    HW230672   2.678   1.367   8.483 -0.0629 -0.2341 -1.3000
 6405SOL     OW30673   0.978   3.324  16.832 -0.3182  0.2124  0.2128
 6405SOL    HW130674   0.987   3.410  16.872 -0.8535  0.6224 -0.5700
 6405SOL    HW230675   0.935   3.348  16.750 -1.1709 -1.2101  0.2412
 6406SOL     OW30676   1.475   3.813  11.279  0.0995  0.2328  0.4830
 6406SOL    HW130677   1.536   3.880  11.311  2.2867 -0.8430 -1.4301
 6406SOL    HW230678   1.412   3.863  11.228 -0.8076 -0.0390  1.3381
 6407SOL     OW30679   2.205   1.986   6.982 -0.5971 -0.2464  0.5393
 6407SOL    HW130680   2.166   2.074   6.989 -2.2275 -1.0212  1.2093
 6407SOL    HW230681   2.211   1.959   7.073  3.3484  0.0408  0.3313
 6408SOL     OW30682   0.329   1.015   6.541  0.3778  0.3486  0.1180
 6408SOL    HW130683   0.260   0.969   6.494  0.5860  0.2549 -0.0951
 6408SOL    HW230684   0.342   0.947   6.606 -0.6933 -0.5426 -0.6026
 6409SOL     OW30685   0.999   3.117   6.836 -0.9782 -0.1500  0.4133
 6409SOL    HW130686   0.914   3.160   6.836 -1.5379 -1.2554  0.0626
 6409SOL    HW230687   0.974   3.026   6.854 -1.7578  0.0866  0.5345
 6410SOL     OW30688   2.379   3.933   3.170  0.0646 -0.2630 -0.8248
 6410SOL    HW130689   2.375   3.938   3.266 -1.3675 -2.9406 -0.7361
 6410SOL    HW230690   2.370   4.023   3.138 -0.5523  0.2462  0.7713
 6411SOL     OW30691   1.300   4.691   0.740  0.3829  0.1539  0.6648
 6411SOL    HW130692   1.309   4.601   0.709 -1.1752  0.2388 -0.0651
 6411SOL    HW230693   1.330   4.679   0.830  0.3266 -0.6544  0.5802
 6412SOL     OW30694   0.911   4.000   8.666  0.2252  0.7726  0.2277
 6412SOL    HW130695   1.000   3.965   8.664 -0.5607 -1.2288  0.2425
 6412SOL    HW230696   0.920   4.092   8.690  1.1156  0.0843  2.5653
 6413SOL     OW30697   3.762   2.786   9.308  0.4272 -0.1124 -0.4780
 6413SOL    HW130698   3.683   2.776   9.361  0.6752 -0.6977 -0.2232
 6413SOL    HW230699   3.774   2.695   9.285 -1.1656  0.3059 -2.8744
 6414SOL     OW30700   0.197   3.265   6.016 -0.0066 -1.3910 -0.0357
 6414SOL    HW130701   0.111   3.260   6.058 -0.1294  0.8987 -0.0016
 6414SOL    HW230702   0.205   3.189   5.958 -1.5047 -0.7219 -1.1028
 6415SOL     OW30703   3.775   4.310   2.373 -0.6169 -0.2799 -0.2871
 6415SOL    HW130704   3.747   4.384   2.320  2.4162 -0.5488 -2.2987
 6415SOL    HW230705   3.761   4.341   2.463 -1.1961  0.6489 -0.7023
 6416SOL     OW30706   3.666   4.674   3.399 -0.2380 -1.1228  0.0436
 6416SOL    HW130707   3.625   0.039   3.408 -0.0572 -0.8469 -1.7374
 6416SOL    HW230708   3.652   4.642   3.488 -0.0450 -0.6929  0.2271
 6417SOL     OW30709   3.705   1.489   7.787  0.1075  0.7482  0.0878
 6417SOL    HW130710   3.664   1.403   7.783 -0.2408  0.7923  2.4436
 6417SOL    HW230711   3.789   1.457   7.819 -0.6599  0.8753  2.2408
 6418SOL     OW30712   2.243   1.400   9.424 -0.6657  0.1279  0.3685
 6418SOL    HW130713   2.243   1.305   9.438  1.3274  0.2820  1.4768
 6418SOL    HW230714   2.205   1.421   9.509 -3.9500 -1.5702 -0.6619
 6419SOL     OW30715   4.427   0.738  10.195 -0.2599 -0.2228  0.7029
 6419SOL    HW130716   4.427   0.650  10.158  0.3998  0.7212 -1.5237
 6419SOL    HW230717   4.355   0.775  10.145  0.7440  1.5722  0.5635
 6420SOL     OW30718   4.254   1.160   0.456  0.1768 -0.0132  0.5893
 6420SOL    HW130719   4.285   1.160   0.366 -2.0420 -0.4286 -0.1857
 6420SOL    HW230720   4.177   1.215   0.444  1.1521  0.8886 -1.5345
 6421SOL     OW30721   0.488   1.769  13.076  0.5792 -0.9284 -0.0222
 6421SOL    HW130722   0.544   1.807  13.008 -0.2950  1.6528  0.7059
 6421SOL    HW230723   0.524   1.823  13.146 -2.2357  0.6663  0.2158
 6422SOL     OW30724   2.456   4.338  12.889 -0.1192 -0.5050 -0.5537
 6422SOL    HW130725   2.380   4.330  12.948 -0.1030 -1.0919 -0.6112
 6422SOL    HW230726   2.472   4.244  12.883 -1.7207 -0.6461 -2.7654
 6423SOL     OW30727   2.577   3.962   2.137 -0.7739  0.4073 -0.3951
 6423SOL    HW130728   2.522   3.933   2.064  0.8487 -0.1382 -1.4089
 6423SOL    HW230729   2.536   4.045   2.159 -1.4383 -0.6719  2.3539
 6424SOL     OW30730   4.583   1.157   7.407 -0.6401  0.4927 -0.2811
 6424SOL    HW130731   4.624   1.237   7.443  0.8056  0.0172 -0.8539
 6424SOL    HW230732   4.501   1.157   7.456  0.4205 -0.7282  1.4749
 6425SOL     OW30733   3.037   0.861  12.837 -0.4213  0.0997  0.5360
 6425SOL    HW130734   2.983   0.937  12.858 -1.6491 -0.5723 -0.1914
 6425SOL    HW230735   2.997   0.841  12.752  0.4006 -0.1142  0.1984
 6426SOL     OW30736   3.298   0.425   8.770 -0.0953  0.4279 -0.0154
 6426SOL    HW130737   3.254   0.412   8.686 -0.6331  0.6729  0.2335
 6426SOL    HW230738   3.302   0.340   8.813  2.1252  1.8176  2.5175
 6427SOL     OW30739   0.510   2.768   6.770 -0.3224  0.2183 -0.3652
 6427SOL    HW130740   0.565   2.695   6.800 -1.6554 -0.7840 -0.3539
 6427SOL    HW230741   0.456   2.773   6.849 -2.2644  0.6563 -1.7281
 6428SOL     OW30742   4.640   3.831   6.388  0.2338  0.1050 -0.3268
 6428SOL    HW130743   4.702   3.761   6.406  2.8809  2.2508 -0.9870
 6428SOL    HW230744   4.560   3.782   6.405  1.8213 -2.8355 -1.3281
 6429SOL     OW30745   2.458   1.559   8.013  0.0333 -0.1141 -0.0800
 6429SOL    HW130746   2.506   1.496   7.959  0.5328  2.2208 -2.3581
 6429SOL    HW230747   2.517   1.633   7.998  0.1918 -0.0790  0.7173
 6430SOL     OW30748   2.319   2.372   3.096  0.2535 -0.2899  0.1170
 6430SOL    HW130749   2.279   2.412   3.174  0.0265 -1.8327  0.7918
 6430SOL    HW230750   2.395   2.430   3.083  0.6711 -0.5223  1.4620
 6431SOL     OW30751   0.419   0.413   7.197  0.2173 -0.5151  0.4014
 6431SOL    HW130752   0.462   0.327   7.190  0.5043 -0.4126  0.8564
 6431SOL    HW230753   0.416   0.408   7.293  0.9807  2.7498  0.5772
 6432SOL     OW30754   4.225   1.354   2.011 -0.2793 -0.2376 -0.1033
 6432SOL    HW130755   4.152   1.324   1.957 -0.5701 -0.6461  0.5167
 6432SOL    HW230756   4.207   1.448   2.002  0.4503  0.0058  0.9960
 6433SOL     OW30757   1.017   1.827   5.511  0.3742  0.1103 -0.2176
 6433SOL    HW130758   0.933   1.806   5.551  0.7924 -0.7701  0.2041
 6433SOL    HW230759   0.979   1.889   5.449  1.3952  0.6783 -0.2831
 6434SOL     OW30760   3.773   2.756   8.036 -0.1135  0.2632  0.3044
 6434SOL    HW130761   3.823   2.693   8.088 -0.4297  0.0429  0.3403
 6434SOL    HW230762   3.821   2.836   8.058 -1.3207  1.0012  0.2384
 6435SOL     OW30763   1.484   0.438   2.879  0.3567  0.4558 -0.2258
 6435SOL    HW130764   1.575   0.455   2.901  0.0210  1.5927  0.2659
 6435SOL    HW230765   1.479   0.343   2.870  1.5336  0.2525  1.4872
 6436SOL     OW30766   4.314   0.531   6.931  0.3146 -0.4208  0.4638
 6436SOL    HW130767   4.379   0.600   6.933  1.2125 -1.2960  1.0400
 6436SOL    HW230768   4.363   0.452   6.906 -0.3304 -0.7084  0.0804
 6437SOL     OW30769   2.286   0.039   0.738  0.1234  0.3682  0.3566
 6437SOL    HW130770   2.301   0.033   0.644  0.6711  0.5507  0.4370
 6437SOL    HW230771   2.191   0.050   0.744  0.0140  0.2537 -1.0461
 6438SOL     OW30772   0.349   1.781   8.838 -0.2025  0.1606 -0.5008
 6438SOL    HW130773   0.417   1.748   8.896 -0.2243 -0.6903 -0.9703
 6438SOL    HW230774   0.309   1.698   8.813  0.5540 -0.3291 -0.0716
 6439SOL     OW30775   3.543   4.488   1.865  0.6541 -0.6127 -0.0708
 6439SOL    HW130776   3.620   4.474   1.920 -0.6186 -1.6331  1.4548
 6439SOL    HW230777   3.462   4.477   1.915 -0.4851  0.2132 -1.7378
 6440SOL     OW30778   3.816   4.614  14.432  0.8647  0.4107 -0.6979
 6440SOL    HW130779   3.782   4.553  14.367  0.3942 -0.6154  0.5248
 6440SOL    HW230780   3.771   4.586  14.511  0.4126 -0.5124 -1.2875
 6441SOL     OW30781   1.030   4.327   3.237  0.4420 -0.1866  0.0139
 6441SOL    HW130782   0.939   4.308   3.211  0.5579 -0.7387  0.0095
 6441SOL    HW230783   1.065   4.360   3.154 -0.5324  1.0992  0.1246
 6442SOL     OW30784   4.061   0.673   6.362  0.7284  0.0687 -0.1812
 6442SOL    HW130785   4.000   0.746   6.355  1.1669  0.5711  1.0059
 6442SOL    HW230786   4.115   0.706   6.435  0.4734 -1.6023  0.7744
 6443SOL     OW30787   1.791   1.767  13.132 -0.4997 -0.1347  0.3189
 6443SOL    HW130788   1.811   1.855  13.165 -1.0157  0.2224 -0.3202
 6443SOL    HW230789   1.695   1.769  13.139 -0.5501  1.9184 -0.9506
 6444SOL     OW30790   4.190   3.361  11.025 -0.3445  0.5427  0.3223
 6444SOL    HW130791   4.155   3.326  11.107  0.3606 -0.2316  0.3000
 6444SOL    HW230792   4.110   3.372  10.974  0.7116 -0.0079 -1.4555
 6445SOL     OW30793   1.273   1.435   3.972 -0.1735 -0.0630 -0.4834
 6445SOL    HW130794   1.225   1.381   3.909  0.3481  0.3356 -1.2242
 6445SOL    HW230795   1.211   1.429   4.045  0.6794 -1.6511  0.1024
 6446SOL     OW30796   2.893   4.408  10.032  1.0121  0.1151 -0.3529
 6446SOL    HW130797   2.890   4.316  10.059  3.7235 -0.2235 -1.2342
 6446SOL    HW230798   2.987   4.420  10.021  0.8126  1.2900 -0.7417
 6447SOL     OW30799   4.353   1.979   4.250 -0.3975 -0.5853  0.1261
 6447SOL    HW130800   4.409   1.914   4.208 -0.2757  0.5504 -1.4342
 6447SOL    HW230801   4.297   1.914   4.293  0.0082 -0.4816  0.8104
 6448SOL     OW30802   1.903   4.422   8.157  0.1205 -0.2554 -0.2356
 6448SOL    HW130803   1.917   4.368   8.079 -0.4400  1.3136 -1.4305
 6448SOL    HW230804   1.807   4.421   8.161  0.2347 -1.7997  1.7910
 6449SOL     OW30805   1.483   3.719   3.119  0.4240  0.1188 -0.2215
 6449SOL    HW130806   1.394   3.696   3.094  0.2283  0.1344  0.4645
 6449SOL    HW230807   1.472   3.762   3.204  0.2381  0.8766 -0.6283
 6450SOL     OW30808   1.046   0.930  10.934 -0.2140  0.0268  0.0588
 6450SOL    HW130809   1.083   0.935  11.022  1.5835  0.4247 -0.6959
 6450SOL    HW230810   1.010   1.019  10.933  3.2970  1.4680  0.2132
 6451SOL     OW30811   3.144   1.887   5.269 -0.0101  0.0857 -0.4559
 6451SOL    HW130812   3.137   1.808   5.323 -0.3124  1.4601  1.5043
 6451SOL    HW230813   3.080   1.873   5.200 -0.0711 -1.9165 -0.0164
 6452SOL     OW30814   3.275   0.248   8.133 -0.2491 -0.5573  0.3631
 6452SOL    HW130815   3.266   0.201   8.216 -4.2918  1.3264  1.0219
 6452SOL    HW230816   3.361   0.286   8.147 -0.2819 -0.4513  0.2770
 6453SOL     OW30817   1.573   0.613   8.322 -0.5964  0.8480  0.0386
 6453SOL    HW130818   1.656   0.647   8.356  0.4830 -0.3234 -1.4256
 6453SOL    HW230819   1.555   0.546   8.389 -0.2652  1.6911  0.9769
 6454SOL     OW30820   0.139   1.336   0.422 -0.2677  0.2979 -0.3990
 6454SOL    HW130821   0.207   1.403   0.424  1.1941 -1.0681 -3.7503
 6454SOL    HW230822   0.181   1.257   0.388 -1.2014 -0.3822  0.0313
 6455SOL     OW30823   3.493   1.377   3.834  0.2033  0.3113 -0.9788
 6455SOL    HW130824   3.538   1.401   3.753 -2.0340  1.6016 -1.8649
 6455SOL    HW230825   3.535   1.429   3.903 -3.0876  0.1480  1.1496
 6456SOL     OW30826   0.517   1.372   4.222 -0.6120  0.3032 -0.1086
 6456SOL    HW130827   0.536   1.284   4.191 -1.9306 -0.7978  2.2102
 6456SOL    HW230828   0.477   1.352   4.307 -1.5011 -1.8264 -1.0445
 6457SOL     OW30829   2.406   1.681   6.549  0.4305 -0.3322  0.3391
 6457SOL    HW130830   2.388   1.775   6.549 -1.2129 -0.6416 -2.2211
 6457SOL    HW230831   2.427   1.654   6.460 -0.1021 -0.3429  0.2161
 6458SOL     OW30832   4.642   3.387   0.564  0.1874  0.4105 -0.2584
 6458SOL    HW130833   4.548   3.368   0.556  0.5387 -0.4167 -2.4064
 6458SOL    HW230834   4.623   3.475   0.598 -0.3985 -0.2673  1.1588
 6459SOL     OW30835   2.467   0.217   3.643 -0.4224  0.1337  0.1686
 6459SOL    HW130836   2.406   0.146   3.665 -1.2124  1.1385  1.2110
 6459SOL    HW230837   2.414   0.253   3.572  1.1521  0.0768 -1.0266
 6460SOL     OW30838   2.472   0.387   5.501  0.1769  0.2224 -0.2587
 6460SOL    HW130839   2.475   0.312   5.443 -1.4638  0.1393 -0.2445
 6460SOL    HW230840   2.485   0.350   5.589  0.9087  0.9954 -0.0480
 6461SOL     OW30841   3.178   1.285   7.712  0.7889  0.1881  0.0774
 6461SOL    HW130842   3.252   1.269   7.653  1.4275  0.8488  0.6906
 6461SOL    HW230843   3.180   1.377   7.740 -2.5274 -0.1309  1.3873
 6462SOL     OW30844   2.952   1.510  13.563  0.1110 -0.1062 -0.1364
 6462SOL    HW130845   3.024   1.568  13.588  1.1647 -1.5815  0.2541
 6462SOL    HW230846   2.877   1.561  13.595 -1.7409 -1.9683 -1.5377
 6463SOL     OW30847   3.023   0.445  11.966  0.5941  0.3280  0.2670
 6463SOL    HW130848   3.031   0.404  12.052 -0.7819 -1.6038 -0.5315
 6463SOL    HW230849   2.927   0.448  11.970  0.6260  0.1745  1.2723
 6464SOL     OW30850   2.037   4.456   5.673  0.5591 -0.0617 -0.2747
 6464SOL    HW130851   2.009   4.547   5.672  2.2451  0.4682  1.5013
 6464SOL    HW230852   1.976   4.417   5.736  1.2260 -5.1340 -2.7250
 6465SOL     OW30853   1.588   2.124   9.107  0.1568 -0.0700 -0.2571
 6465SOL    HW130854   1.604   2.217   9.088  1.0477 -0.1648  0.0324
 6465SOL    HW230855   1.648   2.123   9.181  1.3136 -0.4757 -1.1883
 6466SOL     OW30856   2.519   0.355   3.272 -0.5510 -0.2847 -0.1849
 6466SOL    HW130857   2.483   0.267   3.259  0.0864 -0.4223 -1.0715
 6466SOL    HW230858   2.499   0.403   3.192  1.0755  0.4226 -0.1636
 6467SOL     OW30859   2.107   2.026   5.738 -0.1335 -0.3032  0.2429
 6467SOL    HW130860   2.177   1.976   5.780  0.1447  0.2201  0.3875
 6467SOL    HW230861   2.131   2.023   5.645 -0.7260 -0.1834  0.0886
 6468SOL     OW30862   0.679   4.068  16.889 -0.1428  0.4163  0.1670
 6468SOL    HW130863   0.752   4.081  16.828  0.9072 -1.1611  1.0833
 6468SOL    HW230864   0.653   4.159  16.901  1.9613  1.0862 -0.2512
 6469SOL     OW30865   3.642   1.373   5.729 -0.7425 -0.3353  0.5034
 6469SOL    HW130866   3.620   1.463   5.705  0.5695 -0.0139  0.5225
 6469SOL    HW230867   3.617   1.313   5.658  2.2877 -1.0163  0.0061
 6470SOL     OW30868   2.320   2.761   7.768  0.1665  0.3694  0.0809
 6470SOL    HW130869   2.283   2.830   7.823  0.3591  0.4257  0.1381
 6470SOL    HW230870   2.252   2.694   7.777  0.1270  0.4408  0.2974
 6471SOL     OW30871   2.126   3.191  11.600  0.2590  0.1691  0.1411
 6471SOL    HW130872   2.174   3.245  11.664  1.0295 -0.6288  0.2420
 6471SOL    HW230873   2.112   3.107  11.644  1.8329 -0.6365 -0.9038
 6472SOL     OW30874   1.985   2.324   2.899  0.1147  0.1026  0.1757
 6472SOL    HW130875   1.904   2.311   2.850  0.6857  1.3764 -1.0901
 6472SOL    HW230876   1.961   2.264   2.969  1.4303 -0.0874  0.4589
 6473SOL     OW30877   4.558   1.533   8.071  0.0642  0.1046  0.2875
 6473SOL    HW130878   4.528   1.612   8.025  0.1439 -0.1512 -0.2077
 6473SOL    HW230879   4.651   1.541   8.052 -0.2462 -0.6500 -1.6289
 6474SOL     OW30880   2.385   2.075   4.260 -0.2974 -0.2448  0.5495
 6474SOL    HW130881   2.352   2.089   4.171  1.7838 -0.4462 -0.2456
 6474SOL    HW230882   2.470   2.033   4.242  0.3804  0.5057  2.0769
 6475SOL     OW30883   1.026   0.005   9.155  0.0001  0.3570  0.3436
 6475SOL    HW130884   0.984   4.648   9.192  0.2653  0.3433  0.6126
 6475SOL    HW230885   0.973   0.077   9.188  1.8964  1.6013  0.6526
 6476SOL     OW30886   0.409   2.216  12.033 -0.9427  0.4773  0.0620
 6476SOL    HW130887   0.454   2.281  11.979  1.2984 -0.5351  0.6838
 6476SOL    HW230888   0.456   2.237  12.114  0.8311 -2.4297 -0.2129
 6477SOL     OW30889   3.916   1.717   0.743 -0.7377  0.5203 -0.9423
 6477SOL    HW130890   3.998   1.761   0.766 -0.7411  0.2248 -0.3662
 6477SOL    HW230891   3.866   1.797   0.726 -0.1440  1.3728  1.3661
 6478SOL     OW30892   4.489   3.655   5.433 -0.7183 -0.4203 -0.5109
 6478SOL    HW130893   4.554   3.698   5.377  0.7084 -1.9841 -0.0806
 6478SOL    HW230894   4.516   3.686   5.519  0.5051  0.3901 -1.1731
 6479SOL     OW30895   3.267   1.183  16.883 -0.2705 -0.3601  0.8296
 6479SOL    HW130896   3.187   1.201  16.834  0.8598  1.7734 -0.2414
 6479SOL    HW230897   3.306   1.270  16.897 -0.4440  0.0029 -1.0094
 6480SOL     OW30898   0.166   0.801   1.198  0.0773 -0.9259  0.6665
 6480SOL    HW130899   0.183   0.894   1.179  1.1621 -0.9421  1.5531
 6480SOL    HW230900   0.110   0.778   1.124  0.8254  0.8828 -0.4584
 6481SOL     OW30901   1.845   0.734  12.446 -0.0007 -0.4981  0.4887
 6481SOL    HW130902   1.763   0.685  12.452 -1.1353  1.2943 -0.3139
 6481SOL    HW230903   1.894   0.700  12.520 -0.2710 -0.4550  0.6887
 6482SOL     OW30904   1.451   0.250  13.265  0.6186  0.3251 -0.6308
 6482SOL    HW130905   1.456   0.155  13.254 -0.9740  0.0258  1.2145
 6482SOL    HW230906   1.537   0.271  13.302  0.8663  0.0223 -1.0341
 6483SOL     OW30907   1.170   2.377   4.671  0.7896 -0.2578  0.4778
 6483SOL    HW130908   1.225   2.311   4.713 -1.8309 -1.8572  1.4132
 6483SOL    HW230909   1.155   2.328   4.590 -1.7139  3.0063 -0.9974
 6484SOL     OW30910   2.365   4.211   5.989 -0.4162 -0.3924 -0.7189
 6484SOL    HW130911   2.314   4.203   5.909 -0.8701 -1.7911 -0.2931
 6484SOL    HW230912   2.342   4.296   6.027 -1.5401 -0.3769 -1.4280
 6485SOL     OW30913   3.896   3.621   6.699  0.1537  0.4250  0.2906
 6485SOL    HW130914   3.852   3.576   6.627 -1.1153  0.9913  0.7180
 6485SOL    HW230915   3.830   3.625   6.769  0.1481 -0.3007  0.3282
 6486SOL     OW30916   1.935   3.314   3.308  0.2792  0.7042 -0.2505
 6486SOL    HW130917   1.858   3.312   3.364 -0.2157 -1.6043 -1.0261
 6486SOL    HW230918   1.928   3.404   3.274  2.0361  1.0069  0.1752
 6487SOL     OW30919   2.070   1.639   4.342  0.2328 -0.7537  0.2327
 6487SOL    HW130920   2.113   1.681   4.267 -3.0101  2.1901 -0.0045
 6487SOL    HW230921   2.012   1.713   4.361 -0.5444 -1.8869  2.1693
 6488SOL     OW30922   1.904   3.603   9.909  0.0845 -0.4083  0.0597
 6488SOL    HW130923   1.856   3.598   9.826  0.0061  0.4102  0.0475
 6488SOL    HW230924   1.841   3.589   9.980 -1.2977  0.5735 -0.9558
 6489SOL     OW30925   4.659   0.866  10.128  0.0041 -0.2005 -0.3230
 6489SOL    HW130926   4.715   0.851  10.204 -1.8770 -0.4852  1.0095
 6489SOL    HW230927   4.574   0.837  10.161  0.8827 -2.6305 -0.2229
 6490SOL     OW30928   4.495   0.785   2.019 -0.0106  0.2944 -0.5600
 6490SOL    HW130929   4.530   0.870   1.993  0.6472  0.9021  2.2879
 6490SOL    HW230930   4.582   0.754   2.045 -1.2958 -1.0104  2.2826
 6491SOL     OW30931   3.400   0.492  13.648  0.2273 -0.1708 -0.0412
 6491SOL    HW130932   3.318   0.445  13.660 -0.4041  0.7338 -0.8439
 6491SOL    HW230933   3.434   0.503  13.736  0.1606 -0.0993 -0.0240
 6492SOL     OW30934   0.727   0.761  16.046  0.2814 -0.0099 -0.5001
 6492SOL    HW130935   0.634   0.754  16.025 -0.0380 -3.0040  1.9179
 6492SOL    HW230936   0.720   0.814  16.125 -1.4456  0.9067 -1.2610
 6493SOL     OW30937   1.846   1.060  10.677  0.2573  0.7010 -0.6368
 6493SOL    HW130938   1.908   1.105  10.735 -0.0948  0.3865 -0.0170
 6493SOL    HW230939   1.837   0.973  10.717 -2.7617  1.3798  0.1273
 6494SOL     OW30940   3.790   3.274   2.082  0.4525 -0.1350 -0.0540
 6494SOL    HW130941   3.735   3.342   2.121  4.1706  1.3165  2.5812
 6494SOL    HW230942   3.778   3.281   1.987  0.8127 -0.4650 -0.1216
 6495SOL     OW30943   2.263   1.077   7.392  0.3574 -0.3664  0.0079
 6495SOL    HW130944   2.326   1.077   7.320 -0.3936  0.3613 -0.6524
 6495SOL    HW230945   2.274   1.162   7.436  2.1677 -0.4092 -0.3736
 6496SOL     OW30946   4.571   2.148   7.832 -0.0568  0.1427 -0.3258
 6496SOL    HW130947   4.661   2.144   7.801 -0.0373  2.3668 -0.5650
 6496SOL    HW230948   4.554   2.064   7.874  1.0025 -1.1953 -2.5794
 6497SOL     OW30949   4.631   1.366  14.467 -0.1370 -0.2718  0.1320
 6497SOL    HW130950   4.604   1.274  14.455  1.3434 -0.8310  1.0878
 6497SOL    HW230951   4.626   1.391  14.375 -1.8187 -0.5613  0.1355
 6498SOL     OW30952   2.739   4.152   9.391  0.1031 -0.4038 -0.1231
 6498SOL    HW130953   2.820   4.201   9.382 -0.5796  0.7611  0.0769
 6498SOL    HW230954   2.737   4.099   9.311 -0.0278 -1.2006  0.4100
 6499SOL     OW30955   1.722   1.077  14.703 -0.0068  0.1388 -0.0475
 6499SOL    HW130956   1.704   1.018  14.776  0.0496 -0.5353 -0.5803
 6499SOL    HW230957   1.668   1.043  14.631 -0.7048  2.1303 -0.4544
 6500SOL     OW30958   0.874   2.414   7.044  0.0790  0.9175  0.1254
 6500SOL    HW130959   0.955   2.409   7.094 -0.4157  0.5851  0.8940
 6500SOL    HW230960   0.823   2.334   7.056  0.7582  0.3801 -0.5629
 6501SOL     OW30961   0.206   0.607   7.106  0.3184 -0.2236  0.7658
 6501SOL    HW130962   0.269   0.538   7.124 -0.2149 -0.6548  0.9609
 6501SOL    HW230963   0.145   0.569   7.043  0.5113 -1.6737  1.4578
 6502SOL     OW30964   2.984   0.014  16.853 -0.5259 -0.5800  0.0595
 6502SOL    HW130965   3.021   4.711  16.938  0.4322  0.2213 -0.1385
 6502SOL    HW230966   2.948   4.652  16.820  1.6358 -1.4347 -0.1141
 6503SOL     OW30967   1.090   1.957   3.638 -0.0867  0.1355  0.3390
 6503SOL    HW130968   1.051   2.037   3.602 -1.1648  0.0227  1.2501
 6503SOL    HW230969   1.183   1.974   3.629 -0.1797  0.6376  0.3294
 6504SOL     OW30970   4.250   1.547  10.014 -0.2971  0.2922  0.5650
 6504SOL    HW130971   4.340   1.516  10.024 -1.0322 -1.3281  2.2190
 6504SOL    HW230972   4.250   1.605  10.091 -0.5152  0.8006  0.1762
 6505SOL     OW30973   4.311   4.462  16.408  0.2533 -0.0127  0.0458
 6505SOL    HW130974   4.254   4.399  16.453  1.9921 -1.7210 -0.1286
 6505SOL    HW230975   4.378   4.400  16.378  1.7487  1.2217  0.8332
 6506SOL     OW30976   3.985   1.400   8.412  0.5095  0.2409  0.3256
 6506SOL    HW130977   4.007   1.484   8.453  1.3779  0.3222 -0.3101
 6506SOL    HW230978   4.029   1.333   8.465  0.6692 -2.0069 -2.6817
 6507SOL     OW30979   2.953   4.073  11.349  0.0193 -1.1645 -0.0392
 6507SOL    HW130980   2.885   4.075  11.281  0.2559  3.6775 -0.0843
 6507SOL    HW230981   2.976   4.166  11.350  2.3202 -1.7413  1.0267
 6508SOL     OW30982   3.537   1.578   2.589 -0.9110 -0.0490 -0.2668
 6508SOL    HW130983   3.560   1.537   2.505 -0.9899 -0.1846 -0.2221
 6508SOL    HW230984   3.623   1.581   2.629 -3.2396 -0.1382  4.6740
 6509SOL     OW30985   1.637   2.958   7.593  0.3982  0.3370 -0.1120
 6509SOL    HW130986   1.550   2.981   7.562  1.0285  1.2943 -1.1872
 6509SOL    HW230987   1.604   2.948   7.682 -1.5354  1.6156 -0.6924
 6510SOL     OW30988   3.470   1.892   6.547 -0.5364  0.6448 -0.4658
 6510SOL    HW130989   3.385   1.850   6.557 -0.3904  0.6711  0.9572
 6510SOL    HW230990   3.455   1.972   6.496 -0.7575  0.1413 -1.1796
 6511SOL     OW30991   3.515   0.279   1.582  0.3102  0.0421  0.2324
 6511SOL    HW130992   3.453   0.229   1.530  0.4048  2.2548 -1.9739
 6511SOL    HW230993   3.483   0.369   1.580  2.4596  0.8253  0.4170
 6512SOL     OW30994   4.659   2.239   9.183 -0.3110  0.3753 -0.3725
 6512SOL    HW130995   4.633   2.305   9.247  0.7143  0.8624 -0.4596
 6512SOL    HW230996   4.648   2.279   9.097 -0.4224 -0.4637 -0.7455
 6513SOL     OW30997   3.386   0.591   9.789  0.1752  0.2882  0.8237
 6513SOL    HW130998   3.296   0.561   9.785  0.8986 -1.9615  1.7031
 6513SOL    HW230999   3.385   0.657   9.719 -0.1350 -0.5706  0.0197
 6514SOL     OW31000   0.813   1.664   2.479  0.0210 -0.0423 -0.0781
 6514SOL    HW131001   0.798   1.569   2.479  0.3025 -0.0855  1.7872
 6514SOL    HW231002   0.908   1.674   2.488  0.0460  2.5525 -3.2014
 6515SOL     OW31003   1.468   0.297   6.156  0.2076 -0.1421 -0.2845
 6515SOL    HW131004   1.464   0.202   6.150 -0.3847  0.0109 -2.1632
 6515SOL    HW231005   1.462   0.331   6.066 -0.3070 -1.3274 -0.6921
 6516SOL     OW31006   0.978   0.682  13.981 -0.2206  0.1925 -0.1747
 6516SOL    HW131007   0.915   0.713  14.046 -1.0069  0.9493 -1.2935
 6516SOL    HW231008   0.946   0.727  13.903 -1.4934 -0.2901  0.0594
 6517SOL     OW31009   1.954   2.700  17.523 -0.1715  0.3171  0.1419
 6517SOL    HW131010   1.905   2.631  17.479  2.0839 -1.6411  0.6688
 6517SOL    HW231011   1.892   2.772  17.524 -0.5449 -0.0043 -0.1432
 6518SOL     OW31012   0.850   2.145   6.872 -0.3344 -0.3049 -0.0722
 6518SOL    HW131013   0.768   2.191   6.852  0.1010 -0.9329 -3.2924
 6518SOL    HW231014   0.912   2.180   6.808  0.2154 -2.9950 -0.9967
 6519SOL     OW31015   3.770   1.622   3.156 -0.3244  0.2670 -0.1226
 6519SOL    HW131016   3.681   1.587   3.153 -0.2315  0.1279 -1.7518
 6519SOL    HW231017   3.797   1.564   3.084 -0.7891 -0.2061  0.0833
 6520SOL     OW31018   0.416   1.585   4.029 -0.3310 -0.1553  0.0050
 6520SOL    HW131019   0.441   1.511   4.085  1.7509 -0.1080 -0.8447
 6520SOL    HW231020   0.470   1.583   3.950 -0.0490  2.8274  0.1517
 6521SOL     OW31021   2.338   3.208   9.503  0.1631  0.0719 -0.6254
 6521SOL    HW131022   2.384   3.292   9.500  0.2054  0.0116 -2.1404
 6521SOL    HW231023   2.408   3.148   9.527 -2.2295 -2.0741  1.0099
 6522SOL     OW31024   2.169   3.684   3.441 -0.4893 -0.1065 -0.1390
 6522SOL    HW131025   2.255   3.642   3.450 -0.4839 -0.0185  0.2570
 6522SOL    HW231026   2.104   3.621   3.472 -1.4248  0.1474 -1.5904
 6523SOL     OW31027   3.565   2.171   2.370 -0.0540 -0.1655 -0.8708
 6523SOL    HW131028   3.470   2.183   2.369 -0.0353  0.1857  0.9175
 6523SOL    HW231029   3.557   2.084   2.409  0.6392 -0.1278 -0.6344
 6524SOL     OW31030   1.789   1.934  15.915  0.3697  0.4963  0.2378
 6524SOL    HW131031   1.879   1.933  15.882  0.2440  0.2351 -0.0977
 6524SOL    HW231032   1.772   1.844  15.945  0.4967  0.7619  1.1298
 6525SOL     OW31033   2.965   4.177  10.151 -0.3771  0.6667 -0.2215
 6525SOL    HW131034   2.939   4.085  10.147 -0.3045  0.6231  0.3539
 6525SOL    HW231035   3.056   4.169  10.179 -0.5741  1.2884  0.6065
 6526SOL     OW31036   3.540   0.465   6.754 -0.3061  0.9326  0.6217
 6526SOL    HW131037   3.561   0.558   6.746 -1.7566  1.2476  0.4431
 6526SOL    HW231038   3.612   0.431   6.806 -1.0968 -2.3067 -0.4005
 6527SOL     OW31039   3.042   4.392   1.542  0.4827 -0.3226  0.2236
 6527SOL    HW131040   3.034   4.306   1.500  0.2212  0.2237 -0.8167
 6527SOL    HW231041   3.126   4.394   1.590  0.2652 -0.7814  0.6234
 6528SOL     OW31042   4.173   1.363   7.731 -0.4193  0.0004 -0.1831
 6528SOL    HW131043   4.165   1.383   7.637 -1.2376  0.5843  0.0039
 6528SOL    HW231044   4.137   1.276   7.746 -0.0003 -0.2886 -0.8768
 6529SOL     OW31045   0.857   0.460   2.474 -0.4040 -0.1091 -0.3475
 6529SOL    HW131046   0.839   0.517   2.399 -2.5882 -0.6686 -0.2440
 6529SOL    HW231047   0.877   0.378   2.430  1.0768  0.4742 -0.7507
 6530SOL     OW31048   2.194   2.782   2.107 -0.5102  0.3587  0.0552
 6530SOL    HW131049   2.281   2.755   2.136 -1.6914 -0.7248  2.6693
 6530SOL    HW231050   2.185   2.726   2.030  0.6998  2.5525 -1.6361
 6531SOL     OW31051   4.586   1.990   6.589  0.3620  0.1187  0.5769
 6531SOL    HW131052   4.682   1.994   6.586  0.4956 -2.5116  0.5906
 6531SOL    HW231053   4.577   1.938   6.509 -1.1002  0.2312  0.6680
 6532SOL     OW31054   2.918   3.738   2.142  0.2982 -0.6912 -0.1473
 6532SOL    HW131055   2.878   3.797   2.078  0.4627  0.4503  0.7765
 6532SOL    HW231056   2.993   3.708   2.090  0.6391 -1.3582  0.7329
 6533SOL     OW31057   4.238   2.316   2.843  0.0493 -0.2370 -0.0567
 6533SOL    HW131058   4.167   2.349   2.898 -0.0334 -1.2167  0.4383
 6533SOL    HW231059   4.296   2.390   2.825 -1.7600  1.8078  2.6079
 6534SOL     OW31060   3.573   1.870   3.142  0.2555  0.0038  0.0901
 6534SOL    HW131061   3.649   1.921   3.114  0.8298 -0.4500  0.8303
 6534SOL    HW231062   3.597   1.778   3.129  0.7639 -0.0050  1.0631
 6535SOL     OW31063   0.103   2.409   4.498 -0.4774  0.7704  0.3181
 6535SOL    HW131064   0.067   2.492   4.467 -1.9815 -0.5884 -1.5645
 6535SOL    HW231065   0.134   2.374   4.414 -0.0982  1.6328  0.0931
 6536SOL     OW31066   1.477   2.525   2.540  0.5602  0.2813  0.2149
 6536SOL    HW131067   1.408   2.479   2.493 -1.1198  4.3523 -1.2922
 6536SOL    HW231068   1.513   2.581   2.470  0.4811  2.1382  1.6566
 6537SOL     OW31069   4.435   2.861   2.609 -0.0961 -0.2119  0.1009
 6537SOL    HW131070   4.435   2.846   2.514  2.7315 -3.8309  0.6458
 6537SOL    HW231071   4.518   2.820   2.635  0.3940  1.1212  0.6180
 6538SOL     OW31072   3.973   0.732   5.987  0.1293  0.1783  0.0129
 6538SOL    HW131073   3.989   0.660   6.047  0.8710  0.7717  0.5321
 6538SOL    HW231074   3.982   0.814   6.035  0.3841  0.6410 -0.8243
 6539SOL     OW31075   4.027   3.729  10.383  0.7242 -0.0046  0.0901
 6539SOL    HW131076   3.938   3.704  10.361  0.2580 -0.3254  2.3196
 6539SOL    HW231077   4.071   3.644  10.381 -1.5966 -1.2221  0.4365
 6540SOL     OW31078   2.172   0.770   9.587 -0.0008  0.3990 -0.8775
 6540SOL    HW131079   2.128   0.715   9.522  1.6702 -1.9205 -0.0405
 6540SOL    HW231080   2.093   0.808   9.625  0.5619 -0.3939  1.0969
 6541SOL     OW31081   4.548   4.133   8.641 -0.0841  0.1309  0.1088
 6541SOL    HW131082   4.526   4.114   8.732  0.5014 -0.8731  0.0475
 6541SOL    HW231083   4.463   4.118   8.599  0.8815 -1.1291 -1.4191
 6542SOL     OW31084   0.106   4.622   2.769  0.7531 -0.6994  0.1016
 6542SOL    HW131085   0.178   4.680   2.745 -0.4716  0.3703 -0.9643
 6542SOL    HW231086   0.046   4.639   2.697 -0.1761  0.3294  1.1220
 6543SOL     OW31087   2.244   4.531  10.851 -0.1529 -0.5691 -0.0102
 6543SOL    HW131088   2.170   4.586  10.877 -1.2621 -2.2991  0.5089
 6543SOL    HW231089   2.244   4.537  10.756  2.6198 -1.1239 -0.0291
 6544SOL     OW31090   2.198   3.256  11.341 -0.0192 -0.3038  0.1575
 6544SOL    HW131091   2.246   3.173  11.343 -1.0876 -0.9102  0.5605
 6544SOL    HW231092   2.161   3.259  11.430 -1.5852 -1.9404 -0.4425
 6545SOL     OW31093   3.534   0.964   5.107  0.0911  0.2453  0.0760
 6545SOL    HW131094   3.588   0.997   5.179 -1.2390 -1.0990  1.7059
 6545SOL    HW231095   3.517   0.872   5.129  1.7739  0.0814  0.6799
 6546SOL     OW31096   3.482   1.660   8.977 -0.1738  0.6018  0.2040
 6546SOL    HW131097   3.448   1.747   8.996 -3.6507 -1.0613  1.5082
 6546SOL    HW231098   3.494   1.623   9.064 -0.2269 -0.5120 -0.2579
 6547SOL     OW31099   1.073   0.307   7.796  0.1332 -0.2055  0.1951
 6547SOL    HW131100   1.122   0.341   7.872 -2.9475 -0.9877  2.5092
 6547SOL    HW231101   1.014   0.381   7.784  0.3710 -0.1482 -0.6222
 6548SOL     OW31102   0.701   0.906  10.032 -0.4303 -0.4670 -0.3096
 6548SOL    HW131103   0.688   0.867  10.118 -0.2199 -2.2651 -1.0875
 6548SOL    HW231104   0.794   0.924  10.022 -0.3351 -0.5571  0.4614
 6549SOL     OW31105   4.673   0.530  12.475  0.6727 -0.0228  0.8860
 6549SOL    HW131106   4.700   0.439  12.479  0.6267 -0.1143 -0.7815
 6549SOL    HW231107   4.673   0.549  12.569 -1.1604  2.2641  0.4448
 6550SOL     OW31108   0.978   4.118   0.823 -0.2346  0.5200  0.1471
 6550SOL    HW131109   0.919   4.192   0.835 -0.0735  0.3824  1.8600
 6550SOL    HW231110   1.013   4.111   0.912  0.6043  1.3449 -0.1100
 6551SOL     OW31111   4.636   4.015   6.170 -0.0191 -0.0481  0.2128
 6551SOL    HW131112   4.646   3.954   6.243  0.6447 -1.2755 -0.9074
 6551SOL    HW231113   4.627   3.956   6.096  0.3412  0.6974 -0.4359
 6552SOL     OW31114   2.430   2.372   1.818 -0.0605  0.5289  0.1376
 6552SOL    HW131115   2.407   2.457   1.855 -2.9233 -1.2249  2.3939
 6552SOL    HW231116   2.503   2.395   1.761  0.4131 -1.2297  0.0140
 6553SOL     OW31117   0.579   3.145   3.328  0.1997  0.0899 -0.5189
 6553SOL    HW131118   0.526   3.147   3.248 -0.8881  0.1244  0.2017
 6553SOL    HW231119   0.652   3.083   3.318 -1.6238 -2.2136  0.4097
 6554SOL     OW31120   2.484   3.537  12.064 -0.3662 -0.4259  0.1124
 6554SOL    HW131121   2.561   3.576  12.022  1.4030 -0.8991  2.8820
 6554SOL    HW231122   2.503   3.446  12.041  1.2171  0.1299 -0.8235
 6555SOL     OW31123   1.759   3.082  15.130  0.7510  0.3310  0.4775
 6555SOL    HW131124   1.788   2.998  15.092  2.3383  0.4927  1.3103
 6555SOL    HW231125   1.699   3.043  15.194 -0.7809 -2.0402 -2.4288
 6556SOL     OW31126   0.182   1.136  14.566 -0.0124  0.1057 -0.0228
 6556SOL    HW131127   0.112   1.146  14.630 -0.8469  0.7031 -1.0155
 6556SOL    HW231128   0.244   1.201  14.596  1.4020 -1.5390  0.6295
 6557SOL     OW31129   1.890   3.357   7.969  0.0835  0.1484  0.2549
 6557SOL    HW131130   1.911   3.443   7.935 -1.8497  0.8774  0.9099
 6557SOL    HW231131   1.821   3.331   7.908 -2.0764  1.3979  2.1660
 6558SOL     OW31132   3.643   1.152  16.805  0.5485  0.1022  0.1501
 6558SOL    HW131133   3.674   1.189  16.888  0.8233  0.2746 -0.0299
 6558SOL    HW231134   3.661   1.058  16.813  0.5587  0.2080  1.4485
 6559SOL     OW31135   2.590   4.516  13.040 -0.2508 -0.5047  0.7610
 6559SOL    HW131136   2.560   4.439  12.992 -0.8658  0.5534 -0.5417
 6559SOL    HW231137   2.627   4.468  13.114  0.2238  0.7063  1.3149
 6560SOL     OW31138   4.075   4.333  16.526  0.2372  0.0385  0.4041
 6560SOL    HW131139   4.019   4.277  16.473 -0.4341  1.2516 -0.1611
 6560SOL    HW231140   4.025   4.413  16.539  0.1386  0.0676 -0.1794
 6561SOL     OW31141   3.807   1.139  14.974 -0.3531 -0.8398 -0.4210
 6561SOL    HW131142   3.841   1.217  15.017 -2.8788 -1.2592  2.3072
 6561SOL    HW231143   3.793   1.161  14.882 -0.3673  0.1336 -0.1894
 6562SOL     OW31144   1.968   0.563  10.368 -0.0001  0.3425  0.0893
 6562SOL    HW131145   1.967   0.491  10.306 -1.7892  0.5202 -0.0937
 6562SOL    HW231146   1.918   0.626  10.316  0.3221 -0.5920 -1.3540
 6563SOL     OW31147   1.932   4.120  11.452  0.2995 -0.1084 -0.4767
 6563SOL    HW131148   1.891   4.052  11.505  2.2222 -0.0077  1.1370
 6563SOL    HW231149   1.879   4.197  11.469  1.5705  0.4705  0.8635
 6564SOL     OW31150   2.505   3.396   6.166  0.2440 -0.5491  0.3943
 6564SOL    HW131151   2.424   3.385   6.115  0.7041 -0.3352 -0.3945
 6564SOL    HW231152   2.549   3.454   6.103  0.1816 -0.7325  0.1829
 6565SOL     OW31153   1.672   2.340   3.911  0.2485  0.4136 -0.9698
 6565SOL    HW131154   1.698   2.328   4.003  2.1138  3.0583 -1.1286
 6565SOL    HW231155   1.579   2.343   3.934  0.7324  0.4809  0.9839
 6566SOL     OW31156   0.032   4.068   8.120  0.3653  0.0850  0.0686
 6566SOL    HW131157   0.072   4.128   8.183 -0.2772  1.0759 -0.4829
 6566SOL    HW231158   0.021   4.125   8.044 -1.7339 -1.2276 -0.6089
 6567SOL     OW31159   0.135   2.657  16.517 -0.1738 -0.0785 -0.0695
 6567SOL    HW131160   0.080   2.731  16.541  2.0200  0.9290  1.8163
 6567SOL    HW231161   0.070   2.605  16.470 -2.7115  1.5745  1.6159
 6568SOL     OW31162   2.888   1.767   5.198 -0.8214 -0.0267  0.1809
 6568SOL    HW131163   2.890   1.688   5.253  0.0781 -1.0222 -1.2633
 6568SOL    HW231164   2.808   1.747   5.150  0.2248  1.4734 -2.2293
 6569SOL     OW31165   0.292   2.821   9.447 -0.1832  0.1709  0.2805
 6569SOL    HW131166   0.197   2.834   9.451 -0.3029 -0.0272 -1.7644
 6569SOL    HW231167   0.307   2.751   9.510 -0.7563 -0.2508 -0.0576
 6570SOL     OW31168   4.351   1.661  10.599 -0.4817 -0.6604 -0.2477
 6570SOL    HW131169   4.272   1.681  10.648 -0.6589 -1.9264 -0.0209
 6570SOL    HW231170   4.328   1.572  10.573  0.7395 -1.5134  1.5311
 6571SOL     OW31171   0.707   2.899   3.237  0.0339  0.1522 -0.0291
 6571SOL    HW131172   0.700   2.811   3.274  0.0548  0.0206 -0.3454
 6571SOL    HW231173   0.629   2.905   3.183 -1.0141  0.6096  1.5187
 6572SOL     OW31174   1.963   1.490  16.391  0.0729 -0.1788 -0.7452
 6572SOL    HW131175   2.025   1.418  16.379 -1.4191 -1.4740 -0.6990
 6572SOL    HW231176   2.015   1.555  16.438 -1.7209  0.7906 -0.0729
 6573SOL     OW31177   3.491   4.377   8.519  0.0259 -0.0422  0.0627
 6573SOL    HW131178   3.439   4.297   8.523  0.7858 -0.4939  0.7732
 6573SOL    HW231179   3.561   4.360   8.582  0.9731 -3.5706 -1.9863
 6574SOL     OW31180   0.956   1.062   8.861  0.3610 -0.1088 -0.3465
 6574SOL    HW131181   0.938   1.155   8.849  0.8497  0.1990  1.2890
 6574SOL    HW231182   0.868   1.033   8.885  0.2231  0.0737 -0.6342
 6575SOL     OW31183   2.466   1.335  16.071 -0.3164  0.2211 -0.2557
 6575SOL    HW131184   2.517   1.416  16.080  0.8778 -0.4551 -0.9552
 6575SOL    HW231185   2.468   1.321  15.976  0.1754  1.6260 -0.4543
 6576SOL     OW31186   1.735   0.577  14.378 -0.3994 -0.1587 -0.1838
 6576SOL    HW131187   1.710   0.505  14.436  0.9145  0.7091  1.4708
 6576SOL    HW231188   1.697   0.655  14.420  1.4832  0.0982  1.0224
 6577SOL     OW31189   2.498   3.996   8.280 -0.3267 -0.8959 -0.0463
 6577SOL    HW131190   2.413   4.016   8.318 -0.7722 -1.2981 -0.8190
 6577SOL    HW231191   2.521   4.069   8.222 -0.6732 -0.3726  0.4775
 6578SOL     OW31192   4.458   4.054  13.332  0.4716  0.1343  0.5862
 6578SOL    HW131193   4.408   4.132  13.355  0.4209 -0.2876  1.9033
 6578SOL    HW231194   4.501   4.083  13.251 -0.4885  2.3936  0.9062
 6579SOL     OW31195   3.691   2.997   5.280  0.3641  0.5916 -0.0330
 6579SOL    HW131196   3.687   3.047   5.362 -0.2279  0.7609 -0.1615
 6579SOL    HW231197   3.644   2.913   5.286  1.1683 -0.0591 -2.8159
 6580SOL     OW31198   2.606   1.458   9.073  0.9399 -0.4771  0.0175
 6580SOL    HW131199   2.556   1.490   9.147  2.9103  2.5148  0.0448
 6580SOL    HW231200   2.547   1.393   9.034 -0.0452 -0.6878  1.8776
 6581SOL     OW31201   1.550   1.076  12.520  0.1810  0.4082  0.1753
 6581SOL    HW131202   1.489   1.057  12.591 -0.0150 -1.4044 -0.5016
 6581SOL    HW231203   1.545   1.002  12.460 -1.8151  0.1226  0.7035
 6582SOL     OW31204   4.203   1.438  11.787 -0.0621  0.3212 -0.1278
 6582SOL    HW131205   4.237   1.350  11.771 -1.2895 -0.7061  2.9274
 6582SOL    HW231206   4.144   1.455  11.714 -0.8753 -0.1726  0.4231
 6583SOL     OW31207   1.494   4.371   5.187 -0.2683 -0.2949  0.5648
 6583SOL    HW131208   1.474   4.279   5.170  0.1844 -0.3250  0.2040
 6583SOL    HW231209   1.576   4.371   5.235  0.8232 -0.1118 -1.2777
 6584SOL     OW31210   3.413   3.269   5.657 -0.0502 -0.3657  0.4763
 6584SOL    HW131211   3.398   3.361   5.637  0.7103 -0.7452 -1.8384
 6584SOL    HW231212   3.488   3.284   5.715 -1.3377 -0.6828  2.1936
 6585SOL     OW31213   3.061   3.877  11.821  0.2109 -0.4354  0.1588
 6585SOL    HW131214   3.039   3.800  11.874  1.6960 -1.3399 -0.5243
 6585SOL    HW231215   3.135   3.917  11.867  0.2878  1.1749 -1.3650
 6586SOL     OW31216   0.651   2.766   4.483  0.0021 -0.3320  0.0858
 6586SOL    HW131217   0.675   2.712   4.558 -2.2259 -2.7376 -0.9479
 6586SOL    HW231218   0.661   2.856   4.515 -0.3081 -0.1259 -0.3931
 6587SOL     OW31219   4.345   2.227  17.204 -0.0758 -0.2936  0.6163
 6587SOL    HW131220   4.349   2.151  17.146 -0.6645 -0.0586  0.2617
 6587SOL    HW231221   4.271   2.266  17.157  0.0402  1.0877  1.5883
 6588SOL     OW31222   1.868   0.218   3.722  0.4776 -0.0294 -0.1920
 6588SOL    HW131223   1.864   0.278   3.648  0.8896 -1.4712 -1.3768
 6588SOL    HW231224   1.894   0.139   3.675  0.6122 -0.2358  0.2294
 6589SOL     OW31225   2.022   1.623  11.783 -0.0526 -0.2074 -0.2022
 6589SOL    HW131226   2.086   1.687  11.813 -1.4745  1.3968 -0.6027
 6589SOL    HW231227   1.939   1.641  11.828  0.3672  0.1674  0.4077
 6590SOL     OW31228   4.600   0.363   3.359 -0.2504  0.2736  0.6279
 6590SOL    HW131229   4.586   0.274   3.391 -1.5940  0.4072  0.3920
 6590SOL    HW231230   4.524   0.357   3.301  0.7318  0.7424 -0.7277
 6591SOL     OW31231   3.358   3.524   5.534  0.1543 -0.0199 -0.3517
 6591SOL    HW131232   3.373   3.521   5.440  0.8274  3.1330 -0.3574
 6591SOL    HW231233   3.385   3.613   5.556 -2.1825  1.0691 -1.8952
 6592SOL     OW31234   0.421   3.357   4.159  0.0946  0.8928  0.3589
 6592SOL    HW131235   0.503   3.399   4.133 -0.7194  2.1118 -0.2560
 6592SOL    HW231236   0.439   3.265   4.177  1.9560  1.3054  0.5436
 6593SOL     OW31237   3.878   3.911   7.377  0.0955 -0.7748 -0.6122
 6593SOL    HW131238   3.929   3.977   7.330  1.0409  0.6056  2.3055
 6593SOL    HW231239   3.915   3.907   7.465 -0.7667  0.3676 -0.1933
 6594SOL     OW31240   3.294   1.437   1.710  0.0667 -0.5028 -0.0383
 6594SOL    HW131241   3.232   1.465   1.778 -2.2057 -0.3755 -2.1434
 6594SOL    HW231242   3.258   1.493   1.641 -0.8443 -2.1714 -0.9346
 6595SOL     OW31243   2.314   2.378   3.431 -0.4804 -0.4354  0.5603
 6595SOL    HW131244   2.336   2.451   3.373  1.0617 -1.7204 -0.4903
 6595SOL    HW231245   2.223   2.399   3.452 -1.0239 -2.0105 -0.2523
 6596SOL     OW31246   2.792   0.027  11.223  0.1869  0.1693  0.4301
 6596SOL    HW131247   2.886   0.015  11.213  0.3178 -0.9512  2.8724
 6596SOL    HW231248   2.759   4.682  11.162  1.2738 -0.1436  0.1827
 6597SOL     OW31249   3.468   0.160   8.772 -0.3715 -0.4214  0.4705
 6597SOL    HW131250   3.492   0.149   8.679 -0.6083 -1.2573  0.5083
 6597SOL    HW231251   3.531   0.225   8.801 -0.5649 -0.1557  0.2929
 6598SOL     OW31252   4.434   4.594   3.589  0.2244  0.7993 -0.1945
 6598SOL    HW131253   4.379   4.542   3.648 -2.7043  0.8438 -2.9014
 6598SOL    HW231254   4.431   4.552   3.503 -1.2184  0.5657 -0.0311
 6599SOL     OW31255   3.576   0.839   3.581 -0.1727  0.4817  0.6058
 6599SOL    HW131256   3.486   0.832   3.550  0.0748  0.6182 -0.1448
 6599SOL    HW231257   3.633   0.825   3.505 -0.5535 -1.5221  0.7036
 6600SOL     OW31258   0.443   0.564   6.178 -0.7802  0.5248  0.5620
 6600SOL    HW131259   0.358   0.556   6.134 -0.9688 -0.0759  1.0379
 6600SOL    HW231260   0.431   0.510   6.256 -1.0622  2.1475  1.6450
 6601SOL     OW31261   0.465   2.864   2.707 -0.0833 -0.2990 -0.9687
 6601SOL    HW131262   0.380   2.873   2.750  0.1371  2.2174 -1.0429
 6601SOL    HW231263   0.521   2.848   2.783  0.3268 -0.6954 -1.3523
 6602SOL     OW31264   0.577   1.138  17.049  0.1056 -0.1411 -0.2453
 6602SOL    HW131265   0.627   1.060  17.073  0.1251  0.4866  1.7006
 6602SOL    HW231266   0.637   1.208  17.075 -0.8544  0.2584  0.8829
 6603SOL     OW31267   2.544   1.179   5.469  0.0020  0.6520  0.2496
 6603SOL    HW131268   2.634   1.169   5.440 -0.0047  1.0356  0.0956
 6603SOL    HW231269   2.509   1.164   5.382  0.0761  1.9676  0.0001
 6604SOL     OW31270   3.729   1.345  10.124 -0.2360  0.3134 -0.5745
 6604SOL    HW131271   3.682   1.414  10.077 -0.6470  0.2580 -0.2444
 6604SOL    HW231272   3.807   1.390  10.159 -0.6901 -0.2813  1.2211
 6605SOL     OW31273   1.303   4.419  11.343 -0.0343 -0.4276 -0.2857
 6605SOL    HW131274   1.350   4.367  11.408  0.6683  0.6975  0.1070
 6605SOL    HW231275   1.221   4.371  11.334 -0.7125  0.5221  0.8746
 6606SOL     OW31276   3.716   3.784   4.024 -0.4530 -0.1564 -0.3583
 6606SOL    HW131277   3.779   3.723   4.062  1.3931  1.4577 -0.8334
 6606SOL    HW231278   3.635   3.744   4.055 -0.5793  1.0101  0.8503
 6607SOL     OW31279   2.428   2.808   5.633 -0.0359  0.9080 -0.3731
 6607SOL    HW131280   2.412   2.902   5.636  2.6404  1.3807 -1.3674
 6607SOL    HW231281   2.498   2.791   5.695 -0.2905 -3.3430 -1.2447
 6608SOL     OW31282   2.223   2.432   4.514  0.3147  0.2297 -0.7343
 6608SOL    HW131283   2.175   2.404   4.593 -0.9458  1.3263 -1.0978
 6608SOL    HW231284   2.279   2.355   4.505 -1.5280 -1.4381  1.8521
 6609SOL     OW31285   3.276   4.556  16.802 -0.1960 -0.1761  0.5603
 6609SOL    HW131286   3.300   4.486  16.741  0.8853  2.5868 -2.1885
 6609SOL    HW231287   3.366   4.554  16.835  0.1794 -3.9911 -0.6946
 6610SOL     OW31288   3.049   4.665   4.092 -0.7376 -0.1431  0.4170
 6610SOL    HW131289   2.954   4.664   4.083 -0.6280 -3.1381 -0.3510
 6610SOL    HW231290   3.085   4.666   4.004 -0.1461  0.4132  0.6588
 6611SOL     OW31291   4.589   2.378   9.426 -0.4433 -0.3523 -0.2262
 6611SOL    HW131292   4.592   2.426   9.509 -0.0067  0.8858 -0.9528
 6611SOL    HW231293   4.515   2.416   9.378 -0.1541  2.1587  1.2715
 6612SOL     OW31294   3.569   3.469  11.934  0.3910  0.6191  0.5416
 6612SOL    HW131295   3.482   3.433  11.919  0.4626 -0.1172  1.8229
 6612SOL    HW231296   3.547   3.524  12.010  0.4099  1.2826  0.0683
 6613SOL     OW31297   3.908   1.496   2.946 -0.5553  0.4313  0.6156
 6613SOL    HW131298   3.916   1.401   2.940 -1.0608  0.2891  2.2802
 6613SOL    HW231299   4.000   1.524   2.953 -0.3972  0.0644 -0.0468
 6614SOL     OW31300   3.766   3.370   0.616  0.6732 -0.1847 -0.2553
 6614SOL    HW131301   3.814   3.409   0.690 -1.6194  2.1299  0.0198
 6614SOL    HW231302   3.677   3.372   0.652  0.4897 -1.3251 -0.6541
 6615SOL     OW31303   2.193   3.745   5.514 -0.5417 -0.0619  0.1682
 6615SOL    HW131304   2.159   3.833   5.499  1.9410  0.8647 -0.1002
 6615SOL    HW231305   2.288   3.761   5.510 -0.6340  0.9096  1.8031
 6616SOL     OW31306   3.738   4.410  10.487  0.2122 -0.0779 -0.0887
 6616SOL    HW131307   3.754   4.322  10.453 -1.4075 -0.1859 -0.5734
 6616SOL    HW231308   3.785   4.467  10.426 -1.3592  2.8514  1.4429
 6617SOL     OW31309   4.136   3.068   7.211  0.1940 -0.2645 -0.2308
 6617SOL    HW131310   4.196   3.001   7.180 -1.1391 -1.1770 -0.8307
 6617SOL    HW231311   4.202   3.133   7.238  1.6785 -1.8536 -0.0559
 6618SOL     OW31312   0.327   0.097   0.493  0.2530  0.3284  0.0315
 6618SOL    HW131313   0.416   0.068   0.512 -0.3285  0.0987  2.4616
 6618SOL    HW231314   0.327   0.068   0.402 -0.0116  0.1324  0.0972
 6619SOL     OW31315   4.087   1.768  12.143 -0.7135 -0.0762  0.2175
 6619SOL    HW131316   4.008   1.821  12.140  0.4312  1.6679  0.9982
 6619SOL    HW231317   4.057   1.696  12.087 -1.0875  0.2360  0.0217
 6620SOL     OW31318   2.482   0.701   4.280  0.1741  0.9907 -0.5486
 6620SOL    HW131319   2.488   0.609   4.306 -1.6105  0.0204 -3.5749
 6620SOL    HW231320   2.497   0.698   4.185 -2.2589 -1.3698 -0.8437
 6621SOL     OW31321   0.176   2.221   4.948 -0.6708 -0.2869 -0.0265
 6621SOL    HW131322   0.133   2.280   4.887 -0.8067  0.5309  0.8644
 6621SOL    HW231323   0.233   2.177   4.886  0.1865  2.8033 -1.4042
 6622SOL     OW31324   1.912   2.414  11.022  0.0423 -0.1037 -0.8794
 6622SOL    HW131325   1.938   2.392  11.111  0.2638 -0.7333 -1.1024
 6622SOL    HW231326   1.880   2.504  11.034 -0.0472  0.0161 -1.9679
 6623SOL     OW31327   2.879   1.018   8.231 -0.1808  0.3681 -0.5534
 6623SOL    HW131328   2.901   0.984   8.318  0.8375 -0.1514 -1.0172
 6623SOL    HW231329   2.919   1.105   8.233 -0.3808  0.4232  0.9918
 6624SOL     OW31330   1.655   3.822   0.662 -0.5339  0.3856  0.0666
 6624SOL    HW131331   1.655   3.899   0.604 -2.8476  0.3239 -0.0084
 6624SOL    HW231332   1.574   3.777   0.639  0.3391 -1.1534  0.0024
 6625SOL     OW31333   1.825   3.813   5.653  0.0649  0.0169  0.4147
 6625SOL    HW131334   1.889   3.871   5.693  1.6459 -0.1369 -1.8589
 6625SOL    HW231335   1.856   3.731   5.693  0.0044 -0.4408 -0.4502
 6626SOL     OW31336   3.589   2.947   4.606 -0.7001  0.2770 -0.5907
 6626SOL    HW131337   3.638   2.867   4.628 -1.9207 -0.5180 -0.7869
 6626SOL    HW231338   3.664   2.989   4.564 -1.0595 -0.9583 -2.4332
 6627SOL     OW31339   3.648   2.630  17.167 -0.6931  0.6657 -0.4018
 6627SOL    HW131340   3.577   2.671  17.218  1.3172  2.3803  0.9976
 6627SOL    HW231341   3.622   2.650  17.077 -3.2518  0.1645  0.2267
 6628SOL     OW31342   0.836   3.646  13.248 -0.7222 -0.8385 -0.3001
 6628SOL    HW131343   0.746   3.619  13.232  0.0459 -0.6401 -4.8567
 6628SOL    HW231344   0.833   3.741  13.248 -0.6748 -0.8477 -1.9021
 6629SOL     OW31345   1.410   3.506   9.046  0.5707  0.7773 -0.8373
 6629SOL    HW131346   1.326   3.469   9.074  1.8355 -0.9696  0.6511
 6629SOL    HW231347   1.375   3.567   8.981  0.1787 -0.4934 -1.8337
 6630SOL     OW31348   1.598   4.103   1.101  0.2343  0.2958  0.6092
 6630SOL    HW131349   1.639   4.020   1.127 -1.8744 -0.3973  1.7271
 6630SOL    HW231350   1.674   4.137   1.055  1.3665  1.2612  3.2358
 6631SOL     OW31351   4.666   2.276   2.386  0.4808 -0.5440  0.7268
 6631SOL    HW131352   0.023   2.317   2.424  0.5086  0.7740 -0.7067
 6631SOL    HW231353   4.674   2.193   2.432 -1.9520 -1.1942 -0.0458
 6632SOL     OW31354   3.198   1.245  10.361  0.2470 -0.5505 -0.2348
 6632SOL    HW131355   3.190   1.270  10.453 -0.6068 -0.9673 -0.2071
 6632SOL    HW231356   3.263   1.306  10.324  1.5813 -0.9194  1.5032
 6633SOL     OW31357   2.050   3.321   5.233 -0.4479  0.1673  0.4019
 6633SOL    HW131358   1.987   3.252   5.211 -2.5478  1.4535  2.4222
 6633SOL    HW231359   2.001   3.396   5.268  0.5184  2.6470 -3.5182
 6634SOL     OW31360   3.702   4.559   9.232  0.3558  0.5086  0.7447
 6634SOL    HW131361   3.664   4.585   9.148 -1.3986  1.1595  1.7333
 6634SOL    HW231362   3.709   4.646   9.272 -1.1357  0.2018  1.6658
 6635SOL     OW31363   4.484   0.711   4.985  0.3988 -0.1438  0.0022
 6635SOL    HW131364   4.532   0.769   4.926  0.7557  0.4257  0.8403
 6635SOL    HW231365   4.417   0.773   5.014  1.8209  0.5261  1.8717
 6636SOL     OW31366   2.392   4.508   3.018 -0.1944 -0.2661  0.3113
 6636SOL    HW131367   2.323   4.551   2.968  0.6748  1.6451  0.7520
 6636SOL    HW231368   2.461   4.561   2.978  0.1160 -0.9753 -0.0940
 6637SOL     OW31369   1.324   1.817   4.190  0.5193 -0.2533  0.2615
 6637SOL    HW131370   1.341   1.774   4.274 -0.8619 -0.9059  0.1882
 6637SOL    HW231371   1.255   1.870   4.230  0.2591  0.7549 -1.5347
 6638SOL     OW31372   0.543   2.425   4.951  0.3236 -0.2024  0.1897
 6638SOL    HW131373   0.454   2.454   4.969 -0.5562 -2.9940  0.4255
 6638SOL    HW231374   0.593   2.502   4.976  1.8144 -0.2349 -2.5955
 6639SOL     OW31375   1.693   1.129   8.729  0.2390  0.3132 -0.3350
 6639SOL    HW131376   1.664   1.041   8.704  2.6971 -0.6715  0.2634
 6639SOL    HW231377   1.688   1.177   8.646 -2.6717  0.0850 -0.3086
 6640SOL     OW31378   2.281   3.771   8.563 -0.2193  0.2368 -0.3049
 6640SOL    HW131379   2.314   3.861   8.554 -0.0165  0.0966 -0.9053
 6640SOL    HW231380   2.355   3.722   8.599 -0.4386 -0.5083 -0.8790
 6641SOL     OW31381   2.606   2.306  14.200  0.0973 -0.2354  0.4426
 6641SOL    HW131382   2.618   2.274  14.111 -0.3071  0.4072  0.1515
 6641SOL    HW231383   2.571   2.394  14.186  0.1881 -0.5257 -1.6009
 6642SOL     OW31384   2.724   1.741   8.346 -0.0273 -0.1609  0.0167
 6642SOL    HW131385   2.785   1.806   8.311 -0.9172  0.2950 -0.6817
 6642SOL    HW231386   2.762   1.722   8.432 -0.9674  1.0307  0.6969
 6643SOL     OW31387   3.418   1.393  16.950  0.0579 -0.3913  0.1969
 6643SOL    HW131388   3.473   1.346  17.013 -1.0861 -1.3171  0.5033
 6643SOL    HW231389   3.485   1.401  16.883  0.7511  0.1967  0.9604
 6644SOL     OW31390   2.691   4.547  11.521  0.4508  0.0057  0.1885
 6644SOL    HW131391   2.659   4.527  11.433  1.1971  2.8661 -0.7338
 6644SOL    HW231392   2.655   4.479  11.579  1.4373 -0.4748  0.2238
 6645SOL     OW31393   4.294   3.291   4.038  0.0188 -0.1784 -0.0542
 6645SOL    HW131394   4.213   3.283   3.987  1.2348 -1.9564 -1.6966
 6645SOL    HW231395   4.357   3.304   3.967 -1.8458 -0.2309 -1.7265
 6646SOL     OW31396   2.055   2.151   9.445 -0.0723  0.4526 -0.3332
 6646SOL    HW131397   2.089   2.225   9.394 -0.0619  0.8462  0.2364
 6646SOL    HW231398   1.961   2.153   9.430 -0.0082 -0.8228 -0.9285
 6647SOL     OW31399   4.264   0.177   1.603  0.0884 -0.5164 -0.5234
 6647SOL    HW131400   4.171   0.193   1.619  0.0389 -0.2744 -1.0417
 6647SOL    HW231401   4.283   0.270   1.589 -0.7547 -0.3489 -0.5496
 6648SOL     OW31402   1.292   2.902   2.598  0.2496  0.3788  0.2097
 6648SOL    HW131403   1.207   2.914   2.555  0.6352  1.4922 -0.2591
 6648SOL    HW231404   1.273   2.822   2.647 -1.4634  2.0181  2.1947
 6649SOL     OW31405   0.451   3.166   3.064  0.5699  0.1065  0.5100
 6649SOL    HW131406   0.434   3.160   2.970  0.2098 -1.4249  0.6739
 6649SOL    HW231407   0.443   3.073   3.086 -0.0048 -0.3905 -1.7666
 6650SOL     OW31408   3.231   1.857   4.395 -0.1573 -0.1389 -0.0853
 6650SOL    HW131409   3.221   1.950   4.419  1.3026 -0.0627  0.2710
 6650SOL    HW231410   3.239   1.860   4.300  1.6302 -0.8390  0.0560
 6651SOL     OW31411   2.200   2.525   1.255 -0.0813 -0.1065 -0.2092
 6651SOL    HW131412   2.124   2.575   1.225  1.4825  1.3468 -1.7536
 6651SOL    HW231413   2.272   2.588   1.254 -0.2651  0.1151  0.5535
 6652SOL     OW31414   2.111   1.758   5.943  0.0843 -0.1962  0.0687
 6652SOL    HW131415   2.138   1.701   5.871  1.4814 -1.1009  1.3192
 6652SOL    HW231416   2.121   1.698   6.016 -0.9625 -0.9156 -0.3803
 6653SOL     OW31417   3.027   0.606  15.446 -0.0799 -0.0603 -0.2496
 6653SOL    HW131418   3.058   0.673  15.507 -1.1203 -0.4519  0.7115
 6653SOL    HW231419   3.103   0.566  15.404  0.1367  0.8053 -0.6826
 6654SOL     OW31420   2.131   1.817   5.045  0.1798 -0.3522  0.3861
 6654SOL    HW131421   2.226   1.831   5.045  0.5670 -3.0964 -3.0772
 6654SOL    HW231422   2.097   1.891   4.994  0.3090 -0.7749 -0.3017
 6655SOL     OW31423   2.862   2.423   8.845 -0.2744 -0.0747  0.0361
 6655SOL    HW131424   2.833   2.404   8.934  0.2961 -1.8527 -0.1515
 6655SOL    HW231425   2.918   2.350   8.819  0.5876  0.7705 -0.4960
 6656SOL     OW31426   0.373   3.092  17.179  0.0278  0.3299 -0.4025
 6656SOL    HW131427   0.345   3.095  17.270  1.3230  0.2782  0.0040
 6656SOL    HW231428   0.289   3.080  17.136 -1.2906 -0.2176  2.3492
 6657SOL     OW31429   2.307   2.970   3.015 -0.0399 -0.0896  0.4392
 6657SOL    HW131430   2.225   3.013   2.994 -0.2525 -1.6128 -1.8179
 6657SOL    HW231431   2.289   2.886   2.972 -0.6441 -0.5390  1.5686
 6658SOL     OW31432   3.519   0.030  15.357 -0.3369 -0.0101  0.0916
 6658SOL    HW131433   3.519   4.687  15.285  1.2785 -0.2619  0.3337
 6658SOL    HW231434   3.526   4.687  15.428  0.6450  0.2912  0.2609
 6659SOL     OW31435   1.699   3.307   7.638 -0.0883 -0.7003  0.4118
 6659SOL    HW131436   1.753   3.261   7.573 -0.6383 -0.8289  0.0401
 6659SOL    HW231437   1.638   3.241   7.671 -0.9876  1.5878  3.2921
 6660SOL     OW31438   4.011   1.190   8.233  0.4071  0.0548  0.6182
 6660SOL    HW131439   4.011   1.275   8.276 -1.2957 -0.4764  1.6558
 6660SOL    HW231440   4.017   1.134   8.310  1.3121  1.1766  1.3620
 6661SOL     OW31441   0.254   4.219  17.339 -0.1448  0.3342 -0.0237
 6661SOL    HW131442   0.310   4.166  17.283 -1.3307  0.1424 -1.0404
 6661SOL    HW231443   0.255   4.301  17.290  5.1416  0.1980 -0.1073
 6662SOL     OW31444   4.171   0.857   6.900  0.4909  0.7949  0.7407
 6662SOL    HW131445   4.231   0.928   6.923  3.2623 -0.5692 -2.2477
 6662SOL    HW231446   4.232   0.798   6.854  1.0539  1.5491  0.5194
 6663SOL     OW31447   4.341   3.699   6.829 -0.2157 -0.5649 -0.0424
 6663SOL    HW131448   4.379   3.679   6.915  2.3205  1.7153 -0.6433
 6663SOL    HW231449   4.409   3.763   6.809 -3.1747  2.5674 -0.0591
 6664SOL     OW31450   3.899   4.165  13.818 -0.8545 -0.1067  0.0707
 6664SOL    HW131451   3.941   4.080  13.809 -0.9449 -0.2200  0.7412
 6664SOL    HW231452   3.837   4.171  13.745  0.2876 -1.3484 -0.9885
 6665SOL     OW31453   3.713   2.206   4.604  0.0729  0.0218  0.2913
 6665SOL    HW131454   3.657   2.284   4.606  1.6308  1.1608 -0.3535
 6665SOL    HW231455   3.653   2.131   4.607 -0.3239  0.2187 -2.5398
 6666SOL     OW31456   2.286   3.697   2.690 -0.2566 -0.4692  0.3147
 6666SOL    HW131457   2.289   3.711   2.785 -1.0451  1.3418  0.0620
 6666SOL    HW231458   2.348   3.624   2.684 -0.7174 -0.9594  1.4247
 6667SOL     OW31459   1.451   1.226   5.674 -0.0737  0.7489  0.6125
 6667SOL    HW131460   1.500   1.239   5.593  0.7935 -0.3657  0.9669
 6667SOL    HW231461   1.473   1.136   5.699  0.1827  0.4479 -0.6757
 6668SOL     OW31462   4.547   3.012   9.289 -0.1918  1.1360 -0.4360
 6668SOL    HW131463   4.528   3.072   9.361 -2.9379 -0.1616 -0.0744
 6668SOL    HW231464   4.598   2.941   9.328 -0.3374  0.9503 -0.5808
 6669SOL     OW31465   4.061   4.262   8.085  0.4509 -0.3212  0.6672
 6669SOL    HW131466   4.109   4.288   8.164 -1.8269  0.6652  1.7355
 6669SOL    HW231467   3.973   4.243   8.117 -0.0726  2.7397  1.1240
 6670SOL     OW31468   3.848   3.434   0.862  0.0772  0.2108  0.7646
 6670SOL    HW131469   3.875   3.467   0.948 -0.0152  2.3251 -0.0152
 6670SOL    HW231470   3.753   3.423   0.867  0.2789 -1.2448  1.4734
 6671SOL     OW31471   1.866   3.948  15.582  0.0574  0.4662 -0.1269
 6671SOL    HW131472   1.803   4.019  15.571  0.8620  1.0914 -0.7168
 6671SOL    HW231473   1.816   3.900  15.649  0.4116 -1.4012 -1.1942
 6672SOL     OW31474   2.755   0.083  11.487 -0.4958  0.6484 -0.2912
 6672SOL    HW131475   2.745   4.710  11.507 -2.3226  1.0640  0.6506
 6672SOL    HW231476   2.748   0.079  11.391 -0.3713 -0.5135 -0.2586
 6673SOL     OW31477   2.828   3.106  10.514 -0.3370 -0.3994  0.1055
 6673SOL    HW131478   2.896   3.125  10.449 -0.7064  0.6750  0.0399
 6673SOL    HW231479   2.848   3.013  10.529 -3.0607 -1.1541 -1.0193
 6674SOL     OW31480   0.331   1.805   8.023  0.1964  0.1232 -0.2013
 6674SOL    HW131481   0.254   1.754   8.050  2.1106 -3.0115 -0.5782
 6674SOL    HW231482   0.309   1.897   8.034 -0.3557  0.0516 -0.7153
 6675SOL     OW31483   2.030   0.160   8.703 -0.1456  0.2399 -0.1125
 6675SOL    HW131484   1.970   0.103   8.655 -0.8459  1.0002 -0.1540
 6675SOL    HW231485   2.062   0.096   8.766 -1.9400 -0.6686 -0.1207
 6676SOL     OW31486   1.846   4.405   4.654  0.7045 -0.4271 -0.1255
 6676SOL    HW131487   1.779   4.348   4.617 -0.6866  0.4577  1.0223
 6676SOL    HW231488   1.832   4.383   4.746  1.6675 -0.1204  0.0974
 6677SOL     OW31489   1.472   3.038  13.580 -0.0584  0.3032 -0.5728
 6677SOL    HW131490   1.410   2.965  13.582  2.0185 -1.3926  1.1359
 6677SOL    HW231491   1.521   3.019  13.500 -0.6099 -0.6927 -0.6827
 6678SOL     OW31492   2.373   0.815   3.495 -0.6219 -0.4732  0.0531
 6678SOL    HW131493   2.367   0.798   3.589  1.1016  0.1099  0.2804
 6678SOL    HW231494   2.467   0.831   3.480 -0.8411 -1.3584 -2.1467
 6679SOL     OW31495   1.044   1.750  16.427  0.1068 -0.0174 -0.6166
 6679SOL    HW131496   1.116   1.782  16.482  1.1148  0.7151 -2.3887
 6679SOL    HW231497   1.006   1.837  16.417 -0.6774 -0.3748 -0.7678
 6680SOL     OW31498   1.261   0.604   2.822 -0.1791 -0.1965  0.6967
 6680SOL    HW131499   1.224   0.556   2.748  0.7503  0.7625 -0.3738
 6680SOL    HW231500   1.321   0.539   2.858 -0.9499 -1.7237 -0.7601
 6681SOL     OW31501   0.761   4.243   2.696  0.3468 -0.0053  0.0871
 6681SOL    HW131502   0.758   4.337   2.678 -1.0539 -0.3512 -1.4977
 6681SOL    HW231503   0.823   4.218   2.628  0.4356 -0.7648  0.4393
 6682SOL     OW31504   2.452   1.475   9.297 -0.4948  0.3465  0.0537
 6682SOL    HW131505   2.370   1.425   9.303 -0.8319  0.8505 -0.3259
 6682SOL    HW231506   2.453   1.501   9.389 -0.6684  0.6473 -0.0318
 6683SOL     OW31507   1.577   0.209   3.443 -0.0591  0.7402 -0.2045
 6683SOL    HW131508   1.626   0.275   3.492 -2.6109  0.4659  2.7001
 6683SOL    HW231509   1.513   0.260   3.395 -1.4732  0.1432  1.0383
 6684SOL     OW31510   3.837   1.966  13.004 -0.0955  0.0564 -0.1960
 6684SOL    HW131511   3.817   1.977  12.911  0.3313  0.4447 -0.2396
 6684SOL    HW231512   3.929   1.938  13.005  0.0627  0.6307  0.5507
 6685SOL     OW31513   2.725   2.477   5.225  1.1668 -0.3889  0.0791
 6685SOL    HW131514   2.773   2.559   5.238 -2.3102  1.7250 -0.4628
 6685SOL    HW231515   2.712   2.454   5.317  0.8210 -1.7303 -0.3069
 6686SOL     OW31516   3.878   3.281  12.403  0.0544 -0.2957 -0.4046
 6686SOL    HW131517   3.857   3.309  12.492  0.1321 -0.2824 -0.3901
 6686SOL    HW231518   3.954   3.225  12.416  0.9374  0.8095 -0.7059
 6687SOL     OW31519   0.880   4.602   9.704  0.0627  1.3246 -0.4222
 6687SOL    HW131520   0.931   4.536   9.751 -0.9145  0.7351 -0.2060
 6687SOL    HW231521   0.955   4.649   9.666 -1.0091  3.4583  0.0821
 6688SOL     OW31522   2.650   4.571  14.530 -0.2090 -1.0537 -0.1872
 6688SOL    HW131523   2.708   4.548  14.457  0.4653 -1.1604  0.3785
 6688SOL    HW231524   2.596   4.492  14.526 -0.1136 -1.2026  1.2163
 6689SOL     OW31525   2.574   2.780   4.064  0.0134 -0.3012  0.1801
 6689SOL    HW131526   2.582   2.776   4.159 -0.9405  1.2427  0.3271
 6689SOL    HW231527   2.661   2.748   4.039 -0.7794 -1.1821 -1.4800
 6690SOL     OW31528   2.722   3.761   5.673 -0.1415  0.1961 -0.1850
 6690SOL    HW131529   2.769   3.743   5.592  0.0522  0.7264 -0.1928
 6690SOL    HW231530   2.717   3.856   5.677  0.4552  0.1442  2.1022
 6691SOL     OW31531   1.991   1.474   1.014 -0.2262 -0.4546  0.0672
 6691SOL    HW131532   2.011   1.380   1.019  0.1265 -0.5026 -2.1244
 6691SOL    HW231533   1.910   1.472   0.963 -0.8069 -0.2362  0.9861
 6692SOL     OW31534   0.209   1.595   6.960 -0.4933 -0.0274  0.2009
 6692SOL    HW131535   0.265   1.575   6.885 -2.2650 -0.0184 -1.1215
 6692SOL    HW231536   0.193   1.689   6.946 -0.9764  0.0502  1.2545
 6693SOL     OW31537   4.572   2.955   2.313  0.5367  0.3536  0.8046
 6693SOL    HW131538   4.493   2.996   2.347  0.0109  0.6250 -0.7250
 6693SOL    HW231539   4.611   3.022   2.256 -0.3076 -0.5904 -0.8923
 6694SOL     OW31540   2.002   2.578  17.134  0.0658 -0.2923  0.1753
 6694SOL    HW131541   2.071   2.634  17.168 -0.5754  0.8455 -0.3778
 6694SOL    HW231542   1.923   2.622  17.165  0.0482 -0.1375 -0.0859
 6695SOL     OW31543   0.320   3.324  15.092  0.2598 -0.2587 -0.3341
 6695SOL    HW131544   0.326   3.284  15.005  2.5512  0.5122 -0.5517
 6695SOL    HW231545   0.388   3.392  15.091 -1.5106  1.4934 -1.2509
 6696SOL     OW31546   1.890   4.008   7.968 -0.0079 -0.0817 -0.2495
 6696SOL    HW131547   1.807   4.002   7.921 -0.6140 -1.6042  1.0370
 6696SOL    HW231548   1.907   4.102   7.974  2.2752 -0.3784 -1.8583
 6697SOL     OW31549   3.523   2.036   5.966 -0.1895 -0.0881  0.1466
 6697SOL    HW131550   3.575   2.100   6.015  0.2653  0.0897 -0.5697
 6697SOL    HW231551   3.434   2.071   5.965 -1.6314 -3.7596  0.5127
 6698SOL     OW31552   0.775   3.819   3.887 -0.5447 -0.0672  0.2970
 6698SOL    HW131553   0.853   3.807   3.941  1.3855  2.5015 -1.9066
 6698SOL    HW231554   0.711   3.822   3.958 -1.9019  2.1605 -1.0175
 6699SOL     OW31555   1.959   4.682   5.015  0.1275 -0.0628 -0.3027
 6699SOL    HW131556   1.885   4.711   4.962  0.9663  0.9557 -0.8991
 6699SOL    HW231557   1.939   0.001   5.100 -1.7334 -3.0318  0.6420
 6700SOL     OW31558   2.652   4.056  11.280  0.2122 -0.3922  0.2836
 6700SOL    HW131559   2.630   4.011  11.198  0.2849  1.0273 -0.5349
 6700SOL    HW231560   2.619   4.000  11.349  1.6334  1.4887  2.4970
 6701SOL     OW31561   1.643   3.561   8.542 -0.3590 -0.4145  0.6506
 6701SOL    HW131562   1.681   3.645   8.517 -0.9042 -0.1154  0.8340
 6701SOL    HW231563   1.717   3.535   8.597  0.8410  0.7103 -0.4476
 6702SOL     OW31564   2.266   2.903  10.219 -0.5364  0.5693 -0.1812
 6702SOL    HW131565   2.244   2.901  10.312 -0.6141  1.5489 -0.1790
 6702SOL    HW231566   2.228   2.984  10.184  1.2782  0.0353 -3.3483
 6703SOL     OW31567   1.035   2.583   3.740  0.4924  0.2421  0.5143
 6703SOL    HW131568   0.999   2.494   3.732 -0.0843  0.4882  0.4080
 6703SOL    HW231569   1.054   2.604   3.649 -2.8467  0.2073 -0.1736
 6704SOL     OW31570   3.397   3.168   6.028 -0.9510  0.0117 -0.0309
 6704SOL    HW131571   3.373   3.233   6.094  1.6074  1.7569 -0.7745
 6704SOL    HW231572   3.493   3.174   6.032 -1.0179  1.4343 -0.5261
 6705SOL     OW31573   0.058   0.280   7.846 -0.1084  0.6112  0.1814
 6705SOL    HW131574   4.688   0.295   7.875 -0.1510 -1.5151  1.1320
 6705SOL    HW231575   0.083   0.243   7.931  0.4866  0.6220  0.0072
 6706SOL     OW31576   2.750   3.936   3.930 -0.2155  0.3431  0.0238
 6706SOL    HW131577   2.754   3.888   4.012  1.5250  1.5157  0.6160
 6706SOL    HW231578   2.659   3.964   3.922 -0.3680 -0.3667 -0.6791
 6707SOL     OW31579   2.055   1.460  15.864 -0.0140 -0.6643 -0.1539
 6707SOL    HW131580   2.135   1.443  15.815  0.7028 -1.4003  1.2715
 6707SOL    HW231581   2.020   1.373  15.844 -0.5572  0.1728 -2.8915
 6708SOL     OW31582   1.972   1.790   7.644 -0.3188 -0.1008  0.2276
 6708SOL    HW131583   2.006   1.834   7.722  1.7930 -3.5475  1.2879
 6708SOL    HW231584   2.007   1.701   7.650  2.9702  1.1301 -0.4873
 6709SOL     OW31585   0.939   4.226   8.777  0.3948 -0.2352 -0.1358
 6709SOL    HW131586   0.939   4.222   8.873 -1.2061  1.3236 -0.0761
 6709SOL    HW231587   0.902   4.312   8.759 -0.0816 -0.2839  0.6061
 6710SOL     OW31588   1.115   0.803  11.472 -0.1404 -0.0686 -0.0364
 6710SOL    HW131589   1.169   0.750  11.414  0.8146  1.7727 -0.8479
 6710SOL    HW231590   1.180   0.814  11.542  0.5115  1.9960 -0.9523
 6711SOL     OW31591   1.792   0.900   3.786 -0.1233  0.3140  0.2475
 6711SOL    HW131592   1.787   0.994   3.767 -1.6614 -0.1586 -1.8143
 6711SOL    HW231593   1.887   0.903   3.794  0.0480 -0.6694 -1.3444
 6712SOL     OW31594   2.819   2.868  11.214  0.3847 -0.0495 -0.6413
 6712SOL    HW131595   2.834   2.956  11.248 -1.3463  0.4001 -1.0539
 6712SOL    HW231596   2.867   2.875  11.132  0.0313 -0.0614 -0.8497
 6713SOL     OW31597   4.330   1.094   7.611 -0.1399 -0.2046 -0.5339
 6713SOL    HW131598   4.248   1.101   7.661  0.9948 -0.5502  1.3750
 6713SOL    HW231599   4.378   1.039   7.673 -0.9259 -0.4163 -0.1130
 6714SOL     OW31600   2.348   4.493  15.215 -0.1380 -0.9052  0.0726
 6714SOL    HW131601   2.378   4.504  15.125 -0.2899 -1.0961 -0.0033
 6714SOL    HW231602   2.256   4.499  15.189  0.3716  0.9602 -1.2699
 6715SOL     OW31603   1.912   0.615   2.405  0.1842  0.1481  0.4296
 6715SOL    HW131604   1.922   0.610   2.500  2.3152 -0.2609  0.1856
 6715SOL    HW231605   1.919   0.524   2.377 -1.4560  0.0616  0.2982
 6716SOL     OW31606   3.520   2.216   7.383 -0.3369 -0.0358 -0.1359
 6716SOL    HW131607   3.586   2.283   7.402  0.3338 -0.6276 -0.4224
 6716SOL    HW231608   3.475   2.260   7.311 -0.7600  1.7404  1.2035
 6717SOL     OW31609   4.437   2.378   3.471  0.0093  0.2916 -0.8392
 6717SOL    HW131610   4.376   2.309   3.499 -0.6893  0.4589 -1.9490
 6717SOL    HW231611   4.509   2.334   3.426 -0.2818 -1.7749  0.6960
 6718SOL     OW31612   1.388   1.317   8.596 -0.4301 -0.1843  0.2249
 6718SOL    HW131613   1.466   1.274   8.561  0.7579  0.3103  2.2647
 6718SOL    HW231614   1.335   1.320   8.516 -0.3822 -0.6406  0.1763
 6719SOL     OW31615   0.402   3.987   3.955  0.5399  0.3026  0.5351
 6719SOL    HW131616   0.461   3.926   4.000  0.2170 -1.5413 -1.5408
 6719SOL    HW231617   0.322   3.939   3.974  0.7794  0.0261  0.8378
 6720SOL     OW31618   3.950   0.451   6.129 -0.0214 -0.4114  0.3276
 6720SOL    HW131619   4.018   0.414   6.184 -1.3107 -1.1624  1.4082
 6720SOL    HW231620   3.902   0.499   6.196  0.6127 -0.5634  0.8914
 6721SOL     OW31621   2.084   3.996   4.786  0.1643 -0.3357  0.0712
 6721SOL    HW131622   2.042   4.042   4.714  0.2045 -1.9546 -1.0048
 6721SOL    HW231623   2.043   4.044   4.858  0.1693 -0.6080  0.2578
 6722SOL     OW31624   4.174   3.491  10.427 -0.6356  0.1851  0.0079
 6722SOL    HW131625   4.234   3.416  10.421 -2.7218 -1.4795 -0.1572
 6722SOL    HW231626   4.101   3.451  10.381 -0.2981  0.2487 -0.5842
 6723SOL     OW31627   3.659   0.727   4.361  0.3334 -0.2138  0.0829
 6723SOL    HW131628   3.570   0.726   4.396  1.1880 -1.0540  2.3071
 6723SOL    HW231629   3.673   0.632   4.367 -0.3101 -0.3219 -0.1078
 6724SOL     OW31630   3.493   0.155   3.045  0.4527  0.2336  0.2036
 6724SOL    HW131631   3.403   0.136   3.073  0.4804  0.0908  0.1951
 6724SOL    HW231632   3.532   0.069   3.061 -0.4629 -0.3107 -0.4690
 6725SOL     OW31633   1.069   1.925  14.943  0.3687  0.0412  0.0281
 6725SOL    HW131634   1.145   1.951  14.892 -0.1535 -0.0167 -0.7706
 6725SOL    HW231635   1.083   1.966  15.028  0.5948  0.2138 -0.0931
 6726SOL     OW31636   0.121   2.494   6.333  0.0680  0.5184  0.1912
 6726SOL    HW131637   0.097   2.513   6.242 -0.3281  0.8686  0.3709
 6726SOL    HW231638   0.103   2.583   6.363 -0.9419  0.2257  0.4660
 6727SOL     OW31639   3.235   3.860   7.398  0.1200 -0.4268 -0.3979
 6727SOL    HW131640   3.236   3.928   7.466  1.3330 -0.1746 -0.6645
 6727SOL    HW231641   3.149   3.819   7.409 -0.0961  0.3353  0.7154
 6728SOL     OW31642   1.102   1.300   6.792  0.3868  0.8095  0.0119
 6728SOL    HW131643   1.114   1.250   6.712 -2.2043  0.5491 -0.2079
 6728SOL    HW231644   1.175   1.361   6.780 -0.0749  0.8661 -2.5115
 6729SOL     OW31645   3.984   0.238   8.905 -0.4176 -0.0271 -0.2280
 6729SOL    HW131646   3.944   0.167   8.955  1.6756 -1.1377 -0.1435
 6729SOL    HW231647   3.956   0.217   8.816  1.2170 -1.2656 -0.4393
 6730SOL     OW31648   1.835   2.554   4.732 -0.7814  0.1959 -0.4448
 6730SOL    HW131649   1.805   2.523   4.817 -0.7787 -0.6105 -0.7319
 6730SOL    HW231650   1.761   2.601   4.693 -0.7653  2.1583  1.9121
 6731SOL     OW31651   0.415   1.611  13.993 -0.1108  0.3377  0.8717
 6731SOL    HW131652   0.323   1.588  14.006 -0.5902  1.6327 -0.3122
 6731SOL    HW231653   0.418   1.682  14.057 -1.3459  1.2654 -0.1084
 6732SOL     OW31654   0.834   1.337   1.543  0.5747 -0.0598  0.2929
 6732SOL    HW131655   0.762   1.327   1.606 -0.1111  0.0558 -0.4748
 6732SOL    HW231656   0.798   1.403   1.484 -0.4203 -1.7340 -0.9818
 6733SOL     OW31657   0.158   2.437   8.702  0.4224 -0.1775  0.0590
 6733SOL    HW131658   0.080   2.478   8.738  0.8965  1.0631 -0.3139
 6733SOL    HW231659   0.189   2.508   8.646  1.6487 -1.0094 -0.3334
 6734SOL     OW31660   3.414   3.979   6.475  0.0293 -0.2954  0.2137
 6734SOL    HW131661   3.499   4.015   6.498 -0.4631  0.7698  0.3426
 6734SOL    HW231662   3.434   3.939   6.390 -3.7549 -2.2420  0.2356
 6735SOL     OW31663   0.031   3.169  12.914  0.2785 -0.6993 -0.0995
 6735SOL    HW131664   0.074   3.085  12.898  1.4677 -0.1764  0.3235
 6735SOL    HW231665   4.692   3.187  12.842 -1.6261  0.9374  1.8799
 6736SOL     OW31666   3.323   4.436   3.167  0.2377  0.3127 -0.3513
 6736SOL    HW131667   3.404   4.482   3.147 -0.5096  1.8566  0.1573
 6736SOL    HW231668   3.311   4.380   3.090  0.3051  0.2219 -0.2947
 6737SOL     OW31669   2.217   0.543   6.189  0.2181 -0.5263 -0.3380
 6737SOL    HW131670   2.231   0.551   6.095 -1.4267 -1.3165 -0.6406
 6737SOL    HW231671   2.131   0.583   6.207  1.0102  1.5238 -1.1217
 6738SOL     OW31672   2.934   2.906   5.111 -0.1545 -0.1305 -0.1565
 6738SOL    HW131673   2.921   2.969   5.040  1.9435 -0.3415 -0.7185
 6738SOL    HW231674   2.984   2.958   5.173  0.9747 -0.6930 -0.5962
 6739SOL     OW31675   2.205   1.380  15.418  0.7383  0.5897 -0.2834
 6739SOL    HW131676   2.203   1.449  15.352  0.6595  0.9978  0.1501
 6739SOL    HW231677   2.121   1.336  15.403  1.7867 -2.2183  2.0791
 6740SOL     OW31678   3.157   2.336   4.285  0.2537 -0.2393 -0.2764
 6740SOL    HW131679   3.061   2.337   4.293  0.3231 -2.2209  0.8031
 6740SOL    HW231680   3.170   2.402   4.354 -0.4708  1.4382 -1.7426
 6741SOL     OW31681   3.878   1.402   5.842  0.1363  0.0533  0.4994
 6741SOL    HW131682   3.796   1.392   5.795  0.8972 -5.6807  0.3605
 6741SOL    HW231683   3.908   1.311   5.846  0.7442  0.1774 -1.1758
 6742SOL     OW31684   3.590   0.884   8.329 -0.2594 -0.1557  0.8833
 6742SOL    HW131685   3.526   0.845   8.388 -0.0361 -2.0571 -0.1223
 6742SOL    HW231686   3.669   0.899   8.382  1.7276 -0.4327 -2.0025
 6743SOL     OW31687   1.507   1.655   8.773 -0.1314 -0.0294 -0.0251
 6743SOL    HW131688   1.600   1.656   8.749  0.2862  0.8213  1.5963
 6743SOL    HW231689   1.504   1.581   8.833  2.0382  1.2497  1.7008
 6744SOL     OW31690   0.731   2.589   4.704  0.2329 -0.5963  0.7424
 6744SOL    HW131691   0.739   2.535   4.782  2.2895  0.3868  1.2033
 6744SOL    HW231692   0.798   2.550   4.648  1.0586  0.9403  0.6595
 6745SOL     OW31693   3.729   2.012   9.887 -1.1014 -0.5455 -0.0282
 6745SOL    HW131694   3.645   1.986   9.924 -1.3674 -0.1804 -0.3835
 6745SOL    HW231695   3.749   2.101   9.917  0.7398 -0.1717 -2.3780
 6746SOL     OW31696   2.590   1.707   0.940 -0.3638 -0.6524  0.0255
 6746SOL    HW131697   2.557   1.767   1.006 -1.2319 -0.4518 -0.5975
 6746SOL    HW231698   2.685   1.717   0.940 -0.3499 -0.8090  0.8559
 6747SOL     OW31699   0.211   1.467   7.876 -0.3515 -0.1560 -0.3303
 6747SOL    HW131700   0.293   1.445   7.832 -0.3989  0.8524 -0.9223
 6747SOL    HW231701   0.164   1.385   7.862 -1.4254  0.3247  0.5244
 6748SOL     OW31702   2.892   2.452   4.683 -0.5257 -0.2240  0.2829
 6748SOL    HW131703   2.896   2.371   4.733  1.9111  0.0713  0.5657
 6748SOL    HW231704   2.967   2.500   4.718 -0.0104 -0.3001 -0.7200
 6749SOL     OW31705   1.329   1.564  10.913  0.8236  0.9030  0.3230
 6749SOL    HW131706   1.382   1.492  10.879  0.2886  1.4484 -1.6432
 6749SOL    HW231707   1.394   1.629  10.887  0.9546  0.3806 -0.6552
 6750SOL     OW31708   1.949   4.491   0.515 -0.1857  0.1399  0.8223
 6750SOL    HW131709   2.037   4.512   0.548 -0.1035  1.4586 -0.2334
 6750SOL    HW231710   1.966   4.485   0.421 -4.3662  2.6060 -0.0923
 6751SOL     OW31711   2.619   2.883   2.421 -0.4133  0.2849  0.1255
 6751SOL    HW131712   2.571   2.801   2.414  0.8998 -0.6933  2.5151
 6751SOL    HW231713   2.602   2.920   2.334  0.2963  2.7650  1.0180
 6752SOL     OW31714   1.769   2.008   8.465 -0.1124  0.0559 -0.1350
 6752SOL    HW131715   1.756   1.980   8.375  1.1652  0.9227 -0.5878
 6752SOL    HW231716   1.810   2.095   8.466  0.5529 -0.2946  3.5526
 6753SOL     OW31717   4.123   4.233   8.425  0.2448  0.8093 -0.1118
 6753SOL    HW131718   4.140   4.226   8.519  0.4180 -0.5010 -0.2392
 6753SOL    HW231719   4.080   4.318   8.421 -0.9572  0.2177  0.0626
 6754SOL     OW31720   1.482   1.865  17.199  0.3544 -0.1376  0.1902
 6754SOL    HW131721   1.432   1.876  17.280 -2.7669 -0.6684 -1.6792
 6754SOL    HW231722   1.451   1.937  17.145 -0.5068  0.6522  1.7291
 6755SOL     OW31723   1.032   2.077   4.722 -0.2672 -0.0406  0.3669
 6755SOL    HW131724   0.975   2.001   4.713 -0.3174 -0.0646  0.8880
 6755SOL    HW231725   1.119   2.040   4.704 -0.0880 -0.1549  1.4735
 6756SOL     OW31726   0.854   0.917   7.785  0.3611  0.2336 -0.3577
 6756SOL    HW131727   0.767   0.952   7.805  0.6175  0.8045 -0.2314
 6756SOL    HW231728   0.842   0.897   7.692  0.7193  0.3177 -0.4244
 6757SOL     OW31729   1.515   1.683  12.388 -0.4625 -0.5352  0.3177
 6757SOL    HW131730   1.577   1.710  12.320 -1.4782 -0.2406 -0.5143
 6757SOL    HW231731   1.523   1.750  12.456 -2.5953  0.4093 -0.3461
 6758SOL     OW31732   0.185   3.092   3.774 -0.6267  0.1981 -0.7073
 6758SOL    HW131733   0.255   3.033   3.804 -0.1665  1.6802  1.1757
 6758SOL    HW231734   0.223   3.177   3.799  1.1794 -0.8533  0.1385
 6759SOL     OW31735   0.208   3.560   6.920  0.0342  0.2303 -0.0784
 6759SOL    HW131736   0.265   3.532   6.848 -0.9235  0.5306 -0.9568
 6759SOL    HW231737   0.266   3.577   6.994  0.4200 -0.7276 -0.1580
 6760SOL     OW31738   0.193   0.808   3.086  0.5327  0.3839 -0.0145
 6760SOL    HW131739   0.206   0.777   2.997  0.4264  0.2427  0.0189
 6760SOL    HW231740   0.284   0.821   3.114 -0.2196  0.3490  2.4770
 6761SOL     OW31741   2.659   1.238  15.585  0.5312  0.4533 -0.5411
 6761SOL    HW131742   2.623   1.298  15.650  0.3424 -0.1337 -0.1066
 6761SOL    HW231743   2.703   1.295  15.523 -0.7350  1.0123 -0.9231
 6762SOL     OW31744   0.344   1.219  10.417 -0.4340  0.0793 -0.4345
 6762SOL    HW131745   0.265   1.183  10.458 -1.4393  1.9851 -0.6947
 6762SOL    HW231746   0.327   1.313  10.424 -0.6063  0.1892 -2.3618
 6763SOL     OW31747   4.113   3.210   6.353 -0.2512 -0.2257 -0.3712
 6763SOL    HW131748   4.105   3.188   6.446  1.3366  0.4134 -0.0695
 6763SOL    HW231749   4.106   3.306   6.352  0.1576 -0.1968 -0.6797
 6764SOL     OW31750   3.054   0.063  17.527 -0.2267 -0.2900 -0.3117
 6764SOL    HW131751   3.074   0.154  17.547  1.8477 -0.8349  0.0840
 6764SOL    HW231752   2.960   0.076  17.542  0.0185  1.4583 -0.3526
 6765SOL     OW31753   2.956   3.927   9.761  0.1194  0.4078  0.5308
 6765SOL    HW131754   2.958   3.893   9.850 -0.1083  2.3902  1.3068
 6765SOL    HW231755   3.021   3.883   9.707 -1.6311 -2.2913  0.6552
 6766SOL     OW31756   0.577   4.475   7.199  0.4256  0.2024  0.0164
 6766SOL    HW131757   0.622   4.501   7.279  0.8316 -0.8926  0.1557
 6766SOL    HW231758   0.609   4.385   7.190  0.2784  0.3731 -2.1515
 6767SOL     OW31759   2.641   4.509   8.662  0.1769 -0.6360  0.7014
 6767SOL    HW131760   2.590   4.589   8.673  0.9769 -0.5254  3.7087
 6767SOL    HW231761   2.591   4.450   8.718  0.7758 -3.2284 -1.5176
 6768SOL     OW31762   1.474   4.156  11.742 -0.1766 -0.1644  0.1156
 6768SOL    HW131763   1.463   4.065  11.768 -2.4958 -0.6697 -2.6661
 6768SOL    HW231764   1.548   4.140  11.683  0.3894 -1.3336  1.1514
 6769SOL     OW31765   2.177   4.065  17.549 -0.2221 -0.3674 -0.1655
 6769SOL    HW131766   2.241   3.993  17.546  0.0076 -0.1956  0.4981
 6769SOL    HW231767   2.141   4.047  17.462  1.4867 -1.4900 -0.6513
 6770SOL     OW31768   3.253   3.785   9.133  0.3942  1.2205  0.1345
 6770SOL    HW131769   3.267   3.875   9.163  1.8938  0.5782  1.3306
 6770SOL    HW231770   3.343   3.755   9.140  0.0944  0.5536  1.1058
 6771SOL     OW31771   3.102   2.119   3.979  0.5421 -0.4283  0.5068
 6771SOL    HW131772   3.078   2.075   4.061 -0.3103  1.7215  1.3990
 6771SOL    HW231773   3.178   2.066   3.956  0.1311 -1.5064  1.5730
 6772SOL     OW31774   3.121   3.453   4.057 -0.0457  0.0908 -0.3558
 6772SOL    HW131775   3.062   3.433   3.984 -0.2356 -1.3457  0.1963
 6772SOL    HW231776   3.209   3.445   4.019 -0.7473  2.2294 -2.4069
 6773SOL     OW31777   3.461   0.769   5.824 -0.4515 -0.0333  0.2723
 6773SOL    HW131778   3.542   0.811   5.853  0.0755 -1.9098  1.4574
 6773SOL    HW231779   3.485   0.681   5.852 -0.9249 -0.0545  0.6204
 6774SOL     OW31780   3.401   0.815   8.603  0.3068 -0.8207  0.3590
 6774SOL    HW131781   3.449   0.749   8.653 -0.4092 -0.8705  0.9806
 6774SOL    HW231782   3.313   0.778   8.608 -0.9744  1.9024 -2.0122
 6775SOL     OW31783   0.983   1.481  10.541 -0.0619 -0.3234  0.1447
 6775SOL    HW131784   1.017   1.416  10.602  0.0849  0.3625  0.7803
 6775SOL    HW231785   1.013   1.559  10.587 -1.3325  0.6898 -0.7241
 6776SOL     OW31786   0.311   2.138  12.627 -0.1951 -0.6723  0.2893
 6776SOL    HW131787   0.267   2.092  12.556  0.0560 -1.6357  0.7630
 6776SOL    HW231788   0.258   2.099  12.696 -1.3079  2.6328  1.3159
 6777SOL     OW31789   3.390   2.117   6.383  0.0881 -0.9986  0.1759
 6777SOL    HW131790   3.436   2.191   6.421  1.4707 -1.9315  0.3197
 6777SOL    HW231791   3.303   2.156   6.391  0.5547 -0.0594  0.6007
 6778SOL     OW31792   3.069   1.217   8.245 -0.1646 -0.4434  0.0346
 6778SOL    HW131793   3.114   1.211   8.161  0.5142 -1.5981  0.4777
 6778SOL    HW231794   3.138   1.206   8.310  0.2989 -0.1717 -0.4174
 6779SOL     OW31795   1.190   3.283   7.377  0.0374  0.4378  0.5636
 6779SOL    HW131796   1.225   3.322   7.458  0.4198  0.9757  0.1422
 6779SOL    HW231797   1.259   3.301   7.313 -1.1198 -1.0487 -1.0878
 6780SOL     OW31798   2.655   1.026   8.513 -0.1324  0.1959 -0.4404
 6780SOL    HW131799   2.722   0.995   8.574 -1.2065  0.6883  0.9932
 6780SOL    HW231800   2.682   1.117   8.503  0.4808  0.0149 -0.4247
 6781SOL     OW31801   3.705   1.862   2.819 -0.2396  0.2626 -0.0803
 6781SOL    HW131802   3.714   1.767   2.817  2.1505  0.5010 -0.5779
 6781SOL    HW231803   3.751   1.895   2.741  0.2376 -0.4006 -0.0698
 6782SOL     OW31804   3.911   0.198   4.323 -0.1383 -0.2122 -0.1272
 6782SOL    HW131805   3.900   0.163   4.411  1.0222 -0.5007 -0.0979
 6782SOL    HW231806   3.976   0.268   4.333 -1.6012  1.2378 -0.7354
 6783SOL     OW31807   4.474   3.038   7.334 -0.6246  0.2651  0.1631
 6783SOL    HW131808   4.505   2.951   7.309 -0.5878 -0.1104  1.4947
 6783SOL    HW231809   4.502   3.034   7.425 -0.6423  1.0273  0.1992
 6784SOL     OW31810   1.679   2.283   7.932  0.0288 -0.0682 -0.6012
 6784SOL    HW131811   1.646   2.297   8.020 -2.6075 -2.0230 -1.2590
 6784SOL    HW231812   1.688   2.190   7.913  0.4344 -0.5609  2.0264
 6785SOL     OW31813   0.287   4.406   7.699  0.2477 -0.4589 -0.1082
 6785SOL    HW131814   0.244   4.439   7.620 -3.8510 -1.6277  1.6293
 6785SOL    HW231815   0.371   4.452   7.707  0.2971 -0.6175  0.2720
 6786SOL     OW31816   2.861   2.778   3.958  0.5724  0.2800 -0.3506
 6786SOL    HW131817   2.936   2.816   4.004  1.8619 -2.7689  0.0317
 6786SOL    HW231818   2.902   2.753   3.875 -1.0091 -0.6326 -0.8625
 6787SOL     OW31819   0.828   3.354  10.298 -0.1335  0.0057  0.2762
 6787SOL    HW131820   0.782   3.432  10.330  0.9244 -0.5125  3.0666
 6787SOL    HW231821   0.916   3.392  10.299  0.3406 -1.2296  3.3299
 6788SOL     OW31822   2.832   0.197   6.665  0.9403  0.2198  0.0402
 6788SOL    HW131823   2.892   0.204   6.739  2.2613  1.2523 -1.1318
 6788SOL    HW231824   2.883   0.235   6.594  1.9900 -2.0650 -0.4374
 6789SOL     OW31825   4.193   2.334   5.596 -0.4209 -0.3347 -0.4425
 6789SOL    HW131826   4.285   2.319   5.616  0.0707  1.9306 -1.0424
 6789SOL    HW231827   4.160   2.286   5.672  1.4701  1.4293  1.4660
 6790SOL     OW31828   3.333   2.742  11.206  0.1212  0.3036  0.4627
 6790SOL    HW131829   3.333   2.689  11.286 -2.1121  1.0622  0.9793
 6790SOL    HW231830   3.306   2.825  11.246  0.8169  0.2951  0.9494
 6791SOL     OW31831   2.164   2.275   1.140 -0.6013  0.1255  0.2413
 6791SOL    HW131832   2.186   2.346   1.201 -0.8826 -0.7860  1.3936
 6791SOL    HW231833   2.069   2.271   1.146 -0.5555 -0.1789  0.7696
 6792SOL     OW31834   1.694   1.373   1.513  0.3600 -0.2756 -0.4406
 6792SOL    HW131835   1.788   1.380   1.527 -0.0373  0.0466  2.0130
 6792SOL    HW231836   1.675   1.442   1.449  0.9631  1.9252  1.7786
 6793SOL     OW31837   2.742   1.282   7.651 -0.3676 -0.2703  0.2086
 6793SOL    HW131838   2.662   1.232   7.633 -1.4231  1.1802  0.8073
 6793SOL    HW231839   2.743   1.345   7.579 -0.8511 -1.3044 -0.7187
 6794SOL     OW31840   3.693   0.475   5.312  0.1721 -0.0971  0.4850
 6794SOL    HW131841   3.629   0.407   5.335  0.9442 -1.5361 -1.7631
 6794SOL    HW231842   3.723   0.492   5.402 -1.3106  0.8163  0.8279
 6795SOL     OW31843   4.496   4.419  13.367  0.3883  0.2853 -0.0523
 6795SOL    HW131844   4.556   4.361  13.321 -1.1602 -2.9584  2.0591
 6795SOL    HW231845   4.555   4.452  13.435  1.9509 -1.4958 -0.5405
 6796SOL     OW31846   2.748   2.889   7.472 -0.3837  0.2391 -0.5060
 6796SOL    HW131847   2.685   2.869   7.542 -0.7636 -0.0428 -0.9296
 6796SOL    HW231848   2.779   2.805   7.438 -0.6906 -0.7601  1.7021
 6797SOL     OW31849   3.313   3.587  13.996  0.4771 -0.1763 -0.2411
 6797SOL    HW131850   3.253   3.655  13.966  1.0590 -0.2350 -1.5306
 6797SOL    HW231851   3.251   3.514  13.986  0.0044  0.1110  0.5902
 6798SOL     OW31852   2.142   4.344   8.303  0.2678 -0.1505 -0.3990
 6798SOL    HW131853   2.198   4.302   8.238  2.0597 -0.1195  1.1080
 6798SOL    HW231854   2.072   4.379   8.249  1.7041 -0.5336 -2.5005
 6799SOL     OW31855   1.757   2.629   3.774 -0.3163 -0.3729 -0.1328
 6799SOL    HW131856   1.663   2.641   3.790  0.1272 -0.4526  2.4659
 6799SOL    HW231857   1.771   2.542   3.810 -0.2692  0.2830  1.4163
 6800SOL     OW31858   3.599   2.642   7.284  0.0457  0.3686 -1.0286
 6800SOL    HW131859   3.538   2.645   7.211 -0.1313 -1.0768 -0.9398
 6800SOL    HW231860   3.663   2.576   7.255 -2.2675 -2.3813  0.1685
 6801SOL     OW31861   3.865   0.916   4.817  0.0163 -0.1197  0.3567
 6801SOL    HW131862   3.898   0.888   4.731 -2.7521 -1.9036 -0.1582
 6801SOL    HW231863   3.950   0.939   4.854 -0.4323  1.8491  0.1501
 6802SOL     OW31864   3.506   0.550   4.082  0.1302 -0.6404  0.3054
 6802SOL    HW131865   3.532   0.589   3.999  0.0673  3.2213  2.1112
 6802SOL    HW231866   3.584   0.520   4.129  0.1882 -1.6608 -0.4410
 6803SOL     OW31867   2.332   4.324  10.980  0.0337 -0.3660  0.5808
 6803SOL    HW131868   2.276   4.386  10.933  2.5718  1.1250 -0.5018
 6803SOL    HW231869   2.322   4.371  11.063  0.5855  1.0434 -0.1547
 6804SOL     OW31870   3.478   3.140   9.923 -0.2499  0.1005  0.1787
 6804SOL    HW131871   3.572   3.138   9.940 -0.1940  0.7788 -0.0418
 6804SOL    HW231872   3.439   3.117  10.007  0.6399  3.0772  1.3844
 6805SOL     OW31873   0.629   0.879   9.225 -0.1271 -0.1852 -1.2255
 6805SOL    HW131874   0.723   0.859   9.224 -0.3946 -1.3960 -1.4131
 6805SOL    HW231875   0.590   0.792   9.226  0.6353 -0.5212  0.2041
 6806SOL     OW31876   0.963   3.814   2.217  0.0432  0.3042  0.2226
 6806SOL    HW131877   0.922   3.827   2.131 -0.5018 -2.1346  0.1039
 6806SOL    HW231878   0.904   3.749   2.254 -1.4254  0.8226 -1.1875
 6807SOL     OW31879   4.642   3.061   4.824  0.7497  0.3528  0.3328
 6807SOL    HW131880   4.625   3.036   4.734 -1.3844 -0.0190  0.8409
 6807SOL    HW231881   4.649   2.970   4.851 -1.2393  0.3968  0.9621
 6808SOL     OW31882   4.651   0.026   0.819 -0.2586  0.0001 -0.6175
 6808SOL    HW131883   4.686   0.074   0.745 -0.3709 -1.1336 -1.4090
 6808SOL    HW231884   4.663   4.658   0.784  2.7054 -0.3390  1.1701
 6809SOL     OW31885   0.208   0.374   7.464 -0.5294 -0.2566 -0.5829
 6809SOL    HW131886   0.187   0.463   7.494 -2.2142 -0.7596 -0.2860
 6809SOL    HW231887   0.244   0.338   7.545  2.7835  1.6161 -1.2298
 6810SOL     OW31888   2.758   0.521   4.778  0.2534 -0.3905 -0.0564
 6810SOL    HW131889   2.796   0.544   4.862  0.7728  2.6646 -1.1111
 6810SOL    HW231890   2.760   0.607   4.736  1.6351  0.2833  1.4293
 6811SOL     OW31891   3.080   3.007  12.909 -0.5733 -0.1507  0.3401
 6811SOL    HW131892   3.172   2.995  12.930  0.2128  0.3532 -2.8873
 6811SOL    HW231893   3.081   2.981  12.817  0.9904 -0.7396  0.5291
 6812SOL     OW31894   2.347   0.661   6.938  0.1410  0.2580 -0.0180
 6812SOL    HW131895   2.278   0.651   7.003  0.5916 -2.7179  0.0239
 6812SOL    HW231896   2.402   0.713   6.997  0.6080 -0.7910  0.4802
 6813SOL     OW31897   3.132   2.939  16.394 -0.3829  0.1046  0.2641
 6813SOL    HW131898   3.138   2.889  16.313  0.4590  1.0497 -0.2489
 6813SOL    HW231899   3.054   2.993  16.383  1.1732  1.9208 -1.7763
 6814SOL     OW31900   1.084   0.916   7.532 -0.3900  0.2695 -0.3544
 6814SOL    HW131901   1.127   0.892   7.450  0.0203 -1.0335  0.2321
 6814SOL    HW231902   0.994   0.936   7.505 -2.0702 -2.6926  2.9628
 6815SOL     OW31903   2.135   2.218   4.158 -1.3584  0.3794  0.1288
 6815SOL    HW131904   2.067   2.284   4.147 -1.9519 -0.6471 -2.5183
 6815SOL    HW231905   2.208   2.274   4.183  0.7832 -1.2989 -2.3226
 6816SOL     OW31906   4.331   1.221   4.858 -0.0087 -0.8097  0.4638
 6816SOL    HW131907   4.368   1.251   4.941  1.1879 -0.9440 -0.0159
 6816SOL    HW231908   4.397   1.261   4.802  0.1649 -0.5164  0.8725
 6817SOL     OW31909   2.638   2.284   3.032 -0.2280 -0.1559 -0.3363
 6817SOL    HW131910   2.607   2.281   3.123  0.6229  2.7551  0.0554
 6817SOL    HW231911   2.592   2.362   2.999 -0.8515 -1.0866 -1.6306
 6818SOL     OW31912   0.306   0.389  11.363  0.0164 -0.0185 -0.2232
 6818SOL    HW131913   0.302   0.369  11.456  0.4814 -0.8028 -0.3661
 6818SOL    HW231914   0.395   0.424  11.361  0.3393 -1.0224 -3.8762
 6819SOL     OW31915   1.461   4.696   4.751 -0.0822  0.0087 -0.3324
 6819SOL    HW131916   1.430   0.026   4.676 -3.1753  0.3786  1.1857
 6819SOL    HW231917   1.463   4.608   4.716 -0.3831  0.1106 -0.6060
 6820SOL     OW31918   3.015   2.702   6.697 -0.6796  0.3805  0.0368
 6820SOL    HW131919   3.063   2.623   6.719 -1.6475  0.0973  1.1477
 6820SOL    HW231920   3.061   2.761   6.756 -0.3612  2.5300 -2.3450
 6821SOL     OW31921   1.383   0.586   5.064  0.1964 -0.4215  0.4619
 6821SOL    HW131922   1.452   0.523   5.041  1.2906  0.8439  0.2703
 6821SOL    HW231923   1.317   0.550   5.004 -1.4675  1.3156  1.2707
 6822SOL     OW31924   3.701   3.962  16.356  0.6141 -0.0622  0.3053
 6822SOL    HW131925   3.624   3.904  16.355 -0.3477  1.1905  1.1626
 6822SOL    HW231926   3.686   3.997  16.268 -0.0542  2.8719  1.5935
 6823SOL     OW31927   2.195   3.367  12.125 -0.3585  0.5241  0.1159
 6823SOL    HW131928   2.219   3.280  12.093 -0.3912  1.0859 -1.4449
 6823SOL    HW231929   2.113   3.348  12.172 -0.9813  4.7692  0.7569
 6824SOL     OW31930   3.909   4.243  11.274 -0.5219  0.1527  0.1514
 6824SOL    HW131931   3.906   4.310  11.342  0.6782 -0.4553  0.8168
 6824SOL    HW231932   3.856   4.294  11.214  0.6410  1.9702  0.6661
 6825SOL     OW31933   4.273   1.463   7.988  0.1135  0.6499  0.2281
 6825SOL    HW131934   4.365   1.472   8.011  0.3436 -1.7611  0.2823
 6825SOL    HW231935   4.260   1.462   7.893  2.9572  0.3016 -0.1505
 6826SOL     OW31936   0.730   3.756   0.131 -0.5389  0.1925  0.1407
 6826SOL    HW131937   0.792   3.830   0.136 -0.4068  0.1511 -0.9004
 6826SOL    HW231938   0.727   3.738   0.225  1.0969 -2.5750 -0.3486
 6827SOL     OW31939   0.136   2.219  17.029 -0.0709  0.0888  0.2473
 6827SOL    HW131940   0.158   2.310  17.049  0.2775 -0.3857  2.0286
 6827SOL    HW231941   0.188   2.170  17.092 -1.3919 -1.1327  0.3954
 6828SOL     OW31942   3.222   2.038   5.877  0.3051 -0.1015 -0.5311
 6828SOL    HW131943   3.162   1.979   5.924 -0.0601 -0.5026 -1.4790
 6828SOL    HW231944   3.224   2.114   5.934  1.6100  1.1915 -2.3098
 6829SOL     OW31945   3.669   3.660   5.702 -0.3565  0.2079  0.0024
 6829SOL    HW131946   3.687   3.568   5.681  1.8392  0.9566 -1.4342
 6829SOL    HW231947   3.576   3.683   5.703 -0.3553  0.4931 -3.4117
 6830SOL     OW31948   4.275   2.839   5.110  0.6551  0.6647  0.2121
 6830SOL    HW131949   4.303   2.838   5.202  2.5154 -1.5520 -0.3839
 6830SOL    HW231950   4.331   2.765   5.089  0.3439  0.3126  0.6018
 6831SOL     OW31951   1.366   2.794   4.842 -0.7051 -0.2793  0.3614
 6831SOL    HW131952   1.373   2.716   4.788  0.5043 -0.6743  1.1003
 6831SOL    HW231953   1.381   2.857   4.772  0.8977 -0.0392  0.9143
 6832SOL     OW31954   4.430   2.388  14.276  0.5085 -0.0501 -0.0924
 6832SOL    HW131955   4.503   2.411  14.333  0.7780 -1.1601  0.0126
 6832SOL    HW231956   4.477   2.370  14.195  0.3509  0.0630 -0.2083
 6833SOL     OW31957   3.830   3.919   8.538 -0.4858 -0.1378  0.6517
 6833SOL    HW131958   3.742   3.928   8.500  0.2163  2.3587 -0.4290
 6833SOL    HW231959   3.884   3.974   8.482 -0.1371 -0.3219  0.8114
 6834SOL     OW31960   4.629   0.850   3.785 -0.1451 -0.5183  0.1599
 6834SOL    HW131961   4.538   0.849   3.753  0.0932 -0.8403 -0.5126
 6834SOL    HW231962   4.623   0.938   3.821  1.2854  0.2327 -1.4738
 6835SOL     OW31963   3.985   4.288   4.338 -0.2607 -0.2247 -0.0491
 6835SOL    HW131964   3.955   4.204   4.372 -1.5675  0.5354  0.6859
 6835SOL    HW231965   4.023   4.325   4.418  0.7982  0.8770 -1.0522
 6836SOL     OW31966   2.018   4.021  17.284  0.0507  0.0327 -0.1618
 6836SOL    HW131967   1.986   3.943  17.239  1.2722 -0.3106 -0.4488
 6836SOL    HW231968   2.065   4.059  17.210 -1.5529 -0.7655 -1.5920
 6837SOL     OW31969   3.057   0.210  17.207 -0.1773  0.2282 -0.0595
 6837SOL    HW131970   3.122   0.221  17.275 -0.4594  0.8440  0.1176
 6837SOL    HW231971   3.038   0.118  17.187 -0.0195  0.2713 -0.4045
 6838SOL     OW31972   2.715   0.050  15.173  0.2703  0.0965 -0.1669
 6838SOL    HW131973   2.732   0.056  15.079  1.0532  1.6446  0.0745
 6838SOL    HW231974   2.762   0.131  15.192  0.1728  0.5755 -1.9948
 6839SOL     OW31975   1.387   0.775  15.178 -0.4028 -0.0212  0.1849
 6839SOL    HW131976   1.444   0.844  15.144 -0.6469 -0.0723 -0.3374
 6839SOL    HW231977   1.329   0.764  15.102  0.1856 -1.5320 -0.0622
 6840SOL     OW31978   1.645   3.711   2.905  0.1857  0.3060  0.4409
 6840SOL    HW131979   1.604   3.696   2.991 -0.0914 -1.1209  0.0566
 6840SOL    HW231980   1.724   3.656   2.912  0.4136  0.6927  0.9014
 6841SOL     OW31981   4.129   0.844   7.828  0.2140  0.5906  0.3023
 6841SOL    HW131982   4.133   0.882   7.916  1.2523  2.3251 -0.5009
 6841SOL    HW231983   4.087   0.762   7.856  0.3603 -0.3158 -2.2103
 6842SOL     OW31984   2.288   3.103   2.334 -0.5016  0.3036  0.8317
 6842SOL    HW131985   2.295   3.030   2.395  1.7094  0.4343  0.7551
 6842SOL    HW231986   2.373   3.147   2.342 -1.4601  1.9639  1.9039
 6843SOL     OW31987   0.636   4.102  16.114 -0.3440  0.1750  0.7190
 6843SOL    HW131988   0.709   4.101  16.176  0.3552  1.5089 -0.0725
 6843SOL    HW231989   0.622   4.197  16.116  2.3702  0.5951 -0.3118
 6844SOL     OW31990   4.233   2.259   0.598 -0.4879 -0.3730 -0.1677
 6844SOL    HW131991   4.146   2.294   0.619 -0.2422 -1.2633  2.3347
 6844SOL    HW231992   4.289   2.289   0.670 -0.3257  2.3828 -1.4299
 6845SOL     OW31993   3.553   1.382   5.468 -0.1159 -0.0820  0.4670
 6845SOL    HW131994   3.524   1.441   5.538 -0.3823 -0.8363  0.9968
 6845SOL    HW231995   3.468   1.366   5.426 -0.1364 -1.8347  1.1906
 6846SOL     OW31996   0.459   2.425  16.707 -0.1354  0.2867  0.1379
 6846SOL    HW131997   0.465   2.342  16.660  0.9030  0.7737 -0.5649
 6846SOL    HW231998   0.459   2.395  16.798  0.0573  1.8366  0.6412
 6847SOL     OW31999   0.775   1.833  17.461  0.0120 -0.0173 -0.2614
 6847SOL    HW132000   0.730   1.844  17.545 -1.2777 -0.7278 -0.8602
 6847SOL    HW232001   0.703   1.802  17.407  0.5166  1.3167 -1.7082
 6848SOL     OW32002   1.810   0.790   7.015  0.4989  0.0695  0.0814
 6848SOL    HW132003   1.866   0.863   6.988 -1.7442  2.3063  1.5268
 6848SOL    HW232004   1.762   0.758   6.939 -0.3033  1.9014 -0.1947
 6849SOL     OW32005   4.012   3.885   7.607 -1.1852 -0.0118  0.2188
 6849SOL    HW132006   4.003   3.829   7.685  3.3448  0.1430  0.8962
 6849SOL    HW232007   4.106   3.875   7.590 -1.2939 -1.5995  0.5146
 6850SOL     OW32008   1.965   3.568  12.492  0.3171  0.1872  0.6287
 6850SOL    HW132009   1.881   3.584  12.448  1.5084  0.6766 -1.4702
 6850SOL    HW232010   1.958   3.634  12.561  1.4730 -0.3799  1.2741
 6851SOL     OW32011   2.231   0.782   0.449  0.3178  0.0184  0.1099
 6851SOL    HW132012   2.236   0.690   0.425 -0.8392  0.1266 -0.5690
 6851SOL    HW232013   2.214   0.776   0.543 -0.7331  1.2106  0.0138
 6852SOL     OW32014   3.866   3.872   2.953 -0.1712 -0.5856 -0.1349
 6852SOL    HW132015   3.865   3.876   2.858 -0.6999 -1.9188 -0.1815
 6852SOL    HW232016   3.958   3.875   2.979  0.0875  2.4833 -1.4325
 6853SOL     OW32017   4.024   3.507   6.141  0.3426  0.2770 -1.1247
 6853SOL    HW132018   4.054   3.594   6.164  1.5966 -0.8959  1.6725
 6853SOL    HW232019   4.052   3.457   6.218  3.6831 -0.2081 -2.6311
 6854SOL     OW32020   3.730   0.141   1.744 -0.6262 -0.2073 -0.0887
 6854SOL    HW132021   3.740   0.236   1.735 -1.4302 -0.3942 -2.8552
 6854SOL    HW232022   3.651   0.125   1.692 -1.0027  0.0577  0.3975
 6855SOL     OW32023   4.291   3.527   9.249  0.4892 -0.0432 -0.0204
 6855SOL    HW132024   4.377   3.565   9.263  0.0424  0.9707 -0.0244
 6855SOL    HW232025   4.298   3.432   9.257 -1.6973 -0.2002  0.1869
 6856SOL     OW32026   4.262   2.900   7.980 -0.5450 -0.1026 -0.4070
 6856SOL    HW132027   4.237   2.895   7.887 -2.5213  0.2274  0.1139
 6856SOL    HW232028   4.249   2.808   8.004  0.5967  0.0890  0.9258
 6857SOL     OW32029   0.061   1.268   9.464 -0.4020  0.3954 -0.1614
 6857SOL    HW132030   0.104   1.339   9.510 -0.1874 -0.6215  1.2077
 6857SOL    HW232031   0.040   1.218   9.543  1.4743  0.3231  0.2954
 6858SOL     OW32032   2.852   3.778   7.958  0.0782 -0.1831  0.1381
 6858SOL    HW132033   2.790   3.824   8.015  0.6484 -0.4822  1.0140
 6858SOL    HW232034   2.940   3.813   7.971  0.7840 -1.0917 -2.2584
 6859SOL     OW32035   0.401   2.672   6.445  0.0013  0.3042 -0.0095
 6859SOL    HW132036   0.432   2.714   6.525 -0.3306 -0.8688  0.7349
 6859SOL    HW232037   0.377   2.754   6.402 -0.0142  1.1508  1.5882
 6860SOL     OW32038   3.562   1.838   4.448 -0.0534  0.1894 -0.7526
 6860SOL    HW132039   3.524   1.851   4.361  2.0664 -0.3808 -1.7593
 6860SOL    HW232040   3.655   1.853   4.432  0.3017 -0.3127  0.8184
 6861SOL     OW32041   1.205   1.970   7.314  0.2593 -0.0461 -0.3875
 6861SOL    HW132042   1.158   1.948   7.395 -0.0768  2.3580  0.0628
 6861SOL    HW232043   1.277   2.019   7.354 -0.6437  0.0010  1.1913
 6862SOL     OW32044   2.184   1.984   8.655 -0.3586 -0.1358 -0.2785
 6862SOL    HW132045   2.090   1.980   8.673 -0.6892  2.6814 -1.3854
 6862SOL    HW232046   2.207   2.071   8.689 -0.9077 -0.9374  2.1069
 6863SOL     OW32047   2.466   2.316   2.155  0.6149  0.1922  0.0103
 6863SOL    HW132048   2.373   2.294   2.161  0.7739 -0.5937 -0.3260
 6863SOL    HW232049   2.500   2.262   2.226 -0.4425 -1.0755 -0.4512
 6864SOL     OW32050   0.121   0.519  17.371  0.0298 -0.1499  0.5085
 6864SOL    HW132051   0.033   0.549  17.347  0.0398 -0.5443 -0.0425
 6864SOL    HW232052   0.168   0.594  17.406  1.5006 -2.1069  2.7346
 6865SOL     OW32053   3.393   1.167  11.963 -0.0248  1.3340  0.4987
 6865SOL    HW132054   3.307   1.205  11.945 -1.1106 -1.4198 -0.1188
 6865SOL    HW232055   3.430   1.149  11.877 -0.8466 -2.3353  0.8745
 6866SOL     OW32056   1.216   3.797  13.103  0.0677  0.2309 -0.2443
 6866SOL    HW132057   1.169   3.718  13.132 -0.2352 -0.0910 -1.6053
 6866SOL    HW232058   1.302   3.760  13.082 -0.9713 -1.7406 -1.0300
 6867SOL     OW32059   4.338   4.616   1.165  0.0480  0.8146  0.4421
 6867SOL    HW132060   4.394   4.593   1.239  0.5335 -1.3600 -0.6070
 6867SOL    HW232061   4.405   4.612   1.097  1.0100 -2.7172  1.6114
 6868SOL     OW32062   0.197   0.651   7.401  0.3804 -0.0161 -0.2248
 6868SOL    HW132063   0.191   0.654   7.305  0.1823  1.1299 -0.1700
 6868SOL    HW232064   0.142   0.723   7.431 -1.4586 -1.6542  0.3689
 6869SOL     OW32065   1.533   3.006   8.965  0.5258  0.0613 -0.0485
 6869SOL    HW132066   1.533   3.101   8.975  1.6459  0.1210 -0.6524
 6869SOL    HW232067   1.442   2.986   8.986  0.9567 -1.6704  0.1716
 6870SOL     OW32068   3.538   0.954   7.095  0.4202 -0.2432  0.0497
 6870SOL    HW132069   3.533   1.040   7.053 -0.3781 -0.5552 -0.4993
 6870SOL    HW232070   3.501   0.967   7.182 -2.6804 -0.5812 -1.1908
 6871SOL     OW32071   3.565   0.136   7.109  0.1847 -0.0808 -0.6049
 6871SOL    HW132072   3.591   0.084   7.185  0.9473 -0.6748 -1.2722
 6871SOL    HW232073   3.470   0.124   7.101  0.3829 -0.4283 -2.3320
 6872SOL     OW32074   3.600   0.256   3.342  0.5265 -0.2183 -0.4883
 6872SOL    HW132075   3.667   0.316   3.311 -0.9911  1.4464 -0.5748
 6872SOL    HW232076   3.546   0.254   3.263  1.6106  1.0143 -1.2574
 6873SOL     OW32077   1.250   3.729   9.710  0.0295 -0.6355  0.0486
 6873SOL    HW132078   1.156   3.730   9.729  0.1736 -2.8796  0.9598
 6873SOL    HW232079   1.275   3.791   9.779 -2.9426  0.5536  0.0649
 6874SOL     OW32080   3.839   4.504   8.039  0.2568 -0.3469  0.1059
 6874SOL    HW132081   3.817   4.534   8.127  1.7631  0.4378  0.2102
 6874SOL    HW232082   3.783   4.426   8.037  1.6128 -1.3634  1.2467
 6875SOL     OW32083   3.996   0.949   0.239  0.3143 -0.2560  0.4244
 6875SOL    HW132084   3.992   1.001   0.319 -2.7358 -1.6728  1.1967
 6875SOL    HW232085   4.083   0.910   0.244 -0.0583 -0.9222  1.4715
 6876SOL     OW32086   0.942   1.396   5.330 -0.8194 -0.5261 -0.2255
 6876SOL    HW132087   0.873   1.461   5.326 -1.1211 -0.6887  2.0342
 6876SOL    HW232088   0.938   1.361   5.241 -2.1348  1.7929 -1.0526
 6877SOL     OW32089   2.472   2.395  11.906 -0.5649 -0.0677 -0.2402
 6877SOL    HW132090   2.494   2.332  11.837 -2.5624 -0.1573 -0.8032
 6877SOL    HW232091   2.403   2.349  11.955 -0.7026 -0.9581 -1.2703
 6878SOL     OW32092   0.047   3.852   3.265 -0.5511  0.4376  0.4073
 6878SOL    HW132093   0.056   3.790   3.192 -0.8809  2.6738 -1.5098
 6878SOL    HW232094   0.137   3.882   3.278 -0.6203  1.4391 -1.4501
 6879SOL     OW32095   4.218   2.324  15.808 -0.3186  0.1606  0.6934
 6879SOL    HW132096   4.275   2.395  15.779 -0.3996 -0.3148 -0.6145
 6879SOL    HW232097   4.208   2.265  15.733  1.9441  1.0725 -0.3288
 6880SOL     OW32098   2.980   0.638   7.665 -0.1980  0.3291  0.1853
 6880SOL    HW132099   3.011   0.607   7.750  0.3235  2.4556  0.7829
 6880SOL    HW232100   2.913   0.702   7.690  0.3728  1.3704 -0.9274
 6881SOL     OW32101   0.559   2.270   0.524  0.7337 -0.3460  0.4516
 6881SOL    HW132102   0.605   2.344   0.564  1.2681 -0.9448  0.9484
 6881SOL    HW232103   0.539   2.210   0.596  0.1213 -0.8999 -0.1791
 6882SOL     OW32104   3.246   0.628   6.576  0.5031  0.1326 -0.1557
 6882SOL    HW132105   3.334   0.598   6.550  1.0882  0.2689  1.6534
 6882SOL    HW232106   3.239   0.706   6.521  0.5721 -0.4161 -0.9531
 6883SOL     OW32107   0.616   0.650  15.016 -0.9091  0.1515 -0.5874
 6883SOL    HW132108   0.655   0.730  14.982 -0.2435 -0.3051 -0.8948
 6883SOL    HW232109   0.621   0.681  15.106 -0.3566  1.4684 -1.0790
 6884SOL     OW32110   1.387   4.025  10.140 -0.0341  0.7943  0.7686
 6884SOL    HW132111   1.473   3.983  10.146 -1.1963 -1.9562 -1.8792
 6884SOL    HW232112   1.410   4.098  10.083  0.6568  0.9411  1.2394
 6885SOL     OW32113   4.518   0.986   4.902 -0.5396 -0.5501 -0.2215
 6885SOL    HW132114   4.440   1.037   4.923 -2.1039 -2.3044 -1.7355
 6885SOL    HW232115   4.558   0.970   4.988  0.9342 -0.1062 -0.8180
 6886SOL     OW32116   4.651   1.020   8.165 -0.0017  0.1923 -0.6096
 6886SOL    HW132117   4.574   0.990   8.118 -0.6842 -0.4170  0.8794
 6886SOL    HW232118   4.623   1.103   8.203 -1.3024  0.0473 -1.2714
 6887SOL     OW32119   2.137   3.775   0.373 -0.4317  0.7032  0.0181
 6887SOL    HW132120   2.051   3.759   0.411 -0.4557 -1.1545 -0.7636
 6887SOL    HW232121   2.141   3.695   0.319 -0.7554  1.6084 -1.3293
 6888SOL     OW32122   2.376   1.537   8.625 -0.1193 -0.0293  0.0607
 6888SOL    HW132123   2.290   1.577   8.639  0.1515  1.0706 -1.3764
 6888SOL    HW232124   2.431   1.616   8.622  2.0055 -1.5621 -1.1288
 6889SOL     OW32125   0.174   3.456  11.655 -0.4162  0.1938  0.1000
 6889SOL    HW132126   0.157   3.526  11.592  0.1286 -0.1152 -0.3881
 6889SOL    HW232127   0.089   3.439  11.696 -1.8205  0.2858 -2.7611
 6890SOL     OW32128   0.850   2.265  16.447  0.1828  0.0950  0.2104
 6890SOL    HW132129   0.837   2.358  16.466  0.1664 -0.1564  1.3749
 6890SOL    HW232130   0.771   2.243  16.398 -1.4661 -0.5161  3.1725
 6891SOL     OW32131   0.944   1.727   7.149 -0.0250  0.0480  0.5769
 6891SOL    HW132132   1.038   1.723   7.166 -0.0769 -1.7537  0.3752
 6891SOL    HW232133   0.926   1.821   7.156  0.9800  0.3326 -0.7316
 6892SOL     OW32134   0.873   2.278   2.159 -0.4802 -0.2354 -0.3615
 6892SOL    HW132135   0.793   2.304   2.114  0.5181 -1.0401 -2.5977
 6892SOL    HW232136   0.860   2.184   2.148  0.0001 -0.6573  2.6771
 6893SOL     OW32137   0.473   4.404   4.289  0.1822 -0.4555 -0.1960
 6893SOL    HW132138   0.560   4.435   4.264  0.9044 -1.8241  0.5683
 6893SOL    HW232139   0.460   4.352   4.210  0.6513  2.1565 -1.9948
 6894SOL     OW32140   4.235   3.822   4.185 -0.0192 -0.2410  0.0311
 6894SOL    HW132141   4.328   3.844   4.173  0.1617 -0.9639  0.1413
 6894SOL    HW232142   4.232   3.727   4.183 -1.9115 -0.1482 -1.5664
 6895SOL     OW32143   1.454   2.703   0.142  0.4206 -0.1603  0.0207
 6895SOL    HW132144   1.375   2.757   0.141  0.1841 -0.5010  1.3541
 6895SOL    HW232145   1.516   2.776   0.147 -0.2814  0.5695 -1.9641
 6896SOL     OW32146   3.915   3.026   4.646  0.2005 -0.4369  0.1675
 6896SOL    HW132147   3.917   2.931   4.654 -1.1053 -0.3414  1.4321
 6896SOL    HW232148   3.877   3.027   4.558 -2.9179 -1.5449  1.5192
 6897SOL     OW32149   2.724   2.312   5.948 -0.7355 -0.4740  0.1635
 6897SOL    HW132150   2.766   2.392   5.979 -1.7997  0.0586  0.2460
 6897SOL    HW232151   2.735   2.332   5.855 -0.3699 -1.2840  0.0345
 6898SOL     OW32152   1.326   0.851   2.944  0.7036 -0.1002 -0.2567
 6898SOL    HW132153   1.245   0.861   2.994 -0.0108 -1.0246 -1.2322
 6898SOL    HW232154   1.318   0.764   2.905 -0.5268 -0.0689 -0.0737
 6899SOL     OW32155   1.643   0.778   2.411 -0.0187  0.2641 -0.7721
 6899SOL    HW132156   1.735   0.755   2.406  0.0906 -0.0328  3.0286
 6899SOL    HW232157   1.589   0.708   2.373  1.9571 -1.6893  0.0065
 6900SOL     OW32158   1.432   3.901   2.285  0.1185 -0.2568  0.0040
 6900SOL    HW132159   1.356   3.842   2.292  0.0257 -0.1125  0.2125
 6900SOL    HW232160   1.492   3.856   2.344  1.2237  0.2577 -0.7400
 6901SOL     OW32161   3.046   3.283  11.352 -0.5805  0.4234  0.1260
 6901SOL    HW132162   3.066   3.277  11.446  1.0637 -3.0068 -0.4532
 6901SOL    HW232163   3.107   3.355  11.333  0.0207 -0.2717 -0.5763
 6902SOL     OW32164   2.270   2.690   4.481 -0.4347 -0.2609 -0.5593
 6902SOL    HW132165   2.234   2.603   4.464  1.3856 -1.2630  0.7539
 6902SOL    HW232166   2.239   2.705   4.570 -2.1092  0.1644 -1.2101
 6903SOL     OW32167   2.514   3.277   2.354  0.5980  0.0131  0.3077
 6903SOL    HW132168   2.487   3.361   2.392  1.7402  1.4316 -2.0425
 6903SOL    HW232169   2.548   3.318   2.275 -2.4827 -0.7003 -1.3915
 6904SOL     OW32170   4.530   4.209   0.636  0.0271 -0.4290  0.3978
 6904SOL    HW132171   4.609   4.203   0.689 -0.8719 -0.9859  1.6769
 6904SOL    HW232172   4.536   4.300   0.606  1.1242 -0.3214  0.9560
 6905SOL     OW32173   0.758   3.482   5.070 -0.0237 -0.4131 -0.0334
 6905SOL    HW132174   0.836   3.497   5.017 -0.2845 -0.6953 -0.5021
 6905SOL    HW232175   0.791   3.441   5.150  0.6220 -1.6199 -0.9262
 6906SOL     OW32176   1.084   1.435  10.847 -0.0034 -0.1346 -0.2382
 6906SOL    HW132177   1.176   1.458  10.839 -0.5172  2.0650  0.0361
 6906SOL    HW232178   1.053   1.491  10.919 -0.1645 -0.3964 -0.1029
 6907SOL     OW32179   1.261   4.243   4.957 -0.5670 -0.5319  0.3834
 6907SOL    HW132180   1.240   4.332   4.928 -0.1992 -0.3848  0.5647
 6907SOL    HW232181   1.204   4.237   5.033  0.9158 -0.4296  1.5033
 6908SOL     OW32182   2.642   4.021   5.636  0.0511  0.0383  0.3398
 6908SOL    HW132183   2.599   4.023   5.721  0.5457  1.0730  0.5755
 6908SOL    HW232184   2.567   4.011   5.577  0.3036 -0.4367  0.1011
 6909SOL     OW32185   4.405   2.377  15.201  0.3416 -0.0806  0.5388
 6909SOL    HW132186   4.350   2.410  15.272 -1.4138  1.7313 -1.6472
 6909SOL    HW232187   4.336   2.365  15.137  1.5461 -1.3858 -0.5271
 6910SOL     OW32188   4.078   4.544   7.904  0.0059  0.1506 -0.1917
 6910SOL    HW132189   3.995   4.527   7.949  0.5043  0.0085  0.6665
 6910SOL    HW232190   4.065   4.474   7.840  0.7373 -0.9234  0.8348
 6911SOL     OW32191   4.327   3.672   5.690 -0.0013 -0.2821 -0.5389
 6911SOL    HW132192   4.395   3.739   5.687  0.1537 -0.3128  1.8229
 6911SOL    HW232193   4.338   3.636   5.778 -0.0827 -0.2990 -0.5355
 6912SOL     OW32194   4.541   1.510  10.005 -0.1511 -0.1152  0.4752
 6912SOL    HW132195   4.628   1.551  10.008 -1.2454  2.3734 -1.9594
 6912SOL    HW232196   4.543   1.458  10.086  1.8991  1.5844  1.5182
 6913SOL     OW32197   1.171   4.022   5.344 -0.0151 -0.7501 -0.3360
 6913SOL    HW132198   1.172   4.104   5.294 -0.2742  0.1107  1.0725
 6913SOL    HW232199   1.174   4.054   5.434 -0.9144 -2.5332  0.3351
 6914SOL     OW32200   2.341   4.540   6.063  0.0551 -0.3415 -0.3711
 6914SOL    HW132201   2.434   4.520   6.054 -0.1206 -1.8015  0.9488
 6914SOL    HW232202   2.322   4.584   5.980  0.3088 -2.0202 -1.3219
 6915SOL     OW32203   1.121   3.572   3.767 -0.1506  0.3819  0.2711
 6915SOL    HW132204   1.046   3.617   3.727 -1.1947 -0.3987  1.3281
 6915SOL    HW232205   1.090   3.486   3.797  3.6573 -0.0085  3.0462
 6916SOL     OW32206   4.116   1.025   4.830 -0.2516 -0.1906  0.5340
 6916SOL    HW132207   4.190   1.079   4.858 -1.5094  1.6023  0.3913
 6916SOL    HW232208   4.104   1.029   4.735  0.0274 -1.3810  0.4461
 6917SOL     OW32209   4.600   3.042   3.580 -0.2969 -0.0790  0.0114
 6917SOL    HW132210   4.512   3.007   3.572 -0.1809 -0.6671  1.2080
 6917SOL    HW232211   4.588   3.124   3.534  0.6733 -0.6401 -1.2298
 6918SOL     OW32212   2.594   0.081   3.085  0.0863 -0.1572 -0.1290
 6918SOL    HW132213   2.609   0.172   3.062 -0.9563 -0.0813 -0.5084
 6918SOL    HW232214   2.599   0.032   3.003 -0.4489  1.7422 -1.2923
 6919SOL     OW32215   1.852   0.951   8.268  0.4345  0.1267  0.1195
 6919SOL    HW132216   1.772   0.932   8.318  1.1886  0.6135  1.4867
 6919SOL    HW232217   1.900   0.992   8.339  0.9826 -0.9294  0.3495
 6920SOL     OW32218   2.319   2.007   6.206 -0.0652 -0.3914  0.3211
 6920SOL    HW132219   2.277   2.043   6.284 -3.1146 -0.4149 -1.2983
 6920SOL    HW232220   2.371   2.080   6.171 -1.2647  2.0901  3.6746
 6921SOL     OW32221   4.542   3.384   2.317 -0.1634 -0.2326 -0.2263
 6921SOL    HW132222   4.622   3.342   2.286  1.2734  0.6904  2.2215
 6921SOL    HW232223   4.551   3.353   2.407 -1.6062 -1.6970 -0.5975
 6922SOL     OW32224   4.378   0.094   4.791  0.4553 -0.2487  0.4845
 6922SOL    HW132225   4.431   0.032   4.740 -1.1599 -2.5700  1.6199
 6922SOL    HW232226   4.435   0.157   4.834  0.5334  0.2974 -0.4108
 6923SOL     OW32227   2.445   1.453   7.012 -0.7054 -0.5961  0.1185
 6923SOL    HW132228   2.355   1.456   7.044 -1.3178 -3.3224 -1.2900
 6923SOL    HW232229   2.442   1.450   6.916  1.9146  1.6838 -0.0184
 6924SOL     OW32230   1.083   1.500  10.090 -0.2065 -0.0895 -0.1386
 6924SOL    HW132231   1.170   1.482  10.126 -0.2545  1.6854  0.8342
 6924SOL    HW232232   1.045   1.413  10.102 -1.4442  0.4630 -0.0846
 6925SOL     OW32233   1.122   0.770   8.229  0.1805 -0.0737  0.5241
 6925SOL    HW132234   1.080   0.833   8.286 -0.4849 -2.1799  2.3727
 6925SOL    HW232235   1.063   0.792   8.157  0.6976 -0.3508  0.0118
 6926SOL     OW32236   3.518   3.741  10.855  0.5780  0.5275  0.6712
 6926SOL    HW132237   3.540   3.728  10.763 -2.3633 -3.0250  0.4638
 6926SOL    HW232238   3.427   3.713  10.856  0.6080  0.4238  0.4886
 6927SOL     OW32239   0.721   3.301  16.984 -0.0743 -0.2402 -0.1429
 6927SOL    HW132240   0.724   3.217  17.029 -1.7851  1.0447  2.3312
 6927SOL    HW232241   0.806   3.301  16.939  0.6858 -2.6328  1.3133
 6928SOL     OW32242   4.354   2.389   8.748  0.1959  0.0003  0.6088
 6928SOL    HW132243   4.362   2.376   8.843  0.7355 -2.1969  0.2658
 6928SOL    HW232244   4.412   2.465   8.739  0.9557 -0.8256 -1.4324
 6929SOL     OW32245   0.819   1.100   6.931 -0.6108 -0.2369 -0.6019
 6929SOL    HW132246   0.893   1.152   6.901 -1.8769  1.2930 -1.0270
 6929SOL    HW232247   0.842   1.071   7.020  0.8497 -1.5737 -1.4128
 6930SOL     OW32248   2.257   0.041   8.596 -0.8992  0.1066 -0.1898
 6930SOL    HW132249   2.259   4.699   8.669  0.2535 -1.5554 -1.6400
 6930SOL    HW232250   2.216   0.116   8.639  2.4995  1.7854  0.1009
 6931SOL     OW32251   0.950   3.555  16.986  0.1724  0.2094  0.6314
 6931SOL    HW132252   0.995   3.630  16.947  0.0619  1.5068  3.0368
 6931SOL    HW232253   0.863   3.587  17.007 -0.4461 -0.8572 -0.3036
 6932SOL     OW32254   4.227   2.000   6.919  0.2408 -0.7244 -1.0282
 6932SOL    HW132255   4.146   2.033   6.880 -1.7537 -2.6235  1.6040
 6932SOL    HW232256   4.199   1.975   7.006 -2.2497  0.8966 -1.3684
 6933SOL     OW32257   3.654   1.094   3.121 -0.5589 -0.6530 -0.2928
 6933SOL    HW132258   3.645   1.042   3.041 -0.0883  1.9850 -2.0460
 6933SOL    HW232259   3.647   1.184   3.090  0.9556 -0.2872  0.4661
 6934SOL     OW32260   4.254   4.628  13.563  0.3575 -0.3028 -0.6153
 6934SOL    HW132261   4.227   4.577  13.486 -2.1976  1.4580 -0.8853
 6934SOL    HW232262   4.191   4.700  13.558 -0.0154 -0.4233  2.1141
 6935SOL     OW32263   1.320   0.607   4.480  0.6878  0.1523  0.2005
 6935SOL    HW132264   1.234   0.591   4.517  0.9814  1.4371  1.4307
 6935SOL    HW232265   1.311   0.702   4.473  0.3032 -0.0116 -1.4558
 6936SOL     OW32266   2.000   1.200   5.139 -0.9477  0.4527  0.0071
 6936SOL    HW132267   1.983   1.106   5.150 -1.2225  0.2518 -2.2481
 6936SOL    HW232268   2.089   1.199   5.104 -0.3955 -0.5620  1.4119
 6937SOL     OW32269   4.546   1.886  13.451  0.0205  0.3506 -0.0398
 6937SOL    HW132270   4.574   1.847  13.368  0.0780  0.3417 -0.0157
 6937SOL    HW232271   4.520   1.971  13.414 -0.9961 -0.2346 -0.6791
 6938SOL     OW32272   0.417   3.167  14.850  0.4382  0.5231 -0.3209
 6938SOL    HW132273   0.373   3.114  14.783 -0.6861 -0.4214  1.1927
 6938SOL    HW232274   0.434   3.093  14.908 -0.1032  1.4475  1.0095
 6939SOL     OW32275   1.790   1.571   2.208  0.1541 -0.6664  0.0826
 6939SOL    HW132276   1.700   1.556   2.237  0.5126 -3.2698 -0.1954
 6939SOL    HW232277   1.794   1.516   2.129 -1.7992  0.0478 -0.5039
 6940SOL     OW32278   1.933   1.791  16.195 -0.2873  0.3777  0.0230
 6940SOL    HW132279   1.997   1.721  16.209 -0.1114  0.1164 -2.0399
 6940SOL    HW232280   1.968   1.827  16.113  0.6521 -0.0176  0.2474
 6941SOL     OW32281   1.935   0.456  11.323 -0.3135  0.6510  0.1754
 6941SOL    HW132282   1.917   0.526  11.385 -0.3060  2.0206 -1.3692
 6941SOL    HW232283   1.909   0.506  11.246 -0.5730  0.1165 -0.0787
 6942SOL     OW32284   0.932   0.535   8.269 -0.9248  0.5263 -0.5471
 6942SOL    HW132285   1.025   0.533   8.293 -1.0631 -0.9317 -0.1061
 6942SOL    HW232286   0.895   0.452   8.301 -0.8055  0.3526 -0.8608
 6943SOL     OW32287   0.052   1.854  11.180 -0.0015  0.3475 -0.4285
 6943SOL    HW132288   4.718   1.932  11.173 -1.5071 -0.6728 -0.0782
 6943SOL    HW232289   4.713   1.781  11.199 -1.0803  1.5939  1.0701
 6944SOL     OW32290   2.710   0.736   2.406 -0.1385  0.4864  0.7602
 6944SOL    HW132291   2.670   0.807   2.456 -0.2060  1.0042 -0.0280
 6944SOL    HW232292   2.672   0.744   2.319 -0.0540  2.4200  0.9059
 6945SOL     OW32293   1.336   1.433   1.343 -0.1396  0.8295  0.0999
 6945SOL    HW132294   1.257   1.474   1.306  1.5736  1.1675 -3.1661
 6945SOL    HW232295   1.304   1.345   1.361  0.7406  0.3585 -0.6714
 6946SOL     OW32296   2.426   3.787   2.963  0.3194  0.3312  0.3171
 6946SOL    HW132297   2.433   3.706   3.014 -2.9434  1.5663  2.6873
 6946SOL    HW232298   2.408   3.854   3.029  1.4729 -0.1314  1.0971
 6947SOL     OW32299   2.254   1.757  10.072  0.3230 -0.1730 -0.2958
 6947SOL    HW132300   2.218   1.740  10.159 -1.0563 -0.5557 -0.9354
 6947SOL    HW232301   2.286   1.674  10.037  0.5799  0.4946 -1.6346
 6948SOL     OW32302   1.289   2.835   7.011  0.0840 -0.8082 -0.3057
 6948SOL    HW132303   1.264   2.915   6.966 -1.1552  0.0474  1.9765
 6948SOL    HW232304   1.304   2.862   7.101 -0.2205 -0.0522 -0.4831
 6949SOL     OW32305   2.067   0.887  11.977 -0.4570 -0.1205 -0.0556
 6949SOL    HW132306   2.020   0.944  12.036 -0.5949 -0.2075 -0.0817
 6949SOL    HW232307   2.110   0.837  12.047  0.5412  1.1028  0.1890
 6950SOL     OW32308   1.953   1.156  15.779  0.2920 -0.4718  0.0577
 6950SOL    HW132309   1.880   1.096  15.773  0.9807 -1.2633 -0.3940
 6950SOL    HW232310   1.955   1.180  15.686  1.2903 -1.2817 -0.1306
 6951SOL     OW32311   2.526   0.103   7.329  0.6220  0.2519 -0.5109
 6951SOL    HW132312   2.464   0.176   7.324 -0.5031 -0.7666 -1.6005
 6951SOL    HW232313   2.470   0.029   7.303 -0.1334  0.8030 -0.4590
 6952SOL     OW32314   0.193   3.220  11.257  0.9886 -0.0442  0.4411
 6952SOL    HW132315   0.231   3.164  11.190 -0.0525 -1.0357  0.6769
 6952SOL    HW232316   0.266   3.272  11.288  1.5134 -0.6479  0.2180
 6953SOL     OW32317   4.530   0.982   8.691 -0.3077  0.0580 -0.1357
 6953SOL    HW132318   4.561   0.903   8.645 -1.6080 -0.4493 -0.1182
 6953SOL    HW232319   4.580   0.982   8.773  2.1006  4.6510 -1.5766
 6954SOL     OW32320   3.435   2.913  17.627 -0.0371 -0.0599  0.0262
 6954SOL    HW132321   3.367   2.863  17.672  0.0814 -1.2009 -1.0564
 6954SOL    HW232322   3.392   2.998  17.616 -0.8018 -0.3895  0.4541
 6955SOL     OW32323   1.367   1.959   3.704  0.0176 -0.0707 -0.1541
 6955SOL    HW132324   1.422   2.034   3.730  1.1979 -0.3865 -1.7183
 6955SOL    HW232325   1.405   1.892   3.761  1.1685  0.0381 -0.7813
 6956SOL     OW32326   1.967   2.292   5.506 -0.2580 -0.1317  0.0712
 6956SOL    HW132327   1.949   2.383   5.484 -1.4797 -0.4051 -0.0179
 6956SOL    HW232328   1.889   2.239   5.491 -0.0031 -0.3747 -0.3706
 6957SOL     OW32329   2.863   4.192   6.486  0.0323 -0.3359  0.0990
 6957SOL    HW132330   2.795   4.243   6.442 -1.2453 -0.8829  1.4359
 6957SOL    HW232331   2.914   4.268   6.512 -0.9754  0.1396  0.6726
 6958SOL     OW32332   1.757   1.159  15.397  0.0235 -0.0822 -0.1366
 6958SOL    HW132333   1.710   1.160  15.313  0.6363 -0.1558 -0.4872
 6958SOL    HW232334   1.769   1.068  15.424  0.1196  0.3702  1.3376
 6959SOL     OW32335   2.184   4.687   9.645 -0.4978 -0.6538 -0.5666
 6959SOL    HW132336   2.174   0.062   9.644  1.4693 -0.4354  0.3306
 6959SOL    HW232337   2.090   4.670   9.648 -0.2310 -2.1884 -0.8254
 6960SOL     OW32338   3.300   1.226   8.445 -0.2644 -0.0574 -0.3660
 6960SOL    HW132339   3.385   1.265   8.464  0.9046 -2.0549 -1.5360
 6960SOL    HW232340   3.283   1.174   8.524  0.0479 -2.8796 -2.1637
 6961SOL     OW32341   2.239   1.509   5.451  0.1863 -0.1178 -0.3602
 6961SOL    HW132342   2.331   1.483   5.459  0.3264 -1.0341 -4.8090
 6961SOL    HW232343   2.253   1.575   5.383 -0.0613 -1.6834 -1.9433
 6962SOL     OW32344   3.109   1.920   4.932 -0.0021 -0.8381 -0.4495
 6962SOL    HW132345   3.173   1.980   4.969  1.3654 -2.7242  0.2745
 6962SOL    HW232346   3.165   1.897   4.858 -0.3961 -1.7821 -0.4677
 6963SOL     OW32347   2.455   2.357   7.389  0.1120 -0.3042 -0.0897
 6963SOL    HW132348   2.463   2.421   7.318 -0.2127 -1.3957 -1.1105
 6963SOL    HW232349   2.362   2.365   7.410 -0.5358 -2.7465 -2.0542
 6964SOL     OW32350   0.340   1.426   4.477 -0.6069  0.1828 -0.2372
 6964SOL    HW132351   0.405   1.497   4.481  0.0584 -0.3898 -0.8998
 6964SOL    HW232352   0.267   1.478   4.445  0.8170  0.7396 -2.5575
 6965SOL     OW32353   2.530   4.384   5.722  0.4320 -0.0530 -0.0425
 6965SOL    HW132354   2.503   4.293   5.736 -0.3973 -0.1069 -1.9702
 6965SOL    HW232355   2.620   4.390   5.755 -0.1085 -3.6736  2.0582
 6966SOL     OW32356   0.015   2.638   5.332  0.0965  0.2530 -0.1613
 6966SOL    HW132357   0.074   2.695   5.381  1.1639 -0.0795 -1.0551
 6966SOL    HW232358   0.082   2.597   5.276  0.3189  2.2989 -1.3620
 6967SOL     OW32359   0.150   4.272   1.840  0.1834 -0.1601 -0.1726
 6967SOL    HW132360   0.144   4.220   1.759 -0.4172 -0.3407 -0.0123
 6967SOL    HW232361   0.160   4.357   1.796  0.8715 -1.0236 -1.7051
 6968SOL     OW32362   2.017   0.131   4.378  0.0000 -0.1080  0.1137
 6968SOL    HW132363   1.971   0.117   4.296  2.2883  0.2960 -1.2444
 6968SOL    HW232364   1.943   0.118   4.438  1.1868 -0.3923  1.5367
 6969SOL     OW32365   0.629   1.520   8.049 -0.3010 -0.2218  0.0123
 6969SOL    HW132366   0.570   1.547   7.979  0.6131  0.7760 -0.3808
 6969SOL    HW232367   0.669   1.443   8.008 -1.5793 -0.5514 -0.6184
 6970SOL     OW32368   0.577   4.153   8.863  0.3935  0.2154 -0.1436
 6970SOL    HW132369   0.607   4.217   8.799  0.6662  0.2555  0.0228
 6970SOL    HW232370   0.554   4.205   8.941 -1.5941 -2.7248  1.2217
 6971SOL     OW32371   2.456   3.763   7.750  0.2696  0.6154  0.4490
 6971SOL    HW132372   2.388   3.696   7.762  0.2702  0.3295 -1.1769
 6971SOL    HW232373   2.535   3.721   7.716  0.5180  0.9002  0.6732
 6972SOL     OW32374   0.405   3.549   6.105 -0.1510 -0.0972  0.4923
 6972SOL    HW132375   0.476   3.607   6.132 -0.3922  0.3557  0.1563
 6972SOL    HW232376   0.381   3.595   6.025 -0.3966 -0.4720  0.3546
 6973SOL     OW32377   4.090   3.237   0.937  0.0056  0.0410  0.3508
 6973SOL    HW132378   4.076   3.177   1.010  2.4349 -1.3442 -0.2880
 6973SOL    HW232379   4.014   3.294   0.943 -0.0753 -0.1477  1.1523
 6974SOL     OW32380   2.663   1.211   3.237 -0.0307  0.0451  0.4700
 6974SOL    HW132381   2.571   1.208   3.260 -0.7028 -0.4661 -2.1908
 6974SOL    HW232382   2.692   1.239   3.323  1.3587 -2.3594  0.8014
 6975SOL     OW32383   2.554   4.328  14.520  0.3643 -0.2331  0.3172
 6975SOL    HW132384   2.516   4.270  14.586 -2.3825 -0.0511 -1.0795
 6975SOL    HW232385   2.644   4.297  14.522  0.2110 -0.5918  2.0484
 6976SOL     OW32386   1.708   1.282   8.162 -0.0648  0.1920 -0.2782
 6976SOL    HW132387   1.688   1.371   8.190 -1.9159  0.1124 -1.3598
 6976SOL    HW232388   1.660   1.275   8.079  0.4576 -0.9326 -0.4895
 6977SOL     OW32389   4.372   4.372  15.292  0.2798  0.9994  0.1229
 6977SOL    HW132390   4.284   4.367  15.330  1.3866  0.8336  2.7026
 6977SOL    HW232391   4.388   4.463  15.313  0.3441  1.7732 -3.3227
 6978SOL     OW32392   0.891   0.810   9.185  0.2947  0.0412  0.7285
 6978SOL    HW132393   0.945   0.781   9.258 -0.6130 -0.2470  1.2870
 6978SOL    HW232394   0.925   0.899   9.172 -0.4948  0.1111 -0.8678
 6979SOL     OW32395   2.323   2.552  12.419 -0.0247 -0.0717 -0.3660
 6979SOL    HW132396   2.340   2.520  12.508  0.7334 -0.0988 -0.5188
 6979SOL    HW232397   2.405   2.599  12.401  0.2241 -1.3273 -2.4209
 6980SOL     OW32398   1.845   1.212   6.077  0.4134 -0.1872  0.4239
 6980SOL    HW132399   1.788   1.231   6.152 -1.4239  0.8125 -1.2229
 6980SOL    HW232400   1.932   1.230   6.114  0.3107  0.5180  0.3302
 6981SOL     OW32401   1.715   0.264   4.770  0.0011 -0.9632 -0.1182
 6981SOL    HW132402   1.625   0.234   4.758 -0.4406  0.6101 -0.7235
 6981SOL    HW232403   1.759   0.189   4.810  0.4722 -0.2624  0.6807
 6982SOL     OW32404   1.610   3.952   5.704  0.0257 -0.0904 -0.1062
 6982SOL    HW132405   1.676   3.895   5.663  1.1172  1.3523 -0.3338
 6982SOL    HW232406   1.670   4.002   5.758  0.8589 -0.3088 -0.8239
 6983SOL     OW32407   4.196   2.005   9.039  0.3587 -0.0025  0.3570
 6983SOL    HW132408   4.208   2.052   9.121  1.6541 -3.3181  2.0618
 6983SOL    HW232409   4.194   1.915   9.071  2.1245 -0.3078 -0.3554
 6984SOL     OW32410   3.759   4.449   3.259  0.1377 -0.3882  0.4406
 6984SOL    HW132411   3.788   4.518   3.318  1.9703  1.2330 -2.3800
 6984SOL    HW232412   3.844   4.409   3.236 -0.3270 -0.9956 -0.2194
 6985SOL     OW32413   4.431   0.159   7.147 -0.3712 -0.3092 -0.4604
 6985SOL    HW132414   4.400   0.083   7.197  1.0354  0.3538  1.4148
 6985SOL    HW232415   4.414   0.231   7.207  0.1597 -0.2461 -0.3931
 6986SOL     OW32416   1.881   1.546  10.384 -0.3194  0.4869 -0.1848
 6986SOL    HW132417   1.906   1.455  10.370 -0.6327  0.1002  1.8029
 6986SOL    HW232418   1.848   1.560  10.296  1.9718 -0.4079 -1.1897
 6987SOL     OW32419   4.098   4.410   2.434 -0.3915  0.4161 -0.3747
 6987SOL    HW132420   4.091   4.482   2.496 -4.2178  0.0836 -0.3916
 6987SOL    HW232421   4.028   4.348   2.455  1.5327 -2.2474 -1.8243
 6988SOL     OW32422   0.132   2.828   3.065  0.2052 -0.2434 -0.0230
 6988SOL    HW132423   0.038   2.815   3.061  0.1807  0.5230 -1.7356
 6988SOL    HW232424   0.128   2.850   3.158  1.9619  0.5205 -0.1151
 6989SOL     OW32425   2.409   4.160  11.696 -0.5326  0.8258  0.3197
 6989SOL    HW132426   2.480   4.224  11.699 -2.5585  3.0590  1.4805
 6989SOL    HW232427   2.451   4.093  11.643 -2.0504  0.9354 -1.0239
 6990SOL     OW32428   3.316   0.644  15.125  0.0959 -0.1720  0.0993
 6990SOL    HW132429   3.244   0.705  15.106 -0.7411 -0.4208  2.4619
 6990SOL    HW232430   3.336   0.684  15.210 -3.8166 -1.1239  1.4944
 6991SOL     OW32431   2.172   1.638   7.917  0.1534 -0.2808 -0.6308
 6991SOL    HW132432   2.235   1.570   7.894 -0.2228 -0.4433 -1.1809
 6991SOL    HW232433   2.199   1.665   8.005 -3.7075 -0.8997  0.7402
 6992SOL     OW32434   0.336   4.678   1.526  0.0160  0.3764  0.0926
 6992SOL    HW132435   0.420   4.633   1.528  0.3655  1.0748  1.0283
 6992SOL    HW232436   0.328   4.685   1.431 -3.2283  0.6362  0.3829
 6993SOL     OW32437   0.470   3.533  15.183 -0.0250 -0.0446 -0.4513
 6993SOL    HW132438   0.504   3.559  15.269 -0.0351 -1.7567  0.0752
 6993SOL    HW232439   0.400   3.597  15.168  1.3155  0.6513 -3.6144
 6994SOL     OW32440   3.711   4.268   8.689  0.7226  0.7137  0.2651
 6994SOL    HW132441   3.765   4.217   8.749  4.0132  0.9024 -2.4619
 6994SOL    HW232442   3.782   4.299   8.632 -0.0368 -0.1760 -1.1565
 6995SOL     OW32443   2.051   1.499  12.751  0.3952 -0.0721 -0.1519
 6995SOL    HW132444   1.974   1.508  12.807  1.2985  0.5985  1.0160
 6995SOL    HW232445   2.032   1.567  12.687  0.8984  1.5881  1.4732
 6996SOL     OW32446   2.281   1.204   8.665  0.1395 -0.1038  0.0412
 6996SOL    HW132447   2.321   1.259   8.733  1.3291  0.1234 -0.8334
 6996SOL    HW232448   2.266   1.255   8.586  0.5719 -1.5297 -0.9588
 6997SOL     OW32449   0.061   0.792  10.352  0.4222 -0.1399 -0.4352
 6997SOL    HW132450   0.122   0.800  10.425 -1.1878 -1.5136  1.0510
 6997SOL    HW232451   0.012   0.713  10.375 -1.0199  0.7439 -0.4926
 6998SOL     OW32452   2.893   4.233   1.274 -0.3718 -0.1305 -0.8090
 6998SOL    HW132453   2.887   4.204   1.183 -1.4911  0.3189 -0.8732
 6998SOL    HW232454   2.950   4.168   1.315  1.0124  1.9596  0.5476
 6999SOL     OW32455   0.159   0.175   3.569  0.3717  0.2696  0.6696
 6999SOL    HW132456   0.098   0.244   3.595  1.4477  0.7162  2.0292
 6999SOL    HW232457   0.245   0.210   3.593 -0.1428  0.9453  1.5403
 7000SOL     OW32458   3.660   4.083  15.810  0.5044 -0.3981  0.3895
 7000SOL    HW132459   3.606   4.142  15.757  0.5281  1.5361  2.4961
 7000SOL    HW232460   3.675   4.003  15.759 -1.0772 -0.0270 -0.6642
 7001SOL     OW32461   2.040   0.970  15.381 -0.3073  0.1369  0.4170
 7001SOL    HW132462   1.955   0.986  15.422 -0.3755 -1.5229  0.9371
 7001SOL    HW232463   2.072   0.888  15.419  0.4095  0.8051  1.2481
 7002SOL     OW32464   1.326   4.069  11.477 -0.0695  0.0368  0.1969
 7002SOL    HW132465   1.248   4.101  11.432  0.5148 -0.4841 -1.1640
 7002SOL    HW232466   1.293   4.100  11.562 -1.6299 -0.6858 -0.1498
 7003SOL     OW32467   0.073   3.038  11.492  0.0534 -0.0356  0.1031
 7003SOL    HW132468   0.084   2.943  11.492  1.7709  0.1549 -0.5167
 7003SOL    HW232469   0.163   3.066  11.507  0.3769 -1.5393  0.8808
 7004SOL     OW32470   2.447   2.431   9.225  0.2963 -0.6591 -0.0982
 7004SOL    HW132471   2.520   2.447   9.285 -1.4895  0.8741  1.6556
 7004SOL    HW232472   2.501   2.414   9.147 -1.5256 -1.1244 -1.2477
 7005SOL     OW32473   2.920   4.395   7.569  0.0815 -0.2361 -0.1696
 7005SOL    HW132474   2.847   4.435   7.617  0.2970 -0.4240  0.3234
 7005SOL    HW232475   2.871   4.362   7.494  1.2297  0.9488 -1.4401
 7006SOL     OW32476   1.820   4.081   5.840  0.0887  0.5518  0.2703
 7006SOL    HW132477   1.851   4.089   5.931 -0.7427  1.5615  0.4665
 7006SOL    HW232478   1.904   4.061   5.799 -0.0511  1.1202 -0.2960
 7007SOL     OW32479   2.487   1.940  13.972  0.2519  0.3370 -0.0221
 7007SOL    HW132480   2.393   1.928  13.964 -0.4556  4.9068  1.6027
 7007SOL    HW232481   2.503   1.898  14.057 -2.7742  0.7894  0.7657
 7008SOL     OW32482   4.245   2.479   1.302  0.1709 -0.0469  0.0583
 7008SOL    HW132483   4.317   2.420   1.325 -2.7085 -2.5587  2.6053
 7008SOL    HW232484   4.218   2.500   1.391  1.5916  1.0257  0.2503
 7009SOL     OW32485   2.952   0.540   5.917 -0.1979  0.1395 -0.3726
 7009SOL    HW132486   3.035   0.493   5.905 -1.4319 -1.3063 -3.5248
 7009SOL    HW232487   2.979   0.625   5.884 -0.9781  0.2582 -0.7148
 7010SOL     OW32488   3.629   2.917   2.853  0.0291 -0.1540  0.6180
 7010SOL    HW132489   3.660   2.995   2.899  0.2108  0.8443 -1.2078
 7010SOL    HW232490   3.575   2.958   2.786 -1.9490 -2.5723  0.7368
 7011SOL     OW32491   1.113   2.023   6.964  0.9525  0.0702  0.2646
 7011SOL    HW132492   1.028   2.031   6.922  2.0335  0.4861 -1.8408
 7011SOL    HW232493   1.099   2.006   7.057  2.3312 -0.8096  0.3241
 7012SOL     OW32494   1.432   2.340   4.003  0.0288  0.3477  0.2305
 7012SOL    HW132495   1.437   2.339   4.098 -0.7737  0.3805  0.2700
 7012SOL    HW232496   1.409   2.432   3.992 -1.0658 -0.0383 -0.7005
 7013SOL     OW32497   3.621   0.002  16.632  0.0958 -0.3515 -0.8799
 7013SOL    HW132498   3.559   4.691  16.698 -0.2524  3.0474  0.4355
 7013SOL    HW232499   3.700   4.683  16.668  0.1481  2.1017  1.7077
 7014SOL     OW32500   4.623   0.585  10.762  0.4109  0.4538 -0.3658
 7014SOL    HW132501   4.665   0.667  10.787  0.4455 -0.2885  2.0066
 7014SOL    HW232502   4.586   0.560  10.846  0.5905  3.2233  0.5252
 7015SOL     OW32503   3.500   0.004  13.650  0.4229 -0.5885  0.4677
 7015SOL    HW132504   3.592   4.720  13.621  1.0939  2.0566  2.1754
 7015SOL    HW232505   3.497   0.076  13.713  1.0817  0.1585 -0.3411
 7016SOL     OW32506   1.438   3.200  13.268  0.0770  0.9984 -0.2823
 7016SOL    HW132507   1.512   3.185  13.209 -0.5860  1.8181 -1.3386
 7016SOL    HW232508   1.489   3.223  13.345  0.8937  0.4955 -0.6760
 7017SOL     OW32509   3.104   2.989  17.447  0.0466  1.0282 -0.5538
 7017SOL    HW132510   3.175   3.044  17.480  1.0136 -1.3608  1.3526
 7017SOL    HW232511   3.142   2.951  17.368 -0.9693  2.1338 -1.5696
 7018SOL     OW32512   4.187   2.368   9.151 -0.0824 -0.0596  0.1091
 7018SOL    HW132513   4.148   2.281   9.162  1.9037 -0.9982 -0.2769
 7018SOL    HW232514   4.104   2.415   9.157  0.5889  1.1403 -0.0540
 7019SOL     OW32515   0.631   1.814   7.027  0.0071 -0.8583 -0.1571
 7019SOL    HW132516   0.600   1.742   7.082 -2.6808 -0.3441 -0.9803
 7019SOL    HW232517   0.722   1.832   7.050 -0.3270  0.0892  0.4235
 7020SOL     OW32518   4.039   2.325   7.077  0.6464  0.4882 -0.3155
 7020SOL    HW132519   4.066   2.298   7.165  1.7362 -1.0394 -1.0992
 7020SOL    HW232520   4.010   2.236   7.057  0.9822  0.4099 -0.4596
 7021SOL     OW32521   4.122   4.692  16.962 -0.1675  0.1146 -0.4506
 7021SOL    HW132522   4.162   0.042  17.013 -1.3317  1.6407 -1.6522
 7021SOL    HW232523   4.098   4.632  17.032 -0.2638 -0.1872 -0.7403
 7022SOL     OW32524   3.344   4.174   5.571 -0.1881  0.0665  0.3844
 7022SOL    HW132525   3.357   4.107   5.504 -0.0270 -0.2364  0.7159
 7022SOL    HW232526   3.260   4.214   5.550  0.1728  0.3632 -0.4658
 7023SOL     OW32527   3.273   2.282   6.943  0.1592  0.3239  0.0931
 7023SOL    HW132528   3.356   2.240   6.965  1.0102  1.9036 -0.1452
 7023SOL    HW232529   3.213   2.207   6.942 -1.4210  1.5771  0.7628
 7024SOL     OW32530   2.793   1.020  11.130  0.0338 -0.0541  0.3213
 7024SOL    HW132531   2.791   1.071  11.211  0.4936  1.2859 -0.5034
 7024SOL    HW232532   2.699   1.017  11.113 -0.0381 -1.5040  1.0209
 7025SOL     OW32533   2.059   4.511  10.106  0.0656 -0.9888 -0.1336
 7025SOL    HW132534   1.964   4.503  10.101  0.0807  0.0786 -1.9107
 7025SOL    HW232535   2.085   4.562  10.029  0.1473  3.7229  2.9831
 7026SOL     OW32536   1.129   0.446   3.406  0.1531 -0.8667  0.3337
 7026SOL    HW132537   1.060   0.384   3.385 -0.5441  0.6145 -1.7952
 7026SOL    HW232538   1.202   0.394   3.373 -0.2030 -1.2029  0.0789
 7027SOL     OW32539   2.690   0.294   7.472  0.1356 -0.9571  0.4525
 7027SOL    HW132540   2.750   0.320   7.402 -0.4306  0.2638  0.4111
 7027SOL    HW232541   2.623   0.251   7.418  2.0063  0.9402 -3.4187
 7028SOL     OW32542   0.230   0.114   8.750 -0.6231  0.2546 -0.4281
 7028SOL    HW132543   0.159   0.141   8.691 -1.6130 -0.1209  0.5950
 7028SOL    HW232544   0.289   0.062   8.695 -0.1994 -0.5834  0.8229
 7029SOL     OW32545   0.891   4.340  15.422 -0.4716 -0.4375 -0.5954
 7029SOL    HW132546   0.798   4.359  15.430  0.1607  1.9026  0.9864
 7029SOL    HW232547   0.933   4.418  15.387 -1.0987 -0.4502 -1.3859
 7030SOL     OW32548   0.272   0.301   3.281 -0.0065  0.1082  0.0342
 7030SOL    HW132549   0.197   0.330   3.229 -1.7995 -2.9232  0.9632
 7030SOL    HW232550   0.216   0.274   3.353  0.5379 -1.6894 -0.2222
 7031SOL     OW32551   0.299   0.872   7.123 -0.3137  0.2204  0.1611
 7031SOL    HW132552   0.276   0.782   7.100 -4.1294  0.6694  2.2924
 7031SOL    HW232553   0.373   0.886   7.064  1.6920  1.7627  3.0720
 7032SOL     OW32554   0.202   1.573   7.441 -0.4459 -0.4211 -0.7909
 7032SOL    HW132555   0.251   1.625   7.378 -0.7962  0.8325 -0.0215
 7032SOL    HW232556   0.228   1.622   7.519  0.9000  0.3579 -1.7329
 7033SOL     OW32557   4.243   3.826  15.572 -0.9080  0.0764  0.7434
 7033SOL    HW132558   4.155   3.863  15.573 -1.3766 -1.0040 -1.3211
 7033SOL    HW232559   4.289   3.884  15.511  1.5058 -2.5995  0.0473
 7034SOL     OW32560   2.469   2.692   4.922 -0.7131  0.2690 -0.4179
 7034SOL    HW132561   2.558   2.663   4.939 -1.8243 -2.6993  0.3247
 7034SOL    HW232562   2.485   2.734   4.838  0.1398  0.8087  0.0206
 7035SOL     OW32563   0.759   1.279  12.698  0.0987  0.3191 -0.1613
 7035SOL    HW132564   0.739   1.185  12.691 -0.1437  0.2661  1.2123
 7035SOL    HW232565   0.686   1.312  12.750  0.5710  0.1393  0.6177
 7036SOL     OW32566   3.520   2.482   8.552 -0.1935  0.2589  0.1451
 7036SOL    HW132567   3.528   2.468   8.458  0.7151 -1.9439  0.5695
 7036SOL    HW232568   3.487   2.572   8.556 -1.4681 -0.0870 -2.7700
 7037SOL     OW32569   3.173   4.130   6.003 -0.0260 -0.5849 -0.3920
 7037SOL    HW132570   3.249   4.126   6.060 -2.7485 -1.7943  3.2053
 7037SOL    HW232571   3.106   4.134   6.071  0.1779  0.8945 -0.2891
 7038SOL     OW32572   1.903   2.097   0.227 -0.4103 -0.3328  0.1830
 7038SOL    HW132573   1.811   2.073   0.238 -0.6880 -0.3899 -2.2671
 7038SOL    HW232574   1.924   2.045   0.149 -2.2165 -1.3541  0.4014
 7039SOL     OW32575   3.337   3.070   8.892  0.0182 -0.8677  0.0851
 7039SOL    HW132576   3.388   3.150   8.881  0.8557 -1.5386 -0.9258
 7039SOL    HW232577   3.345   3.064   8.988 -0.3315  0.4554  0.1995
 7040SOL     OW32578   4.500   2.303  14.005  0.9356  0.1494 -0.1071
 7040SOL    HW132579   4.486   2.211  13.983 -2.0917  0.2246  1.4288
 7040SOL    HW232580   4.417   2.330  13.966  2.2262  3.0966 -0.7804
 7041SOL     OW32581   2.958   3.567  14.092 -0.1236 -0.2970 -0.3814
 7041SOL    HW132582   2.995   3.624  14.025  0.2375 -1.6664 -1.3529
 7041SOL    HW232583   2.913   3.628  14.151  1.1905  0.1382  0.1633
 7042SOL     OW32584   3.192   3.127   8.662  0.5670 -0.1750  0.4681
 7042SOL    HW132585   3.279   3.160   8.639  0.0692  0.7790 -0.0090
 7042SOL    HW232586   3.219   3.096   8.749  0.1593  1.5460  1.2080
 7043SOL     OW32587   1.056   0.716   5.437  0.2223  0.1382 -0.2318
 7043SOL    HW132588   0.997   0.789   5.418 -0.3939  0.6728  3.6876
 7043SOL    HW232589   1.115   0.728   5.363  1.4717  1.4427  0.9850
 7044SOL     OW32590   3.365   3.385   4.645 -0.1553  0.0834  0.4285
 7044SOL    HW132591   3.366   3.470   4.690 -0.5205  0.1698  0.2777
 7044SOL    HW232592   3.450   3.345   4.664  0.3639  0.3792 -1.2403
 7045SOL     OW32593   2.235   1.241   3.614  0.4517  0.0438  0.3248
 7045SOL    HW132594   2.189   1.248   3.530  0.8055  0.8929  0.2003
 7045SOL    HW232595   2.204   1.153   3.632 -1.7971  0.8089  0.2485
 7046SOL     OW32596   3.411   2.736   8.176 -0.4075  0.5436 -0.1049
 7046SOL    HW132597   3.355   2.812   8.189 -0.1668  1.3296 -3.5275
 7046SOL    HW232598   3.461   2.773   8.103 -1.5176  2.2673  0.0021
 7047SOL     OW32599   2.097   1.160  16.925 -0.8362 -0.1270 -0.1522
 7047SOL    HW132600   2.082   1.083  16.981  0.8719  0.4342  1.0629
 7047SOL    HW232601   2.183   1.185  16.958 -0.9079 -0.8094  0.5756
 7048SOL     OW32602   0.957   3.393   1.087  0.2311  0.0665 -0.1441
 7048SOL    HW132603   0.869   3.374   1.119  0.6480  0.8011  1.4240
 7048SOL    HW232604   0.930   3.456   1.020 -1.0197 -0.5116 -0.1868
 7049SOL     OW32605   1.199   4.333   0.905 -0.0447 -0.3613  0.3145
 7049SOL    HW132606   1.171   4.254   0.951 -0.0047  0.0271  1.0100
 7049SOL    HW232607   1.149   4.399   0.952 -0.8555 -0.4166 -0.4604
 7050SOL     OW32608   2.745   0.303   3.654  0.6544  0.3004 -0.0243
 7050SOL    HW132609   2.659   0.260   3.646  1.1665 -0.6714 -0.3696
 7050SOL    HW232610   2.761   0.284   3.747  2.8039 -0.1171 -0.4776
 7051SOL     OW32611   1.091   3.317   6.652  0.7320  0.4920  0.3189
 7051SOL    HW132612   1.033   3.273   6.715  0.5569 -0.0631 -0.2333
 7051SOL    HW232613   1.029   3.318   6.579 -1.4448 -0.1592  2.1453
 7052SOL     OW32614   0.865   0.437   4.833 -0.0254 -0.1674  0.0759
 7052SOL    HW132615   0.924   0.502   4.871  0.9407 -0.4107 -0.9886
 7052SOL    HW232616   0.915   0.413   4.754  0.0882  0.8816 -0.1694
 7053SOL     OW32617   0.108   1.159   1.795 -0.3435 -0.0497  0.0224
 7053SOL    HW132618   0.065   1.106   1.861  1.0786 -0.7143  0.4207
 7053SOL    HW232619   0.201   1.140   1.807 -0.2714  0.8443  0.8695
 7054SOL     OW32620   3.024   4.246  16.110 -0.2654  0.2341  0.0814
 7054SOL    HW132621   3.103   4.240  16.163 -0.5334  1.4837  0.6047
 7054SOL    HW232622   3.016   4.341  16.102 -1.1278  0.1188 -0.4945
 7055SOL     OW32623   2.265   0.771  11.614 -0.0119 -0.1735 -0.2799
 7055SOL    HW132624   2.176   0.784  11.647  0.1029  0.8320 -0.3486
 7055SOL    HW232625   2.313   0.778  11.696 -0.4994  2.0135 -0.1670
 7056SOL     OW32626   2.738   1.368   2.737  0.8562  0.3194  0.5932
 7056SOL    HW132627   2.782   1.438   2.785  0.6274  1.0045 -0.2005
 7056SOL    HW232628   2.735   1.407   2.650 -1.9098 -1.1669  0.0211
 7057SOL     OW32629   2.167   3.383  12.756 -0.5541 -0.2025 -0.4877
 7057SOL    HW132630   2.155   3.318  12.687 -1.1153 -0.1729 -0.4165
 7057SOL    HW232631   2.189   3.329  12.832  0.7775  0.1808 -0.5981
 7058SOL     OW32632   3.001   0.807   9.729 -0.0596 -0.2076 -0.1857
 7058SOL    HW132633   3.020   0.785   9.820  0.5310  0.2507 -0.1991
 7058SOL    HW232634   3.058   0.736   9.699  0.8541  0.5115 -0.1449
 7059SOL     OW32635   1.804   0.862  11.037  0.3778 -0.2931  0.1773
 7059SOL    HW132636   1.800   0.902  11.123 -0.1282 -2.0458  0.9746
 7059SOL    HW232637   1.714   0.876  11.007 -0.0849  0.9098  2.2058
 7060SOL     OW32638   0.762   0.363  10.895 -0.3347  0.3753  0.5663
 7060SOL    HW132639   0.782   0.279  10.853 -0.3927  1.5299 -1.7698
 7060SOL    HW232640   0.806   0.350  10.979 -1.2240 -0.9541  0.8402
 7061SOL     OW32641   3.074   4.043   6.815 -0.1413 -0.3454  0.3563
 7061SOL    HW132642   3.054   4.066   6.906 -0.5020  0.1789  0.1429
 7061SOL    HW232643   3.036   4.113   6.763 -0.5218 -1.9077 -1.4643
 7062SOL     OW32644   3.066   1.910   6.046 -0.2353 -0.1510 -0.1354
 7062SOL    HW132645   3.030   1.832   6.089  0.4017  0.0324  0.7268
 7062SOL    HW232646   2.992   1.953   6.004  0.3547  1.1252  0.1317
 7063SOL     OW32647   0.680   2.933   1.555  0.2085 -0.3560 -0.2452
 7063SOL    HW132648   0.675   2.985   1.636  1.0706  1.9016 -1.6502
 7063SOL    HW232649   0.685   2.851   1.604 -1.0870 -1.9836 -2.8522
 7064SOL     OW32650   0.483   2.690   5.891 -0.0972  0.0452  0.1396
 7064SOL    HW132651   0.545   2.755   5.924 -0.0417  0.7700 -1.4163
 7064SOL    HW232652   0.466   2.644   5.973  1.1102  0.1694  0.4441
 7065SOL     OW32653   1.368   4.689  13.981 -0.2052 -0.1347  0.5678
 7065SOL    HW132654   1.379   4.706  14.075 -0.9298  1.3727  0.3845
 7065SOL    HW232655   1.326   4.604  13.966  0.3542 -0.8053  2.7577
 7066SOL     OW32656   4.092   1.637   8.144 -0.6049 -0.2796 -0.6974
 7066SOL    HW132657   4.161   1.592   8.095 -1.3670 -3.8664  1.4928
 7066SOL    HW232658   4.115   1.722   8.107  2.1215 -0.7838 -0.2020
 7067SOL     OW32659   3.803   3.028   4.408  0.3627  0.1497  0.1833
 7067SOL    HW132660   3.829   3.099   4.348  0.8041 -0.1361  0.0372
 7067SOL    HW232661   3.771   2.959   4.350  0.4083  0.5089 -0.2720
 7068SOL     OW32662   3.867   2.274  14.396  0.3412  0.3552  0.3618
 7068SOL    HW132663   3.907   2.189  14.376 -0.7180  0.8648 -3.9558
 7068SOL    HW232664   3.801   2.248  14.460 -0.6933 -1.6320 -1.5072
 7069SOL     OW32665   2.188   3.065   2.089  0.1229  0.3313  0.1204
 7069SOL    HW132666   2.217   3.083   2.178 -0.6038 -0.6252  0.5484
 7069SOL    HW232667   2.194   2.969   2.096  2.9806  0.3540 -2.0281
 7070SOL     OW32668   1.774   4.714   1.516 -0.0390  0.8071  0.1418
 7070SOL    HW132669   1.723   4.638   1.486  0.8320 -0.3414  1.5413
 7070SOL    HW232670   1.763   4.707   1.611 -2.0113  0.6693 -0.0873
 7071SOL     OW32671   3.120   1.162   4.095 -0.2044 -0.3845  0.1467
 7071SOL    HW132672   3.062   1.138   4.023  1.1052 -0.9471 -0.7223
 7071SOL    HW232673   3.200   1.135   4.050 -0.0614  1.3314 -0.5921
 7072SOL     OW32674   3.299   4.401  13.548 -0.4541  0.2797 -0.1326
 7072SOL    HW132675   3.222   4.453  13.570 -0.2893  1.3429 -2.1185
 7072SOL    HW232676   3.299   4.391  13.453  0.1042 -0.8219 -0.0247
 7073SOL     OW32677   0.556   1.143   1.598  0.5120 -0.0749  0.3525
 7073SOL    HW132678   0.529   1.111   1.512 -1.3061  3.0793 -0.2546
 7073SOL    HW232679   0.622   1.080   1.626 -0.9650 -1.5985  0.4040
 7074SOL     OW32680   0.379   0.248   1.903 -0.1872 -0.6257  0.0461
 7074SOL    HW132681   0.385   0.227   1.810 -0.2986  0.8774 -0.3026
 7074SOL    HW232682   0.362   0.160   1.936 -0.4188 -0.6643 -0.1762
 7075SOL     OW32683   1.234   3.991   3.120  0.0168  0.1394 -0.0730
 7075SOL    HW132684   1.147   3.952   3.135 -0.1961 -0.2112 -2.1129
 7075SOL    HW232685   1.257   3.931   3.049  2.7426 -2.0759  2.7192
 7076SOL     OW32686   1.562   1.729   4.964  0.1044  0.2881  0.4003
 7076SOL    HW132687   1.522   1.800   4.913  1.5939  0.7844 -0.0941
 7076SOL    HW232688   1.621   1.771   5.027  0.4781  0.8875 -0.3447
 7077SOL     OW32689   2.631   0.737   7.037  0.2701  0.3358 -0.0036
 7077SOL    HW132690   2.708   0.758   7.091 -0.4280  1.1655  0.6677
 7077SOL    HW232691   2.611   0.652   7.076 -0.3960  1.3414  1.8427
 7078SOL     OW32692   0.331   1.943   3.683 -0.4616  0.2707  0.0227
 7078SOL    HW132693   0.241   1.938   3.714 -0.5709  0.0435 -0.3329
 7078SOL    HW232694   0.344   2.037   3.693 -1.0369  0.2714  0.8029
 7079SOL     OW32695   1.211   3.648   2.732 -0.1777  0.4927  0.0748
 7079SOL    HW132696   1.303   3.626   2.715 -0.2726  1.3540 -1.5889
 7079SOL    HW232697   1.223   3.742   2.743  0.8511  0.5874 -1.7959
 7080SOL     OW32698   4.522   1.700   9.140  0.8972  0.3575  0.1394
 7080SOL    HW132699   4.597   1.709   9.081  2.3053  3.8068  2.4532
 7080SOL    HW232700   4.482   1.620   9.106  1.0543  1.2886 -2.2901
 7081SOL     OW32701   2.830   2.686  17.258 -0.4868 -0.0118  0.2511
 7081SOL    HW132702   2.815   2.595  17.283  0.8850 -0.3937 -0.3270
 7081SOL    HW232703   2.822   2.724  17.345 -1.9604  0.3560 -0.0423
 7082SOL     OW32704   0.620   3.092  17.113 -0.2433 -0.2865 -0.5770
 7082SOL    HW132705   0.536   3.122  17.148 -0.2700 -0.2715 -0.6539
 7082SOL    HW232706   0.609   2.999  17.130  0.7469 -0.6696 -2.0232
 7083SOL     OW32707   2.196   0.138   4.975 -0.4598 -0.0392 -0.3609
 7083SOL    HW132708   2.140   0.084   4.921 -2.3917  1.2705  0.3395
 7083SOL    HW232709   2.254   0.171   4.906  1.0452 -1.2866  0.3047
 7084SOL     OW32710   3.081   4.680   7.845 -0.0029  0.3217  0.1415
 7084SOL    HW132711   3.047   0.043   7.875 -3.0644 -0.9698  0.3889
 7084SOL    HW232712   3.015   4.615   7.872  0.3578 -1.0815 -2.4201
 7085SOL     OW32713   3.350   3.020  12.997  0.3801  0.4967 -0.3157
 7085SOL    HW132714   3.398   3.102  13.004  0.5872  0.2773  0.8329
 7085SOL    HW232715   3.363   2.972  13.079 -1.6815  0.3686 -0.0768
 7086SOL     OW32716   0.024   3.540   8.493  0.0120 -0.0423 -0.0973
 7086SOL    HW132717   4.704   3.566   8.576 -1.1908 -1.1335 -0.3559
 7086SOL    HW232718   0.082   3.616   8.486  0.7771 -0.7053 -0.8807
 7087SOL     OW32719   3.467   0.487   6.045 -0.5878 -0.6228 -0.3251
 7087SOL    HW132720   3.504   0.400   6.063 -1.2280 -0.4069  1.9928
 7087SOL    HW232721   3.379   0.477   6.008 -0.4323  1.1628 -1.1696
 7088SOL     OW32722   3.856   4.509   0.123 -0.4135  0.1134 -0.6539
 7088SOL    HW132723   3.874   4.598   0.152  1.4977  0.4122 -2.7724
 7088SOL    HW232724   3.777   4.515   0.069 -0.7003 -1.6694 -0.4335
 7089SOL     OW32725   0.913   1.360   4.318 -0.3030  0.6845 -0.5202
 7089SOL    HW132726   0.963   1.284   4.288 -1.1679  0.5074 -1.5027
 7089SOL    HW232727   0.878   1.334   4.403 -2.6058  2.4815 -0.9159
 7090SOL     OW32728   4.448   0.091  12.216  0.1571  0.0565  0.0246
 7090SOL    HW132729   4.380   0.123  12.156  0.1128  0.3474  0.2288
 7090SOL    HW232730   4.409   0.103  12.303  2.3051 -0.8136  1.1130
 7091SOL     OW32731   4.375   0.637  17.208 -0.0709  0.0751 -0.3631
 7091SOL    HW132732   4.375   0.698  17.133 -0.5127 -0.6565 -0.9600
 7091SOL    HW232733   4.300   0.580  17.192  1.3719 -1.7152 -0.8355
 7092SOL     OW32734   2.242   1.358  16.229 -0.3916  0.5141 -0.3094
 7092SOL    HW132735   2.184   1.292  16.191  0.0048 -0.9076  1.5183
 7092SOL    HW232736   2.326   1.340  16.187  0.0356 -0.0993  0.7879
 7093SOL     OW32737   3.295   4.043   9.273  0.1996  0.3186 -0.3818
 7093SOL    HW132738   3.325   4.122   9.229 -2.2865  2.0508  0.9994
 7093SOL    HW232739   3.341   4.050   9.357  1.6120  0.9324 -1.2076
 7094SOL     OW32740   0.853   0.886  13.842 -0.5553 -0.0275 -0.0768
 7094SOL    HW132741   0.875   0.979  13.851  2.6696 -0.8057  0.0806
 7094SOL    HW232742   0.832   0.871  13.750 -0.5898 -0.5902  0.0258
 7095SOL     OW32743   4.108   4.054   7.326  0.1142 -0.4144  0.0514
 7095SOL    HW132744   4.151   4.119   7.271 -0.5614  1.1535  1.3465
 7095SOL    HW232745   4.170   4.070   7.397  0.4157  2.0913 -0.7782
 7096SOL     OW32746   3.645   3.285  10.213 -0.1867 -0.4293 -0.0252
 7096SOL    HW132747   3.640   3.380  10.210  1.3403 -0.3307  0.5811
 7096SOL    HW232748   3.676   3.260  10.125 -0.0767  0.4083 -0.2206
 7097SOL     OW32749   0.674   1.354  15.834  0.2628 -0.2343  0.2785
 7097SOL    HW132750   0.733   1.405  15.889 -0.8765  0.7351  0.5908
 7097SOL    HW232751   0.588   1.391  15.856 -0.5778 -1.8450 -0.2784
 7098SOL     OW32752   3.458   2.562  14.032  0.8251  0.7591  0.2378
 7098SOL    HW132753   3.466   2.467  14.045 -0.9498  0.6915  0.8157
 7098SOL    HW232754   3.532   2.593  14.085  0.6763  0.8820  0.3733
 7099SOL     OW32755   3.394   0.109  12.325 -0.5961  1.1834 -0.5251
 7099SOL    HW132756   3.429   0.167  12.393 -0.1117  0.7979 -0.4510
 7099SOL    HW232757   3.447   0.133  12.249  1.0513 -0.0230  0.2459
 7100SOL     OW32758   3.148   3.220   6.519  0.1291  0.2821 -0.4206
 7100SOL    HW132759   3.069   3.258   6.557  0.3963  1.6990 -1.3168
 7100SOL    HW232760   3.109   3.164   6.451  0.5541 -0.3872 -0.1203
 7101SOL     OW32761   3.686   4.591  11.007 -0.2091 -0.3326  0.0288
 7101SOL    HW132762   3.642   4.579  10.923 -2.7377  0.5190  1.2491
 7101SOL    HW232763   3.736   4.670  10.986 -1.0797  0.3298  0.4748
 7102SOL     OW32764   0.467   1.982   9.705  0.8480  0.2560  0.0055
 7102SOL    HW132765   0.397   2.001   9.767 -0.3204 -0.0330 -1.2385
 7102SOL    HW232766   0.537   2.045   9.726  2.2369 -1.0436 -0.7578
 7103SOL     OW32767   0.595   0.781   6.554  0.1482 -0.4651  0.0359
 7103SOL    HW132768   0.648   0.849   6.596  1.0270 -2.4253  2.0595
 7103SOL    HW232769   0.518   0.782   6.612 -1.9773  0.6963 -2.7637
 7104SOL     OW32770   3.407   2.033   2.981  0.3813  0.0109 -0.0936
 7104SOL    HW132771   3.439   2.024   2.892 -3.4227  2.6690 -1.7410
 7104SOL    HW232772   3.449   1.962   3.029  0.1114 -0.6335 -0.8191
 7105SOL     OW32773   2.033   3.171   6.941  0.3584 -0.4751  0.0704
 7105SOL    HW132774   2.070   3.208   6.860  1.4210  0.2365  0.8836
 7105SOL    HW232775   1.961   3.231   6.960  1.3002  1.7648 -3.3278
 7106SOL     OW32776   0.534   3.981  13.708 -0.2368  0.0790 -1.1350
 7106SOL    HW132777   0.490   3.979  13.623  1.0461  1.2146 -1.8128
 7106SOL    HW232778   0.622   4.014  13.693  0.2068 -0.2498  0.7253
 7107SOL     OW32779   0.846   2.066   2.946  0.1593 -0.1043  0.5277
 7107SOL    HW132780   0.905   2.136   2.920  0.3717 -0.8283 -0.9273
 7107SOL    HW232781   0.793   2.054   2.867  0.0332 -0.3956  0.6547
 7108SOL     OW32782   3.716   3.110  11.967  0.6068 -0.0566  0.4779
 7108SOL    HW132783   3.757   3.194  11.947 -0.0083  0.1864  0.2545
 7108SOL    HW232784   3.686   3.086  11.880  2.4284  2.1759 -0.7502
 7109SOL     OW32785   0.994   3.106   4.085 -0.4900  0.2615 -0.0289
 7109SOL    HW132786   0.978   3.037   4.021  2.3503  1.8278 -2.4226
 7109SOL    HW232787   0.903   3.111   4.113 -0.4246  1.3205 -0.0013
 7110SOL     OW32788   0.723   0.273   2.605 -0.9084 -0.2460  0.2182
 7110SOL    HW132789   0.802   0.276   2.660  0.1275 -1.5697 -1.2079
 7110SOL    HW232790   0.747   0.348   2.551 -0.0831 -1.2146 -0.7478
 7111SOL     OW32791   0.687   1.287   5.630  0.0940  0.3990 -0.1667
 7111SOL    HW132792   0.780   1.283   5.608 -0.0117 -0.9038 -0.3566
 7111SOL    HW232793   0.694   1.325   5.717  0.0417  1.0935 -0.4650
 7112SOL     OW32794   1.249   1.872   3.361 -0.1687  0.3256 -0.0917
 7112SOL    HW132795   1.173   1.874   3.419 -0.6825  1.3227 -0.8041
 7112SOL    HW232796   1.319   1.839   3.417 -0.9002 -1.6156 -0.3341
 7113SOL     OW32797   0.870   1.154   2.785  0.1185 -0.0778 -0.2751
 7113SOL    HW132798   0.816   1.074   2.785 -1.5228  1.0247 -0.5664
 7113SOL    HW232799   0.812   1.210   2.837  1.6966  0.9648  0.3471
 7114SOL     OW32800   2.841   3.995   2.013  0.1475  0.0450  0.0836
 7114SOL    HW132801   2.878   4.062   2.071 -1.5616 -1.4332  2.8097
 7114SOL    HW232802   2.752   3.997   2.047 -0.0383  1.8975 -0.5005
 7115SOL     OW32803   1.520   2.285   8.568 -0.3312  0.2081 -0.5670
 7115SOL    HW132804   1.469   2.204   8.558 -1.3374  0.7921 -0.1698
 7115SOL    HW232805   1.456   2.356   8.573 -0.8062 -0.2808  0.4203
 7116SOL     OW32806   0.553   2.626   7.717 -0.7177  0.2956 -0.6583
 7116SOL    HW132807   0.461   2.633   7.746 -0.7103  1.2525 -0.8961
 7116SOL    HW232808   0.536   2.665   7.632  2.0307  0.6468 -1.0440
 7117SOL     OW32809   1.698   3.658   6.169 -0.6357 -1.3067 -0.0584
 7117SOL    HW132810   1.709   3.708   6.089  1.0439  0.5342  1.3241
 7117SOL    HW232811   1.604   3.670   6.184 -1.0608 -4.8174  0.0181
 7118SOL     OW32812   0.985   2.736   4.356 -0.4342 -0.6061  0.4147
 7118SOL    HW132813   0.952   2.728   4.267 -1.8780  1.3148  0.7790
 7118SOL    HW232814   0.957   2.826   4.372 -0.1993 -0.9115  2.6193
 7119SOL     OW32815   0.802   4.247   1.604  0.2342 -0.2037  0.2775
 7119SOL    HW132816   0.821   4.182   1.672 -0.5592  0.0445  0.7317
 7119SOL    HW232817   0.767   4.316   1.660 -1.9336 -2.4717  1.7383
 7120SOL     OW32818   2.651   4.570   6.928  0.5160 -0.1062  0.5326
 7120SOL    HW132819   2.742   4.540   6.931 -0.4371 -3.0952 -0.5470
 7120SOL    HW232820   2.644   4.604   6.838 -1.8857 -0.5719  0.5598
 7121SOL     OW32821   4.622   0.244   4.184 -0.6027  0.1850 -0.7577
 7121SOL    HW132822   4.545   0.208   4.140 -0.6112 -1.4292  0.6049
 7121SOL    HW232823   4.578   0.244   4.269 -1.5332 -0.2412 -1.2383
 7122SOL     OW32824   1.074   0.144   3.651  0.4124 -0.4804 -0.7580
 7122SOL    HW132825   1.100   0.162   3.742 -2.1462  1.8739 -0.4911
 7122SOL    HW232826   1.109   0.216   3.599 -0.5607  1.4226  1.2071
 7123SOL     OW32827   1.701   1.641   1.911  0.2007  0.3855 -0.0642
 7123SOL    HW132828   1.675   1.558   1.871  0.9857  0.4898 -0.7920
 7123SOL    HW232829   1.732   1.681   1.830  1.6101 -1.2578 -0.3575
 7124SOL     OW32830   3.984   2.060   3.657 -1.1952 -0.0801 -0.2840
 7124SOL    HW132831   3.971   2.070   3.751  1.3898 -0.5249  0.1114
 7124SOL    HW232832   4.059   2.000   3.657 -1.4811 -0.4343 -0.0586
 7125SOL     OW32833   2.866   4.377   9.150 -0.3490 -0.3713 -0.3238
 7125SOL    HW132834   2.805   4.345   9.083  1.4442  1.4304 -2.8206
 7125SOL    HW232835   2.847   4.470   9.150  2.4586  0.2009 -0.2161
 7126SOL     OW32836   3.136   3.979   0.154 -0.2112  0.3094 -0.3928
 7126SOL    HW132837   3.210   4.026   0.117  0.6181 -0.7295 -0.0568
 7126SOL    HW232838   3.166   3.890   0.174  2.3165  1.8598  2.6041
 7127SOL     OW32839   3.073   4.653  17.108  0.5652 -0.2605  0.4852
 7127SOL    HW132840   3.005   4.588  17.093  0.5849 -0.1287 -0.1476
 7127SOL    HW232841   3.154   4.606  17.088  0.8299 -0.0062  0.9527
 7128SOL     OW32842   2.099   2.616   2.705 -0.1819  0.0453  0.7469
 7128SOL    HW132843   2.115   2.554   2.633 -0.2774 -0.0222  0.7829
 7128SOL    HW232844   2.005   2.609   2.720 -0.2922 -1.4647 -0.5720
 7129SOL     OW32845   3.160   4.518   0.953 -0.6326  0.3017  0.0959
 7129SOL    HW132846   3.105   4.553   0.883 -2.0961  0.5505  1.4033
 7129SOL    HW232847   3.123   4.565   1.028 -0.3803 -0.4546  0.6918
 7130SOL     OW32848   4.643   1.850   3.380  0.1494 -0.1747 -0.2449
 7130SOL    HW132849   0.017   1.841   3.367  0.0566  0.0298 -1.0618
 7130SOL    HW232850   4.620   1.808   3.297  2.1114 -0.3458 -0.7104
 7131SOL     OW32851   4.526   1.598   5.662 -0.2848 -0.5242 -0.6785
 7131SOL    HW132852   4.435   1.582   5.635 -0.0554  0.4160 -2.0110
 7131SOL    HW232853   4.540   1.663   5.593  1.4778 -0.8986 -0.6743
 7132SOL     OW32854   0.739   2.772   1.351  0.1083  0.2776 -0.3343
 7132SOL    HW132855   0.680   2.788   1.277 -1.5003  2.1822  1.3814
 7132SOL    HW232856   0.719   2.840   1.415  2.3205 -1.7461  2.4693
 7133SOL     OW32857   3.488   2.025   2.718  0.6567  0.5243 -0.9646
 7133SOL    HW132858   3.518   2.004   2.629  0.8675  0.3304 -0.8470
 7133SOL    HW232859   3.540   1.957   2.760  0.1397  0.7041 -0.0259
 7134SOL     OW32860   4.633   1.170  11.269  0.2547  0.3599  0.2555
 7134SOL    HW132861   4.566   1.131  11.325  0.5640 -0.3829  0.1105
 7134SOL    HW232862   4.638   1.256  11.312  1.7497 -0.5688  1.9334
 7135SOL     OW32863   2.003   0.465   8.550  0.6244 -0.2064  0.2203
 7135SOL    HW132864   1.975   0.538   8.605 -0.3058  0.8801 -1.7061
 7135SOL    HW232865   2.006   0.393   8.613 -0.1997 -0.0113  0.4878
 7136SOL     OW32866   2.844   4.425   3.256 -0.1431 -0.4984 -0.2319
 7136SOL    HW132867   2.751   4.426   3.280  0.2280 -0.4548  1.1490
 7136SOL    HW232868   2.854   4.520   3.260 -1.1195 -0.4823  1.4210
 7137SOL     OW32869   2.044   1.327   0.754 -0.3209 -0.3166 -0.4516
 7137SOL    HW132870   1.962   1.312   0.802 -0.4336  0.6452 -0.3372
 7137SOL    HW232871   2.094   1.256   0.793 -0.7829 -0.1624  0.4348
 7138SOL     OW32872   0.673   1.043   9.455 -0.0671  0.1143  0.5666
 7138SOL    HW132873   0.611   1.113   9.476  1.4547  1.3909  0.8064
 7138SOL    HW232874   0.640   1.010   9.371 -1.1120  1.3439  0.4940
 7139SOL     OW32875   2.169   2.370   7.601 -0.3713  0.6089  0.6206
 7139SOL    HW132876   2.150   2.452   7.646 -0.3123  0.7588  0.3766
 7139SOL    HW232877   2.086   2.324   7.610 -0.4797  0.8368  0.7860
 7140SOL     OW32878   0.641   3.621   5.785 -0.5417  0.3233 -0.3584
 7140SOL    HW132879   0.711   3.556   5.797 -0.4263  0.5176  0.0276
 7140SOL    HW232880   0.621   3.602   5.694 -2.0037  2.5438 -0.4835
 7141SOL     OW32881   1.767   2.008   6.656 -0.5505  0.1130 -0.1691
 7141SOL    HW132882   1.844   2.016   6.712 -0.6610 -1.6828  0.2451
 7141SOL    HW232883   1.703   2.068   6.695  0.8908  1.0160  0.7759
 7142SOL     OW32884   0.187   1.847   5.589  0.2622 -0.1663 -0.1441
 7142SOL    HW132885   0.139   1.873   5.510  0.5548 -1.8321 -0.8694
 7142SOL    HW232886   0.274   1.872   5.557 -0.7718  2.0550 -1.2324
 7143SOL     OW32887   1.879   3.366  11.556  0.1723  0.1461  0.0527
 7143SOL    HW132888   1.969   3.334  11.550 -0.0899 -0.7952  1.1888
 7143SOL    HW232889   1.823   3.305  11.507  0.3457  0.0161  0.0172
 7144SOL     OW32890   1.806   1.981  11.585 -0.3088 -0.2123  0.3648
 7144SOL    HW132891   1.712   2.001  11.583 -0.8884 -2.9225  0.8817
 7144SOL    HW232892   1.844   2.058  11.627 -0.2910 -1.6665  2.9843
 7145SOL     OW32893   1.662   0.047  13.961 -0.3648 -0.1637 -0.1460
 7145SOL    HW132894   1.578   0.056  14.004  0.0330 -0.7491  0.7590
 7145SOL    HW232895   1.709   4.687  13.982 -1.5229 -0.1906  2.2343
 7146SOL     OW32896   0.089   3.805   5.707  0.0170  0.1118  0.2602
 7146SOL    HW132897   0.118   3.786   5.617 -0.0204  0.0687  0.2573
 7146SOL    HW232898   0.166   3.826   5.759 -0.9131  1.8882  0.9421
 7147SOL     OW32899   3.590   1.882  16.065 -0.3826  0.5004 -0.3740
 7147SOL    HW132900   3.676   1.893  16.105 -0.6175  1.9352 -0.2772
 7147SOL    HW232901   3.553   1.808  16.113 -0.9224  0.0021 -1.5514
 7148SOL     OW32902   1.448   2.114   6.364  0.0662  0.0847  0.0547
 7148SOL    HW132903   1.373   2.122   6.305  1.3358  0.4834 -1.4802
 7148SOL    HW232904   1.410   2.071   6.441 -1.1860 -1.3166 -1.3477
 7149SOL     OW32905   1.687   0.090   3.214  0.2750 -0.1800 -0.1852
 7149SOL    HW132906   1.617   0.129   3.267  0.4460 -0.0032 -0.0881
 7149SOL    HW232907   1.753   0.153   3.242 -1.6310  1.6714  0.1706
 7150SOL     OW32908   4.628   1.917   7.262  0.3944 -0.2247 -0.1421
 7150SOL    HW132909   4.630   1.922   7.167 -3.4311 -2.3210 -0.3414
 7150SOL    HW232910   4.628   1.821   7.264 -0.7743 -0.2110  0.7632
 7151SOL     OW32911   0.702   1.459   8.368 -0.0036  0.1617 -0.3624
 7151SOL    HW132912   0.692   1.391   8.302 -0.9110  0.9220 -0.9997
 7151SOL    HW232913   0.649   1.418   8.436 -0.7697 -2.2478 -2.4308
 7152SOL     OW32914   3.871   3.532   7.851  0.5293  0.1382  0.1042
 7152SOL    HW132915   3.899   3.508   7.762  0.6941  1.2257 -0.1343
 7152SOL    HW232916   3.783   3.494   7.855 -1.3941  4.5879 -0.3005
 7153SOL     OW32917   2.396   0.521   7.443  0.6735  0.7312  0.2511
 7153SOL    HW132918   2.301   0.529   7.438  0.7162 -0.0938 -1.8763
 7153SOL    HW232919   2.413   0.562   7.528 -0.1199  0.7888  0.3836
 7154SOL     OW32920   4.325   2.842   4.094 -0.5331  0.2304  0.3259
 7154SOL    HW132921   4.381   2.918   4.082  0.3256 -0.1604  1.9038
 7154SOL    HW232922   4.332   2.830   4.189 -2.1336  0.8808  0.5254
 7155SOL     OW32923   1.678   4.512   0.557 -0.0856  0.1331 -0.1778
 7155SOL    HW132924   1.634   4.518   0.472 -1.7248 -0.6582  0.6150
 7155SOL    HW232925   1.773   4.508   0.541 -0.2519 -1.9066 -0.6881
 7156SOL     OW32926   2.444   1.440   3.470  0.3407  0.4007  0.0052
 7156SOL    HW132927   2.436   1.370   3.534  2.0529 -0.3608 -0.6150
 7156SOL    HW232928   2.493   1.500   3.527 -0.7697  0.6036  0.7609
 7157SOL     OW32929   0.620   4.053   5.342  0.2804  0.6065  0.2812
 7157SOL    HW132930   0.649   4.044   5.432 -1.6750  2.9687  1.1498
 7157SOL    HW232931   0.568   3.974   5.330  2.6089 -0.7553 -0.7117
 7158SOL     OW32932   4.207   0.388   3.858  0.1009 -0.1113 -0.8131
 7158SOL    HW132933   4.275   0.425   3.802 -0.0189  0.4712 -0.5707
 7158SOL    HW232934   4.268   0.404   3.930  0.0447  1.5646 -1.1431
 7159SOL     OW32935   0.092   1.353   8.390 -0.2681 -0.3195 -0.0896
 7159SOL    HW132936   0.185   1.328   8.394 -0.0506  0.6833  0.9883
 7159SOL    HW232937   0.109   1.431   8.339 -0.4293  0.6061  1.2673
 7160SOL     OW32938   1.703   0.103  11.835 -0.4055 -0.2381  0.0518
 7160SOL    HW132939   1.739   0.022  11.871  0.5190  0.4481  0.6619
 7160SOL    HW232940   1.780   0.136  11.790  0.5972 -2.6717  0.0155
 7161SOL     OW32941   1.382   2.221   5.876 -0.1120  0.1747 -0.1190
 7161SOL    HW132942   1.439   2.250   5.946 -0.1431 -1.1305  0.4543
 7161SOL    HW232943   1.307   2.182   5.921 -2.2722  1.7959 -2.3352
 7162SOL     OW32944   1.660   0.095   8.737  0.5828 -0.7864 -0.3224
 7162SOL    HW132945   1.712   0.080   8.658  0.6330  0.7041 -0.5693
 7162SOL    HW232946   1.633   0.005   8.754 -1.1816 -0.1918  0.0198
 7163SOL     OW32947   0.959   1.093   9.460 -0.4508  0.4011 -0.5294
 7163SOL    HW132948   0.869   1.077   9.434 -0.3186 -0.8061 -0.2487
 7163SOL    HW232949   0.968   1.052   9.547  2.8832 -0.9453 -1.5246
 7164SOL     OW32950   1.036   3.827   3.229 -0.2601 -0.5289 -0.2576
 7164SOL    HW132951   0.969   3.846   3.163 -1.1091 -0.8930  0.5112
 7164SOL    HW232952   1.031   3.732   3.224  0.1003 -0.5073 -1.1744
 7165SOL     OW32953   3.259   1.297   6.361  0.1795 -0.5128 -0.3144
 7165SOL    HW132954   3.322   1.301   6.433  1.5820 -0.2106 -1.5578
 7165SOL    HW232955   3.281   1.205   6.345  1.0101 -0.5510  1.0092
 7166SOL     OW32956   4.011   0.579   6.983 -0.1130  0.1467  0.1869
 7166SOL    HW132957   4.102   0.589   6.955 -0.1679  0.9873  0.3115
 7166SOL    HW232958   4.007   0.490   7.020  0.2040 -0.1836 -0.5822
 7167SOL     OW32959   1.210   3.846   4.812  0.2563  0.5297 -0.5112
 7167SOL    HW132960   1.260   3.832   4.731  1.7326 -0.1763  0.5373
 7167SOL    HW232961   1.218   3.759   4.849 -1.3120  0.3744 -0.5387
 7168SOL     OW32962   1.234   2.188   7.874  0.0868 -0.3209 -0.4540
 7168SOL    HW132963   1.286   2.118   7.914 -0.1857 -0.3867 -0.2205
 7168SOL    HW232964   1.295   2.224   7.808  1.3834 -1.8730 -0.1127
 7169SOL     OW32965   3.727   0.747   8.730 -0.3744  0.7119 -0.0423
 7169SOL    HW132966   3.660   0.697   8.776 -0.1121 -0.4862 -0.9826
 7169SOL    HW232967   3.742   0.818   8.792  0.8043  0.1154  0.3524
 7170SOL     OW32968   1.710   2.738   9.028 -0.5151 -0.3919 -0.0976
 7170SOL    HW132969   1.649   2.810   9.013  1.4923  0.8055 -2.4565
 7170SOL    HW232970   1.774   2.785   9.080 -1.1152 -0.5709  0.8058
 7171SOL     OW32971   0.170   3.375   2.897  0.3056 -0.5673  0.5588
 7171SOL    HW132972   0.115   3.296   2.902 -1.0456  0.2849 -0.9260
 7171SOL    HW232973   0.231   3.351   2.827  1.9817  2.6656  0.9415
 7172SOL     OW32974   3.068   3.748   8.291 -0.0802  0.1566  0.2363
 7172SOL    HW132975   3.157   3.770   8.319  0.8644 -0.2207 -2.3997
 7172SOL    HW232976   3.019   3.831   8.293  0.8790  0.6874  1.7333
 7173SOL     OW32977   4.624   3.966  16.049 -0.7411  0.3246 -0.4472
 7173SOL    HW132978   4.531   3.943  16.042 -0.0493 -1.9372 -2.2622
 7173SOL    HW232979   4.624   4.042  16.107  0.7660  0.0543 -0.0943
 7174SOL     OW32980   3.666   4.326   7.187 -0.5122  0.3892  0.0265
 7174SOL    HW132981   3.638   4.236   7.206 -1.7138  0.3517 -1.9559
 7174SOL    HW232982   3.753   4.336   7.226 -0.8403  1.6948  0.4101
 7175SOL     OW32983   2.574   2.469   1.614 -0.1715  0.3931 -0.5527
 7175SOL    HW132984   2.517   2.438   1.543 -2.4591  0.0135  1.4518
 7175SOL    HW232985   2.662   2.455   1.580  0.6564 -1.6869  2.4245
 7176SOL     OW32986   0.914   3.705   0.988  0.5071  0.5131 -0.2795
 7176SOL    HW132987   0.927   3.647   0.913 -0.2866  0.6572 -0.5280
 7176SOL    HW232988   0.873   3.783   0.951  1.0379  0.6591 -0.5665
 7177SOL     OW32989   2.683   0.934   3.758  0.3515  0.1600 -0.0513
 7177SOL    HW132990   2.723   0.849   3.743 -1.4164 -0.3915 -1.7392
 7177SOL    HW232991   2.687   0.941   3.853  3.7189  1.6015 -0.2846
 7178SOL     OW32992   1.105   2.759   3.071 -0.0861 -0.4899 -0.1046
 7178SOL    HW132993   1.083   2.831   3.011  1.7359 -0.4619 -0.7465
 7178SOL    HW232994   1.198   2.770   3.089 -0.7777  1.7601  2.0047
 7179SOL     OW32995   1.801   1.443   7.044  0.3820  0.3394  0.1055
 7179SOL    HW132996   1.823   1.514   6.984  1.6867  0.1057  0.3214
 7179SOL    HW232997   1.811   1.363   6.993 -1.2566  0.6723 -0.7509
 7180SOL     OW32998   4.351   1.059   6.958 -0.2443  0.0312 -0.4105
 7180SOL    HW132999   4.300   1.126   6.913 -0.2954  1.1787  1.3370
 7180SOL    HW233000   4.367   1.103   7.042  1.5178  1.4952 -1.5053
 7181SOL     OW33001   1.776   1.836  16.588  0.1761 -0.1782 -0.0753
 7181SOL    HW133002   1.851   1.894  16.582 -0.0266 -0.1549 -2.4828
 7181SOL    HW233003   1.764   1.831  16.683  1.3436 -0.6710  0.0331
 7182SOL     OW33004   2.082   1.198   9.226 -0.1211  0.5893 -0.6964
 7182SOL    HW133005   1.996   1.190   9.268 -0.6497  0.3261 -1.8290
 7182SOL    HW233006   2.105   1.288   9.250 -1.1912  0.8036 -0.4488
 7183SOL     OW33007   2.272   0.374   6.426 -0.4128  0.2165 -0.4333
 7183SOL    HW133008   2.245   0.428   6.351 -1.5340  1.3000  0.7533
 7183SOL    HW233009   2.319   0.306   6.378  0.5796 -0.3571  1.3802
 7184SOL     OW33010   3.619   0.214   6.382 -0.0077 -0.9350  0.1603
 7184SOL    HW133011   3.552   0.205   6.449  0.2917 -0.1866  0.5618
 7184SOL    HW233012   3.677   0.141   6.404  0.4559 -0.4822  0.4511
 7185SOL     OW33013   3.536   4.130   0.200 -0.2530 -0.3464  0.6262
 7185SOL    HW133014   3.631   4.125   0.198 -0.1461  1.0283  2.0508
 7185SOL    HW233015   3.512   4.039   0.183 -2.1652  0.3092 -0.2571
 7186SOL     OW33016   2.552   2.143   2.342  0.0667 -0.2221  0.3594
 7186SOL    HW133017   2.641   2.119   2.367  0.3320 -0.9387 -1.2097
 7186SOL    HW233018   2.540   2.105   2.254 -2.2375 -1.3909  1.1886
 7187SOL     OW33019   1.610   1.272   7.267 -0.5117  0.0492 -0.0254
 7187SOL    HW133020   1.530   1.230   7.298 -0.0425 -2.4670 -2.2029
 7187SOL    HW233021   1.674   1.204   7.286 -0.9856 -0.4517 -0.2414
 7188SOL     OW33022   0.922   1.818   2.187  0.2160 -0.0237  0.6548
 7188SOL    HW133023   0.882   1.808   2.273  0.7771  0.1213  0.9359
 7188SOL    HW233024   0.997   1.759   2.192  0.5801  0.7527  4.3040
 7189SOL     OW33025   4.670   0.443   8.715 -0.5099  0.4376  0.1971
 7189SOL    HW133026   4.599   0.402   8.764  0.5836 -2.4257 -0.5995
 7189SOL    HW233027   0.019   0.377   8.719 -1.1027 -0.1607  0.4746
 7190SOL     OW33028   3.023   1.424   4.540 -0.8684  0.0493  0.2288
 7190SOL    HW133029   2.948   1.364   4.541 -0.1944 -0.7776  1.1161
 7190SOL    HW233030   3.066   1.398   4.459  0.1902 -0.2314  0.8820
 7191SOL     OW33031   2.111   1.022   4.778  0.0501  0.2071  0.3351
 7191SOL    HW133032   2.074   1.068   4.703 -1.6489  0.8407  1.5673
 7191SOL    HW233033   2.101   0.929   4.754 -0.0226  0.3242 -0.0943
 7192SOL     OW33034   2.768   0.922  10.732 -0.2514  0.0900 -0.1587
 7192SOL    HW133035   2.778   0.826  10.733 -2.2209 -0.1391 -0.4502
 7192SOL    HW233036   2.682   0.940  10.692  0.1403 -2.3634 -2.1033
 7193SOL     OW33037   0.622   3.089   2.665  0.5455 -0.0698 -0.0767
 7193SOL    HW133038   0.575   3.128   2.591 -0.1621  1.4570  1.1803
 7193SOL    HW233039   0.573   3.007   2.677  0.4418 -0.2530 -1.7283
 7194SOL     OW33040   1.376   0.927   8.572 -0.0715  0.6048  0.0415
 7194SOL    HW133041   1.373   0.992   8.502 -1.3623  2.3342  1.6952
 7194SOL    HW233042   1.283   0.905   8.580  0.3706 -0.4494  2.1465
 7195SOL     OW33043   1.614   0.710   5.723 -0.1297  0.5064 -0.4193
 7195SOL    HW133044   1.705   0.683   5.734 -0.0355  0.2903 -1.6954
 7195SOL    HW233045   1.594   0.700   5.630  0.8346  3.0557 -0.8795
 7196SOL     OW33046   2.760   4.137  13.818  0.1579  0.5776 -0.7740
 7196SOL    HW133047   2.692   4.158  13.753 -0.0223  0.0995 -0.7358
 7196SOL    HW233048   2.795   4.225  13.832 -1.4536  1.1591 -0.3150
 7197SOL     OW33049   2.535   2.163  14.578  0.6137 -0.4852  0.7137
 7197SOL    HW133050   2.614   2.165  14.632  0.4245 -1.6070  1.0256
 7197SOL    HW233051   2.495   2.249  14.592 -0.4579 -0.8588 -0.1008
 7198SOL     OW33052   3.864   1.498   4.938 -0.2347 -0.0385 -0.4261
 7198SOL    HW133053   3.880   1.404   4.948 -2.6335 -0.2817  1.0635
 7198SOL    HW233054   3.884   1.525   5.028  1.0908  0.8806 -0.9872
 7199SOL     OW33055   1.006   2.295   8.194  0.2914 -0.4954  0.1896
 7199SOL    HW133056   0.953   2.365   8.232  0.2211  0.5409 -1.8124
 7199SOL    HW233057   1.018   2.318   8.102  1.3551  1.5351  0.8362
 7200SOL     OW33058   3.468   4.096   4.267 -0.0375  0.7210 -0.0576
 7200SOL    HW133059   3.423   4.013   4.253  0.5911  0.5747 -1.2803
 7200SOL    HW233060   3.449   4.103   4.360  0.7012 -1.0441  0.2189
 7201SOL     OW33061   1.611   4.496   1.498 -0.0031  0.6846  0.5353
 7201SOL    HW133062   1.565   4.460   1.574  2.4955  1.2085  2.3174
 7201SOL    HW233063   1.572   4.437   1.434 -0.5071  1.6122 -0.0092
 7202SOL     OW33064   4.487   2.079   5.707 -0.1885 -0.1947 -0.2075
 7202SOL    HW133065   4.403   2.036   5.723  0.3060  0.1561  3.3019
 7202SOL    HW233066   4.494   2.069   5.612 -0.2206  0.3703 -0.2671
 7203SOL     OW33067   0.719   0.933   4.031  0.2699  0.7891  0.4346
 7203SOL    HW133068   0.809   0.966   4.032 -0.1171  1.7430  2.6192
 7203SOL    HW233069   0.689   0.948   3.941 -0.4659 -0.8809  0.3986
 7204SOL     OW33070   0.398   1.794   5.129 -0.1640  0.2634 -0.3014
 7204SOL    HW133071   0.345   1.797   5.050 -0.1287  1.8674 -0.2714
 7204SOL    HW233072   0.483   1.792   5.086 -0.4139 -0.4798 -0.7376
 7205SOL     OW33073   0.973   2.180   8.912 -0.0319  0.2802  0.1212
 7205SOL    HW133074   0.904   2.214   8.855 -0.4866  1.0064  1.1128
 7205SOL    HW233075   0.937   2.172   9.000 -1.8112  2.7968 -0.3649
 7206SOL     OW33076   2.550   3.804   1.901 -0.0702 -0.1715  0.1843
 7206SOL    HW133077   2.468   3.820   1.853 -0.0287 -2.3945 -0.6524
 7206SOL    HW233078   2.609   3.855   1.846  0.1211  0.2937  0.8347
 7207SOL     OW33079   1.158   2.696   8.679  0.4208  0.3843  0.1618
 7207SOL    HW133080   1.158   2.733   8.768 -2.0374 -0.4588  0.5139
 7207SOL    HW233081   1.217   2.754   8.632 -0.5199  0.4202 -0.9713
 7208SOL     OW33082   2.055   2.546   3.057 -0.3588  0.4582 -0.3814
 7208SOL    HW133083   2.059   2.489   2.981  0.3402 -0.1409  0.1038
 7208SOL    HW233084   2.135   2.597   3.041 -0.3933  0.5110 -0.3861
 7209SOL     OW33085   4.115   2.774   4.851  0.0427 -0.0595 -0.0185
 7209SOL    HW133086   4.062   2.810   4.923 -0.8369 -0.4691 -0.4611
 7209SOL    HW233087   4.068   2.692   4.837  1.0449 -1.0085  2.2021
 7210SOL     OW33088   1.744   0.341   5.270 -0.4972  0.1467 -0.1102
 7210SOL    HW133089   1.708   0.297   5.193 -2.1249  3.2842 -1.1258
 7210SOL    HW233090   1.675   0.407   5.276  1.2556  1.8773  0.6669
 7211SOL     OW33091   3.587   1.196   6.919 -0.1344 -0.1789  0.0136
 7211SOL    HW133092   3.585   1.150   6.835 -0.2040 -0.6991  0.3079
 7211SOL    HW233093   3.671   1.243   6.920 -0.4128  0.3220  0.2168
 7212SOL     OW33094   0.058   2.291   8.462 -0.1742  0.1168 -0.0375
 7212SOL    HW133095   4.692   2.252   8.472  1.3340 -3.2710 -0.1534
 7212SOL    HW233096   0.076   2.323   8.550  0.4090 -2.4192  0.7687
 7213SOL     OW33097   2.821   3.280   3.625  0.4177  0.5170 -0.1667
 7213SOL    HW133098   2.916   3.283   3.609  0.1724 -2.0822 -2.0895
 7213SOL    HW233099   2.809   3.194   3.586  1.3086 -0.3910  1.5831
 7214SOL     OW33100   4.537   1.682   1.739 -0.2077 -0.1782 -0.9388
 7214SOL    HW133101   4.532   1.593   1.702 -2.2534 -0.7070  0.5917
 7214SOL    HW233102   4.629   1.704   1.730 -0.2122  0.1809 -0.0747
 7215SOL     OW33103   4.429   4.007   0.273  0.6213  0.2882 -0.1410
 7215SOL    HW133104   4.340   4.012   0.238  1.2122 -1.1652 -1.8999
 7215SOL    HW233105   4.475   4.082   0.236 -0.1786 -0.4521 -2.6472
 7216SOL     OW33106   2.665   2.060   4.157 -0.1682 -0.1600  0.2027
 7216SOL    HW133107   2.646   2.127   4.090  0.1463  0.7948  1.0635
 7216SOL    HW233108   2.748   2.094   4.190 -0.6960 -0.3049  1.6580
 7217SOL     OW33109   3.842   0.741  16.626  0.2196  0.2230 -0.1778
 7217SOL    HW133110   3.918   0.728  16.682  1.0619 -0.6763 -1.5191
 7217SOL    HW233111   3.772   0.769  16.685  0.1828 -1.0013  0.3597
 7218SOL     OW33112   4.311   1.979   7.552 -0.0694  0.0769  0.9863
 7218SOL    HW133113   4.342   2.065   7.524 -0.8976  0.4796  1.2947
 7218SOL    HW233114   4.380   1.960   7.615  0.2679  0.3110  0.6833
 7219SOL     OW33115   3.106   0.612   3.270 -0.2144 -0.1333 -0.0814
 7219SOL    HW133116   3.181   0.636   3.216 -0.6906  3.6459  0.9183
 7219SOL    HW233117   3.061   0.696   3.276  0.2181  0.0350  0.7752
 7220SOL     OW33118   3.684   3.294   5.486  0.0519  0.4795 -0.3076
 7220SOL    HW133119   3.671   3.366   5.425 -1.1722  1.4359  1.0950
 7220SOL    HW233120   3.601   3.289   5.533  0.2195  0.4444 -0.0157
 7221SOL     OW33121   1.501   1.484   0.634  0.1204  0.5332 -0.3505
 7221SOL    HW133122   1.562   1.416   0.607 -0.6336 -0.8587  1.4897
 7221SOL    HW233123   1.481   1.446   0.720  1.3949  1.5181  0.3852
 7222SOL     OW33124   3.004   1.451   0.577 -0.1330 -0.1365 -0.1918
 7222SOL    HW133125   2.909   1.446   0.587 -0.1773 -0.6142 -0.8853
 7222SOL    HW233126   3.029   1.390   0.647  0.1728  0.1375 -0.0635
 7223SOL     OW33127   4.337   3.463  11.404 -0.4174 -0.3798 -0.2420
 7223SOL    HW133128   4.394   3.446  11.329  2.0024 -0.5103  1.6101
 7223SOL    HW233129   4.275   3.514  11.352 -1.6398 -1.5736  0.0547
 7224SOL     OW33130   0.441   4.193   8.200 -0.4009 -0.1895  0.0694
 7224SOL    HW133131   0.412   4.108   8.233  0.0284 -1.5134 -3.0195
 7224SOL    HW233132   0.509   4.213   8.265  1.6714 -0.3279 -2.0530
 7225SOL     OW33133   0.179   3.635   8.069  0.5985  0.1356 -0.1751
 7225SOL    HW133134   0.212   3.678   8.148  3.7484  1.1071 -2.0353
 7225SOL    HW233135   0.106   3.694   8.052  1.5841  1.2733 -0.4041
 7226SOL     OW33136   4.165   1.615   4.863 -0.3928 -0.1374 -0.0598
 7226SOL    HW133137   4.109   1.691   4.845  3.3532  2.6009 -0.2857
 7226SOL    HW233138   4.124   1.541   4.818 -0.6268  0.9315 -1.6165
 7227SOL     OW33139   3.180   2.051   2.733  0.0635  0.1528 -0.2952
 7227SOL    HW133140   3.154   1.961   2.715 -0.9386  0.3921 -0.0355
 7227SOL    HW233141   3.275   2.057   2.736  0.0321  0.8454 -0.4841
 7228SOL     OW33142   1.732   3.163  11.111 -0.0206 -0.4383 -0.0817
 7228SOL    HW133143   1.691   3.178  11.026  1.7059 -2.9894 -1.3792
 7228SOL    HW233144   1.705   3.242  11.157  2.4845  2.3976 -3.4718
 7229SOL     OW33145   1.560   2.177   5.070  0.1049 -0.2166 -0.5645
 7229SOL    HW133146   1.467   2.201   5.076  0.1202 -0.5502  0.8788
 7229SOL    HW233147   1.574   2.132   5.153  1.2908 -0.2375 -0.7718
 7230SOL     OW33148   3.677   1.046   9.189  0.3805 -0.5020 -0.3423
 7230SOL    HW133149   3.619   0.974   9.211 -0.7669  0.7582  0.7897
 7230SOL    HW233150   3.749   1.048   9.252 -0.6817 -0.6953  0.8749
 7231SOL     OW33151   3.066   0.287   7.941 -0.0483  0.6336  0.2360
 7231SOL    HW133152   3.128   0.249   8.004 -1.3295 -1.0281  0.4845
 7231SOL    HW233153   2.988   0.233   7.956  1.6711 -1.2688  2.3093
 7232SOL     OW33154   1.263   3.456   2.355 -0.4481  0.2779  0.1361
 7232SOL    HW133155   1.171   3.476   2.370 -0.4463  0.2905  0.1306
 7232SOL    HW233156   1.317   3.494   2.424 -1.1944 -1.5510  1.6924
 7233SOL     OW33157   4.489   2.966   4.353  0.4044 -0.4678  0.5089
 7233SOL    HW133158   4.497   3.006   4.439  0.9450 -0.6387  0.5412
 7233SOL    HW233159   4.426   2.895   4.365 -0.8417  0.8291  1.6586
 7234SOL     OW33160   1.713   1.045   9.816  0.4607 -0.3673 -0.5486
 7234SOL    HW133161   1.654   1.110   9.853  0.7229 -1.2730  1.4741
 7234SOL    HW233162   1.792   1.097   9.801  1.6053 -2.1866 -0.8631
 7235SOL     OW33163   4.543   3.832   5.668  0.3558 -0.0697  0.6914
 7235SOL    HW133164   4.632   3.811   5.696  0.0733 -2.7476 -0.4614
 7235SOL    HW233165   4.552   3.882   5.587 -2.6663 -0.7958 -0.1193
 7236SOL     OW33166   4.444   1.232   6.676  0.0483  0.2623  0.1778
 7236SOL    HW133167   4.521   1.238   6.733  1.1118  0.7253 -1.3096
 7236SOL    HW233168   4.446   1.319   6.636 -3.5481 -0.4249 -1.4350
 7237SOL     OW33169   4.623   2.296  12.049 -0.2890 -0.3208  0.0534
 7237SOL    HW133170   4.585   2.249  12.123  1.0149 -0.1644  0.8350
 7237SOL    HW233171   4.708   2.316  12.090 -1.0406  1.2623  0.8595
 7238SOL     OW33172   0.125   1.261   9.011 -0.1742  0.4659  0.1467
 7238SOL    HW133173   0.180   1.206   8.955  0.8173  1.6960 -0.0935
 7238SOL    HW233174   0.114   1.203   9.086 -0.3273 -1.1110 -1.0995
 7239SOL     OW33175   1.468   1.060   4.167 -0.6675 -0.3248  0.0781
 7239SOL    HW133176   1.504   1.110   4.241  1.4190 -0.9556 -0.5239
 7239SOL    HW233177   1.462   1.129   4.101 -1.2090 -1.5036 -1.0954
 7240SOL     OW33178   2.199   4.488   3.667 -0.1113  0.4616 -0.0735
 7240SOL    HW133179   2.107   4.502   3.689 -0.2036  1.5672 -1.0945
 7240SOL    HW233180   2.182   4.463   3.576 -0.9839 -0.7364  0.4199
 7241SOL     OW33181   2.173   2.085   3.502  0.0928 -0.1480  0.0016
 7241SOL    HW133182   2.250   2.082   3.446 -0.9075  0.6186 -1.4361
 7241SOL    HW233183   2.221   2.087   3.584  0.6902  0.8420 -0.3687
 7242SOL     OW33184   1.135   4.454  11.087 -0.1015  0.0091 -0.1479
 7242SOL    HW133185   1.110   4.441  11.178  0.1600 -5.5156 -0.8502
 7242SOL    HW233186   1.090   4.381  11.045  0.2360  1.0573 -2.3854
 7243SOL     OW33187   0.805   4.197   3.159 -0.2284 -0.1446  0.1739
 7243SOL    HW133188   0.785   4.104   3.158  1.5401 -0.5196 -2.3565
 7243SOL    HW233189   0.771   4.226   3.074 -2.0316 -1.8104  0.3452
 7244SOL     OW33190   3.771   4.585   8.273 -0.3523  0.5997 -0.3282
 7244SOL    HW133191   3.786   4.678   8.290  2.3220 -0.2927  2.3699
 7244SOL    HW233192   3.676   4.585   8.267 -0.2186 -1.3805 -2.2782
 7245SOL     OW33193   0.217   2.855  10.001 -0.6108  0.1635 -0.0510
 7245SOL    HW133194   0.152   2.874   9.932 -1.6322  1.6075  1.2908
 7245SOL    HW233195   0.288   2.824   9.946  1.5155  1.1901  2.1030
 7246SOL     OW33196   3.005   3.319   7.065  0.2285 -0.7747 -0.1723
 7246SOL    HW133197   3.010   3.259   6.991 -0.8801  0.7222 -1.4598
 7246SOL    HW233198   2.910   3.325   7.075  0.3367  1.2406 -0.4277
 7247SOL     OW33199   0.837   3.113   9.092  0.1060  0.3619 -0.8112
 7247SOL    HW133200   0.776   3.053   9.134 -0.3758  0.3411 -1.5458
 7247SOL    HW233201   0.914   3.056   9.093 -1.1048 -1.2557 -0.6395
 7248SOL     OW33202   1.429   3.741   6.205 -1.1102  0.3814 -0.0766
 7248SOL    HW133203   1.393   3.654   6.193  0.4880 -0.3222  0.2755
 7248SOL    HW233204   1.410   3.760   6.297 -0.4350  0.3049  0.0773
 7249SOL     OW33205   3.242   3.477   2.630  0.0261  0.5275 -0.3765
 7249SOL    HW133206   3.222   3.461   2.538  0.7654 -0.2396 -0.4159
 7249SOL    HW233207   3.252   3.572   2.630  1.8832  0.3441 -0.2216
 7250SOL     OW33208   3.729   3.588   4.486 -0.1746  1.1474  0.4147
 7250SOL    HW133209   3.652   3.636   4.456  0.7617  1.7934 -0.9958
 7250SOL    HW233210   3.702   3.552   4.570  0.8006 -1.0245 -0.2104
 7251SOL     OW33211   2.626   0.807  15.639 -0.3617  0.0320  0.1263
 7251SOL    HW133212   2.603   0.883  15.692  0.9078  1.6549 -1.6491
 7251SOL    HW233213   2.680   0.845  15.570 -0.6724 -0.6252 -0.4838
 7252SOL     OW33214   1.071   2.017   3.174  0.4462 -0.1697  0.0619
 7252SOL    HW133215   1.084   1.997   3.081  0.3438 -0.2876  0.0744
 7252SOL    HW233216   1.145   1.968   3.211  1.6035  2.8510  1.8355
 7253SOL     OW33217   1.948   1.464   8.859  0.5306 -1.1272 -0.1563
 7253SOL    HW133218   1.935   1.397   8.927 -0.2636 -1.0145 -0.2033
 7253SOL    HW233219   2.044   1.467   8.854  0.4027  4.1032  0.7979
 7254SOL     OW33220   2.551   2.564   6.315  0.1379 -0.0625 -0.4223
 7254SOL    HW133221   2.581   2.544   6.403  1.3032 -1.4822 -1.1475
 7254SOL    HW233222   2.532   2.474   6.287 -0.8570  0.1984 -0.5921
 7255SOL     OW33223   2.997   1.192   7.527 -0.3272 -0.4870  0.0672
 7255SOL    HW133224   3.050   1.238   7.592  0.6175 -1.6639  0.1306
 7255SOL    HW233225   2.936   1.146   7.586  0.4842 -0.0660  1.2214
 7256SOL     OW33226   3.535   3.798   4.404 -0.7214  0.4159  0.2476
 7256SOL    HW133227   3.505   3.851   4.477 -0.7428  2.3320 -1.1437
 7256SOL    HW233228   3.470   3.831   4.342 -1.2674 -2.5387 -0.7277
 7257SOL     OW33229   4.602   1.644  11.523  0.1101 -0.1543  0.5560
 7257SOL    HW133230   4.654   1.719  11.551 -0.2162  0.9820 -1.9316
 7257SOL    HW233231   4.587   1.607  11.611  2.4348  0.2688  1.1284
 7258SOL     OW33232   0.869   0.125   6.828 -0.0982  0.2215  0.7321
 7258SOL    HW133233   0.808   0.143   6.900  0.1240  0.0679  0.9588
 7258SOL    HW233234   0.832   0.178   6.757 -1.5950 -2.6669 -0.6618
 7259SOL     OW33235   2.040   1.293  11.693  0.3828  0.5695  0.2655
 7259SOL    HW133236   2.049   1.371  11.748  1.4656  0.9922 -0.5047
 7259SOL    HW233237   1.946   1.275  11.687  0.2961  1.5720 -1.4546
 7260SOL     OW33238   1.531   2.291  13.935  0.2931  0.0892  0.7526
 7260SOL    HW133239   1.476   2.242  13.874  1.0105 -0.4673  0.5470
 7260SOL    HW233240   1.469   2.351  13.976  1.2966  2.0178 -0.5268
 7261SOL     OW33241   3.953   2.069   1.827  0.2329  0.1174  0.4528
 7261SOL    HW133242   3.917   2.061   1.915  0.8495  0.8392  0.7754
 7261SOL    HW233243   3.882   2.126   1.797  0.2155 -0.1775 -0.0664
 7262SOL     OW33244   2.242   3.149   9.101  0.6584 -0.5989  0.0124
 7262SOL    HW133245   2.186   3.220   9.132 -0.9004 -0.8296 -2.3003
 7262SOL    HW233246   2.329   3.183   9.121 -1.0929  2.5268  2.3506
 7263SOL     OW33247   4.195   4.335   9.161 -0.4356 -0.4028 -0.2925
 7263SOL    HW133248   4.148   4.252   9.156 -0.1333 -0.6810  1.4984
 7263SOL    HW233249   4.116   4.390   9.166  0.1171  0.2163  1.7196
 7264SOL     OW33250   1.124   3.878   6.292 -0.1383  0.6400 -0.1772
 7264SOL    HW133251   1.136   3.787   6.320  0.8121  1.6528  2.6346
 7264SOL    HW233252   1.202   3.926   6.320 -0.8049  1.3307  0.4946
 7265SOL     OW33253   4.457   0.122  13.252 -0.7091 -0.4204  0.8491
 7265SOL    HW133254   4.365   0.102  13.235 -0.0023 -2.5705 -0.5712
 7265SOL    HW233255   4.459   0.089  13.342  1.7097 -0.5359  0.7600
 7266SOL     OW33256   3.624   3.856   7.258 -0.1438  0.3193  0.0402
 7266SOL    HW133257   3.598   3.936   7.213 -2.9536  0.2333  1.4918
 7266SOL    HW233258   3.714   3.878   7.284 -0.4405  1.5202  0.0340
 7267SOL     OW33259   1.433   3.744   5.673  0.1701 -0.4312 -0.6282
 7267SOL    HW133260   1.410   3.691   5.749 -0.2863  1.0242  0.2529
 7267SOL    HW233261   1.476   3.821   5.711  1.8518 -1.1982 -0.9946
 7268SOL     OW33262   3.955   2.584  14.148 -0.0989  0.1955  0.3233
 7268SOL    HW133263   4.003   2.525  14.205  0.2173 -0.4160 -0.5749
 7268SOL    HW233264   3.868   2.546  14.138  0.4194 -0.4047 -1.9383
 7269SOL     OW33265   3.709   1.932   1.640 -0.0342 -0.1955 -0.2443
 7269SOL    HW133266   3.731   2.013   1.686  2.8680  0.0009 -1.9249
 7269SOL    HW233267   3.616   1.918   1.653  0.4306 -2.9209  0.1100
 7270SOL     OW33268   3.899   2.134   3.939  0.0038  0.5086 -0.4976
 7270SOL    HW133269   3.940   2.064   3.990  1.6476  0.0033 -2.4725
 7270SOL    HW233270   3.950   2.211   3.964 -1.2036  1.1971 -0.1836
 7271SOL     OW33271   1.688   1.262   6.308 -0.4054  0.3205  0.4105
 7271SOL    HW133272   1.669   1.336   6.365  0.6228  1.3290 -0.5587
 7271SOL    HW233273   1.705   1.187   6.365 -1.0358 -0.4225 -0.3737
 7272SOL     OW33274   2.915   2.552   0.780 -0.6298  0.5461  0.1516
 7272SOL    HW133275   2.965   2.570   0.701 -0.9539  1.8939  0.2680
 7272SOL    HW233276   2.891   2.643   0.795 -1.5732  0.1685  0.9333
 7273SOL     OW33277   0.566   1.022  13.768 -0.2568  0.3632  0.2032
 7273SOL    HW133278   0.641   0.969  13.797 -1.9116 -1.1375  1.7415
 7273SOL    HW233279   0.600   1.063  13.689  2.1509  0.4578  1.2808
 7274SOL     OW33280   3.657   3.384   5.802  0.2192  0.2649  0.5135
 7274SOL    HW133281   3.752   3.397   5.798  0.3143 -0.7165 -0.3415
 7274SOL    HW233282   3.642   3.447   5.873 -2.0024  0.1871  0.1082
 7275SOL     OW33283   1.634   4.214   4.599 -0.1590  0.3132 -0.3428
 7275SOL    HW133284   1.559   4.159   4.625  0.8129 -0.0201  1.7960
 7275SOL    HW233285   1.654   4.187   4.510  0.7357  1.3316 -0.4438
 7276SOL     OW33286   1.896   4.415   9.211 -0.1034  0.0337 -0.3427
 7276SOL    HW133287   1.801   4.425   9.200 -0.3855 -2.4819 -0.0578
 7276SOL    HW233288   1.915   4.445   9.299  0.1670  1.4445 -0.8734
 7277SOL     OW33289   3.006   3.632  14.586  0.0959  0.0235  0.3474
 7277SOL    HW133290   3.055   3.696  14.638 -0.0925  0.4035  0.0480
 7277SOL    HW233291   3.050   3.616  14.502 -1.2411 -1.1246 -0.1438
 7278SOL     OW33292   0.334   3.463   2.349  0.0284 -0.1294  0.4373
 7278SOL    HW133293   0.287   3.479   2.268 -0.0368 -2.0746  0.0851
 7278SOL    HW233294   0.348   3.553   2.379 -1.3801 -0.3034  1.6177
 7279SOL     OW33295   1.428   1.336   5.094  0.1894  0.0420 -0.0735
 7279SOL    HW133296   1.497   1.313   5.033  0.5117 -0.4933  0.4929
 7279SOL    HW233297   1.484   1.323   5.170  2.4219 -1.5610 -2.0008
 7280SOL     OW33298   2.088   3.535  10.816  0.1139 -0.0495 -0.3963
 7280SOL    HW133299   2.149   3.462  10.824 -1.6640 -1.6897 -2.0085
 7280SOL    HW233300   2.139   3.611  10.789  0.1727 -0.3521 -1.1306
 7281SOL     OW33301   0.705   0.258   0.006  0.1720 -0.1435  0.1138
 7281SOL    HW133302   0.771   0.208   0.053 -0.6465  0.2901  1.7477
 7281SOL    HW233303   0.637   0.276   0.072 -0.7496  0.1576 -0.9105
 7282SOL     OW33304   3.144   4.309   5.460  0.0455 -0.0271 -0.0288
 7282SOL    HW133305   3.083   4.372   5.498  0.0748 -2.0752  3.4829
 7282SOL    HW233306   3.087   4.240   5.429  0.0808  0.9545 -2.3124
 7283SOL     OW33307   1.154   3.394   9.084  0.0215 -0.5055 -0.4588
 7283SOL    HW133308   1.114   3.414   9.168 -0.0461  0.4484 -0.7230
 7283SOL    HW233309   1.077   3.401   9.027  1.3412 -1.1885 -2.3281
 7284SOL     OW33310   0.086   3.736   8.822 -0.2159 -0.6342 -0.5429
 7284SOL    HW133311   0.119   3.677   8.890  0.0666 -0.7681 -0.7928
 7284SOL    HW233312   0.066   3.813   8.875  0.2956 -1.6295  1.1056
 7285SOL     OW33313   3.281   1.975  10.414  0.1054  0.1215 -0.2268
 7285SOL    HW133314   3.205   1.926  10.445  0.0078  0.8617  0.7296
 7285SOL    HW233315   3.252   2.061  10.446 -1.7459  0.0381 -1.6714
 7286SOL     OW33316   2.077   3.842   9.699 -0.4632  0.0275 -0.3798
 7286SOL    HW133317   2.165   3.879   9.697  0.0001 -1.1300 -1.7205
 7286SOL    HW233318   2.032   3.887   9.627  0.2320  0.8923 -0.2760
 7287SOL     OW33319   4.167   1.958   5.718  0.5175  0.0002 -0.3358
 7287SOL    HW133320   4.169   2.011   5.798  3.2477  0.2337 -0.5640
 7287SOL    HW233321   4.074   1.970   5.698  0.4335  0.5678  0.4209
 7288SOL     OW33322   1.611   4.293   1.990 -0.0605  0.1581  0.5056
 7288SOL    HW133323   1.654   4.242   1.922  3.0166  0.5467  2.1515
 7288SOL    HW233324   1.574   4.368   1.944 -0.0788 -0.9373 -1.2381
 7289SOL     OW33325   0.183   3.985   3.013  0.0281 -0.2043 -0.1896
 7289SOL    HW133326   0.223   4.053   3.068  2.1624 -1.0231 -0.7538
 7289SOL    HW233327   0.257   3.925   3.021  0.6724  0.3404 -2.1929
 7290SOL     OW33328   2.595   3.082   4.489  0.5363  0.3211  0.1226
 7290SOL    HW133329   2.553   3.027   4.423 -0.6135  2.4391 -0.9102
 7290SOL    HW233330   2.614   3.155   4.430 -1.4890  0.1377 -0.7450
 7291SOL     OW33331   3.492   1.343   7.313  0.0295  0.0509 -0.2423
 7291SOL    HW133332   3.423   1.294   7.268  1.8108 -3.3580  0.6907
 7291SOL    HW233333   3.545   1.273   7.352 -2.6935 -1.2174  1.1537
 7292SOL     OW33334   0.618   0.368   7.550  0.3758  0.5387  0.0134
 7292SOL    HW133335   0.578   0.444   7.508 -2.7765 -1.0945  0.0466
 7292SOL    HW233336   0.553   0.341   7.614 -0.2407 -2.3861 -1.8160
 7293SOL     OW33337   1.701   2.841   5.424 -0.4234  0.4520  0.3083
 7293SOL    HW133338   1.778   2.866   5.374 -2.0473  2.8065 -1.0418
 7293SOL    HW233339   1.713   2.896   5.501 -1.3524 -0.6845  1.2790
 7294SOL     OW33340   2.577   0.199   5.266 -0.0299 -0.2344 -0.4547
 7294SOL    HW133341   2.561   0.236   5.179 -1.3297  1.4717  0.5111
 7294SOL    HW233342   2.527   0.117   5.258  1.1021 -1.2334  2.4580
 7295SOL     OW33343   2.572   3.938  11.501 -0.2951 -0.2320 -0.0827
 7295SOL    HW133344   2.486   3.915  11.468 -0.9574 -0.8067  2.0508
 7295SOL    HW233345   2.570   3.890  11.584  0.5477  1.3537  0.8558
 7296SOL     OW33346   2.119   4.009   1.397  0.4329 -0.0231 -0.0216
 7296SOL    HW133347   2.032   4.000   1.436  0.7546  0.5032  0.8300
 7296SOL    HW233348   2.159   4.089   1.432 -1.5687  0.9057  0.1742
 7297SOL     OW33349   3.411   0.838   5.544  0.1895 -0.4294 -0.1251
 7297SOL    HW133350   3.404   0.933   5.538 -1.2379 -0.4839  0.4279
 7297SOL    HW233351   3.440   0.828   5.635 -0.6788 -0.5751  0.1410
 7298SOL     OW33352   3.653   2.394   2.225 -0.1678  0.1730  0.4244
 7298SOL    HW133353   3.732   2.349   2.194 -0.4135 -0.0098  0.0643
 7298SOL    HW233354   3.613   2.320   2.270  0.8062 -1.1220 -0.8477
 7299SOL     OW33355   3.745   4.375  10.762 -0.4320 -0.1814 -0.3236
 7299SOL    HW133356   3.757   4.382  10.667  0.6201 -0.4881 -0.2145
 7299SOL    HW233357   3.655   4.408  10.753 -2.2667 -4.9288  0.9144
 7300SOL     OW33358   4.362   2.267  17.472  0.2059  0.3536 -0.2862
 7300SOL    HW133359   4.271   2.293  17.483 -0.4298 -0.5571 -3.4357
 7300SOL    HW233360   4.366   2.241  17.380  2.1666  1.0063 -0.3839
 7301SOL     OW33361   0.946   2.512  13.569 -0.0047  0.0815 -0.4622
 7301SOL    HW133362   0.932   2.560  13.650  0.2237 -1.0546  0.2629
 7301SOL    HW233363   0.992   2.578  13.517  2.2780 -2.9421 -2.3044
 7302SOL     OW33364   3.133   0.465   4.485  0.2839 -0.3610  0.2030
 7302SOL    HW133365   3.201   0.479   4.418 -1.0995 -0.3708 -1.2124
 7302SOL    HW233366   3.182   0.456   4.566  2.0117  0.2517 -0.7745
 7303SOL     OW33367   3.786   4.508   6.870 -0.3315 -0.4709 -0.5754
 7303SOL    HW133368   3.822   4.556   6.944 -1.4138 -0.1086 -0.2705
 7303SOL    HW233369   3.691   4.518   6.878  0.1104  0.7882  2.7456
 7304SOL     OW33370   4.227   4.564   2.995  0.3834  0.2932  0.4161
 7304SOL    HW133371   4.260   4.636   2.942 -1.0195  0.3372 -0.4085
 7304SOL    HW233372   4.289   4.492   2.982  1.1841  0.9758  0.5141
 7305SOL     OW33373   3.832   1.985  16.172 -0.1559  0.2360  0.1798
 7305SOL    HW133374   3.892   2.022  16.237 -0.3417  0.8149  0.0275
 7305SOL    HW233375   3.761   2.050  16.171  0.0030  0.3510 -2.4932
 7306SOL     OW33376   2.291   3.183   1.715  0.4534  0.4380  0.1373
 7306SOL    HW133377   2.346   3.195   1.637  0.3094 -0.6025 -0.1283
 7306SOL    HW233378   2.345   3.229   1.780  0.9527 -0.1413  0.1327
 7307SOL     OW33379   2.614   3.209  14.967  0.6857  0.0072 -0.1165
 7307SOL    HW133380   2.576   3.279  15.020  2.3756  0.2397  0.7861
 7307SOL    HW233381   2.627   3.253  14.883  0.2919  0.7505  0.2202
 7308SOL     OW33382   3.685   0.271   2.011 -0.5403  0.0544  0.3591
 7308SOL    HW133383   3.727   0.356   2.000 -0.4975  0.1065  0.9478
 7308SOL    HW233384   3.607   0.308   2.052 -1.6828 -0.5902 -1.2409
 7309SOL     OW33385   2.171   0.692   3.298 -0.4681  0.5219 -0.3803
 7309SOL    HW133386   2.216   0.667   3.217  1.8647 -0.1580  1.1290
 7309SOL    HW233387   2.244   0.722   3.352 -0.1385  0.6950 -0.9301
 7310SOL     OW33388   0.502   2.579   3.709  0.2179 -0.3037  0.4221
 7310SOL    HW133389   0.440   2.563   3.780  1.8861  0.2830  1.9948
 7310SOL    HW233390   0.484   2.502   3.656  1.2919 -0.8478  0.8581
 7311SOL     OW33391   2.535   4.348   4.246  0.6835 -0.0718  0.1924
 7311SOL    HW133392   2.467   4.328   4.310 -0.5622 -1.0256 -1.4361
 7311SOL    HW233393   2.494   4.345   4.159 -2.1157  3.5444  1.4161
 7312SOL     OW33394   1.529   2.362   1.853 -0.5253 -0.0268 -0.1012
 7312SOL    HW133395   1.442   2.355   1.893 -1.6404  1.7861 -2.1943
 7312SOL    HW233396   1.508   2.408   1.772  0.5787  0.7526  0.0601
 7313SOL     OW33397   2.010   1.240  10.813 -0.5502  0.0288  0.5719
 7313SOL    HW133398   2.008   1.276  10.901  1.5569 -0.1465  0.6938
 7313SOL    HW233399   2.020   1.325  10.770  3.3077 -0.6741  0.1109
 7314SOL     OW33400   4.026   3.655   3.733  0.0080  0.2337 -0.8640
 7314SOL    HW133401   4.048   3.719   3.801 -0.2488 -1.2485  0.6150
 7314SOL    HW233402   4.108   3.662   3.685  0.6966 -0.3658  0.2267
 7315SOL     OW33403   2.671   2.470   6.961  0.5526  0.2586 -0.1239
 7315SOL    HW133404   2.759   2.465   6.997  0.5395 -1.8805 -0.3493
 7315SOL    HW233405   2.679   2.553   6.915  1.3219 -0.1054 -0.6355
 7316SOL     OW33406   3.144   2.221   6.458 -0.1321 -0.1936  0.3098
 7316SOL    HW133407   3.102   2.139   6.485  1.4770 -0.5081  1.8738
 7316SOL    HW233408   3.064   2.270   6.440  0.0328 -0.2350 -0.5085
 7317SOL     OW33409   1.245   1.845   2.004  0.3541 -0.3147  0.2421
 7317SOL    HW133410   1.167   1.899   2.009  1.2086  0.9836 -0.3585
 7317SOL    HW233411   1.220   1.782   1.936  0.3264  1.6698 -1.6086
 7318SOL     OW33412   3.896   3.339  10.658 -0.2752  0.1736  0.1022
 7318SOL    HW133413   3.828   3.406  10.656  1.0717  1.4654 -1.2952
 7318SOL    HW233414   3.877   3.278  10.586  1.5851 -0.5370  0.2023
 7319SOL     OW33415   0.931   0.212   5.518  0.2500 -0.3907 -0.8156
 7319SOL    HW133416   0.857   0.158   5.546 -0.0668 -0.0614 -1.0158
 7319SOL    HW233417   0.909   0.235   5.428  1.8376 -0.1230 -1.1442
 7320SOL     OW33418   0.513   3.427   4.703 -0.3832  0.2121 -0.2454
 7320SOL    HW133419   0.546   3.347   4.745  1.7818  1.7389  0.9367
 7320SOL    HW233420   0.457   3.383   4.639 -2.7352  1.6501  0.8349
 7321SOL     OW33421   3.814   1.211   9.717  0.1329  0.2613  0.1202
 7321SOL    HW133422   3.763   1.289   9.737  0.3288  0.1700  0.9737
 7321SOL    HW233423   3.816   1.169   9.803  2.3080 -0.7472 -0.4291
 7322SOL     OW33424   0.032   4.094  11.701  0.0758  0.3801 -0.3133
 7322SOL    HW133425   4.717   4.016  11.745  0.8271  1.0923  1.5870
 7322SOL    HW233426   4.674   4.123  11.656  1.6277 -0.1498 -3.3763
 7323SOL     OW33427   0.723   1.485   7.697  1.0036 -0.4677 -0.2410
 7323SOL    HW133428   0.750   1.419   7.761  0.5001  0.2189  0.6830
 7323SOL    HW233429   0.749   1.447   7.614 -0.7295  1.3418 -1.6294
 7324SOL     OW33430   2.456   4.394   0.732  0.0814 -0.1633  0.1989
 7324SOL    HW133431   2.539   4.425   0.695 -0.8129  3.1222  0.8792
 7324SOL    HW233432   2.440   4.455   0.804  1.7501  1.3532 -0.7024
 7325SOL     OW33433   0.380   0.077  12.054  0.3220  0.0695 -0.3590
 7325SOL    HW133434   0.456   0.019  12.046 -0.6274 -0.9308 -2.1763
 7325SOL    HW233435   0.358   0.056  12.144  0.4973  0.7578 -0.1523
 7326SOL     OW33436   2.877   1.711   7.271  0.1596 -0.1648 -0.2770
 7326SOL    HW133437   2.791   1.699   7.312  0.7195 -2.7574  0.1676
 7326SOL    HW233438   2.931   1.737   7.346  1.4968 -1.3023 -0.8406
 7327SOL     OW33439   0.358   2.266  10.802 -0.1380  0.3296 -0.0037
 7327SOL    HW133440   0.396   2.185  10.767  1.1776  0.5963  0.8325
 7327SOL    HW233441   0.364   2.240  10.894 -1.9929 -0.5868 -0.1407
 7328SOL     OW33442   2.784   2.228   1.554  0.2801 -0.0168 -0.2727
 7328SOL    HW133443   2.710   2.177   1.585 -0.4219  1.0416 -0.2054
 7328SOL    HW233444   2.848   2.227   1.626 -0.7867  0.6078  0.6779
 7329SOL     OW33445   3.996   4.586   1.360 -0.0048  0.0061  0.3096
 7329SOL    HW133446   3.997   4.500   1.402 -0.2924 -0.8804 -1.5028
 7329SOL    HW233447   3.929   4.636   1.408 -0.6651  1.2849 -1.9285
 7330SOL     OW33448   4.426   4.296  17.681 -0.4967 -0.4339  0.1299
 7330SOL    HW133449   4.356   4.338   0.044  0.0472  0.3979  0.1859
 7330SOL    HW233450   4.482   4.268   0.067 -0.8175 -0.4130  0.3876
 7331SOL     OW33451   1.810   1.701   8.805  0.3239 -0.1770  0.2028
 7331SOL    HW133452   1.855   1.617   8.798  1.9921  0.5267  2.3599
 7331SOL    HW233453   1.828   1.719   8.898 -0.2683 -1.1757  0.5096
 7332SOL     OW33454   4.708   1.353   6.945  0.1406 -0.5294 -0.7120
 7332SOL    HW133455   4.690   1.445   6.968  1.1234 -0.3861 -0.5412
 7332SOL    HW233456   0.020   1.358   6.855 -2.1447  0.8717 -1.4680
 7333SOL     OW33457   2.085   2.732   4.004  0.3525  0.3726  0.2163
 7333SOL    HW133458   2.133   2.682   4.070 -0.9280  0.2243  1.0443
 7333SOL    HW233459   2.161   2.753   3.949 -0.4405 -4.0863 -2.6054
 7334SOL     OW33460   0.417   2.240   4.427 -0.0744  0.1608 -0.6943
 7334SOL    HW133461   0.489   2.277   4.478  1.4087 -2.1818 -1.0690
 7334SOL    HW233462   0.366   2.316   4.397  0.0039 -0.2298 -1.7981
 7335SOL     OW33463   0.370   1.637   0.986 -0.5063  0.4380  0.0842
 7335SOL    HW133464   0.307   1.566   0.987 -1.1247  1.0477  3.8760
 7335SOL    HW233465   0.420   1.619   1.065 -1.0807  1.4806  0.6722
 7336SOL     OW33466   3.606   2.637   8.340 -0.0600 -0.2167  0.5353
 7336SOL    HW133467   3.564   2.673   8.262 -0.9098 -2.2882  0.0491
 7336SOL    HW233468   3.566   2.697   8.403 -1.7508  1.0136 -1.7185
 7337SOL     OW33469   0.483   1.025   1.081  0.0539  0.0725  0.8263
 7337SOL    HW133470   0.485   1.109   1.036  0.2679 -1.3090 -1.7413
 7337SOL    HW233471   0.559   0.990   1.036 -0.8110 -3.3398  1.9592
 7338SOL     OW33472   3.006   4.249   2.716  0.2159 -0.0900 -0.1153
 7338SOL    HW133473   3.043   4.287   2.637  0.9266 -0.1147  0.2098
 7338SOL    HW233474   2.934   4.198   2.678 -0.4655  0.9007 -0.1736
 7339SOL     OW33475   3.098   1.740   5.541 -0.3338  0.0688  0.6746
 7339SOL    HW133476   3.039   1.751   5.616 -1.9575  0.1659 -0.6210
 7339SOL    HW233477   3.063   1.669   5.488  0.8300  0.0629 -0.0672
 7340SOL     OW33478   0.776   3.817   9.166 -1.0524  0.3287 -0.3477
 7340SOL    HW133479   0.744   3.768   9.090 -0.6127 -0.7102  0.1345
 7340SOL    HW233480   0.756   3.742   9.223 -0.3515 -0.7730 -1.5491
 7341SOL     OW33481   3.802   4.128   0.166  0.4048 -0.6839 -0.4629
 7341SOL    HW133482   3.837   4.054   0.215  2.1289  0.6395  0.3164
 7341SOL    HW233483   3.833   4.111   0.077  0.7774 -2.8643  0.0759
 7342SOL     OW33484   4.026   3.613   0.676  0.0669 -0.0714  0.0226
 7342SOL    HW133485   4.096   3.648   0.731 -0.1978  1.9707 -0.9225
 7342SOL    HW233486   3.969   3.577   0.744  0.8412 -0.2514  0.5700
 7343SOL     OW33487   3.957   1.678   2.155 -0.1382  0.1557 -0.3579
 7343SOL    HW133488   3.932   1.765   2.125  0.0829  0.0997 -0.6954
 7343SOL    HW233489   3.995   1.655   2.071  1.7638  0.5712  0.3987
 7344SOL     OW33490   0.757   1.526  14.797  0.5844  0.6071 -0.2151
 7344SOL    HW133491   0.730   1.460  14.861  0.5680 -0.5870 -1.4566
 7344SOL    HW233492   0.810   1.479  14.732  0.3252 -2.8762  2.1538
 7345SOL     OW33493   2.885   3.852   8.650  0.4033  0.1207 -0.2923
 7345SOL    HW133494   2.847   3.854   8.738 -1.0375 -0.2965 -0.9114
 7345SOL    HW233495   2.821   3.886   8.588 -1.2177 -1.6571  0.3965
 7346SOL     OW33496   1.966   1.424   1.534 -0.6493 -0.0469 -0.0502
 7346SOL    HW133497   2.033   1.442   1.601  1.7685 -0.6063 -2.3229
 7346SOL    HW233498   2.016   1.386   1.462 -2.0415 -1.9002 -0.0342
 7347SOL     OW33499   0.180   1.498   9.568  0.1946 -0.4573 -0.1666
 7347SOL    HW133500   0.268   1.532   9.558 -0.4427  1.0708 -0.5461
 7347SOL    HW233501   0.144   1.560   9.631  0.8300 -0.6268  0.3599
 7348SOL     OW33502   0.387   3.544   8.525  0.5333 -0.8194  0.2065
 7348SOL    HW133503   0.308   3.596   8.510  1.1857  0.0468 -0.2159
 7348SOL    HW233504   0.437   3.604   8.580 -0.3119 -0.8407  1.0010
 7349SOL     OW33505   1.092   3.546  13.174 -0.3067  0.7310 -0.1011
 7349SOL    HW133506   1.116   3.509  13.259 -0.3087 -1.0853 -0.8853
 7349SOL    HW233507   1.000   3.567  13.191 -0.9943 -1.3270 -1.2071
 7350SOL     OW33508   0.290   2.875  11.378  0.9709  0.3343  0.0027
 7350SOL    HW133509   0.369   2.906  11.335  0.1612  1.8013 -0.4084
 7350SOL    HW233510   0.218   2.913  11.328  1.5602  1.1964 -0.1871
 7351SOL     OW33511   0.002   3.177   9.051  0.2030 -0.2377  0.3108
 7351SOL    HW133512   4.629   3.190   9.037  0.7289  2.8163 -0.3776
 7351SOL    HW233513   0.012   3.099   8.996  1.3917  0.7271 -0.8505
 7352SOL     OW33514   0.781   2.177   3.536  0.3502 -0.2092 -0.2383
 7352SOL    HW133515   0.821   2.260   3.510 -2.0331  0.4525 -1.8338
 7352SOL    HW233516   0.690   2.199   3.514 -0.0034 -1.6627 -0.1909
 7353SOL     OW33517   2.665   0.441   5.800  0.1381 -0.1357  0.0525
 7353SOL    HW133518   2.727   0.368   5.798  0.9697  0.5425  0.8067
 7353SOL    HW233519   2.722   0.506   5.843 -1.6050 -0.8382  3.4525
 7354SOL     OW33520   1.414   4.641   7.600 -0.5412  0.4519  0.2673
 7354SOL    HW133521   1.380   4.566   7.552 -0.8041  1.5046 -1.2052
 7354SOL    HW233522   1.448   4.593   7.675 -1.7106 -1.6304 -0.5277
 7355SOL     OW33523   4.352   0.331   6.611  0.4761 -0.4620 -0.3521
 7355SOL    HW133524   4.414   0.260   6.600  2.0411  1.1074 -1.6611
 7355SOL    HW233525   4.284   0.279   6.654 -0.4745 -1.0336 -2.5210
 7356SOL     OW33526   1.980   2.175   2.401 -0.4293  0.2529 -0.5224
 7356SOL    HW133527   1.922   2.134   2.337  0.4602  1.4943 -2.1421
 7356SOL    HW233528   1.981   2.114   2.475 -0.5318 -0.2390 -0.9248
 7357SOL     OW33529   0.971   2.118   6.562  0.5046 -0.0148  0.0543
 7357SOL    HW133530   0.901   2.183   6.561  0.3186 -0.2484 -1.2964
 7357SOL    HW233531   1.026   2.164   6.626 -0.1658  0.5252  0.2357
 7358SOL     OW33532   3.112   4.422   4.689  0.1505  0.6393  0.0469
 7358SOL    HW133533   3.169   4.476   4.635  0.2345  0.9559  0.4584
 7358SOL    HW233534   3.039   4.483   4.693  0.0143  0.5741 -1.2738
 7359SOL     OW33535   4.135   2.580   1.527 -0.0324 -0.0265 -0.2616
 7359SOL    HW133536   4.078   2.507   1.506 -0.0010 -0.1451  0.0632
 7359SOL    HW233537   4.101   2.606   1.612 -1.8029  0.3696 -1.0987
 7360SOL     OW33538   0.080   2.144  17.418 -0.2824  0.1263 -0.0151
 7360SOL    HW133539   4.718   2.127  17.463 -0.6377 -1.0582 -1.1276
 7360SOL    HW233540   0.040   2.147  17.330  0.6552  0.1626 -0.4409
 7361SOL     OW33541   0.105   4.159   2.761  0.1379  0.0904  0.5420
 7361SOL    HW133542   0.149   4.093   2.814 -0.0840 -0.5355 -0.0572
 7361SOL    HW233543   0.178   4.217   2.741 -0.5823  0.2665 -1.5926
 7362SOL     OW33544   0.867   3.228  11.769  0.5964  0.2908 -0.5856
 7362SOL    HW133545   0.865   3.305  11.712  1.3755  1.5111  1.0083
 7362SOL    HW233546   0.862   3.156  11.706 -0.7780 -0.6157  0.5458
 7363SOL     OW33547   4.636   2.375   1.852  0.8583  0.2803 -0.0843
 7363SOL    HW133548   4.655   2.364   1.945  0.7401 -0.6254 -0.1715
 7363SOL    HW233549   4.552   2.335   1.831  0.5390  0.2690  1.1816
 7364SOL     OW33550   2.780   0.501   1.779  0.3227 -0.6173 -0.5390
 7364SOL    HW133551   2.736   0.528   1.860 -2.1886  0.3463 -2.2220
 7364SOL    HW233552   2.705   0.462   1.734  1.3397 -0.8115 -2.0626
 7365SOL     OW33553   2.257   4.265   2.480  0.0209  0.3302  0.2530
 7365SOL    HW133554   2.203   4.293   2.406  0.3307  0.0580 -0.0769
 7365SOL    HW233555   2.311   4.344   2.482 -0.7725  0.9063 -0.9597
 7366SOL     OW33556   3.072   3.253   8.285 -0.5888  0.4579 -0.6275
 7366SOL    HW133557   3.027   3.336   8.301 -1.0139  0.3543 -1.2411
 7366SOL    HW233558   3.032   3.196   8.350  1.3670  1.0520  1.1009
 7367SOL     OW33559   3.255   1.975   0.909  0.7380  0.0419  0.0061
 7367SOL    HW133560   3.271   1.993   1.002 -2.6031 -1.4397  0.8806
 7367SOL    HW233561   3.299   2.052   0.873  0.5353 -0.3065 -0.9824
 7368SOL     OW33562   2.660   2.510   3.782 -0.3175 -0.2549 -0.2843
 7368SOL    HW133563   2.600   2.525   3.856 -0.1172 -0.6863 -0.0319
 7368SOL    HW233564   2.741   2.482   3.826  0.0721 -1.7012 -1.9407
 7369SOL     OW33565   3.656   4.528  10.200 -0.4811  0.0649 -0.5459
 7369SOL    HW133566   3.691   4.591  10.137  0.0582 -0.0829 -0.3951
 7369SOL    HW233567   3.594   4.487  10.140 -0.9837  0.1278 -0.0680
 7370SOL     OW33568   0.101   1.678   4.049  0.0804  0.0340 -0.2560
 7370SOL    HW133569   0.086   1.698   3.956  3.8755 -0.4767 -0.9770
 7370SOL    HW233570   0.159   1.602   4.045  0.7957  0.5562  0.2256
 7371SOL     OW33571   3.370   0.338   7.344  0.3577  0.2686  0.2500
 7371SOL    HW133572   3.374   0.412   7.404  0.8421 -1.3697  2.2254
 7371SOL    HW233573   3.368   0.388   7.262  2.6206  1.7239  1.0881
 7372SOL     OW33574   3.929   4.718  12.638  0.0978 -0.3864 -0.4225
 7372SOL    HW133575   3.837   0.014  12.655  0.4482  0.6282  0.5083
 7372SOL    HW233576   3.948   4.658  12.710 -2.4241 -1.2574 -0.4957
 7373SOL     OW33577   3.228   2.771   0.076  0.1594  0.1420 -0.1275
 7373SOL    HW133578   3.257   2.680   0.085  0.4722  0.2312 -0.2683
 7373SOL    HW233579   3.142   2.759   0.036  1.7480 -3.4714 -2.4220
 7374SOL     OW33580   0.005   4.191  17.418 -0.0008 -0.2202  0.3007
 7374SOL    HW133581   0.096   4.212  17.401  0.1200  0.2118  1.5016
 7374SOL    HW233582   4.716   4.203  17.512  2.4530  0.5695  0.4365
 7375SOL     OW33583   0.511   4.320  16.650 -0.8489 -0.3284  0.1004
 7375SOL    HW133584   0.430   4.367  16.668 -1.5551 -1.2278 -0.6926
 7375SOL    HW233585   0.502   4.284  16.562 -1.4023 -3.6872  1.5170
 7376SOL     OW33586   1.003   3.227  16.479 -0.0484 -0.5376 -0.1552
 7376SOL    HW133587   1.037   3.244  16.392 -0.4175  0.3000 -0.1397
 7376SOL    HW233588   0.920   3.186  16.453 -0.6191  0.3462  0.2447
 7377SOL     OW33589   3.032   2.612   7.927 -0.1608 -0.7834 -0.9884
 7377SOL    HW133590   3.123   2.623   7.898 -0.3393  2.8109 -0.2394
 7377SOL    HW233591   3.039   2.526   7.967 -1.2065 -1.3094 -1.9249
 7378SOL     OW33592   3.550   4.503  13.073  0.7359 -0.2197 -0.2504
 7378SOL    HW133593   3.580   4.521  12.984  1.5289  1.1153  0.2860
 7378SOL    HW233594   3.456   4.521  13.069  0.9832  0.9904 -0.6073
 7379SOL     OW33595   3.355   4.131   4.898 -0.7841 -0.1632  0.2037
 7379SOL    HW133596   3.347   4.224   4.919  4.4274  0.9503 -2.8092
 7379SOL    HW233597   3.275   4.097   4.939 -2.2557  0.8919 -1.7830
 7380SOL     OW33598   0.384   4.601  12.638 -0.4879 -0.1119 -0.4752
 7380SOL    HW133599   0.429   4.554  12.709 -2.3137  0.8777  1.3449
 7380SOL    HW233600   0.289   4.593  12.647 -0.3472  0.6043  1.8155
 7381SOL     OW33601   4.055   3.923  13.731 -0.0007  0.0199 -0.6748
 7381SOL    HW133602   4.099   3.911  13.647 -1.2293  0.2495 -1.3382
 7381SOL    HW233603   4.128   3.908  13.792 -1.3913 -1.6310  0.5908
 7382SOL     OW33604   4.553   0.141  10.530 -0.2901 -0.7313 -0.0086
 7382SOL    HW133605   4.564   0.232  10.556 -2.1925 -0.3223 -0.5785
 7382SOL    HW233606   4.566   0.091  10.611  0.4746  2.5335  1.8566
 7383SOL     OW33607   1.452   4.048  14.907  0.3616  0.3031  0.0320
 7383SOL    HW133608   1.445   3.962  14.948 -0.6293 -0.1310 -1.0542
 7383SOL    HW233609   1.543   4.072  14.921  0.6086 -2.1627  2.5439
 7384SOL     OW33610   1.837   1.167   3.671 -0.2709  0.2074  0.0069
 7384SOL    HW133611   1.889   1.148   3.592  1.1178  0.6614  0.8122
 7384SOL    HW233612   1.748   1.180   3.638 -0.4786  1.0698  0.9046
 7385SOL     OW33613   4.451   4.549   2.278 -0.3606 -0.1875  0.8097
 7385SOL    HW133614   4.409   4.462   2.276  2.6971 -1.6549  0.4837
 7385SOL    HW233615   4.377   4.599   2.243 -0.0099  0.5022  1.0586
 7386SOL     OW33616   0.988   3.023   6.204  0.6611  0.4395  0.4479
 7386SOL    HW133617   0.918   3.058   6.260  3.0963  1.8801  2.6153
 7386SOL    HW233618   1.068   3.032   6.256  1.1881 -0.3100 -0.2433
 7387SOL     OW33619   1.837   3.902   0.319 -0.7568  1.0274 -0.5562
 7387SOL    HW133620   1.830   3.808   0.334  1.6444  0.7384 -1.2504
 7387SOL    HW233621   1.877   3.908   0.232  0.6169  0.0716  0.0214
 7388SOL     OW33622   0.595   0.156   2.226  0.1965 -1.0296  0.1338
 7388SOL    HW133623   0.610   0.120   2.139 -1.4205  0.6205 -0.8348
 7388SOL    HW233624   0.500   0.170   2.226  0.1901 -1.0170 -2.1467
 7389SOL     OW33625   0.611   0.198   7.253  0.7772  0.5551 -0.3060
 7389SOL    HW133626   0.560   0.153   7.320  0.0893  0.6868 -0.7328
 7389SOL    HW233627   0.698   0.163   7.269  0.5256  0.2494  0.3803
 7390SOL     OW33628   1.231   0.278  16.747 -1.0901 -0.1147 -0.1484
 7390SOL    HW133629   1.269   0.362  16.719  0.7280 -1.1502 -0.7772
 7390SOL    HW233630   1.235   0.237  16.661  0.4083  0.6553 -0.4457
 7391SOL     OW33631   4.624   1.695   3.164  0.1543 -0.1665  0.3651
 7391SOL    HW133632   4.709   1.653   3.155 -0.1253 -0.9279  1.2251
 7391SOL    HW233633   4.622   1.750   3.085  0.6675 -1.4824 -0.5646
 7392SOL     OW33634   3.920   0.365   5.196 -0.3187 -0.1581 -0.0998
 7392SOL    HW133635   3.871   0.284   5.182 -0.7146 -0.0764  0.8259
 7392SOL    HW233636   3.845   0.420   5.214  0.3952  0.2009  1.8141
 7393SOL     OW33637   0.312   3.868   4.775  0.0046 -0.0718 -0.4808
 7393SOL    HW133638   0.260   3.925   4.719  0.4952  0.9468  0.0949
 7393SOL    HW233639   0.388   3.912   4.814 -0.5760 -1.5280  2.3593
 7394SOL     OW33640   2.924   3.047  11.913  0.3426 -0.2320 -0.2867
 7394SOL    HW133641   2.849   2.996  11.945 -0.8426  1.1309 -0.8988
 7394SOL    HW233642   2.984   3.028  11.985  0.5317 -0.3887 -0.4856
 7395SOL     OW33643   0.994   2.526  15.181 -0.4716  0.0963 -0.0374
 7395SOL    HW133644   1.003   2.587  15.108  1.2190  1.6527  1.4780
 7395SOL    HW233645   0.995   2.594  15.248 -1.1449  0.6145 -0.5549
 7396SOL     OW33646   1.494   4.130   3.567 -0.0617 -0.0067 -0.1268
 7396SOL    HW133647   1.418   4.178   3.532  0.2032  0.0509 -0.6237
 7396SOL    HW233648   1.548   4.117   3.489  0.7588 -0.8779  0.6028
 7397SOL     OW33649   0.013   0.372  13.230 -0.3836  0.1365  0.4715
 7397SOL    HW133650   0.017   0.335  13.318  0.4177  0.1834  0.4561
 7397SOL    HW233651   0.091   0.331  13.194 -2.0978  0.3137 -3.3647
 7398SOL     OW33652   2.279   1.198   0.220 -0.1697  0.3502  0.0287
 7398SOL    HW133653   2.217   1.180   0.291 -1.6798  3.1250 -0.6234
 7398SOL    HW233654   2.350   1.142   0.250 -0.7529  0.1717  1.1062
 7399SOL     OW33655   0.153   2.692   6.790  0.0464 -0.3632  0.2216
 7399SOL    HW133656   0.137   2.787   6.786  0.9713 -0.0773  3.2190
 7399SOL    HW233657   0.198   2.699   6.874 -0.5569 -0.3976  0.5500
 7400SOL     OW33658   2.629   0.990   5.240  0.1416 -0.9676 -0.1710
 7400SOL    HW133659   2.537   1.007   5.218 -0.4486 -2.3553  1.2019
 7400SOL    HW233660   2.636   0.899   5.212  1.3636 -0.1559 -2.4699
 7401SOL     OW33661   0.031   2.520   0.677  0.0985  0.2717 -0.7119
 7401SOL    HW133662   0.053   2.538   0.768  2.5513 -1.1023 -1.0294
 7401SOL    HW233663   0.080   2.594   0.642 -0.1236  0.4348 -0.6739
 7402SOL     OW33664   4.252   0.899   5.910  0.0220 -0.4270  0.1213
 7402SOL    HW133665   4.242   0.921   5.817  1.3809 -3.2334 -0.6981
 7402SOL    HW233666   4.173   0.929   5.953 -0.2788  0.9568 -1.4069
 7403SOL     OW33667   2.137   2.935   6.925 -0.5233  0.7401 -0.0811
 7403SOL    HW133668   2.182   2.939   6.841 -1.4153 -1.1481 -0.6373
 7403SOL    HW233669   2.114   3.027   6.938 -1.1448  0.6766 -0.7131
 7404SOL     OW33670   2.127   2.403   6.749 -0.4833  0.5138 -0.5313
 7404SOL    HW133671   2.084   2.489   6.747 -1.3049  0.0911 -0.8702
 7404SOL    HW233672   2.100   2.371   6.663  0.7732 -1.8692 -0.0466
 7405SOL     OW33673   1.023   4.464   3.908  0.0203 -0.1837 -0.1339
 7405SOL    HW133674   1.087   4.396   3.886  0.1720 -0.1150  0.0896
 7405SOL    HW233675   1.026   4.538   3.847 -1.3755  0.3133  0.3930
 7406SOL     OW33676   4.106   4.288   5.606 -0.1583  0.5102  0.1898
 7406SOL    HW133677   4.139   4.310   5.518  1.1824 -3.1686 -0.2385
 7406SOL    HW233678   4.167   4.315   5.674  1.3428  0.5789 -1.1628
 7407SOL     OW33679   2.043   3.416  14.754 -0.1523  0.4885  0.1570
 7407SOL    HW133680   2.047   3.417  14.849 -1.4316 -1.2063  0.2309
 7407SOL    HW233681   2.090   3.496  14.732  0.4971  0.4401  1.3673
 7408SOL     OW33682   2.252   1.664   0.463  0.2958 -0.7576 -0.3719
 7408SOL    HW133683   2.233   1.614   0.384 -3.2716 -0.4915  0.3473
 7408SOL    HW233684   2.261   1.752   0.428 -2.7762 -0.6650 -0.8446
 7409SOL     OW33685   0.242   2.062  12.234  0.4827 -0.1594  0.5326
 7409SOL    HW133686   0.301   2.067  12.159 -0.7233 -0.4078 -0.4333
 7409SOL    HW233687   0.215   2.154  12.237  1.0334  0.0798 -2.1325
 7410SOL     OW33688   4.389   3.008  10.706  0.0341  0.0164  0.0195
 7410SOL    HW133689   4.407   2.920  10.675  1.0841 -0.5891  2.2868
 7410SOL    HW233690   4.446   3.061  10.650 -0.0079 -1.2051 -1.1800
 7411SOL     OW33691   1.729   4.124   7.328  0.5978 -0.0539  0.0375
 7411SOL    HW133692   1.673   4.099   7.255 -0.1898  1.1635  0.2261
 7411SOL    HW233693   1.693   4.086   7.408  0.1654  1.3800  0.5305
 7412SOL     OW33694   1.923   3.712   6.676 -0.4437 -0.2451  0.4170
 7412SOL    HW133695   1.840   3.701   6.629  0.2439 -2.4238 -0.2442
 7412SOL    HW233696   1.935   3.620   6.700  0.8364 -0.2645 -0.3244
 7413SOL     OW33697   2.068   0.749  12.277  0.3251  0.2506 -0.1782
 7413SOL    HW133698   1.988   0.728  12.324 -0.0409 -0.1179 -0.9710
 7413SOL    HW233699   2.096   0.658  12.265 -1.6677 -0.3337 -0.3836
 7414SOL     OW33700   0.598   1.779   2.332  0.6017 -0.2715 -0.6105
 7414SOL    HW133701   0.656   1.725   2.385 -1.4608 -1.3887  0.4482
 7414SOL    HW233702   0.591   1.851   2.395 -2.6133 -2.9306  2.0699
 7415SOL     OW33703   2.689   2.855   8.285 -0.0425  0.6598  0.4698
 7415SOL    HW133704   2.675   2.765   8.256  4.1054 -0.5699  2.2132
 7415SOL    HW233705   2.618   2.898   8.237  0.3138  2.5831  1.6425
 7416SOL     OW33706   1.978   0.702  14.343  0.4955  0.0999 -1.0238
 7416SOL    HW133707   2.038   0.630  14.324  1.1824  0.4769 -0.2771
 7416SOL    HW233708   1.891   0.662  14.342  1.1303 -1.2676 -1.1894
 7417SOL     OW33709   0.867   3.452   5.839  0.7195 -0.7330  0.5040
 7417SOL    HW133710   0.830   3.367   5.816 -1.5981  0.8152 -1.5121
 7417SOL    HW233711   0.954   3.448   5.798  0.3907 -1.3994 -0.1359
 7418SOL     OW33712   1.500   2.279   6.104 -0.2255 -0.4752  0.2269
 7418SOL    HW133713   1.518   2.312   6.192 -1.2540  1.0721 -0.1539
 7418SOL    HW233714   1.577   2.227   6.079 -0.9196 -1.6079  0.4206
 7419SOL     OW33715   1.659   0.352   0.129 -0.1967 -0.1853  0.0388
 7419SOL    HW133716   1.606   0.288   0.082  0.5371 -1.5470  1.0390
 7419SOL    HW233717   1.585   0.405   0.156 -1.7397 -0.5221 -3.6159
 7420SOL     OW33718   0.822   3.090  10.406  0.0721  0.4202  0.2233
 7420SOL    HW133719   0.862   3.098  10.493 -1.7083  0.6360  1.0108
 7420SOL    HW233720   0.843   3.179  10.379 -1.3968  0.7213  0.0817
 7421SOL     OW33721   2.347   0.372  16.911  0.2011 -0.1253  0.1685
 7421SOL    HW133722   2.424   0.403  16.958  0.8439 -1.7244  0.1559
 7421SOL    HW233723   2.279   0.380  16.978 -0.2484  1.0700 -0.4148
 7422SOL     OW33724   0.338   4.213   5.572  0.8527  0.1010  0.1769
 7422SOL    HW133725   0.249   4.220   5.607  0.4720 -2.6754 -0.2442
 7422SOL    HW233726   0.386   4.284   5.614  1.3077  0.8527 -1.6239
 7423SOL     OW33727   1.100   3.569   8.271  0.2069 -0.0756 -0.4095
 7423SOL    HW133728   1.031   3.543   8.331  0.9459 -2.3303 -0.5532
 7423SOL    HW233729   1.172   3.530   8.319  0.7973 -1.3752 -2.3330
 7424SOL     OW33730   4.336   0.990  10.776  0.1114  0.3331 -0.4574
 7424SOL    HW133731   4.324   1.001  10.870  2.7514  1.3169 -0.2491
 7424SOL    HW233732   4.328   0.895  10.766 -0.5430  0.4200 -0.7725
 7425SOL     OW33733   4.349   1.853   8.270  0.3256 -0.5977  0.5209
 7425SOL    HW133734   4.404   1.787   8.312 -0.0787 -0.2035  1.6486
 7425SOL    HW233735   4.263   1.829   8.306 -0.5167  0.0743 -1.0521
 7426SOL     OW33736   2.335   3.287   7.066  0.0785 -0.1917 -0.1847
 7426SOL    HW133737   2.407   3.300   7.128  0.6846  0.4837 -1.0456
 7426SOL    HW233738   2.290   3.213   7.107  2.2980 -0.8772  1.0012
 7427SOL     OW33739   0.368   1.155   1.915 -0.6342  0.5124 -0.4865
 7427SOL    HW133740   0.398   1.208   1.989 -3.6964 -0.1911  1.2269
 7427SOL    HW233741   0.386   1.070   1.954 -2.6206  0.8405  1.1531
 7428SOL     OW33742   2.085   4.506   9.023  0.0008  0.6110  0.6078
 7428SOL    HW133743   2.013   4.501   9.086 -1.0231  0.4463 -0.5676
 7428SOL    HW233744   2.154   4.461   9.071 -1.2519 -1.6395  0.3287
 7429SOL     OW33745   0.559   4.694   4.934 -0.6957  0.0748 -0.0438
 7429SOL    HW133746   0.468   4.665   4.935 -0.6145 -0.1947 -0.2353
 7429SOL    HW233747   0.608   4.630   4.986 -1.5209 -1.3439 -1.0055
 7430SOL     OW33748   0.055   1.711  10.020 -0.8882  0.5294 -0.4336
 7430SOL    HW133749   0.053   1.791  10.074 -0.3578  0.2761 -0.0410
 7430SOL    HW233750   0.133   1.664  10.050 -1.2207  0.5172  0.4288
 7431SOL     OW33751   0.601   1.214   8.547  0.2279  0.3148 -0.2897
 7431SOL    HW133752   0.652   1.160   8.488 -0.6937 -0.0445 -0.7645
 7431SOL    HW233753   0.577   1.155   8.619  1.6547 -0.4913 -0.4847
 7432SOL     OW33754   4.472   3.751   2.946 -0.0402  0.2430  0.5963
 7432SOL    HW133755   4.557   3.707   2.943  1.2253  2.9181 -2.3402
 7432SOL    HW233756   4.435   3.710   2.868 -1.2190  2.4263  0.0238
 7433SOL     OW33757   0.709   3.638   2.988 -0.3772  0.0664  0.5115
 7433SOL    HW133758   0.674   3.558   3.027  0.6864 -1.2649 -1.2976
 7433SOL    HW233759   0.799   3.609   2.975 -0.7108 -1.0863  0.8052
 7434SOL     OW33760   2.911   3.044  16.286  0.5572 -0.4488  0.1090
 7434SOL    HW133761   2.888   3.022  16.195 -0.1443 -0.9934  0.4212
 7434SOL    HW233762   2.875   2.965  16.327 -0.4364 -0.8308 -1.4618
 7435SOL     OW33763   2.764   1.635   3.299 -0.0092  0.7840 -0.0399
 7435SOL    HW133764   2.733   1.620   3.209  0.9382 -0.8836 -0.0759
 7435SOL    HW233765   2.851   1.673   3.288  0.0492 -0.0156 -2.4121
 7436SOL     OW33766   3.907   1.596   3.919 -0.3286  0.6015 -0.3137
 7436SOL    HW133767   3.977   1.656   3.896  1.5954 -2.0771 -1.3992
 7436SOL    HW233768   3.938   1.520   3.869  2.1425  1.1060  0.4610
 7437SOL     OW33769   2.833   2.920   8.512 -0.3859  0.9340  0.0405
 7437SOL    HW133770   2.844   2.860   8.586  0.5854 -1.2979 -1.9173
 7437SOL    HW233771   2.774   2.873   8.452 -0.0846  0.6461 -0.0300
 7438SOL     OW33772   1.381   2.473   1.672  0.0581  0.2996  0.1028
 7438SOL    HW133773   1.287   2.490   1.663 -0.1725 -1.6076 -1.0493
 7438SOL    HW233774   1.414   2.509   1.590  0.1148 -2.3767 -1.0408
 7439SOL     OW33775   0.505   2.356  12.639 -0.4431 -0.1387  0.4763
 7439SOL    HW133776   0.449   2.280  12.623 -0.6723  0.1214  0.0693
 7439SOL    HW233777   0.572   2.354  12.571 -1.3295  0.0778 -0.4019
 7440SOL     OW33778   1.724   1.311   0.516  0.1025 -0.3405 -0.5915
 7440SOL    HW133779   1.803   1.355   0.485 -0.4958  0.2583 -1.2941
 7440SOL    HW233780   1.756   1.244   0.576 -1.0026 -1.8127 -1.6252
 7441SOL     OW33781   4.585   1.678  11.243  0.6975  0.0665 -0.1382
 7441SOL    HW133782   4.501   1.723  11.251 -0.2644 -1.2538 -2.9670
 7441SOL    HW233783   4.606   1.685  11.336 -0.4133 -0.9689  0.2043
 7442SOL     OW33784   3.560   2.516   9.328  0.1715  0.0304  0.0007
 7442SOL    HW133785   3.655   2.503   9.320  0.0831  0.3871 -1.5875
 7442SOL    HW233786   3.555   2.520   9.424  0.2214  0.0683  0.0022
 7443SOL     OW33787   0.973   3.305   3.752  0.2866  0.2293  0.0075
 7443SOL    HW133788   1.029   3.229   3.759  0.3406  0.4084  1.4196
 7443SOL    HW233789   0.979   3.305   3.656 -3.4928  0.7850 -0.2308
 7444SOL     OW33790   1.357   0.722  12.490  0.6663  0.2702  0.5733
 7444SOL    HW133791   1.370   0.703  12.583  0.6485  1.2635  0.7776
 7444SOL    HW233792   1.296   0.653  12.464  2.0132 -0.3790 -0.8614
 7445SOL     OW33793   2.123   2.242   6.980 -0.5099 -0.1289  0.0076
 7445SOL    HW133794   2.140   2.292   6.900 -2.2535  2.0953  1.0413
 7445SOL    HW233795   2.112   2.306   7.051 -2.4113 -1.8553  1.2427
 7446SOL     OW33796   0.680   2.207   4.866  0.4899 -0.5975  0.2525
 7446SOL    HW133797   0.636   2.288   4.892  0.6508 -0.1795 -0.7579
 7446SOL    HW233798   0.655   2.146   4.935  2.6126 -1.6005  0.1373
 7447SOL     OW33799   3.144   2.307  14.421 -0.4499  0.2042 -0.2166
 7447SOL    HW133800   3.054   2.338  14.426  0.1673  2.1089 -0.8797
 7447SOL    HW233801   3.168   2.344  14.336  0.9315  1.3659  0.6730
 7448SOL     OW33802   4.246   3.814  10.540  0.3425 -0.3317  0.1091
 7448SOL    HW133803   4.197   3.741  10.503  1.2836 -0.9936  0.1696
 7448SOL    HW233804   4.207   3.817  10.628  1.7987 -2.5886  0.8471
 7449SOL     OW33805   1.051   4.110   1.342 -0.7157  0.0133 -0.6814
 7449SOL    HW133806   1.000   4.040   1.383 -1.9180  1.4691  0.2903
 7449SOL    HW233807   0.997   4.188   1.349 -1.8914 -0.8466 -0.1649
 7450SOL     OW33808   2.539   0.992  11.062  0.2268 -0.9913  0.0702
 7450SOL    HW133809   2.490   1.041  11.128  1.4407 -1.9751  1.7163
 7450SOL    HW233810   2.477   0.921  11.050 -1.3695  0.2635  0.8690
 7451SOL     OW33811   4.277   2.796   4.363  0.6632 -0.2832 -0.1289
 7451SOL    HW133812   4.271   2.705   4.393 -4.3358  0.1489  0.0520
 7451SOL    HW233813   4.188   2.799   4.328  0.4844 -0.7816  0.2822
 7452SOL     OW33814   1.831   4.246   2.168 -0.0952  0.0468  0.4474
 7452SOL    HW133815   1.881   4.173   2.132  1.0221  1.1104 -0.1813
 7452SOL    HW233816   1.754   4.249   2.111  0.0357 -0.1723  0.2588
 7453SOL     OW33817   3.961   0.621   9.659  0.0052  0.5205 -0.3961
 7453SOL    HW133818   4.006   0.554   9.608  1.3474  0.7173  0.5359
 7453SOL    HW233819   3.992   0.609   9.748  2.2644  3.6168 -0.7615
 7454SOL     OW33820   1.141   1.780   5.773 -0.9354  0.0093  0.3117
 7454SOL    HW133821   1.106   1.812   5.689 -0.0482 -1.6137 -0.6870
 7454SOL    HW233822   1.219   1.834   5.786 -1.8450  0.8071  2.3362
 7455SOL     OW33823   2.936   3.512   3.047  0.1182  0.4094 -0.1930
 7455SOL    HW133824   2.909   3.578   3.111 -0.1975  0.2483 -0.1606
 7455SOL    HW233825   2.987   3.445   3.091  0.1154  3.6378  4.7385
 7456SOL     OW33826   2.868   3.451   4.555  0.0582  0.1741  0.0312
 7456SOL    HW133827   2.895   3.542   4.546 -1.0990  0.1839 -3.3771
 7456SOL    HW233828   2.799   3.457   4.621  0.3621 -0.9970  0.4632
 7457SOL     OW33829   3.074   4.403   6.409  0.3863 -0.4962  0.1255
 7457SOL    HW133830   3.019   4.469   6.366  0.3035  0.1801  1.2590
 7457SOL    HW233831   3.156   4.449   6.427  1.8354 -2.7183 -0.8667
 7458SOL     OW33832   0.318   0.661   7.733  0.1366 -0.0449  0.1698
 7458SOL    HW133833   0.373   0.605   7.789  3.4607  0.1531 -2.9247
 7458SOL    HW233834   0.250   0.601   7.702  1.0391 -1.2503  0.5258
 7459SOL     OW33835   2.865   2.483   4.053  0.5379  0.4354 -0.1157
 7459SOL    HW133836   2.899   2.567   4.083  0.7154  1.4069 -2.9996
 7459SOL    HW233837   2.910   2.474   3.969  2.7045  1.9438  0.9035
 7460SOL     OW33838   1.347   0.349   3.276  0.7862  0.5917  0.1491
 7460SOL    HW133839   1.359   0.380   3.187  1.2722  0.2694  0.1022
 7460SOL    HW233840   1.347   0.255   3.261  0.7475  0.6273 -0.0736
 7461SOL     OW33841   4.300   4.118   6.980  0.1102 -0.0154  0.2571
 7461SOL    HW133842   4.381   4.166   6.963 -0.3425  1.4160  2.1369
 7461SOL    HW233843   4.336   4.047   7.034  3.0195  1.0654 -0.2554
 7462SOL     OW33844   1.503   3.132   5.951  0.7790  0.1104 -0.6984
 7462SOL    HW133845   1.444   3.206   5.942  0.5477 -0.1658 -1.4264
 7462SOL    HW233846   1.492   3.078   5.872 -0.2299 -1.6884  0.6742
 7463SOL     OW33847   0.081   0.670   5.770 -0.4160  0.5098  0.2047
 7463SOL    HW133848   0.023   0.667   5.847 -0.5317 -0.4679  0.0853
 7463SOL    HW233849   0.034   0.621   5.702  0.8942 -0.5830  0.0982
 7464SOL     OW33850   0.542   1.535   5.181 -0.2503  0.3276 -0.2228
 7464SOL    HW133851   0.494   1.459   5.150  0.7493  0.7751 -2.8813
 7464SOL    HW233852   0.478   1.606   5.180  0.7170  1.2222  1.0996
 7465SOL     OW33853   2.988   0.525  10.901 -0.2075 -0.0379  0.3151
 7465SOL    HW133854   3.076   0.544  10.868  0.3755 -1.3954  1.0956
 7465SOL    HW233855   2.929   0.572  10.841  1.9605  0.6581 -1.2510
 7466SOL     OW33856   3.158   0.418  15.113 -0.4526  0.1485  0.1817
 7466SOL    HW133857   3.220   0.351  15.143 -1.3633 -1.0617 -0.6081
 7466SOL    HW233858   3.215   0.495  15.108  1.6213 -1.3218  1.2374
 7467SOL     OW33859   0.656   2.983   6.697  0.5650  0.2474 -0.1391
 7467SOL    HW133860   0.592   2.913   6.684  1.6566 -0.6003 -0.9677
 7467SOL    HW233861   0.705   2.936   6.764  0.6399 -0.3246 -0.5910
 7468SOL     OW33862   3.203   0.420  12.478 -0.8458 -0.5579 -0.0407
 7468SOL    HW133863   3.177   0.407  12.387 -0.5028 -1.6420  0.0141
 7468SOL    HW233864   3.142   0.371  12.533 -2.7042  0.2251 -1.3889
 7469SOL     OW33865   4.659   0.997   1.015  0.1805 -0.4573 -0.0032
 7469SOL    HW133866   4.674   0.914   0.969  1.2784 -2.0697  3.3056
 7469SOL    HW233867   0.014   1.019   1.068 -0.8182  0.2556  1.1205
 7470SOL     OW33868   4.035   0.393   6.754 -0.6427  0.0521  0.1514
 7470SOL    HW133869   4.055   0.304   6.723 -1.6467  0.2370 -1.0417
 7470SOL    HW233870   4.050   0.374   6.847  2.8057  0.9851 -0.2157
 7471SOL     OW33871   3.019   3.648  11.952 -0.1753  0.1318  0.3914
 7471SOL    HW133872   3.066   3.567  11.932  0.1145  0.1244  1.1359
 7471SOL    HW233873   3.020   3.643  12.047  1.7792  0.0361  0.3695
 7472SOL     OW33874   1.986   3.480  10.357 -0.7378  0.3750 -0.0397
 7472SOL    HW133875   2.025   3.556  10.315  0.1560  0.8615  1.7031
 7472SOL    HW233876   2.066   3.440  10.391 -0.3470 -0.3095 -1.7279
 7473SOL     OW33877   0.327   1.630   5.696  0.3898  0.5177 -0.0961
 7473SOL    HW133878   0.264   1.692   5.659 -1.9984 -2.6271 -1.3217
 7473SOL    HW233879   0.355   1.662   5.782 -1.4609  0.4021  0.5577
 7474SOL     OW33880   1.655   2.421  10.879  0.1977 -0.7128  0.7532
 7474SOL    HW133881   1.744   2.405  10.911  0.5436  1.7364  1.0541
 7474SOL    HW233882   1.650   2.511  10.846 -1.4386 -0.8835  0.5405
 7475SOL     OW33883   3.950   4.470   3.980  0.7121  0.2049  0.1160
 7475SOL    HW133884   3.993   4.528   3.917 -0.2837 -0.0275 -0.7817
 7475SOL    HW233885   4.004   4.476   4.058  2.4012 -0.9912 -0.9611
 7476SOL     OW33886   4.209   0.079   8.698 -0.0818  0.0871  0.6182
 7476SOL    HW133887   4.212   0.033   8.782 -1.6754  0.7993  1.0823
 7476SOL    HW233888   4.116   0.083   8.675  0.2805  1.3636 -0.6107
 7477SOL     OW33889   3.228   0.882   4.937  0.0194  0.0792  0.0514
 7477SOL    HW133890   3.236   0.954   5.000 -0.1319  1.9721 -2.0919
 7477SOL    HW233891   3.172   0.925   4.872  1.3125 -0.9453 -1.7599
 7478SOL     OW33892   3.244   4.455   7.071  0.4176 -0.3337  0.3237
 7478SOL    HW133893   3.284   4.501   7.144  0.7272  0.6776 -0.4915
 7478SOL    HW233894   3.153   4.477   7.093  0.7831  0.3268  1.1627
 7479SOL     OW33895   2.138   3.780   7.117 -0.1125 -0.0192 -0.4049
 7479SOL    HW133896   2.046   3.774   7.092 -0.5587  1.6919  0.8874
 7479SOL    HW233897   2.133   3.785   7.212 -1.8568 -1.0997 -0.4348
 7480SOL     OW33898   2.807   2.232   6.703  0.3960 -0.3302 -0.1432
 7480SOL    HW133899   2.859   2.186   6.637  0.8926  0.0161  0.0031
 7480SOL    HW233900   2.868   2.257   6.773  1.6306 -3.4229 -0.1011
 7481SOL     OW33901   1.256   3.443  11.502  0.2449 -0.3837 -0.3316
 7481SOL    HW133902   1.217   3.427  11.416  0.7151  2.2502 -1.0568
 7481SOL    HW233903   1.245   3.358  11.543  0.8700 -0.9022 -1.2514
 7482SOL     OW33904   4.596   0.447  17.617  0.5508  0.1781  0.2326
 7482SOL    HW133905   4.574   0.378  17.555  0.2589 -0.6935  1.2931
 7482SOL    HW233906   4.511   0.477  17.650  0.1171  0.1801 -0.9021
 7483SOL     OW33907   2.235   4.603  15.559 -0.6714 -0.3036 -0.2686
 7483SOL    HW133908   2.149   4.581  15.521 -0.9740  0.3619  0.0218
 7483SOL    HW233909   2.238   4.693  15.527  1.7407 -0.0485  0.6894
 7484SOL     OW33910   4.407   2.342   5.765  0.3411 -0.2329  0.3315
 7484SOL    HW133911   4.456   2.260   5.759 -0.6138 -0.7786  0.0224
 7484SOL    HW233912   4.373   2.327   5.854 -1.1721 -1.1462 -0.4045
 7485SOL     OW33913   4.473   1.797   1.347 -0.9562  0.1504 -0.6448
 7485SOL    HW133914   4.407   1.822   1.412  0.1307  2.0141 -0.2422
 7485SOL    HW233915   4.537   1.747   1.397 -1.6890 -1.3771 -1.2498
 7486SOL     OW33916   0.440   3.206   2.452  0.2744 -0.5647 -0.5830
 7486SOL    HW133917   0.365   3.157   2.418 -0.6490  0.6598 -0.3071
 7486SOL    HW233918   0.409   3.292   2.423 -0.4814 -0.6934 -0.1780
 7487SOL     OW33919   4.460   2.157   1.786  0.2888 -0.0748 -0.3222
 7487SOL    HW133920   4.464   2.083   1.725 -1.1370 -0.4720  0.0562
 7487SOL    HW233921   4.383   2.131   1.839 -0.1415 -0.5834 -1.1931
 7488SOL     OW33922   3.929   2.936   6.138 -0.8397  0.2146  0.4299
 7488SOL    HW133923   3.876   2.944   6.058 -0.2510  0.5070  0.0766
 7488SOL    HW233924   4.014   2.976   6.120 -0.3391 -0.5657  1.0647
 7489SOL     OW33925   0.906   2.202   7.351 -0.0453 -0.2127  0.3892
 7489SOL    HW133926   0.904   2.298   7.345 -0.4299 -0.3298 -1.3910
 7489SOL    HW233927   0.987   2.189   7.400 -0.4176  1.5157  1.4820
 7490SOL     OW33928   1.792   3.425  13.870 -0.6392  0.6647 -0.1528
 7490SOL    HW133929   1.750   3.420  13.784  0.7152  0.4387 -0.7978
 7490SOL    HW233930   1.740   3.494  13.913 -1.1018 -0.2188  0.7213
 7491SOL     OW33931   0.764   1.295   6.250  0.0477  0.0337  0.0484
 7491SOL    HW133932   0.742   1.352   6.175  2.0722  1.7449  0.7625
 7491SOL    HW233933   0.695   1.231   6.235  0.7872 -0.4500 -1.2856
 7492SOL     OW33934   1.033   2.303   3.156 -0.1070 -0.8264  0.0616
 7492SOL    HW133935   1.027   2.208   3.153 -1.4662 -0.7603  0.8217
 7492SOL    HW233936   1.112   2.312   3.208 -1.3841  1.0941  1.7136
 7493SOL     OW33937   4.019   3.511  16.390  1.4963  0.0461 -0.0750
 7493SOL    HW133938   4.076   3.501  16.315  0.4033 -0.5460 -0.8261
 7493SOL    HW233939   3.937   3.475  16.357  1.2038  1.3739 -0.8074
 7494SOL     OW33940   0.337   4.714   1.266  0.1317  0.0513  0.2782
 7494SOL    HW133941   0.270   0.043   1.219  2.0637  0.4188 -2.0634
 7494SOL    HW233942   0.411   0.028   1.216  0.6157 -2.4435 -0.6972
 7495SOL     OW33943   1.409   1.343   2.370  0.1621 -0.2878  0.4842
 7495SOL    HW133944   1.324   1.351   2.413 -0.7882  0.4716 -1.4990
 7495SOL    HW233945   1.420   1.249   2.376 -0.7588 -0.4930 -1.0485
 7496SOL     OW33946   0.367   1.351  15.804  0.1984  0.4449 -0.1362
 7496SOL    HW133947   0.277   1.321  15.814  0.6901 -1.5954 -1.7429
 7496SOL    HW233948   0.364   1.418  15.736 -2.2213 -1.5911 -2.0203
 7497SOL     OW33949   3.701   1.287  12.362 -0.1888  0.6032 -0.0778
 7497SOL    HW133950   3.733   1.200  12.341 -0.3432  0.2420  1.2098
 7497SOL    HW233951   3.638   1.273  12.433  0.0047  0.3237  0.0363
 7498SOL     OW33952   0.510   2.959  11.223  0.0254 -0.0831  0.0108
 7498SOL    HW133953   0.523   2.868  11.197  1.6404  0.1450 -0.0131
 7498SOL    HW233954   0.429   2.983  11.179 -0.6799  1.1466  1.9619
 7499SOL     OW33955   1.688   4.669   2.981  0.4657 -0.1302  0.1649
 7499SOL    HW133956   1.678   4.702   3.070  2.6571 -1.3715  0.8454
 7499SOL    HW233957   1.678   4.577   3.006 -1.3224  0.3710  1.2891
 7500SOL     OW33958   3.581   0.228   6.097 -0.0100 -0.3686 -0.7304
 7500SOL    HW133959   3.599   0.229   6.191  0.4622 -2.6981 -0.7855
 7500SOL    HW233960   3.666   0.210   6.059  0.1894  1.1890 -1.0040
 7501SOL     OW33961   2.821   3.230  17.086 -0.4081 -0.0411  0.0765
 7501SOL    HW133962   2.827   3.285  17.164  0.6573  0.5959 -0.4563
 7501SOL    HW233963   2.790   3.147  17.122  1.9996  0.0306  2.3629
 7502SOL     OW33964   0.548   2.602   5.194  0.2317  0.1837  0.3623
 7502SOL    HW133965   0.536   2.508   5.206 -1.5548  0.3733  0.0765
 7502SOL    HW233966   0.626   2.611   5.139 -0.5858 -0.0631 -0.8328
 7503SOL     OW33967   0.405   4.676   7.046  0.1765  0.3863 -0.3693
 7503SOL    HW133968   0.414   4.623   7.124  1.9329 -1.2666 -1.7107
 7503SOL    HW233969   0.376   4.612   6.981 -0.8332  0.4310  0.0300
 7504SOL     OW33970   4.406   1.887   6.379 -0.4595  0.5385  0.2048
 7504SOL    HW133971   4.327   1.936   6.356 -0.5037  0.8099  0.9294
 7504SOL    HW233972   4.458   1.897   6.299 -0.5953 -0.4408  0.0025
 7505SOL     OW33973   0.212   4.628  14.644 -0.3538 -0.2292 -0.8143
 7505SOL    HW133974   0.132   4.678  14.628  0.3044  0.3180 -2.4487
 7505SOL    HW233975   0.267   4.706  14.630 -0.6829  0.5846  2.3882
 7506SOL     OW33976   3.561   1.682   4.189 -0.2807 -0.1923 -0.3557
 7506SOL    HW133977   3.574   1.663   4.096 -1.4007  1.4730 -0.8401
 7506SOL    HW233978   3.632   1.744   4.203 -2.3554  2.3467 -1.2168
 7507SOL     OW33979   2.717   0.072  13.212 -0.5702  0.0132  0.2233
 7507SOL    HW133980   2.669   0.056  13.293  0.0997 -0.0850  0.6027
 7507SOL    HW233981   2.767   0.152  13.226 -0.1450 -0.0720 -0.8312
 7508SOL     OW33982   0.659   2.057   6.640  0.3560  0.5459 -0.3564
 7508SOL    HW133983   0.680   2.013   6.557  1.9020 -1.3588  1.0534
 7508SOL    HW233984   0.685   1.989   6.702  1.0187  0.6138 -0.5680
 7509SOL     OW33985   3.837   1.368   6.978 -0.6448 -0.3746 -0.3250
 7509SOL    HW133986   3.898   1.372   7.051 -0.3638 -1.5396 -0.4978
 7509SOL    HW233987   3.754   1.407   7.008 -0.2288  0.7513 -0.6639
 7510SOL     OW33988   0.422   4.531   3.414  0.4348 -0.2748 -0.1177
 7510SOL    HW133989   0.430   4.548   3.320  0.2582 -1.5358 -0.3620
 7510SOL    HW233990   0.451   4.611   3.456 -0.2800  0.9509 -1.9460
 7511SOL     OW33991   2.019   0.563  10.844  0.0458  0.5216  0.4669
 7511SOL    HW133992   2.111   0.545  10.827 -0.4964  0.3088 -2.3366
 7511SOL    HW233993   1.974   0.520  10.771  0.1168 -1.0932  1.3795
 7512SOL     OW33994   4.253   0.433   0.797  0.0903  0.0884 -0.9672
 7512SOL    HW133995   4.319   0.499   0.816  0.9433 -1.1859  0.4351
 7512SOL    HW233996   4.189   0.495   0.760 -0.6139  0.7890  1.4136
 7513SOL     OW33997   3.835   3.906   2.669  0.2172 -0.0494  0.4195
 7513SOL    HW133998   3.885   3.825   2.658  1.0185  0.5439 -0.2215
 7513SOL    HW233999   3.853   3.956   2.590 -1.9414  0.4250  0.2158
 7514SOL     OW34000   0.524   3.269  12.041 -0.6940 -0.3893 -0.3734
 7514SOL    HW134001   0.512   3.323  11.963 -1.7596 -0.0629  0.0176
 7514SOL    HW234002   0.444   3.291  12.089  0.0325 -0.8942  1.0567
 7515SOL     OW34003   1.785   2.350   6.561  0.0317 -0.3768  0.4801
 7515SOL    HW134004   1.870   2.322   6.526 -0.4557 -2.0328  0.6098
 7515SOL    HW234005   1.736   2.291   6.503 -0.9621  1.1584 -0.2479
 7516SOL     OW34006   2.986   3.394  12.188 -0.1396 -0.3975  0.0529
 7516SOL    HW134007   2.969   3.412  12.281 -0.7869  0.0049 -0.1462
 7516SOL    HW234008   2.944   3.309  12.177 -0.1548 -0.5827  1.5861
 7517SOL     OW34009   2.971   0.874   6.441  0.3321 -0.4615 -0.1979
 7517SOL    HW134010   2.916   0.851   6.366 -0.1227  0.0403 -0.0163
 7517SOL    HW234011   2.930   0.808   6.497 -3.4785 -0.2711 -2.7327
 7518SOL     OW34012   2.708   1.918  13.796 -0.5264 -0.0029  0.1720
 7518SOL    HW134013   2.622   1.921  13.838 -0.5897  1.4434 -0.0758
 7518SOL    HW234014   2.746   1.845  13.845  0.3191 -1.0588 -2.0774
 7519SOL     OW34015   0.243   0.759  12.792 -0.6141  0.1796  0.0028
 7519SOL    HW134016   0.185   0.696  12.835  0.1219  0.2063  1.0556
 7519SOL    HW234017   0.190   0.788  12.718 -2.3190  1.7524  1.8370
 7520SOL     OW34018   4.159   3.890   5.657 -0.0770 -0.2906 -0.1610
 7520SOL    HW134019   4.204   3.806   5.655  0.2857 -0.0723 -1.0957
 7520SOL    HW234020   4.094   3.870   5.724 -0.3653 -0.6964 -0.5646
 7521SOL     OW34021   0.298   2.703   8.856  0.0349 -0.3997 -0.1268
 7521SOL    HW134022   0.365   2.741   8.799 -0.0176  0.0404  0.1009
 7521SOL    HW234023   0.339   2.625   8.893 -1.8718 -0.2007  2.4287
 7522SOL     OW34024   2.000   1.102   4.552  0.2603 -0.3106 -0.0011
 7522SOL    HW134025   1.989   1.074   4.461  0.5863  1.7425 -0.6681
 7522SOL    HW234026   2.040   1.188   4.538  0.7562 -0.3035  1.5286
 7523SOL     OW34027   2.487   4.368   8.837 -0.4502 -0.6392 -0.3720
 7523SOL    HW134028   2.544   4.341   8.909  0.4230 -2.1655 -1.6126
 7523SOL    HW234029   2.452   4.281   8.816 -3.0901  0.2174  0.5402
 7524SOL     OW34030   1.677   4.252   0.246  0.2388 -0.2805  0.0853
 7524SOL    HW134031   1.595   4.282   0.285 -0.4180 -0.2128 -1.3446
 7524SOL    HW234032   1.658   4.275   0.155  0.2949  2.6105  0.8062
 7525SOL     OW34033   3.785   4.266   6.608  0.5042 -0.0522  0.2796
 7525SOL    HW134034   3.854   4.281   6.543 -0.2590  0.9415 -0.2957
 7525SOL    HW234035   3.736   4.210   6.548 -0.3540 -1.2352  2.0827
 7526SOL     OW34036   3.397   2.534   5.841  0.6036 -0.6485 -0.3010
 7526SOL    HW134037   3.452   2.478   5.895  0.6394  0.6698  1.0311
 7526SOL    HW234038   3.384   2.601   5.908 -1.7558 -2.4701  1.0823
 7527SOL     OW34039   4.077   2.254   4.926  0.1713  0.7104  0.0820
 7527SOL    HW134040   4.080   2.334   4.979  1.4152  1.8815 -1.7813
 7527SOL    HW234041   4.020   2.199   4.980 -0.2306 -0.9813 -2.0673
 7528SOL     OW34042   3.557   1.717   4.746  0.1390 -0.2860 -0.2631
 7528SOL    HW134043   3.597   1.705   4.660 -3.0271 -0.1090 -1.7436
 7528SOL    HW234044   3.556   1.627   4.780  0.0146  0.4905  1.7905
 7529SOL     OW34045   2.358   3.002  10.948  0.2350  0.6464  0.2326
 7529SOL    HW134046   2.266   2.981  10.929  1.1867 -1.0888 -2.4705
 7529SOL    HW234047   2.395   3.011  10.860 -0.9034  1.2986 -0.1802
 7530SOL     OW34048   1.518   3.487  13.247  0.0941  0.4166 -0.2072
 7530SOL    HW134049   1.503   3.417  13.183 -2.1904 -0.3231  1.1728
 7530SOL    HW234050   1.528   3.438  13.328  3.7216  0.5766 -0.5394
 7531SOL     OW34051   3.406   1.926  14.998  0.6215  0.2745 -0.1392
 7531SOL    HW134052   3.411   1.856  14.934 -0.4395  0.7076 -0.6849
 7531SOL    HW234053   3.501   1.936  15.013  0.7234 -1.4887  0.3700
 7532SOL     OW34054   4.449   3.461   4.277 -0.2408  0.4132 -0.0510
 7532SOL    HW134055   4.490   3.432   4.358 -0.0997 -0.0474 -0.2893
 7532SOL    HW234056   4.478   3.387   4.224  1.7797  1.7742 -0.8415
 7533SOL     OW34057   4.441   2.330   1.425 -0.2467 -0.4752  0.5033
 7533SOL    HW134058   4.473   2.246   1.393  0.8744 -0.0630  0.5495
 7533SOL    HW234059   4.520   2.381   1.411 -0.9486 -0.6523 -3.8693
 7534SOL     OW34060   3.822   1.962   3.034 -0.4603 -0.4735 -0.7044
 7534SOL    HW134061   3.777   1.932   2.955 -2.2962  0.6817 -0.1003
 7534SOL    HW234062   3.893   1.898   3.040  0.4700  0.7054  0.8425
 7535SOL     OW34063   3.559   2.735   2.593 -0.5070  0.1418 -0.5367
 7535SOL    HW134064   3.534   2.827   2.590  0.8723  0.4780 -2.1903
 7535SOL    HW234065   3.499   2.706   2.525 -0.7766  0.4111 -0.4134
 7536SOL     OW34066   2.797   4.647  15.531 -0.0105  0.2250  0.1395
 7536SOL    HW134067   2.872   4.622  15.478 -0.4596  0.6276 -0.6826
 7536SOL    HW234068   2.729   4.629  15.466  2.2165 -0.3328 -2.0053
 7537SOL     OW34069   1.881   3.405   1.702 -0.2617 -0.8620 -0.0032
 7537SOL    HW134070   1.883   3.414   1.607  2.5490 -0.6360  0.0779
 7537SOL    HW234071   1.966   3.438   1.729 -1.6828  1.8379  1.2313
 7538SOL     OW34072   2.822   1.171  16.302 -0.7876 -0.0036 -0.4355
 7538SOL    HW134073   2.820   1.161  16.207 -2.6689 -0.2408 -0.3733
 7538SOL    HW234074   2.733   1.144  16.322 -1.0537  1.7084  0.7299
 7539SOL     OW34075   0.774   3.938  10.030  0.3059  0.1842 -0.5513
 7539SOL    HW134076   0.688   3.904  10.052 -0.3501  1.6344 -0.8263
 7539SOL    HW234077   0.805   3.957  10.118 -0.8906 -1.9819  0.3358
 7540SOL     OW34078   1.617   1.232   8.490  0.0280 -0.4507  0.0028
 7540SOL    HW134079   1.633   1.317   8.447  1.2932 -0.3963  0.5776
 7540SOL    HW234080   1.601   1.173   8.417 -0.1115  1.5344 -1.5768
 7541SOL     OW34081   3.867   2.706   5.197  0.6439  0.2302  0.1267
 7541SOL    HW134082   3.899   2.796   5.207  0.7362 -0.1336  3.1367
 7541SOL    HW234083   3.858   2.680   5.289  1.6884  0.6623  0.3535
 7542SOL     OW34084   1.755   4.496  10.044 -0.2522 -0.0495 -0.3290
 7542SOL    HW134085   1.773   4.520   9.953  0.4204 -0.3654 -0.2764
 7542SOL    HW234086   1.661   4.476  10.048 -0.6480  1.6358 -1.1902
 7543SOL     OW34087   4.476   0.683   9.212 -0.1405  0.2133  0.2738
 7543SOL    HW134088   4.474   0.647   9.301 -1.6058  0.0699  0.1772
 7543SOL    HW234089   4.525   0.619   9.160 -0.5580 -0.4657  0.7126
 7544SOL     OW34090   1.853   1.569   4.620  0.1632  0.3013 -0.4567
 7544SOL    HW134091   1.896   1.594   4.702 -0.1806  0.2430 -0.2600
 7544SOL    HW234092   1.843   1.656   4.581 -0.5831 -0.2500 -1.4868
 7545SOL     OW34093   4.476   1.519   2.716  0.2376  0.5814 -0.3007
 7545SOL    HW134094   4.394   1.498   2.762  1.0428 -0.3274  0.7169
 7545SOL    HW234095   4.544   1.487   2.775  0.2648  1.2875  0.0582
 7546SOL     OW34096   2.441   4.178  13.726  0.2580  0.0430 -0.1065
 7546SOL    HW134097   2.452   4.271  13.746 -2.9612  0.7881 -1.8847
 7546SOL    HW234098   2.366   4.152  13.780  1.2015 -2.2120  0.1281
 7547SOL     OW34099   4.043   4.452   3.190 -0.2204  0.0079 -0.4677
 7547SOL    HW134100   4.083   4.401   3.119  1.2466 -1.5902  1.4947
 7547SOL    HW234101   4.052   4.399   3.269  0.5286 -2.2103 -2.0346
 7548SOL     OW34102   4.407   2.551  13.596  0.0852 -0.3234  0.0407
 7548SOL    HW134103   4.462   2.595  13.531 -0.1820 -0.0542 -0.0046
 7548SOL    HW234104   4.323   2.565  13.554 -0.6583  0.6232  1.8288
 7549SOL     OW34105   3.744   0.407   8.321 -0.0828 -0.2489 -0.0463
 7549SOL    HW134106   3.832   0.425   8.354 -1.5078  2.1040  2.4186
 7549SOL    HW234107   3.694   0.428   8.399 -1.6313  0.6713 -1.3013
 7550SOL     OW34108   4.152   4.124   0.282  0.0058  0.5187 -0.1758
 7550SOL    HW134109   4.084   4.090   0.341  2.2046 -1.4603  1.1915
 7550SOL    HW234110   4.105   4.143   0.201 -3.1392 -0.8573  1.2981
 7551SOL     OW34111   1.757   0.432   3.515 -0.0339  0.1052 -0.0508
 7551SOL    HW134112   1.730   0.509   3.565 -0.2350 -0.8554  1.3133
 7551SOL    HW234113   1.838   0.472   3.483  0.5578 -0.9357  0.1427
 7552SOL     OW34114   1.789   4.652   7.521  0.2012  0.4975 -0.0106
 7552SOL    HW134115   1.863   4.623   7.575  0.3240  1.6663  0.4354
 7552SOL    HW234116   1.755   4.573   7.479 -1.0729  1.2305 -0.3436
 7553SOL     OW34117   1.453   1.160   6.027  0.5510  0.6850  0.3364
 7553SOL    HW134118   1.474   1.109   5.949 -0.5440 -0.7654  0.9947
 7553SOL    HW234119   1.506   1.111   6.089 -0.2280  1.1685  1.3814
 7554SOL     OW34120   2.160   3.660   8.182 -0.2021 -0.2671 -0.2464
 7554SOL    HW134121   2.246   3.620   8.194  0.1117  0.9249  1.4234
 7554SOL    HW234122   2.106   3.623   8.252  1.6502  0.8535  1.7685
 7555SOL     OW34123   4.093   1.523  17.210  0.3123  0.0963  0.2008
 7555SOL    HW134124   4.185   1.539  17.190  0.1124  2.1376  0.9272
 7555SOL    HW234125   4.046   1.544  17.129 -2.8600 -1.8887  1.5151
 7556SOL     OW34126   3.283   3.824  15.123  0.0767 -0.5812  0.2130
 7556SOL    HW134127   3.268   3.746  15.071  1.0426 -0.7548  0.1854
 7556SOL    HW234128   3.235   3.802  15.203  0.1361  0.0325  0.4214
 7557SOL     OW34129   2.173   1.815   6.768 -0.1374  0.0949  0.3683
 7557SOL    HW134130   2.151   1.888   6.826 -0.9839  0.2657 -0.1639
 7557SOL    HW234131   2.262   1.800   6.800  1.0729  0.4705 -2.8416
 7558SOL     OW34132   2.458   0.921   2.807  0.1291 -0.6598  0.8259
 7558SOL    HW134133   2.486   0.838   2.846 -1.5964 -1.1988  0.9314
 7558SOL    HW234134   2.499   0.929   2.721 -0.0332 -0.9965  0.7144
 7559SOL     OW34135   3.989   3.271   3.967 -0.0198  0.8243 -0.2838
 7559SOL    HW134136   4.023   3.313   3.888  1.1204 -1.1935 -0.8577
 7559SOL    HW234137   3.907   3.236   3.933  0.2213  0.8181 -0.8737
 7560SOL     OW34138   0.328   3.533  17.333  0.1356  0.1447 -0.0550
 7560SOL    HW134139   0.277   3.471  17.385 -1.1667  0.3000 -1.1681
 7560SOL    HW234140   0.386   3.484  17.274  1.2884  0.3111  0.9438
 7561SOL     OW34141   1.653   2.188  14.335 -0.8406 -0.3505  0.1760
 7561SOL    HW134142   1.678   2.110  14.286  1.1226  0.2780  0.1854
 7561SOL    HW234143   1.597   2.147  14.401  0.0235  1.6398  2.1201
 7562SOL     OW34144   0.881   3.348   5.273  0.1180 -0.0364  0.1442
 7562SOL    HW134145   0.888   3.255   5.293  1.0100  0.1048  0.5121
 7562SOL    HW234146   0.874   3.385   5.361  1.4665  1.0088 -0.1948
 7563SOL     OW34147   3.556   2.312  13.956  0.9345 -0.0478 -0.6389
 7563SOL    HW134148   3.644   2.333  13.990  0.0007  0.8648  1.2432
 7563SOL    HW234149   3.558   2.223  13.991  3.9777 -0.1183 -0.9822
 7564SOL     OW34150   3.368   2.796   3.016  0.0611  0.2299 -0.0129
 7564SOL    HW134151   3.420   2.771   2.940  1.0962  0.3250  0.6679
 7564SOL    HW234152   3.437   2.824   3.076  1.1702 -0.1757 -1.0956
 7565SOL     OW34153   3.717   4.474   5.693  0.6004 -0.0115  0.1350
 7565SOL    HW134154   3.670   4.513   5.767  0.1555  1.2439 -0.8122
 7565SOL    HW234155   3.678   4.386   5.690  1.8417 -0.4396 -2.8902
 7566SOL     OW34156   0.309   2.999  14.674 -0.1205  0.0406 -0.1068
 7566SOL    HW134157   0.230   2.955  14.705 -0.9710  1.0963 -0.7508
 7566SOL    HW234158   0.335   2.946  14.599  2.0628  0.5412  0.2889
 7567SOL     OW34159   1.161   2.246  14.927 -0.0771  0.4758  0.1305
 7567SOL    HW134160   1.205   2.161  14.917 -1.8619 -0.9699  4.4441
 7567SOL    HW234161   1.073   2.226  14.894  0.3468  0.5599 -1.0652
 7568SOL     OW34162   2.516   1.657   3.604  0.0858 -0.5274  0.2860
 7568SOL    HW134163   2.556   1.662   3.690  1.9864  0.4934 -0.6673
 7568SOL    HW234164   2.553   1.738   3.567  0.1268 -0.9838 -0.6728
 7569SOL     OW34165   2.844   3.799   9.181 -0.2074  0.0631 -0.0725
 7569SOL    HW134166   2.904   3.855   9.231 -1.4864 -0.8908  2.5337
 7569SOL    HW234167   2.775   3.864   9.169 -0.9433 -0.2150  2.7029
 7570SOL     OW34168   0.315   4.097   9.339 -0.5713 -0.0184  0.7168
 7570SOL    HW134169   0.270   4.174   9.305  0.4451  0.6117  0.8271
 7570SOL    HW234170   0.330   4.052   9.256  0.2355  2.8173 -0.6749
 7571SOL     OW34171   2.759   3.927  14.921 -0.0554 -0.4774  0.5285
 7571SOL    HW134172   2.730   3.987  14.990 -2.2959 -0.3316 -0.5442
 7571SOL    HW234173   2.743   3.978  14.842  1.0115  1.8266  1.8006
 7572SOL     OW34174   4.675   2.439  14.422 -0.1911  0.4520  0.4392
 7572SOL    HW134175   0.035   2.393  14.447  1.4663  3.3031  0.2591
 7572SOL    HW234176   4.709   2.517  14.378 -0.1921 -0.3696 -1.0238
 7573SOL     OW34177   4.093   1.405   9.214  0.5023 -0.3366  0.0917
 7573SOL    HW134178   4.099   1.381   9.306 -1.6265  2.1947  0.8971
 7573SOL    HW234179   4.071   1.319   9.178 -1.2456  0.0312  0.3029
 7574SOL     OW34180   1.467   0.261   5.683 -0.2105 -0.0444  0.0925
 7574SOL    HW134181   1.375   0.247   5.706 -0.5931  0.1700 -1.3005
 7574SOL    HW234182   1.513   0.205   5.746 -1.9605 -2.0436 -0.4025
 7575SOL     OW34183   3.250   1.045   4.318  0.1541 -0.2839 -0.7805
 7575SOL    HW134184   3.182   1.046   4.385  0.3060 -1.9008 -0.5924
 7575SOL    HW234185   3.193   1.050   4.242 -1.0320 -0.5187  0.0924
 7576SOL     OW34186   2.590   3.956   5.095 -0.1293 -0.1663 -0.2869
 7576SOL    HW134187   2.525   4.011   5.051 -0.3326 -0.1859 -0.0087
 7576SOL    HW234188   2.537   3.912   5.162  1.9074  0.9295  2.0462
 7577SOL     OW34189   1.043   4.524   5.449 -0.0928 -0.4367 -0.0459
 7577SOL    HW134190   1.137   4.507   5.451 -0.3209 -1.5325  1.1808
 7577SOL    HW234191   1.008   4.479   5.526 -1.9415  1.5760  0.2814
 7578SOL     OW34192   2.171   1.197   6.637 -0.0693  0.4994 -0.0445
 7578SOL    HW134193   2.150   1.106   6.654  0.3564  0.8413  2.3889
 7578SOL    HW234194   2.082   1.231   6.632 -0.3430 -0.2700 -0.2958
 7579SOL     OW34195   1.306   4.555  12.923  0.4032  0.2113  0.1245
 7579SOL    HW134196   1.386   4.542  12.872  0.3318  2.6754 -0.5767
 7579SOL    HW234197   1.331   4.510  13.004  0.2888 -0.6015 -0.2850
 7580SOL     OW34198   4.641   4.250  16.126 -0.7182 -0.7411  0.4474
 7580SOL    HW134199   4.582   4.293  16.064 -0.0345 -0.9725 -0.3628
 7580SOL    HW234200   4.600   4.279  16.208 -2.3965  1.3540 -1.1098
 7581SOL     OW34201   0.408   0.164   6.243  0.1204  0.6307  0.5011
 7581SOL    HW134202   0.377   0.079   6.213 -1.2111  0.9431  0.9909
 7581SOL    HW234203   0.337   0.219   6.211 -0.5677 -0.7360 -0.2882
 7582SOL     OW34204   4.534   2.091   1.349  0.2138  0.6017 -0.1676
 7582SOL    HW134205   4.495   2.066   1.265  1.2242 -0.7332 -0.2537
 7582SOL    HW234206   4.510   2.013   1.399 -2.1407  1.3295 -0.1837
 7583SOL     OW34207   1.341   2.568   0.872  0.3474  0.2021 -0.8389
 7583SOL    HW134208   1.433   2.580   0.896  0.0245  0.0675  0.4333
 7583SOL    HW234209   1.334   2.624   0.795  3.0820 -0.2599 -1.4225
 7584SOL     OW34210   2.365   2.573   5.992 -0.2472 -0.1458 -0.1316
 7584SOL    HW134211   2.374   2.487   5.951  4.8408  0.2903  0.1879
 7584SOL    HW234212   2.341   2.559   6.084 -2.6267  0.4646 -0.6508
 7585SOL     OW34213   2.053   0.886   8.104 -0.2654 -0.1201 -0.0428
 7585SOL    HW134214   2.035   0.794   8.086  2.0362 -0.5764 -0.1350
 7585SOL    HW234215   2.005   0.895   8.187 -1.6615  2.1808 -1.1086
 7586SOL     OW34216   1.933   0.700  11.482 -0.3382  0.4286  0.2512
 7586SOL    HW134217   1.956   0.733  11.569 -2.9342  0.2396  1.0164
 7586SOL    HW234218   1.860   0.756  11.457 -1.7569 -1.3022  0.5154
 7587SOL     OW34219   1.405   0.081   3.767  0.0004  0.1905  0.2848
 7587SOL    HW134220   1.448   0.150   3.817  2.8339 -2.6759  1.8045
 7587SOL    HW234221   1.315   0.104   3.790 -0.4393 -1.1179 -0.1136
 7588SOL     OW34222   1.240   2.187   8.925  0.2453 -0.4739 -0.2030
 7588SOL    HW134223   1.270   2.275   8.901  0.9334 -0.4075  0.9333
 7588SOL    HW234224   1.147   2.208   8.937 -0.4263 -2.9945 -1.0569
 7589SOL     OW34225   0.161   2.978   6.783 -0.0721  0.0386 -0.3900
 7589SOL    HW134226   0.191   3.026   6.861 -0.7999 -1.3703  0.7536
 7589SOL    HW234227   0.198   3.026   6.708  0.4150 -3.2269 -2.2228
 7590SOL     OW34228   1.975   1.532  14.823  0.0520  0.6198  0.0254
 7590SOL    HW134229   1.918   1.557  14.895 -0.7470  1.5235 -0.9172
 7590SOL    HW234230   1.967   1.437  14.832 -1.6896  0.7746  0.1979
 7591SOL     OW34231   0.798   4.444  12.079 -0.2772  0.0473 -0.0214
 7591SOL    HW134232   0.867   4.494  12.036 -1.2478  0.7423 -0.7555
 7591SOL    HW234233   0.811   4.359  12.038 -2.0073 -0.2245 -0.0191
 7592SOL     OW34234   4.512   3.465   7.835 -0.1529  0.0183  0.3123
 7592SOL    HW134235   4.574   3.519   7.788 -1.1215  0.4534 -0.4520
 7592SOL    HW234236   4.509   3.384   7.784  0.7978  0.8991 -1.1387
 7593SOL     OW34237   3.367   3.996   9.977 -0.2348  0.5168  0.0845
 7593SOL    HW134238   3.307   3.989  10.051  0.4662 -0.2934  0.5742
 7593SOL    HW234239   3.417   4.074   9.999  1.5101 -0.7445  0.6131
 7594SOL     OW34240   0.477   3.204   7.278 -0.1778 -0.2296 -0.1825
 7594SOL    HW134241   0.499   3.233   7.189  1.8593 -1.6556 -0.1511
 7594SOL    HW234242   0.391   3.239   7.299 -0.0891 -0.3316  0.3356
 7595SOL     OW34243   1.638   4.063   4.025  0.0201  0.2718 -0.4956
 7595SOL    HW134244   1.623   4.061   4.120 -0.1226  1.7381 -0.4821
 7595SOL    HW234245   1.640   3.970   4.002  0.7702 -0.0970  1.0912
 7596SOL     OW34246   2.827   0.706   3.725  0.2146 -0.6413  0.0351
 7596SOL    HW134247   2.746   0.654   3.726  0.1039 -0.4863 -0.8685
 7596SOL    HW234248   2.837   0.702   3.630 -0.5959  0.5084 -0.1040
 7597SOL     OW34249   3.127   2.616   4.787  0.2772 -0.6217  0.1203
 7597SOL    HW134250   3.161   2.680   4.724  1.9485 -0.2254  1.4161
 7597SOL    HW234251   3.201   2.604   4.847  0.1177  1.2563  0.6733
 7598SOL     OW34252   4.449   0.447  12.029 -0.1531  0.6343 -0.3790
 7598SOL    HW134253   4.515   0.455  11.960 -0.5161  0.1157 -0.7834
 7598SOL    HW234254   4.487   0.498  12.100 -2.3698  2.7669 -0.7351
 7599SOL     OW34255   4.329   3.242   6.745  0.2835  0.2828  0.0922
 7599SOL    HW134256   4.289   3.162   6.777 -1.1227  0.5049 -1.1333
 7599SOL    HW234257   4.399   3.205   6.690 -1.5591 -3.8022  0.5520
 7600SOL     OW34258   0.845   0.728   3.718  0.2479 -0.2525  0.0251
 7600SOL    HW134259   0.839   0.761   3.807  0.7978  2.5094 -0.9606
 7600SOL    HW234260   0.774   0.778   3.678  0.7733  0.2922 -0.2237
 7601SOL     OW34261   3.647   3.502   5.328 -0.0727  0.6236 -0.0464
 7601SOL    HW134262   3.573   3.540   5.280  1.3258  1.6909 -1.3476
 7601SOL    HW234263   3.708   3.576   5.325 -0.2129  0.7749  0.7906
 7602SOL     OW34264   0.251   2.647  10.481  0.1171  0.6189 -0.3783
 7602SOL    HW134265   0.297   2.616  10.559  1.4592  0.8689 -1.0620
 7602SOL    HW234266   0.293   2.733  10.468  0.4703  0.7424  1.5993
 7603SOL     OW34267   0.767   2.336   5.678 -0.1305 -0.2292 -0.2088
 7603SOL    HW134268   0.702   2.308   5.612 -1.6238  0.3690  1.0215
 7603SOL    HW234269   0.728   2.417   5.710  1.5264  1.9049 -3.5201
 7604SOL     OW34270   3.435   4.403  16.014  0.2075 -0.1046 -0.0881
 7604SOL    HW134271   3.522   4.377  15.982  0.3525  0.6988 -0.3471
 7604SOL    HW234272   3.448   4.497  16.024 -0.7298 -0.1389  1.4052
 7605SOL     OW34273   0.305   3.178  11.544 -0.2744  0.3651  0.2649
 7605SOL    HW134274   0.387   3.204  11.502  0.8081 -0.2313  1.9797
 7605SOL    HW234275   0.273   3.268  11.535  0.0148  0.6928  2.4548
 7606SOL     OW34276   1.832   3.743   3.499  0.2342  0.0340 -0.3556
 7606SOL    HW134277   1.885   3.823   3.495 -1.8862  1.4184 -0.2661
 7606SOL    HW234278   1.750   3.771   3.539 -0.6754 -0.6589 -1.7576
 7607SOL     OW34279   3.844   0.957   3.770 -0.3988  0.0412  0.1206
 7607SOL    HW134280   3.811   0.908   3.846  0.4795 -2.4214 -1.0985
 7607SOL    HW234281   3.869   0.891   3.705  0.0905  0.3419  0.0095
 7608SOL     OW34282   4.554   3.265   3.826 -0.0035 -0.2942 -0.1489
 7608SOL    HW134283   4.530   3.242   3.736  0.6069  1.2879 -0.7125
 7608SOL    HW234284   4.567   3.180   3.868 -1.5926 -0.8086 -0.6866
 7609SOL     OW34285   1.924   2.543  14.223 -0.1672  0.4489  0.1879
 7609SOL    HW134286   1.860   2.474  14.204 -0.1336  0.6624 -0.6874
 7609SOL    HW234287   1.870   2.618  14.199  1.3693  2.2242  2.2677
 7610SOL     OW34288   0.081   1.726   5.981  0.1590 -0.0857  0.2393
 7610SOL    HW134289   0.103   1.633   5.977  1.9624  0.4343 -1.9290
 7610SOL    HW234290   0.030   1.722   6.061 -1.0914 -0.6259 -0.5851
 7611SOL     OW34291   2.192   3.858   6.335  0.3228 -0.1024  0.1949
 7611SOL    HW134292   2.225   3.926   6.275 -1.9733  0.5962 -0.2900
 7611SOL    HW234293   2.157   3.909   6.408 -0.7674  0.3766 -0.6617
 7612SOL     OW34294   1.952   1.198   7.142  0.6323  0.1522 -0.8682
 7612SOL    HW134295   1.898   1.246   7.206 -0.7989 -2.9761  0.2772
 7612SOL    HW234296   1.983   1.126   7.197  1.3198 -0.1176 -1.6206
 7613SOL     OW34297   1.671   1.351   1.088  0.1341 -0.2575 -0.2093
 7613SOL    HW134298   1.646   1.385   1.174  0.5334 -0.7010  0.0810
 7613SOL    HW234299   1.729   1.279   1.116 -0.4446 -1.1077 -1.2082
 7614SOL     OW34300   3.226   1.656  15.938  0.3382 -0.1929  0.1382
 7614SOL    HW134301   3.294   1.610  15.888  0.1215  1.3274 -1.5519
 7614SOL    HW234302   3.156   1.591  15.931  0.3003 -0.0698 -0.6445
 7615SOL     OW34303   2.311   0.854   8.289  0.6258  0.2576  0.3480
 7615SOL    HW134304   2.227   0.871   8.246  0.7870 -1.7902 -0.7817
 7615SOL    HW234305   2.288   0.771   8.330  3.9943 -0.8218  0.0317
 7616SOL     OW34306   2.095   1.806   0.894  0.3709 -0.4635  0.3309
 7616SOL    HW134307   2.170   1.784   0.839  1.1000 -0.7629  1.4493
 7616SOL    HW234308   2.131   1.876   0.948 -0.6393  0.9015 -0.7643
 7617SOL     OW34309   3.731   3.571   8.413  0.2462  0.2099 -0.0800
 7617SOL    HW134310   3.717   3.662   8.388 -2.2671 -0.8682 -2.5791
 7617SOL    HW234311   3.823   3.567   8.439  0.0558  2.8974  0.9995
 7618SOL     OW34312   0.777   2.827   7.565  0.2405 -0.3493 -0.1179
 7618SOL    HW134313   0.802   2.800   7.653  2.3751  0.9617 -0.3160
 7618SOL    HW234314   0.859   2.820   7.516 -1.6416  3.0925 -3.8183
 7619SOL     OW34315   4.293   0.028  16.460 -0.1151 -0.2832  0.3043
 7619SOL    HW134316   4.215   0.051  16.409  2.0373  2.0036 -1.9532
 7619SOL    HW234317   4.325   4.671  16.416  2.2331  1.9635 -1.9700
 7620SOL     OW34318   4.274   3.163   4.271  0.5809  0.6356 -0.5440
 7620SOL    HW134319   4.364   3.129   4.266  0.7856  1.3612 -1.8285
 7620SOL    HW234320   4.274   3.210   4.188 -1.1750  0.1028 -0.8323
 7621SOL     OW34321   2.764   3.920   7.498  0.0813  0.2007  0.1493
 7621SOL    HW134322   2.693   3.872   7.455 -0.8273  0.9933  0.7519
 7621SOL    HW234323   2.821   3.948   7.427 -0.1359  4.3625  1.6218
 7622SOL     OW34324   0.216   0.890   7.810  0.5953  0.2178  0.5033
 7622SOL    HW134325   0.189   0.943   7.735 -0.5946  0.4728  1.1130
 7622SOL    HW234326   0.248   0.809   7.770  3.3956  1.6930 -0.2223
 7623SOL     OW34327   1.031   1.179  17.082  0.4063 -0.2473  0.2389
 7623SOL    HW134328   1.037   1.273  17.100 -1.0627  0.0826 -1.0256
 7623SOL    HW234329   1.123   1.162  17.061 -0.1289 -0.5521 -1.8730
 7624SOL     OW34330   0.886   1.627   1.689  0.6633 -0.0664 -0.2407
 7624SOL    HW134331   0.892   1.637   1.594 -1.5811  0.5944 -0.3296
 7624SOL    HW234332   0.842   1.706   1.721  1.0305 -0.2779  0.7752
 7625SOL     OW34333   2.649   4.596   1.942 -0.1599  0.2614 -0.0559
 7625SOL    HW134334   2.714   4.525   1.947 -1.8722 -1.3489 -0.5462
 7625SOL    HW234335   2.608   4.601   2.029 -0.2396  0.7914 -0.1250
 7626SOL     OW34336   4.590   3.347  16.880 -0.2157  0.1116 -0.1675
 7626SOL    HW134337   4.602   3.301  16.964 -4.6274 -1.6833 -0.5348
 7626SOL    HW234338   4.679   3.332  16.847 -1.5743 -2.5748 -2.6104
 7627SOL     OW34339   2.950   2.627   5.622 -0.8642 -1.1691  0.0202
 7627SOL    HW134340   2.948   2.551   5.681  1.7734 -0.5566  0.8814
 7627SOL    HW234341   2.859   2.657   5.621 -1.2110 -2.2994 -1.8122
 7628SOL     OW34342   0.569   4.020   7.569 -0.1548 -0.5236  0.1340
 7628SOL    HW134343   0.492   4.055   7.523 -1.1594 -0.4389  1.8827
 7628SOL    HW234344   0.542   3.935   7.603  1.7631 -0.1803  2.4819
 7629SOL     OW34345   2.376   2.898   9.331  0.2637  0.2090 -0.3128
 7629SOL    HW134346   2.455   2.925   9.284  0.5152  0.4492  0.2468
 7629SOL    HW234347   2.352   2.833   9.265 -1.0410 -0.7975  1.1939
 7630SOL     OW34348   3.666   3.464   9.236 -0.3692  0.3180 -0.0120
 7630SOL    HW134349   3.648   3.371   9.223 -0.4709  0.1942  0.9958
 7630SOL    HW234350   3.722   3.489   9.162 -0.7521  3.7108  0.8589
 7631SOL     OW34351   4.174   3.855   2.721 -0.1341 -0.3307  0.3521
 7631SOL    HW134352   4.215   3.907   2.652  2.3065 -1.4122  0.9747
 7631SOL    HW234353   4.101   3.817   2.673 -0.5014 -0.6252  1.1331
 7632SOL     OW34354   0.308   4.453   2.890 -0.2388  0.4210  0.0141
 7632SOL    HW134355   0.276   4.514   2.824  2.1086  0.0080 -1.4761
 7632SOL    HW234356   0.329   4.372   2.844  2.5192  1.0808  0.1269
 7633SOL     OW34357   0.569   1.353   4.793  0.2251  0.0360  0.0677
 7633SOL    HW134358   0.625   1.289   4.839 -2.1856  0.5296  3.6147
 7633SOL    HW234359   0.484   1.309   4.796  0.3925 -0.2205  1.1282
 7634SOL     OW34360   2.212   2.759   8.032 -0.1919 -0.0353 -0.0277
 7634SOL    HW134361   2.266   2.807   8.094 -0.7105  0.1152  0.3055
 7634SOL    HW234362   2.234   2.672   8.063 -2.8815 -0.3632  0.9751
 7635SOL     OW34363   2.230   1.489   1.528  0.3640 -0.0670 -0.1454
 7635SOL    HW134364   2.173   1.566   1.521 -1.2896 -1.2139  0.8805
 7635SOL    HW234365   2.211   1.476   1.620  1.5933  0.3519  0.1714
 7636SOL     OW34366   2.850   4.435  16.497  0.0540  0.5063  0.5737
 7636SOL    HW134367   2.781   4.377  16.464  0.2330 -0.2588  1.5256
 7636SOL    HW234368   2.842   4.510  16.439  0.6736  0.7758  0.8319
 7637SOL     OW34369   1.618   0.117  12.944 -0.4447 -0.6031  0.1949
 7637SOL    HW134370   1.705   0.092  12.974  1.7626  3.3179 -2.8714
 7637SOL    HW234371   1.560   0.065  13.000 -0.8045 -0.4856 -0.0654
 7638SOL     OW34372   1.664   4.054   0.474  0.8861  0.1616  0.0553
 7638SOL    HW134373   1.729   3.999   0.430  0.8116  0.9422 -1.0268
 7638SOL    HW234374   1.710   4.124   0.520 -0.3479 -0.0524  1.5910
 7639SOL     OW34375   0.842   4.616   5.759  0.0425  0.2802 -0.1904
 7639SOL    HW134376   0.852   4.626   5.854 -0.6801 -3.2621  0.2696
 7639SOL    HW234377   0.929   4.596   5.724 -0.0167 -0.1730 -0.0832
 7640SOL     OW34378   2.064   0.272   0.355  0.1217 -0.4510  0.0212
 7640SOL    HW134379   2.004   0.327   0.305 -0.7386 -0.4695  1.0120
 7640SOL    HW234380   2.148   0.309   0.328 -0.1163 -0.3863 -0.6109
 7641SOL     OW34381   2.296   3.670   3.903 -0.1724  0.7357 -0.1607
 7641SOL    HW134382   2.334   3.723   3.833 -0.6929  3.7683  1.8322
 7641SOL    HW234383   2.260   3.594   3.857  0.7130 -0.4779  1.1481
 7642SOL     OW34384   2.152   3.247  16.502  0.1612 -0.1719  0.5153
 7642SOL    HW134385   2.214   3.208  16.440 -1.0325 -0.3323 -0.5605
 7642SOL    HW234386   2.112   3.319  16.454 -0.4392 -0.7077  0.2145
 7643SOL     OW34387   3.913   1.654  13.073  0.4340  0.2235 -0.4135
 7643SOL    HW134388   3.935   1.604  13.151 -2.2331 -2.2289 -1.2152
 7643SOL    HW234389   3.936   1.587  13.009 -2.4188  0.4908 -1.7230
 7644SOL     OW34390   4.334   0.994  11.044  0.5486 -0.1747 -0.5209
 7644SOL    HW134391   4.326   1.082  11.082 -1.0699 -0.2038 -0.7864
 7644SOL    HW234392   4.351   0.942  11.122  1.5689 -0.3368 -0.8592
 7645SOL     OW34393   1.015   2.922   2.568  0.0376  0.3481  0.2430
 7645SOL    HW134394   0.976   2.853   2.622 -2.2835 -0.0451 -1.9368
 7645SOL    HW234395   1.007   3.004   2.617  0.7097  0.0719  0.8078
 7646SOL     OW34396   3.464   2.634   2.370  0.2448 -0.0776  0.2604
 7646SOL    HW134397   3.387   2.591   2.408 -0.2074  1.0287  0.5973
 7646SOL    HW234398   3.511   2.565   2.325  3.8975  1.4898  1.6909
 7647SOL     OW34399   0.448   0.647   4.246 -0.3712 -0.6465  0.3889
 7647SOL    HW134400   0.532   0.637   4.290  1.0042 -0.3216 -2.1961
 7647SOL    HW234401   0.470   0.594   4.170  0.8587 -0.8367  0.8727
 7648SOL     OW34402   4.633   3.279  15.088 -0.3065 -0.0748 -0.0292
 7648SOL    HW134403   4.632   3.264  15.183 -0.0826  0.0779 -0.0017
 7648SOL    HW234404   4.671   3.367  15.089  0.5589 -0.4511 -0.0897
 7649SOL     OW34405   1.241   0.839  11.142  0.0272  0.5664  0.2362
 7649SOL    HW134406   1.283   0.786  11.074 -2.4105 -1.9702  0.7163
 7649SOL    HW234407   1.234   0.786  11.221  0.1065  1.0509  0.5641
 7650SOL     OW34408   2.633   4.473   8.160 -0.0354  0.1568 -0.5509
 7650SOL    HW134409   2.617   4.487   8.254 -1.0744 -0.0116 -0.6940
 7650SOL    HW234410   2.592   4.550   8.120  0.2656  0.3780 -0.4279
 7651SOL     OW34411   0.847   1.508   2.163  0.1089 -0.3239  0.0829
 7651SOL    HW134412   0.919   1.570   2.178  2.0176 -2.3983 -0.5011
 7651SOL    HW234413   0.835   1.518   2.069 -0.5848  0.7857  0.2815
 7652SOL     OW34414   4.576   4.544  14.376  0.3114  0.2995 -0.2915
 7652SOL    HW134415   4.659   4.573  14.337  0.7193  0.5488  0.7644
 7652SOL    HW234416   4.605   4.509  14.461  1.0058  0.2401 -0.5539
 7653SOL     OW34417   1.235   3.572   6.629  0.5591  0.4778  0.0290
 7653SOL    HW134418   1.202   3.484   6.645  0.8388  0.0442 -1.7301
 7653SOL    HW234419   1.288   3.583   6.708 -2.8705  0.8313  2.2882
 7654SOL     OW34420   0.229   3.932   7.992 -0.7589 -0.2178 -0.1339
 7654SOL    HW134421   0.161   3.959   8.054 -1.7173  2.1579 -2.2178
 7654SOL    HW234422   0.203   3.990   7.921 -1.0542  0.4774  0.5446
 7655SOL     OW34423   2.844   3.774   2.678  0.0041 -0.2015  0.0813
 7655SOL    HW134424   2.882   3.750   2.593 -1.2070 -3.9877  0.5859
 7655SOL    HW234425   2.891   3.707   2.729  1.9359  0.9532 -0.1763
 7656SOL     OW34426   3.925   4.375   6.009 -0.1145 -0.2500 -0.7142
 7656SOL    HW134427   3.914   4.352   6.102  0.7342 -2.6915 -1.2181
 7656SOL    HW234428   3.925   4.470   6.023 -2.1564 -0.4036  0.2825
 7657SOL     OW34429   2.260   2.930   3.580 -0.0970 -0.0852 -0.3123
 7657SOL    HW134430   2.213   2.981   3.514  0.3870  3.3432  2.0218
 7657SOL    HW234431   2.350   2.950   3.555 -0.0660 -0.8476 -0.8309
 7658SOL     OW34432   0.189   2.241   2.532 -0.4191 -0.2267 -0.2676
 7658SOL    HW134433   0.155   2.319   2.575 -0.3731 -0.2475 -0.1936
 7658SOL    HW234434   0.116   2.180   2.522  2.4433 -3.6844 -0.2729
 7659SOL     OW34435   1.326   1.404   4.465 -0.4146  0.4683 -0.3540
 7659SOL    HW134436   1.358   1.430   4.551 -1.7376 -0.0717  0.3025
 7659SOL    HW234437   1.405   1.419   4.413 -0.4481  1.8751  0.0030
 7660SOL     OW34438   3.312   3.721   8.828 -0.0542 -0.4557  0.3703
 7660SOL    HW134439   3.358   3.672   8.760 -0.4146 -0.3387  0.0461
 7660SOL    HW234440   3.299   3.650   8.890 -0.3337  0.2056  1.0701
 7661SOL     OW34441   3.191   1.193   7.327  0.2076  0.1757  0.1117
 7661SOL    HW134442   3.133   1.245   7.383 -0.2272  0.9678 -1.0811
 7661SOL    HW234443   3.199   1.241   7.245  3.0060  0.1101  0.3641
 7662SOL     OW34444   3.340   3.516  12.486  0.8150 -0.1856 -0.0263
 7662SOL    HW134445   3.378   3.602  12.505  1.6548 -0.0604 -2.1919
 7662SOL    HW234446   3.363   3.469  12.566  1.6185  1.3034  0.6143
 7663SOL     OW34447   4.328   1.167   3.054 -0.2674 -0.2062  0.2371
 7663SOL    HW134448   4.326   1.094   3.117 -1.7182 -0.1305  0.2911
 7663SOL    HW234449   4.406   1.210   3.087 -1.4839  1.5071  0.8832
 7664SOL     OW34450   3.494   2.193   3.521  0.4460 -0.3297 -0.1537
 7664SOL    HW134451   3.534   2.111   3.493 -1.2234 -1.5073  0.9379
 7664SOL    HW234452   3.405   2.180   3.489  0.2708 -0.6262  0.4569
 7665SOL     OW34453   0.126   4.267  15.950  0.0038  0.1164 -0.6693
 7665SOL    HW134454   0.177   4.203  15.999  1.0880  1.3025 -0.2505
 7665SOL    HW234455   0.066   4.305  16.015  0.4385 -1.0927  0.4393
 7666SOL     OW34456   2.560   4.489   3.252  0.1209  0.2138 -0.1349
 7666SOL    HW134457   2.502   4.503   3.177  0.1883  1.5172  0.0403
 7666SOL    HW234458   2.591   4.577   3.275  0.0426 -0.8022  3.7877
 7667SOL     OW34459   2.870   4.623  16.084 -0.0273 -0.3454 -0.7933
 7667SOL    HW134460   2.953   4.577  16.078 -0.6464 -1.5544 -0.0227
 7667SOL    HW234461   2.866   4.640  15.990  0.4965  1.0280 -0.5579
 7668SOL     OW34462   3.875   0.382   7.728  0.0668 -0.1635  0.0358
 7668SOL    HW134463   3.813   0.419   7.790 -0.3945 -1.1288  0.1537
 7668SOL    HW234464   3.823   0.312   7.688 -1.8255  2.2538 -1.7296
 7669SOL     OW34465   4.559   1.278  11.677  0.3699  0.6524  0.2951
 7669SOL    HW134466   4.480   1.244  11.718 -0.0936 -0.3590 -1.4238
 7669SOL    HW234467   4.592   1.338  11.743  2.3070 -0.2298  0.1501
 7670SOL     OW34468   3.019   2.789   3.678  0.0087 -0.0496 -0.1140
 7670SOL    HW134469   3.029   2.704   3.636 -0.1426 -1.1852  2.1342
 7670SOL    HW234470   3.112   2.805   3.693  0.0338 -0.4939  0.2210
 7671SOL     OW34471   1.862   3.345   2.308  0.1370 -0.1370 -0.6616
 7671SOL    HW134472   1.956   3.359   2.320  0.1167 -1.2799  0.8973
 7671SOL    HW234473   1.851   3.250   2.306  0.7640 -0.2601  1.0902
 7672SOL     OW34474   0.379   3.703   2.487 -0.2848 -0.4063  0.1090
 7672SOL    HW134475   0.464   3.676   2.451  0.2370 -1.0093  1.7670
 7672SOL    HW234476   0.382   3.798   2.482 -2.2044 -0.4263 -1.4119
 7673SOL     OW34477   2.056   3.083   3.904 -0.2952 -0.2311  0.0384
 7673SOL    HW134478   2.146   3.074   3.875  0.0407  0.8722  0.7218
 7673SOL    HW234479   2.046   2.997   3.946 -4.2125  0.6580  0.9337
 7674SOL     OW34480   2.014   0.756   2.185 -0.2023  0.5836  0.2645
 7674SOL    HW134481   1.997   0.687   2.121 -1.1939 -0.3740  1.5608
 7674SOL    HW234482   1.947   0.726   2.246 -2.0806  1.7828 -1.1886
 7675SOL     OW34483   4.445   4.122  12.561 -0.3525  0.6471  0.0223
 7675SOL    HW134484   4.390   4.073  12.621 -0.5770  0.3521 -0.4313
 7675SOL    HW234485   4.474   4.203  12.603 -0.9892  0.3330  1.0400
 7676SOL     OW34486   0.750   4.571   6.992 -0.0774  0.7485  0.2477
 7676SOL    HW134487   0.766   4.665   7.004  0.0363  0.7531  0.0570
 7676SOL    HW234488   0.705   4.538   7.070  2.8483 -0.3361  1.5028
 7677SOL     OW34489   1.755   1.040   4.656  0.3613 -0.0307  0.5113
 7677SOL    HW134490   1.742   0.961   4.603 -1.9004  0.1233  0.8428
 7677SOL    HW234491   1.839   1.072   4.622  0.6939  0.2549  1.5929
 7678SOL     OW34492   2.481   0.111   4.424  0.3610 -0.4136  0.1006
 7678SOL    HW134493   2.416   0.135   4.490  0.8703  1.1273  0.0542
 7678SOL    HW234494   2.560   0.083   4.471  0.0292 -1.1423  0.2190
 7679SOL     OW34495   1.291   2.163   4.294 -0.0939  0.2470  0.5069
 7679SOL    HW134496   1.310   2.255   4.312 -0.1042 -0.3090  3.4233
 7679SOL    HW234497   1.352   2.123   4.356  2.3162  0.7972 -1.5296
 7680SOL     OW34498   2.011   0.737  15.880  0.2040  0.3860 -0.2847
 7680SOL    HW134499   1.991   0.645  15.898 -1.4333  0.9803  0.9354
 7680SOL    HW234500   2.091   0.745  15.933  0.6057 -1.8240 -0.5327
 7681SOL     OW34501   0.497   1.196   9.221  0.0317 -0.0580 -0.4549
 7681SOL    HW134502   0.440   1.148   9.282  2.1514  0.8124  2.1848
 7681SOL    HW234503   0.466   1.284   9.243  1.1010  0.2679 -0.2802
 7682SOL     OW34504   1.253   0.163  11.089  0.1515  0.1847  0.1200
 7682SOL    HW134505   1.333   0.157  11.141  0.5880  1.3831 -0.4097
 7682SOL    HW234506   1.255   0.076  11.049 -1.0836 -0.7671  2.1342
 7683SOL     OW34507   2.893   0.806  13.134  0.0489 -0.4810 -0.8391
 7683SOL    HW134508   2.933   0.844  13.212  0.9651  0.1978 -1.6422
 7683SOL    HW234509   2.928   0.865  13.067 -0.7302  0.8506 -0.0508
 7684SOL     OW34510   3.879   2.457   1.870 -0.0130 -0.2431  0.4656
 7684SOL    HW134511   3.903   2.376   1.915 -1.3397 -0.5756  0.5622
 7684SOL    HW234512   3.800   2.431   1.823 -0.1642  0.1392  0.5087
 7685SOL     OW34513   1.568   2.158   7.624 -0.2056 -0.5360  0.1481
 7685SOL    HW134514   1.657   2.173   7.654 -0.8468  0.3629  1.6191
 7685SOL    HW234515   1.550   2.069   7.653 -0.0037 -1.0586 -1.3176
 7686SOL     OW34516   3.188   2.625  14.289 -0.0892  0.4381  0.4069
 7686SOL    HW134517   3.254   2.674  14.339 -0.6944  1.0937  0.5605
 7686SOL    HW234518   3.123   2.691  14.268  0.6544  1.0623  0.0440
 7687SOL     OW34519   1.210   3.958   2.501  0.1721  0.0828  0.1022
 7687SOL    HW134520   1.280   4.022   2.490 -1.1332  1.6164  0.7635
 7687SOL    HW234521   1.220   3.901   2.425  1.1730 -0.0061  0.2985
 7688SOL     OW34522   1.158   0.595   8.591  0.7531 -0.0490 -0.1320
 7688SOL    HW134523   1.163   0.504   8.617  1.7733  0.1020  0.2074
 7688SOL    HW234524   1.192   0.593   8.501  1.4343  3.1221  0.0491
 7689SOL     OW34525   2.090   3.138   3.447  0.8975  0.3507 -0.3386
 7689SOL    HW134526   2.076   3.093   3.363 -0.6234  0.5548 -0.1977
 7689SOL    HW234527   1.999   3.149   3.475  1.3367 -1.3682  1.7965
 7690SOL     OW34528   3.870   1.462   3.551  0.1755 -0.2082  0.0612
 7690SOL    HW134529   3.911   1.417   3.625  2.0251 -0.9776 -1.4204
 7690SOL    HW234530   3.885   1.391   3.488 -2.3217  2.4551 -3.5721
 7691SOL     OW34531   1.918   1.479   8.590  0.4385 -0.1388  0.5755
 7691SOL    HW134532   1.910   1.385   8.570  2.7459  0.2021 -1.9671
 7691SOL    HW234533   1.902   1.480   8.684  0.1430  1.6097  0.4926
 7692SOL     OW34534   1.875   4.687   8.191  0.7052 -0.4932  0.2647
 7692SOL    HW134535   1.824   4.622   8.238  0.7434 -1.3958 -0.9376
 7692SOL    HW234536   1.951   4.633   8.167  0.8698 -0.2463  0.2250
 7693SOL     OW34537   4.167   2.278   8.147 -0.4976 -0.0108 -0.8788
 7693SOL    HW134538   4.152   2.185   8.131 -0.4545 -0.6053  2.5372
 7693SOL    HW234539   4.237   2.304   8.087 -1.7433 -0.1143 -2.3877
 7694SOL     OW34540   2.617   0.290  11.602  0.2063 -0.0085  0.2418
 7694SOL    HW134541   2.701   0.323  11.633  0.7285 -0.7563 -0.3677
 7694SOL    HW234542   2.642   0.210  11.556  0.8595 -0.3442  1.1966
 7695SOL     OW34543   3.271   2.240   6.055  0.6255  0.2183 -0.5023
 7695SOL    HW134544   3.324   2.272   6.129 -1.0259 -2.3200  1.7952
 7695SOL    HW234545   3.200   2.302   6.039  0.2495 -0.4456 -1.3759
 7696SOL     OW34546   2.900   1.233  11.832  0.4851 -0.3092 -0.2710
 7696SOL    HW134547   2.962   1.169  11.867  0.4642  0.8289  1.8568
 7696SOL    HW234548   2.958   1.271  11.765  2.5955 -0.3319  1.5534
 7697SOL     OW34549   1.420   0.167   2.654  0.0949 -0.0858  0.7852
 7697SOL    HW134550   1.403   0.073   2.656 -1.3733  0.1444 -0.8814
 7697SOL    HW234551   1.509   0.164   2.687  0.2566 -0.8616  0.2740
 7698SOL     OW34552   0.445   4.232   4.515  0.6791  0.2049 -0.0796
 7698SOL    HW134553   0.483   4.278   4.589  0.8858 -0.6117  0.3174
 7698SOL    HW234554   0.459   4.288   4.439 -0.2003  0.2607 -0.1999
 7699SOL     OW34555   3.056   3.752   4.031  0.7068 -0.2707 -0.6994
 7699SOL    HW134556   3.098   3.667   4.020 -0.8985 -1.3829  1.8326
 7699SOL    HW234557   2.984   3.755   3.967 -1.7438 -2.4059  1.9620
 7700SOL     OW34558   4.188   1.102  11.458 -0.2236 -0.0516  0.6030
 7700SOL    HW134559   4.175   1.169  11.391  0.2224 -0.6550 -0.0902
 7700SOL    HW234560   4.098   1.070  11.465  0.3328 -1.5136  1.1477
 7701SOL     OW34561   0.840   0.607   3.427 -0.0106  0.4483  0.2836
 7701SOL    HW134562   0.844   0.563   3.511 -0.6503 -2.0072 -0.9708
 7701SOL    HW234563   0.897   0.684   3.437 -1.7944  1.3789  3.3365
 7702SOL     OW34564   3.932   2.378  15.937  0.0328  0.2349 -0.2283
 7702SOL    HW134565   3.915   2.467  15.967  0.5846 -0.3266  1.8208
 7702SOL    HW234566   4.018   2.397  15.900  0.7240 -0.4459  1.0104
 7703SOL     OW34567   4.072   3.393  12.148 -0.0417  0.5711 -0.1178
 7703SOL    HW134568   4.016   3.324  12.112  1.1381  0.1532 -1.1605
 7703SOL    HW234569   4.092   3.441  12.068  0.1833 -1.7461 -1.4666
 7704SOL     OW34570   3.935   3.810   0.531 -0.2364 -0.6243  0.4800
 7704SOL    HW134571   3.934   3.730   0.584  0.0633 -1.1881 -0.3626
 7704SOL    HW234572   3.986   3.867   0.589 -0.1799 -0.0923 -0.1019
 7705SOL     OW34573   0.737   0.361   8.011 -0.5697 -0.0922 -0.5380
 7705SOL    HW134574   0.819   0.364   8.060 -1.2658  1.3765  0.5227
 7705SOL    HW234575   0.762   0.281   7.964 -0.0955 -0.3381  0.1300
 7706SOL     OW34576   0.999   3.285   9.776  0.4109  0.0291 -0.2064
 7706SOL    HW134577   0.965   3.197   9.795 -3.9830  2.3024  2.4611
 7706SOL    HW234578   1.076   3.267   9.722 -0.6001 -0.3924 -1.5212
 7707SOL     OW34579   2.219   3.438   3.772 -0.1754  0.1695  0.1167
 7707SOL    HW134580   2.277   3.371   3.737  0.1525  0.1466  0.7030
 7707SOL    HW234581   2.165   3.466   3.698  0.4717 -2.0752 -1.2023
 7708SOL     OW34582   0.919   2.655   5.399 -0.2458 -0.0646  0.2040
 7708SOL    HW134583   0.966   2.684   5.477  1.7734 -0.3006 -0.9311
 7708SOL    HW234584   0.945   2.715   5.329  0.4161  0.3276  0.7934
 7709SOL     OW34585   1.044   0.480  16.873 -0.1057  0.3997  0.2296
 7709SOL    HW134586   0.959   0.486  16.828  1.5902  0.4503 -2.9146
 7709SOL    HW234587   1.091   0.406  16.835  1.2200  0.6617  1.3678
 7710SOL     OW34588   3.983   4.660   4.467 -0.1724  0.8818  0.0909
 7710SOL    HW134589   3.973   4.651   4.562 -1.0743 -3.4259 -0.4189
 7710SOL    HW234590   3.893   4.649   4.437  0.1831  1.3983 -1.1318
 7711SOL     OW34591   0.272   4.430   0.829  0.1510  0.0308 -0.7988
 7711SOL    HW134592   0.274   4.417   0.924 -1.8907  0.4915 -0.6864
 7711SOL    HW234593   0.247   4.339   0.811 -0.6006 -0.0297  0.5827
 7712SOL     OW34594   4.572   4.340   1.970  0.0150 -0.4393  0.0710
 7712SOL    HW134595   4.601   4.291   1.894  1.8454  1.8332 -0.7003
 7712SOL    HW234596   4.519   4.406   1.925  0.3710  0.8905  1.5769
 7713SOL     OW34597   3.804   0.567   8.101  0.3770  0.1051 -0.6362
 7713SOL    HW134598   3.740   0.634   8.123 -0.2207  0.0950 -2.3071
 7713SOL    HW234599   3.784   0.495   8.160  2.9390  0.3282  0.5017
 7714SOL     OW34600   3.230   3.830  12.199 -0.0442 -0.1065  0.1108
 7714SOL    HW134601   3.157   3.773  12.176  1.5650 -2.7885  1.6523
 7714SOL    HW234602   3.188   3.879  12.270 -1.0359  2.3157 -2.1549
 7715SOL     OW34603   1.146   0.126   0.974 -0.4319 -0.3470 -0.0137
 7715SOL    HW134604   1.185   0.056   1.026  0.8899 -0.5938 -1.3148
 7715SOL    HW234605   1.128   0.085   0.889  0.7166 -0.2563 -0.3011
 7716SOL     OW34606   4.671   4.359   4.465  0.4523  0.0407  0.1839
 7716SOL    HW134607   4.597   4.400   4.421  0.2357 -0.9471 -0.3493
 7716SOL    HW234608   0.009   4.339   4.392 -0.5602 -0.8226 -0.3913
 7717SOL     OW34609   4.391   2.269   3.782  0.2677  0.3327 -0.7074
 7717SOL    HW134610   4.327   2.213   3.826 -0.2605  1.6632  0.2157
 7717SOL    HW234611   4.342   2.326   3.723 -1.6410 -0.7940 -0.2110
 7718SOL     OW34612   4.624   1.537  11.779  0.7015  0.0624 -0.5399
 7718SOL    HW134613   4.662   1.592  11.848 -1.7981  0.1801  0.7348
 7718SOL    HW234614   4.536   1.573  11.770  1.5834  2.1210 -1.0530
 7719SOL     OW34615   3.583   3.979   8.451 -0.0343 -1.0209  0.3809
 7719SOL    HW134616   3.551   4.064   8.480  1.2741  0.1356 -1.6141
 7719SOL    HW234617   3.554   3.984   8.360 -1.8576  2.6316  1.1836
 7720SOL     OW34618   1.859   2.705   1.211  0.1614 -0.5889  0.3360
 7720SOL    HW134619   1.875   2.677   1.121 -0.3427  0.1070  0.0381
 7720SOL    HW234620   1.853   2.799   1.195 -1.1824 -0.8144 -0.4590
 7721SOL     OW34621   4.230   0.013   4.498  0.4125 -0.7147 -0.0024
 7721SOL    HW134622   4.144   4.714   4.462 -0.0096 -0.2184  0.7375
 7721SOL    HW234623   4.210   0.008   4.591  1.3289 -2.0429  0.1125
 7722SOL     OW34624   4.038   3.644  17.089 -0.0273 -0.6883  0.5119
 7722SOL    HW134625   4.115   3.700  17.100  0.0709 -0.8751  0.8075
 7722SOL    HW234626   4.034   3.638  16.994  0.2095  0.4455  0.4303
 7723SOL     OW34627   1.884   4.087   2.988 -0.1635  0.2375  0.3627
 7723SOL    HW134628   1.793   4.062   3.007  0.0206 -0.5903  0.1570
 7723SOL    HW234629   1.901   4.049   2.902  2.0433 -0.4869  1.1250
 7724SOL     OW34630   3.750   0.520   5.573 -0.3036 -0.2983  0.1069
 7724SOL    HW134631   3.742   0.605   5.618  1.3451  0.1030 -0.3798
 7724SOL    HW234632   3.700   0.464   5.633 -0.6073  1.3378  1.3918
 7725SOL     OW34633   1.979   0.689  13.934  0.1611  0.0383 -0.2121
 7725SOL    HW134634   2.004   0.781  13.949  0.1074 -0.2791  1.8021
 7725SOL    HW234635   1.920   0.704  13.860  0.0153 -2.6401 -0.6110
 7726SOL     OW34636   2.396   2.164  14.310  0.4599  0.5871 -0.3998
 7726SOL    HW134637   2.479   2.204  14.283  1.1049  0.4858  1.4222
 7726SOL    HW234638   2.414   2.151  14.403 -1.6030  0.8919  0.0332
 7727SOL     OW34639   0.484   0.073   3.865  0.0552 -0.5391 -0.1427
 7727SOL    HW134640   0.577   0.057   3.883 -0.2645  0.2091  2.1425
 7727SOL    HW234641   0.475   0.029   3.780  0.8654 -2.3379  0.7041
 7728SOL     OW34642   1.868   3.042   3.175 -0.5637 -0.2941 -0.1070
 7728SOL    HW134643   1.849   3.126   3.216  0.8820 -0.3782  0.7450
 7728SOL    HW234644   1.789   3.036   3.122  0.8497 -2.4645 -2.0156
 7729SOL     OW34645   3.019   2.203   0.282  0.6402 -0.2588 -0.7362
 7729SOL    HW134646   3.099   2.250   0.305  1.3162 -2.5553  1.6441
 7729SOL    HW234647   2.959   2.255   0.335  2.6230  1.4580 -0.2053
 7730SOL     OW34648   2.791   0.512  14.871  0.3870  0.1657  0.0712
 7730SOL    HW134649   2.741   0.587  14.904 -1.8378 -0.9998 -0.6282
 7730SOL    HW234650   2.728   0.452  14.832  1.7607 -1.3104  0.1108
 7731SOL     OW34651   2.941   4.191  15.130  0.1735  0.2636 -0.7760
 7731SOL    HW134652   2.861   4.148  15.100 -0.3298 -1.0056  2.4202
 7731SOL    HW234653   2.909   4.243  15.203  0.5949 -0.2611 -0.2264
 7732SOL     OW34654   4.545   2.422  14.910  0.6106  0.2673 -0.2802
 7732SOL    HW134655   4.498   2.494  14.952  0.6257  0.2527 -0.2387
 7732SOL    HW234656   4.509   2.350  14.962 -1.0085 -0.0650 -1.8497
 7733SOL     OW34657   4.266   0.045  15.510  0.7302 -0.5096 -0.3002
 7733SOL    HW134658   4.296   0.050  15.600 -0.6120 -0.4135  0.1384
 7733SOL    HW234659   4.307   4.688  15.472 -1.5724 -0.9337 -1.9063
 7734SOL     OW34660   2.569   2.802   7.671  0.2573  0.1105  0.1178
 7734SOL    HW134661   2.610   2.843   7.747  0.4749 -0.8779  0.5284
 7734SOL    HW234662   2.479   2.788   7.701 -0.3652  2.5655 -0.5922
 7735SOL     OW34663   0.186   3.426   4.843  0.4158 -0.0497  0.2364
 7735SOL    HW134664   0.222   3.437   4.755  1.3553 -0.6502  0.5313
 7735SOL    HW234665   0.137   3.505   4.861 -0.4391 -0.7463  0.9758
 7736SOL     OW34666   3.451   4.275   6.527  0.1052  0.2460 -0.0420
 7736SOL    HW134667   3.451   4.182   6.504  2.4261 -0.3952  2.5118
 7736SOL    HW234668   3.366   4.289   6.569  0.7016  1.4065  0.8011
 7737SOL     OW34669   4.184   0.560  17.434 -0.4175 -0.2716  0.6820
 7737SOL    HW134670   4.241   0.635  17.450 -1.0053  0.4445 -0.6079
 7737SOL    HW234671   4.180   0.544  17.340 -0.9368 -1.3545  0.8850
 7738SOL     OW34672   3.137   2.366   1.094 -0.4848 -0.5282  0.3910
 7738SOL    HW134673   3.119   2.273   1.086 -0.4257 -0.8887  4.4732
 7738SOL    HW234674   3.160   2.367   1.186  2.6726 -2.0062 -0.3815
 7739SOL     OW34675   1.876   4.118  13.783  0.2691  0.0319 -0.5353
 7739SOL    HW134676   1.851   4.168  13.861 -0.9903  2.5703 -2.5676
 7739SOL    HW234677   1.867   4.028  13.814 -1.4756  0.5085  0.4036
 7740SOL     OW34678   2.218   2.067  11.087 -0.2168  0.1329  1.2124
 7740SOL    HW134679   2.194   2.155  11.057 -0.1385 -0.5144 -0.7358
 7740SOL    HW234680   2.311   2.081  11.107 -0.2323 -0.1027  1.4579
 7741SOL     OW34681   3.635   1.621   3.933  0.2577  0.2434 -0.3024
 7741SOL    HW134682   3.729   1.609   3.927  0.2166 -1.2281  2.2206
 7741SOL    HW234683   3.620   1.681   3.860  1.6161 -0.9721 -1.5693
 7742SOL     OW34684   0.516   3.701   8.734 -0.4103  0.4965 -0.1911
 7742SOL    HW134685   0.456   3.683   8.807 -3.3308  2.7885 -1.9826
 7742SOL    HW234686   0.590   3.730   8.787 -0.0145 -1.4047  0.2855
 7743SOL     OW34687   1.786   1.308   9.018  0.1946 -0.2022  0.2274
 7743SOL    HW134688   1.704   1.323   8.972 -0.2213  2.7546  1.9217
 7743SOL    HW234689   1.772   1.348   9.104 -0.3972  0.9949 -0.4378
 7744SOL     OW34690   2.387   1.226  17.047 -0.2026 -0.2094  0.4758
 7744SOL    HW134691   2.338   1.276  17.112 -0.8363  0.2064 -0.3183
 7744SOL    HW234692   2.455   1.187  17.101 -1.4579 -0.2847  1.9886
 7745SOL     OW34693   2.967   1.981   5.460 -0.2155 -0.2736 -0.1118
 7745SOL    HW134694   3.005   1.965   5.373 -0.0807  1.1516 -0.3140
 7745SOL    HW234695   3.016   1.915   5.510 -1.2852 -0.0282  1.2569
 7746SOL     OW34696   1.392   3.804   4.580 -0.1771  0.5830 -0.0621
 7746SOL    HW134697   1.324   3.793   4.514 -1.7236 -0.1572  1.6938
 7746SOL    HW234698   1.450   3.728   4.570 -1.4888 -0.7096  2.3734
 7747SOL     OW34699   4.498   3.596   3.613  0.9705 -0.2367 -0.3107
 7747SOL    HW134700   4.453   3.576   3.695 -0.6278 -3.9076 -2.0985
 7747SOL    HW234701   4.450   3.540   3.553  0.0361  0.7988 -0.5445
 7748SOL     OW34702   4.148   4.281   6.761  0.6742  0.7208  0.2922
 7748SOL    HW134703   4.197   4.257   6.682 -0.0438 -0.2769  0.1454
 7748SOL    HW234704   4.194   4.235   6.831  2.4176  0.8244 -0.7703
 7749SOL     OW34705   1.611   3.551   0.104 -0.3182 -0.2822  0.1842
 7749SOL    HW134706   1.587   3.492   0.032  0.1462 -1.1727  0.7598
 7749SOL    HW234707   1.675   3.495   0.149  0.1817  0.9359  0.9974
 7750SOL     OW34708   1.878   3.957   2.748  0.9772 -0.1221  0.2929
 7750SOL    HW134709   1.920   4.019   2.688  0.9484 -2.6800 -2.3732
 7750SOL    HW234710   1.895   3.873   2.706  0.6705 -0.4642  0.8632
 7751SOL     OW34711   4.712   2.768  11.643  0.3137 -0.0325  0.1759
 7751SOL    HW134712   4.651   2.764  11.716  0.2155 -0.4034  0.0748
 7751SOL    HW234713   0.029   2.680  11.649  0.6658  0.3447  3.4192
 7752SOL     OW34714   2.627   1.131  13.558 -0.2070 -0.0050 -0.2956
 7752SOL    HW134715   2.539   1.093  13.562 -0.3255  0.1400 -1.6133
 7752SOL    HW234716   2.614   1.202  13.621 -2.6195 -0.3760 -0.3828
 7753SOL     OW34717   0.692   2.394  15.428  0.1351  0.3363  0.0665
 7753SOL    HW134718   0.758   2.387  15.497  0.3377  1.0574 -0.0564
 7753SOL    HW234719   0.749   2.405  15.352  0.1214  0.3674  0.0609
 7754SOL     OW34720   0.942   3.568   6.250  0.1273  0.6465  0.5956
 7754SOL    HW134721   0.941   3.624   6.172 -0.3849  1.0117  0.8616
 7754SOL    HW234722   1.033   3.554   6.273  0.1761  0.1452  0.0846
 7755SOL     OW34723   0.549   0.306   5.630  0.0195 -0.0886 -0.2754
 7755SOL    HW134724   0.524   0.277   5.717 -1.3842  0.9445 -0.3225
 7755SOL    HW234725   0.627   0.254   5.613 -2.3994 -3.0946 -2.2856
 7756SOL     OW34726   0.319   1.796   7.310 -0.1862 -0.1261 -0.1213
 7756SOL    HW134727   0.340   1.858   7.379  3.9046 -2.5009  0.7281
 7756SOL    HW234728   0.405   1.784   7.271  1.5685  1.9746  3.1962
 7757SOL     OW34729   0.925   0.665  16.536  0.0617 -0.0541  0.1211
 7757SOL    HW134730   1.002   0.688  16.484 -1.0958  0.1866 -1.4836
 7757SOL    HW234731   0.877   0.624  16.464 -0.6891 -0.3503  0.7952
 7758SOL     OW34732   3.561   0.839   7.610  0.2778  0.5852 -0.1530
 7758SOL    HW134733   3.607   0.902   7.665  0.7989 -0.7295  0.9283
 7758SOL    HW234734   3.535   0.892   7.535 -0.5062 -1.4825 -1.3348
 7759SOL     OW34735   2.388   3.770  12.252  0.0624 -0.0156 -0.0572
 7759SOL    HW134736   2.346   3.798  12.333 -1.9100 -0.3824 -0.9605
 7759SOL    HW234737   2.387   3.852  12.203  0.6626 -0.1294 -0.2708
 7760SOL     OW34738   4.100   2.580   8.351  0.4415  0.1281  0.0585
 7760SOL    HW134739   4.113   2.503   8.406  1.7735  1.0014  0.9828
 7760SOL    HW234740   4.155   2.643   8.399  1.8923 -1.3976  0.3846
 7761SOL     OW34741   1.266   0.524  15.899 -0.2380 -0.6700  0.3439
 7761SOL    HW134742   1.332   0.455  15.898  1.1216  0.6338 -0.4801
 7761SOL    HW234743   1.301   0.579  15.829  2.1955 -2.2150  0.3431
 7762SOL     OW34744   4.065   2.346  13.296 -0.1716 -0.6898  0.0208
 7762SOL    HW134745   4.117   2.282  13.346 -1.3791 -1.8502 -0.1954
 7762SOL    HW234746   4.000   2.283  13.265 -1.3882 -0.4946  2.1591
 7763SOL     OW34747   3.524   2.368  14.344 -0.0780  0.2231 -0.0337
 7763SOL    HW134748   3.531   2.274  14.362  0.5400  0.6086  1.7813
 7763SOL    HW234749   3.438   2.367  14.301  0.8642 -1.2610 -1.8642
 7764SOL     OW34750   0.210   1.052   0.842 -0.3009 -0.0573  0.3158
 7764SOL    HW134751   0.265   1.028   0.916 -0.9042 -0.1704  0.7220
 7764SOL    HW234752   0.173   1.133   0.878 -1.0008 -0.8433  1.3597
 7765SOL     OW34753   0.693   3.301   1.136  0.1462  0.3402 -0.3290
 7765SOL    HW134754   0.612   3.339   1.104  0.8864  1.5089 -0.7933
 7765SOL    HW234755   0.661   3.234   1.197  2.7438 -0.1789  0.4814
 7766SOL     OW34756   3.471   0.216  12.746  0.2137 -0.0589  0.3142
 7766SOL    HW134757   3.491   0.166  12.825 -1.6430 -1.1596  0.0867
 7766SOL    HW234758   3.456   0.305  12.778 -3.0547 -0.1019 -1.1189
 7767SOL     OW34759   2.046   4.170   3.217 -0.1499  0.0274  0.1436
 7767SOL    HW134760   1.982   4.133   3.156 -1.0809  0.9379  0.5727
 7767SOL    HW234761   2.117   4.198   3.160  0.2115 -0.3530  0.4031
 7768SOL     OW34762   4.580   1.059   9.169  0.2689  0.5724  0.0634
 7768SOL    HW134763   4.669   1.066   9.204  0.4718 -0.7503 -0.2155
 7768SOL    HW234764   4.536   1.057   9.254  2.1133 -0.8591  0.9897
 7769SOL     OW34765   2.991   0.306  14.869 -0.5758  0.5307  0.2037
 7769SOL    HW134766   3.067   0.337  14.918 -1.6469  0.8713  1.6622
 7769SOL    HW234767   2.931   0.381  14.870 -0.8220  0.2799  3.8072
 7770SOL     OW34768   1.895   2.125   4.388 -0.3429  0.2851 -0.4025
 7770SOL    HW134769   1.963   2.088   4.444  1.1380  1.2942 -1.5238
 7770SOL    HW234770   1.901   2.220   4.396 -1.5490  0.4813 -1.8154
 7771SOL     OW34771   3.312   1.032   6.341 -0.1762  0.1146  0.5278
 7771SOL    HW134772   3.237   0.992   6.386 -0.8805 -0.3060 -1.0085
 7771SOL    HW234773   3.318   0.956   6.282  0.6946 -0.6807  1.6321
 7772SOL     OW34774   2.782   2.687   4.565 -0.1552 -0.2141  0.3833
 7772SOL    HW134775   2.800   2.605   4.612 -0.2845 -1.2555 -1.3901
 7772SOL    HW234776   2.846   2.748   4.604  1.0698 -1.6471  0.6377
 7773SOL     OW34777   0.093   0.824   6.502 -0.0187 -0.5030 -0.4676
 7773SOL    HW134778   0.036   0.774   6.560  0.8330  0.5248  1.2594
 7773SOL    HW234779   0.167   0.763   6.497  1.6462  1.5056 -0.4298
 7774SOL     OW34780   1.221   3.120   5.776 -0.8833 -0.5174 -0.3074
 7774SOL    HW134781   1.143   3.145   5.825 -0.1643  0.3477  0.4025
 7774SOL    HW234782   1.192   3.144   5.688 -3.2169  0.6192  0.7651
 7775SOL     OW34783   3.932   0.172   7.994  0.3661  0.2645 -0.0450
 7775SOL    HW134784   3.846   0.204   8.020  1.1766  1.7978  0.7270
 7775SOL    HW234785   3.923   0.134   7.906 -0.0284 -1.7074  0.8421
 7776SOL     OW34786   2.767   1.336  12.135 -1.5027  0.1413  0.4255
 7776SOL    HW134787   2.812   1.261  12.172  0.0647 -0.4257 -2.5412
 7776SOL    HW234788   2.833   1.406  12.137 -0.5389 -0.8293  2.0012
 7777SOL     OW34789   4.562   4.009   9.602 -0.2257  0.5053 -0.6255
 7777SOL    HW134790   4.531   4.045   9.685 -1.3099 -0.4582 -0.6255
 7777SOL    HW234791   4.482   3.974   9.564  0.3256 -0.8372 -0.5496
 7778SOL     OW34792   1.180   0.110   5.618 -0.1140 -0.0126  0.1349
 7778SOL    HW134793   1.148   0.139   5.703  1.1267  1.0844  0.2035
 7778SOL    HW234794   1.115   0.147   5.558 -0.5466 -0.5880  0.2396
 7779SOL     OW34795   0.245   4.261   8.655  0.0627 -0.2478  0.1452
 7779SOL    HW134796   0.194   4.331   8.615  1.5670  0.4250 -0.5932
 7779SOL    HW234797   0.238   4.281   8.748 -1.5924 -0.0182 -0.0393
 7780SOL     OW34798   3.948   3.410   3.452 -0.2563  0.3290 -0.4212
 7780SOL    HW134799   3.985   3.455   3.376  0.0546 -0.3487 -0.6727
 7780SOL    HW234800   3.860   3.448   3.442 -1.0579 -0.7005  2.7012
 7781SOL     OW34801   1.933   0.734   0.747  0.5403 -0.5280  0.0920
 7781SOL    HW134802   1.940   0.826   0.770  1.3730 -0.6790  0.4575
 7781SOL    HW234803   1.940   0.740   0.652 -0.2502 -2.2946 -0.0777
 7782SOL     OW34804   3.120   3.176   1.165  0.1462 -0.5643  0.4156
 7782SOL    HW134805   3.047   3.121   1.196 -0.9588  1.5650  1.6047
 7782SOL    HW234806   3.159   3.205   1.247 -0.9756 -1.7103  1.3681
 7783SOL     OW34807   0.989   4.471   7.593 -0.0157 -0.3632 -0.1452
 7783SOL    HW134808   1.028   4.415   7.660  0.3655 -0.8440 -0.7668
 7783SOL    HW234809   1.006   4.415   7.517  0.8638  0.7193 -0.7463
 7784SOL     OW34810   3.850   4.351   1.070 -0.0796  0.0452 -0.4041
 7784SOL    HW134811   3.767   4.310   1.042 -0.2930  0.1107  0.1283
 7784SOL    HW234812   3.835   4.445   1.072 -0.2270  0.0539 -1.9130
 7785SOL     OW34813   2.789   2.982  16.032 -0.0783  0.2226  0.8545
 7785SOL    HW134814   2.794   2.931  15.952  0.9517 -0.1080  1.1258
 7785SOL    HW234815   2.812   3.070  16.002 -0.0879 -0.8156 -2.0996
 7786SOL     OW34816   0.259   1.902   2.745  0.2609 -0.3096  0.3642
 7786SOL    HW134817   0.200   1.838   2.786 -1.5647  1.5644  0.6659
 7786SOL    HW234818   0.186   1.942   2.699 -0.7532 -0.5020  1.8136
 7787SOL     OW34819   3.064   3.024  11.279  0.1492 -0.6971 -0.6908
 7787SOL    HW134820   3.073   3.034  11.184 -0.4349  0.6945 -0.6063
 7787SOL    HW234821   3.044   3.113  11.309 -2.1547 -0.9803 -1.4619
 7788SOL     OW34822   4.307   4.225   4.429 -0.1166 -0.3847  0.2513
 7788SOL    HW134823   4.242   4.285   4.466  0.0354  0.3442 -0.6687
 7788SOL    HW234824   4.318   4.248   4.337 -0.9983 -1.3095 -0.0791
 7789SOL     OW34825   0.490   1.183   2.819  0.0561  0.0290 -0.3876
 7789SOL    HW134826   0.505   1.235   2.741 -0.6139 -0.8056 -1.0761
 7789SOL    HW234827   0.476   1.094   2.787 -0.7594  0.0038  0.0260
 7790SOL     OW34828   4.374   2.280   0.909  0.2696  0.3090  0.5368
 7790SOL    HW134829   4.450   2.282   0.968 -0.5143 -2.1724  1.6578
 7790SOL    HW234830   4.305   2.306   0.970 -1.1701  1.7284 -1.7092
 7791SOL     OW34831   1.684   4.046   6.668  0.1095  0.3383  0.3904
 7791SOL    HW134832   1.766   4.090   6.644  1.0696 -1.8001 -0.2514
 7791SOL    HW234833   1.648   4.125   6.708 -2.6995 -1.5423  1.6456
 7792SOL     OW34834   0.264   0.969   5.468 -0.2159 -0.3039  0.0155
 7792SOL    HW134835   0.271   0.876   5.450  0.5329 -0.2424 -0.0421
 7792SOL    HW234836   0.319   0.971   5.546  1.0851 -0.2459 -0.8988
 7793SOL     OW34837   0.044   3.601   3.657  0.3019 -0.3914  0.1739
 7793SOL    HW134838   0.046   3.569   3.747  2.0820  0.9871  0.6109
 7793SOL    HW234839   4.670   3.605   3.642  0.4610  0.1850 -0.6899
 7794SOL     OW34840   1.276   3.061   6.830  0.2930 -0.0339  0.4983
 7794SOL    HW134841   1.196   3.114   6.827 -0.1010 -0.6258  0.3998
 7794SOL    HW234842   1.284   3.044   6.736 -2.5049 -0.9737  0.4063
 7795SOL     OW34843   1.413   0.390   9.547  0.0639  0.1892  0.5609
 7795SOL    HW134844   1.435   0.377   9.639 -0.0266 -0.2270  0.5257
 7795SOL    HW234845   1.453   0.475   9.527  0.4640  0.2995  1.8572
 7796SOL     OW34846   3.059   3.844   5.387 -0.0413 -0.6526  0.3659
 7796SOL    HW134847   3.113   3.766   5.399  1.7684  0.5238 -0.1086
 7796SOL    HW234848   2.981   3.806   5.346 -1.3683  1.9687  0.4512
 7797SOL     OW34849   0.292   1.966  11.234 -0.3245  0.2662  0.5488
 7797SOL    HW134850   0.200   1.941  11.225  0.0226 -1.4094  1.6345
 7797SOL    HW234851   0.327   1.880  11.209 -1.6290 -0.1392  0.1083
 7798SOL     OW34852   2.195   3.890   4.068  0.0940  0.0471 -0.0522
 7798SOL    HW134853   2.232   3.817   4.018 -0.3696  0.2022 -0.6197
 7798SOL    HW234854   2.195   3.850   4.155 -2.3588  0.7941  0.3037
 7799SOL     OW34855   4.308   0.306   5.780  0.0762 -1.0132 -0.6893
 7799SOL    HW134856   4.340   0.309   5.690  2.1048 -1.7674 -0.0062
 7799SOL    HW234857   4.224   0.347   5.760 -0.1099 -0.6319  0.8464
 7800SOL     OW34858   3.876   2.588   2.405  0.5208  0.1437  0.2140
 7800SOL    HW134859   3.943   2.522   2.386 -1.2080 -1.8100  0.8701
 7800SOL    HW234860   3.797   2.537   2.423  1.4740 -0.7355  1.9032
 7801SOL     OW34861   4.179   3.196   2.574 -0.3975  0.5866  0.3208
 7801SOL    HW134862   4.149   3.276   2.530 -0.2907 -0.6142 -1.9617
 7801SOL    HW234863   4.153   3.125   2.515  2.7566 -2.2765  2.3355
 7802SOL     OW34864   2.140   2.347  10.146  0.2486 -0.0344  0.1991
 7802SOL    HW134865   2.049   2.321  10.129  1.0562 -2.1538 -0.8602
 7802SOL    HW234866   2.142   2.337  10.241 -0.2875 -1.6764  0.0388
 7803SOL     OW34867   1.640   0.311  12.190 -0.5229 -0.1675 -0.0070
 7803SOL    HW134868   1.718   0.367  12.189 -0.3109 -0.4753 -0.6859
 7803SOL    HW234869   1.673   0.228  12.225 -0.5837 -0.5499 -0.8665
 7804SOL     OW34870   0.048   2.027   8.200  0.0371 -0.3622  0.5544
 7804SOL    HW134871   4.683   2.053   8.234 -0.2570 -0.5715 -0.0254
 7804SOL    HW234872   0.060   1.944   8.245 -1.9897 -1.2914 -0.5933
 7805SOL     OW34873   1.108   2.351   7.142  0.0801  0.2681  0.3803
 7805SOL    HW134874   1.088   2.257   7.144  0.4009  0.1687 -1.1790
 7805SOL    HW234875   1.190   2.358   7.192  1.2291 -0.7579 -1.3620
 7806SOL     OW34876   0.456   1.471   9.338 -0.4649  0.2595 -0.1296
 7806SOL    HW134877   0.542   1.512   9.337 -0.1770 -0.3388 -0.2885
 7806SOL    HW234878   0.446   1.448   9.430  2.6592 -1.1299 -0.1177
 7807SOL     OW34879   4.024   1.061  10.043 -0.7230  0.4157 -0.3355
 7807SOL    HW134880   4.010   1.155  10.038 -3.4806 -0.0504 -1.1990
 7807SOL    HW234881   4.076   1.049   9.963 -0.1399  0.7582 -0.0075
 7808SOL     OW34882   4.303   1.854  15.185  0.0753  0.1358  0.7824
 7808SOL    HW134883   4.311   1.935  15.136  1.1728 -1.2130 -1.2945
 7808SOL    HW234884   4.233   1.882  15.244 -0.0812  0.2128  0.5597
 7809SOL     OW34885   0.555   2.254   6.795  0.0835  0.8441  0.3024
 7809SOL    HW134886   0.586   2.215   6.714 -1.9438  1.1832 -0.6323
 7809SOL    HW234887   0.483   2.195   6.819  1.7549 -0.2340  2.8134
 7810SOL     OW34888   1.774   3.574   6.400 -0.2879  0.3666 -0.3256
 7810SOL    HW134889   1.756   3.591   6.308 -2.8512 -0.3847  0.0483
 7810SOL    HW234890   1.756   3.664   6.427 -1.3382 -0.3007  1.1644
 7811SOL     OW34891   2.446   3.753  14.611  0.3666  0.5357  0.4407
 7811SOL    HW134892   2.521   3.807  14.586  1.5858 -0.9540  0.8611
 7811SOL    HW234893   2.380   3.822  14.605 -2.5964 -2.3723 -0.2629
 7812SOL     OW34894   1.555   2.636   2.254 -0.4365  0.0329 -0.2194
 7812SOL    HW134895   1.585   2.625   2.164  1.6921  0.5657  0.4403
 7812SOL    HW234896   1.482   2.693   2.227 -1.2556 -0.1663  1.5667
 7813SOL     OW34897   1.434   2.121   7.350 -0.5515 -0.5078 -0.0307
 7813SOL    HW134898   1.409   2.196   7.295 -2.7204 -0.0637  1.5841
 7813SOL    HW234899   1.501   2.157   7.409  0.3490 -0.2812 -1.1722
 7814SOL     OW34900   3.903   3.544   9.559 -0.2422  0.3728 -0.0719
 7814SOL    HW134901   3.868   3.631   9.542 -1.2207  0.4943  2.4436
 7814SOL    HW234902   3.990   3.536   9.519 -0.1113  0.0981  0.2619
 7815SOL     OW34903   0.830   1.268  12.426  0.0966 -0.0377  0.0323
 7815SOL    HW134904   0.804   1.313  12.507  1.4612  1.9667 -0.6520
 7815SOL    HW234905   0.899   1.331  12.404  0.1404 -0.0934  0.0112
 7816SOL     OW34906   0.211   0.744   8.790 -0.0609  0.3482  0.6790
 7816SOL    HW134907   0.238   0.819   8.738 -0.8074 -0.4429 -0.8406
 7816SOL    HW234908   0.118   0.765   8.785  0.5792  2.6719 -1.3232
 7817SOL     OW34909   0.596   1.802   0.014 -0.0700 -0.1623 -0.7794
 7817SOL    HW134910   0.629   1.832   0.099  1.9952 -1.0179 -1.2895
 7817SOL    HW234911   0.506   1.836   0.009 -0.5008 -0.7541  2.4183
 7818SOL     OW34912   3.350   3.489   9.006  0.5400 -0.4171 -0.5140
 7818SOL    HW134913   3.353   3.453   9.095  1.3676 -0.6215 -0.6168
 7818SOL    HW234914   3.415   3.437   8.959  1.6020  0.6406 -0.2500
 7819SOL     OW34915   3.498   0.184   1.190  0.0025 -0.2725  0.0715
 7819SOL    HW134916   3.426   0.192   1.127  1.4955  0.7777 -1.4728
 7819SOL    HW234917   3.456   0.126   1.255  0.7429  1.5544  2.1595
 7820SOL     OW34918   0.409   1.498   6.754 -0.2531 -0.1346 -0.3479
 7820SOL    HW134919   0.492   1.512   6.709 -0.5860  0.9732 -0.6124
 7820SOL    HW234920   0.435   1.439   6.825  2.0309  2.7679  1.1956
 7821SOL     OW34921   0.798   3.710  16.399 -0.0729  0.4196 -0.6359
 7821SOL    HW134922   0.849   3.630  16.383  0.8783  0.9876 -0.4315
 7821SOL    HW234923   0.718   3.672  16.435 -1.5262  1.2745 -3.0485
 7822SOL     OW34924   1.755   3.499  14.889  0.2273  0.3531  0.0219
 7822SOL    HW134925   1.718   3.424  14.842 -0.2755  0.3901  0.3518
 7822SOL    HW234926   1.844   3.464  14.899 -0.3493 -1.0950  0.2149
 7823SOL     OW34927   3.360   1.353   2.961 -0.0872  0.4747 -0.7913
 7823SOL    HW134928   3.443   1.376   2.921  0.5725  0.4479  0.5532
 7823SOL    HW234929   3.333   1.290   2.894  0.2631  0.0577 -0.5384
 7824SOL     OW34930   3.536   3.827  12.736 -0.4600  0.1591  0.2503
 7824SOL    HW134931   3.542   3.922  12.745  0.4973  0.0835  0.3292
 7824SOL    HW234932   3.508   3.794  12.822 -1.3323 -1.3276 -0.5910
 7825SOL     OW34933   1.073   2.861  16.649  0.2245  0.0502  0.0290
 7825SOL    HW134934   0.980   2.852  16.627  0.3252  2.2447 -1.2461
 7825SOL    HW234935   1.085   2.955  16.657 -0.0478  0.1267 -0.4686
 7826SOL     OW34936   0.278   2.910  13.820 -0.7852  0.0796  0.0303
 7826SOL    HW134937   0.203   2.934  13.765 -0.1209  1.0427 -0.4535
 7826SOL    HW234938   0.232   2.926  13.902  0.1394 -1.2647  0.8049
 7827SOL     OW34939   4.138   1.904   0.766 -0.2065 -0.3980 -0.5078
 7827SOL    HW134940   4.144   1.976   0.829 -2.9000  0.2182 -0.9559
 7827SOL    HW234941   4.153   1.962   0.691  1.3807 -0.5130 -0.2657
 7828SOL     OW34942   3.523   2.129   4.135  0.3073 -0.4531 -0.1464
 7828SOL    HW134943   3.467   2.183   4.079 -2.2828 -0.4108  2.4768
 7828SOL    HW234944   3.469   2.127   4.214  2.5800 -0.9107  1.4100
 7829SOL     OW34945   0.623   0.423   9.290 -0.7472  0.2191  0.8909
 7829SOL    HW134946   0.607   0.513   9.319  3.9502  2.2587 -2.7903
 7829SOL    HW234947   0.689   0.430   9.220 -1.3695 -1.8859  0.1083
 7830SOL     OW34948   4.449   0.902   9.380 -0.5810 -0.4149 -0.0560
 7830SOL    HW134949   4.410   0.870   9.461 -0.5952 -2.3794 -0.8507
 7830SOL    HW234950   4.433   0.827   9.322  0.5345 -2.4478  2.2964
 7831SOL     OW34951   1.800   1.865   3.990 -0.0122  0.0296 -0.2476
 7831SOL    HW134952   1.835   1.868   3.901  2.2634 -0.6435  0.6319
 7831SOL    HW234953   1.792   1.770   4.001  1.9524 -0.0768  0.3091
 7832SOL     OW34954   2.220   3.512  12.404  0.3863 -0.9008  0.6240
 7832SOL    HW134955   2.125   3.520  12.407  0.2373 -1.8302 -1.5435
 7832SOL    HW234956   2.243   3.584  12.462  0.4082 -0.1542 -0.3081
 7833SOL     OW34957   0.488   3.757   7.681 -0.7198 -0.8332  0.3860
 7833SOL    HW134958   0.471   3.704   7.760  0.0910  0.5719  1.5056
 7833SOL    HW234959   0.547   3.688   7.651 -1.5239 -0.4419 -2.0626
 7834SOL     OW34960   4.468   3.439   8.091  0.3737 -0.1006  0.2949
 7834SOL    HW134961   4.529   3.366   8.100  1.1331  0.6342  1.1053
 7834SOL    HW234962   4.484   3.465   8.000 -0.0505 -2.3982 -0.4221
 7835SOL     OW34963   4.603   2.402  12.401 -0.0493  0.0402  0.4035
 7835SOL    HW134964   4.553   2.328  12.367  1.1352 -0.4877 -0.1669
 7835SOL    HW234965   4.684   2.367  12.438 -1.0066 -1.3023  1.2353
 7836SOL     OW34966   3.286   3.251   8.090 -0.6407 -0.1811  0.2447
 7836SOL    HW134967   3.227   3.254   8.015  0.1786  1.4666 -0.3193
 7836SOL    HW234968   3.230   3.279   8.162  0.0766  1.4368  0.1726
 7837SOL     OW34969   1.853   3.825   4.078 -0.4580 -0.5453  0.1738
 7837SOL    HW134970   1.781   3.798   4.021  0.2972 -0.2195 -0.9469
 7837SOL    HW234971   1.922   3.840   4.013 -2.1104  2.1176 -0.9499
 7838SOL     OW34972   1.139   3.934   8.826 -0.0839 -0.6076 -0.0314
 7838SOL    HW134973   1.069   3.955   8.889 -0.0452  0.7297 -0.4418
 7838SOL    HW234974   1.217   3.944   8.880 -0.2750 -1.4624  0.4098
 7839SOL     OW34975   4.110   3.836   9.300 -0.3585 -0.1336  0.2947
 7839SOL    HW134976   4.054   3.772   9.255 -0.3166 -0.1749  0.3011
 7839SOL    HW234977   4.051   3.906   9.328  0.5401  0.3611  0.9238
 7840SOL     OW34978   3.884   3.095   1.068 -0.8444 -0.2428  0.2475
 7840SOL    HW134979   3.852   3.010   1.039 -0.3784 -0.9445  1.8107
 7840SOL    HW234980   3.851   3.093   1.158 -1.1473  0.8168  0.1582
 7841SOL     OW34981   0.871   2.442  14.807  0.2705  0.3390 -0.0266
 7841SOL    HW134982   0.856   2.446  14.713 -0.6457 -1.7700  0.0324
 7841SOL    HW234983   0.904   2.353  14.821 -1.0640  0.1150  1.7433
 7842SOL     OW34984   1.230   1.550   7.517 -0.8558 -0.0315 -0.1955
 7842SOL    HW134985   1.170   1.499   7.463 -0.7479  1.0269 -1.3223
 7842SOL    HW234986   1.164   1.593   7.571 -1.4093 -0.7055 -0.3342
 7843SOL     OW34987   2.162   4.328  14.490  0.0903  0.0976  0.1434
 7843SOL    HW134988   2.167   4.420  14.517  0.6107 -0.3600  1.6383
 7843SOL    HW234989   2.217   4.300  14.564  1.3829 -1.4502 -1.4151
 7844SOL     OW34990   3.284   2.975   8.164  0.1199 -0.7445  0.0540
 7844SOL    HW134991   3.237   2.945   8.086 -0.6414 -0.8486  0.5548
 7844SOL    HW234992   3.279   3.070   8.156  0.3540 -0.8133 -0.9089
 7845SOL     OW34993   2.172   1.420   9.691  0.5689 -0.0441  0.2705
 7845SOL    HW134994   2.189   1.499   9.742 -0.4441  0.6985 -0.5356
 7845SOL    HW234995   2.127   1.369   9.758 -1.1446  1.1709  0.0390
 7846SOL     OW34996   3.756   3.370  13.398  0.4787 -0.2464  0.0402
 7846SOL    HW134997   3.803   3.385  13.316 -1.7359 -1.1267 -1.4207
 7846SOL    HW234998   3.788   3.281  13.413  0.5577 -0.0580  0.9996
 7847SOL     OW34999   3.353   3.066   9.154 -0.6384 -0.0542 -0.5327
 7847SOL    HW135000   3.272   3.018   9.171 -0.1303 -0.8454 -0.3368
 7847SOL    HW235001   3.422   3.014   9.198  0.0429 -0.0305 -1.5847
 7848SOL     OW35002   1.423   3.395   5.620 -0.5534  0.4469  0.4329
 7848SOL    HW135003   1.408   3.351   5.537 -0.2913  0.3999  0.4093
 7848SOL    HW235004   1.498   3.346   5.655 -0.8026  0.8522  1.5596
 7849SOL     OW35005   2.260   4.430   1.701  0.2269 -0.2628  0.0231
 7849SOL    HW135006   2.185   4.425   1.761  0.5112 -0.6475  0.3468
 7849SOL    HW235007   2.317   4.496   1.739 -1.2506  0.0286  1.7431
 7850SOL     OW35008   3.239   1.681   4.587 -0.1937  0.1795 -0.4843
 7850SOL    HW135009   3.145   1.696   4.585 -0.1582  1.1844  3.7277
 7850SOL    HW235010   3.263   1.726   4.506  0.2933 -1.6392 -1.3454
 7851SOL     OW35011   0.617   1.124   4.235  0.2738  0.5575 -0.2153
 7851SOL    HW135012   0.624   1.062   4.162  1.7891 -1.5377  1.7392
 7851SOL    HW235013   0.690   1.104   4.292  0.4617 -3.3928 -1.8125
 7852SOL     OW35014   1.633   4.670   2.347 -0.7788  0.2513 -0.3461
 7852SOL    HW135015   1.713   4.690   2.395 -2.0878  3.4803  0.4914
 7852SOL    HW235016   1.660   4.617   2.272  1.1153  0.6620  0.0676
 7853SOL     OW35017   0.468   4.293  16.381 -0.3726  0.4066  0.3052
 7853SOL    HW135018   0.380   4.330  16.373  0.0531  1.5896  1.0594
 7853SOL    HW235019   0.524   4.363  16.347  0.6093 -0.4498  0.1552
 7854SOL     OW35020   4.535   4.716   6.140 -0.0752  0.1565 -0.2718
 7854SOL    HW135021   4.504   0.083   6.118 -0.4866  0.2987  0.9231
 7854SOL    HW235022   4.621   0.021   6.173 -0.7716  1.4173  0.5197
 7855SOL     OW35023   4.661   3.279   8.144  0.5231 -0.1417  0.2433
 7855SOL    HW135024   4.638   3.188   8.164 -2.2623  0.2059 -1.3000
 7855SOL    HW235025   4.674   3.304   8.235  0.0879  1.2561 -0.0669
 7856SOL     OW35026   0.944   0.115   4.074  0.1693  0.0003  0.0186
 7856SOL    HW135027   0.899   0.198   4.057  0.5378  0.4196  1.1162
 7856SOL    HW235028   0.964   0.127   4.167  1.5248  0.7970 -0.3714
 7857SOL     OW35029   3.223   3.476  12.093  0.6294 -0.1584 -0.2383
 7857SOL    HW135030   3.239   3.518  12.178 -0.0890 -0.2606 -0.0593
 7857SOL    HW235031   3.139   3.438  12.117  0.9018  0.2374  1.3476
 7858SOL     OW35032   1.315   0.513  10.618 -0.3462 -0.2388  0.2934
 7858SOL    HW135033   1.241   0.457  10.595  0.6648 -2.1798  1.7657
 7858SOL    HW235034   1.323   0.494  10.712 -0.1101 -0.2425  0.2703
 7859SOL     OW35035   2.738   0.527   2.787 -0.1826  0.0924 -0.2894
 7859SOL    HW135036   2.771   0.547   2.699 -0.5005 -1.6789 -0.8101
 7859SOL    HW235037   2.806   0.553   2.850  0.0247 -0.6946 -0.1938
 7860SOL     OW35038   0.828   4.321   1.337  0.4758  0.0745  0.0697
 7860SOL    HW135039   0.739   4.296   1.311  1.3276 -2.1136 -0.7074
 7860SOL    HW235040   0.822   4.304   1.431  0.9498 -0.0100  0.0863
 7861SOL     OW35041   1.203   4.105  12.421 -0.6143  0.0470  0.0695
 7861SOL    HW135042   1.154   4.087  12.502  2.5580  1.2272  2.2147
 7861SOL    HW235043   1.287   4.104  12.466 -0.2809  0.3938 -0.5446
 7862SOL     OW35044   0.699   0.156   1.334  0.0763  0.1154 -0.4441
 7862SOL    HW135045   0.620   0.144   1.281  0.3314  0.4268 -0.8864
 7862SOL    HW235046   0.674   0.228   1.393  0.8311 -1.2994  1.5805
 7863SOL     OW35047   2.084   2.101   1.913 -0.0656 -0.3343  0.0875
 7863SOL    HW135048   2.017   2.159   1.948 -0.1669 -1.0513  1.0658
 7863SOL    HW235049   2.123   2.083   1.998  0.5450 -2.9815 -0.7443
 7864SOL     OW35050   2.253   3.400   2.076  0.3384 -0.1860  0.5627
 7864SOL    HW135051   2.266   3.452   2.155  0.9546 -0.8456  0.8902
 7864SOL    HW235052   2.157   3.399   2.074  0.3971 -0.5886 -2.0590
 7865SOL     OW35053   0.689   1.751  14.958 -0.0139  0.2428  0.5585
 7865SOL    HW135054   0.676   1.699  15.037  1.6665 -0.7072  0.2052
 7865SOL    HW235055   0.672   1.682  14.893  0.2376  2.0489 -1.4369
 7866SOL     OW35056   0.894   1.024  15.451 -0.5006  0.8101  0.2007
 7866SOL    HW135057   0.882   1.029  15.356  1.5166 -0.2567 -0.0897
 7866SOL    HW235058   0.871   1.114  15.477  0.6098  1.5423 -1.3400
 7867SOL     OW35059   3.603   4.472   5.063  0.1133  0.0459  0.0428
 7867SOL    HW135060   3.629   4.445   5.152  0.1551  0.2367  0.0893
 7867SOL    HW235061   3.683   4.463   5.011 -0.4051 -0.9387 -0.5843
 7868SOL     OW35062   1.339   3.425   0.574  0.0411 -0.0504  0.7605
 7868SOL    HW135063   1.323   3.493   0.639 -1.4963 -0.0696  0.3990
 7868SOL    HW235064   1.278   3.357   0.600  0.7962 -1.5167 -1.3068
 7869SOL     OW35065   2.009   3.592   7.600  0.0308  0.1915 -0.6198
 7869SOL    HW135066   2.055   3.618   7.680  0.6449  1.8163 -1.4898
 7869SOL    HW235067   1.920   3.586   7.632  1.6167 -2.3524  3.2446
 7870SOL     OW35068   0.328   2.472   0.406  0.3679  0.2253 -0.4328
 7870SOL    HW135069   0.407   2.521   0.430 -0.8279  1.3714  1.2857
 7870SOL    HW235070   0.356   2.392   0.363  1.2940 -0.5227  1.5271
 7871SOL     OW35071   1.033   1.036  10.059 -1.1522 -0.0348  0.0974
 7871SOL    HW135072   1.114   0.990  10.082 -0.3946  1.0064 -0.4955
 7871SOL    HW235073   1.063   1.126  10.046  1.8419 -0.5856  3.2050
 7872SOL     OW35074   3.021   2.547   3.562 -0.1562  0.1056  0.1172
 7872SOL    HW135075   3.096   2.513   3.515 -0.2976  2.2973 -1.6968
 7872SOL    HW235076   2.948   2.566   3.502  0.1246 -0.5864 -0.4408
 7873SOL     OW35077   2.140   1.571  16.098  0.0740  0.1178 -0.4190
 7873SOL    HW135078   2.134   1.546  16.006 -0.2358  2.0004 -0.9012
 7873SOL    HW235079   2.163   1.485  16.135  0.8062 -0.7713 -2.9534
 7874SOL     OW35080   2.050   3.748  17.616  0.6645  0.2139  0.4836
 7874SOL    HW135081   1.988   3.708  17.677 -0.5272  0.4695 -0.5597
 7874SOL    HW235082   2.117   3.786  17.673 -0.1617 -0.2867  1.7712
 7875SOL     OW35083   1.146   0.746   6.439 -0.6540 -0.1926 -0.0199
 7875SOL    HW135084   1.113   0.832   6.413 -0.0594 -0.5577 -2.0477
 7875SOL    HW235085   1.227   0.734   6.389 -0.2999  1.5727  0.1593
 7876SOL     OW35086   1.590   4.050   1.634  0.0647  0.1957  0.2688
 7876SOL    HW135087   1.638   4.015   1.709 -0.9654  2.2827  1.9117
 7876SOL    HW235088   1.582   4.139   1.670 -1.5530  1.4035 -3.0866
 7877SOL     OW35089   2.871   1.708   3.697 -0.0946  0.8020  0.2171
 7877SOL    HW135090   2.902   1.681   3.783  0.3284  1.7683  0.3727
 7877SOL    HW235091   2.793   1.654   3.704  0.9251 -0.6544  0.3135
 7878SOL     OW35092   2.385   3.364   0.857 -0.5504 -0.5247  0.7834
 7878SOL    HW135093   2.456   3.424   0.882 -0.8968  0.8266 -1.5142
 7878SOL    HW235094   2.415   3.287   0.907 -2.8861 -0.4705  2.2560
 7879SOL     OW35095   2.843   4.515  14.352 -0.1669 -0.4406  0.2843
 7879SOL    HW135096   2.877   4.585  14.295 -1.4075  0.9672  1.2844
 7879SOL    HW235097   2.905   4.447  14.326  1.2486  0.5990  0.9600
 7880SOL     OW35098   3.253   1.655   9.450 -0.1065 -0.3755  0.3765
 7880SOL    HW135099   3.265   1.599   9.526 -2.5446  1.5607  2.2025
 7880SOL    HW235100   3.161   1.678   9.462 -0.0915 -0.0426 -0.1417
 7881SOL     OW35101   1.305   3.458   1.450  0.0574 -0.5298 -0.1893
 7881SOL    HW135102   1.221   3.459   1.405  0.3004 -0.7192 -0.6514
 7881SOL    HW235103   1.300   3.370   1.486  0.3644  0.4845  2.3383
 7882SOL     OW35104   4.056   2.828  11.550 -0.2003 -0.1097  0.2011
 7882SOL    HW135105   4.051   2.765  11.622 -1.2333  0.5149  0.6918
 7882SOL    HW235106   4.130   2.876  11.586 -1.2457  1.4167  0.3324
 7883SOL     OW35107   0.772   1.134   3.541  0.0724  0.1671  0.2520
 7883SOL    HW135108   0.778   1.068   3.472  1.4717  1.1687 -0.6107
 7883SOL    HW235109   0.781   1.077   3.617 -3.6042 -1.2896 -0.4152
 7884SOL     OW35110   1.313   2.381  10.082 -0.7390 -0.7639  0.3300
 7884SOL    HW135111   1.264   2.375  10.164 -0.5665  0.8675  0.5559
 7884SOL    HW235112   1.361   2.299  10.084 -0.7438 -0.7832 -0.4067
 7885SOL     OW35113   4.509   4.240  14.502 -0.1551 -0.4335 -0.2359
 7885SOL    HW135114   4.417   4.264  14.511 -0.0057  0.1824 -0.3620
 7885SOL    HW235115   4.548   4.320  14.537 -1.6330  0.2629 -0.1844
 7886SOL     OW35116   0.715   3.865   6.057  0.1582  0.4398 -0.0349
 7886SOL    HW135117   0.765   3.941   6.026  0.9190 -0.2454 -0.4972
 7886SOL    HW235118   0.775   3.793   6.037 -0.4263 -0.1614  0.3881
 7887SOL     OW35119   4.434   1.832  10.381  0.0149  0.1330 -0.2640
 7887SOL    HW135120   4.395   1.808  10.296 -0.2952  0.0252 -0.0900
 7887SOL    HW235121   4.479   1.752  10.408  0.9206 -0.0482 -2.2441
 7888SOL     OW35122   0.387   2.769   9.794  0.2084 -0.9944 -0.1645
 7888SOL    HW135123   0.326   2.719   9.740 -0.5234  0.7204 -0.9173
 7888SOL    HW235124   0.433   2.825   9.731 -0.5314 -0.5143 -0.2762
 7889SOL     OW35125   3.716   4.159   2.665  0.6383  0.1168  0.4497
 7889SOL    HW135126   3.729   4.253   2.661  2.2516 -0.1010  0.4508
 7889SOL    HW235127   3.796   4.122   2.702  2.4110  3.8445  0.3195
 7890SOL     OW35128   3.245   3.895   7.125 -0.6587 -0.1045  0.6747
 7890SOL    HW135129   3.292   3.978   7.138 -1.4185  0.9587 -3.2831
 7890SOL    HW235130   3.223   3.864   7.213  0.4573 -0.4716  0.8274
 7891SOL     OW35131   4.323   3.416  16.970  0.0377  0.0769 -0.0262
 7891SOL    HW135132   4.406   3.368  16.973  1.6696  2.9140  0.6994
 7891SOL    HW235133   4.337   3.474  16.895 -2.4564 -0.2701 -0.7505
 7892SOL     OW35134   1.735   0.995   5.373 -0.0681  0.4315 -0.1944
 7892SOL    HW135135   1.795   0.963   5.441 -2.2180 -2.7385  0.1874
 7892SOL    HW235136   1.794   0.990   5.298  2.8564 -0.5379  2.1157
 7893SOL     OW35137   4.467   0.041  17.445  1.0369  0.1681  0.2269
 7893SOL    HW135138   4.488   0.129  17.411  1.5019  0.0063  0.0874
 7893SOL    HW235139   4.507   4.696  17.388 -0.4425  0.6368 -1.3807
 7894SOL     OW35140   2.998   1.767  15.293  0.1720 -0.4403 -0.3729
 7894SOL    HW135141   2.930   1.785  15.229 -1.6961 -0.3393  1.6328
 7894SOL    HW235142   2.948   1.741  15.371  0.7242 -0.0177  0.1229
 7895SOL     OW35143   3.930   0.176   8.655 -0.4024  0.0709  0.1453
 7895SOL    HW135144   3.939   0.127   8.573 -0.5498  0.7952 -0.2985
 7895SOL    HW235145   3.933   0.265   8.619 -2.2132 -0.4455 -1.3499
 7896SOL     OW35146   3.245   2.460  11.169  0.2193 -0.4498 -0.0224
 7896SOL    HW135147   3.307   2.523  11.207  0.7448 -1.4077  0.6838
 7896SOL    HW235148   3.216   2.423  11.252  2.0289 -3.3275 -0.6978
 7897SOL     OW35149   3.189   3.233   9.820  0.4778  0.3091 -0.1749
 7897SOL    HW135150   3.121   3.258   9.757  0.1345 -1.8685 -0.6367
 7897SOL    HW235151   3.255   3.178   9.777  0.4573  1.3127 -1.5048
 7898SOL     OW35152   0.752   1.574  12.006  0.5786 -1.0685 -0.0870
 7898SOL    HW135153   0.838   1.607  11.981  0.1442  0.4239  0.4171
 7898SOL    HW235154   0.695   1.601  11.934 -1.8437 -0.2615  2.1595
 7899SOL     OW35155   0.244   2.011   7.157 -0.3617 -0.3946 -0.2409
 7899SOL    HW135156   0.154   1.991   7.129 -0.8079  1.0562  0.1749
 7899SOL    HW235157   0.275   1.927   7.191 -1.1731 -1.1152 -1.2949
 7900SOL     OW35158   1.160   4.650   3.486  0.3552  0.4437  0.4698
 7900SOL    HW135159   1.146   4.719   3.550  2.6035  3.3181 -2.1224
 7900SOL    HW235160   1.215   4.589   3.536  0.0343  1.2850  1.8439
 7901SOL     OW35161   3.072   4.157  15.834 -1.0575 -0.6908  0.1622
 7901SOL    HW135162   3.144   4.199  15.882 -0.7060 -0.3055 -0.6952
 7901SOL    HW235163   3.008   4.194  15.895  0.1036  0.3252  0.7644
 7902SOL     OW35164   1.598   3.876   3.549 -0.2737  0.3451 -0.1160
 7902SOL    HW135165   1.558   3.937   3.612 -3.7380 -1.2681 -0.7558
 7902SOL    HW235166   1.541   3.884   3.473  0.5984  1.7416 -0.6368
 7903SOL     OW35167   4.544   0.089   3.444 -0.3321  0.1588 -0.4677
 7903SOL    HW135168   4.449   0.097   3.438 -0.2171 -0.1486 -2.9798
 7903SOL    HW235169   4.549   0.023   3.512  0.7175  0.7391  0.0241
 7904SOL     OW35170   0.372   0.850  16.402  0.1079 -0.0937  0.0233
 7904SOL    HW135171   0.301   0.897  16.358  0.4368 -0.5759 -1.0332
 7904SOL    HW235172   0.355   0.877  16.492  1.7860 -3.1585  1.2596
 7905SOL     OW35173   0.207   4.278   9.187  0.4253  0.0054  0.1386
 7905SOL    HW135174   0.144   4.346   9.213 -0.1026  0.2208 -1.7490
 7905SOL    HW235175   0.153   4.233   9.122  0.7514 -1.6089  1.0033
 7906SOL     OW35176   2.258   1.155   6.021  0.4373 -0.2181 -0.0198
 7906SOL    HW135177   2.271   1.089   6.089  1.6523 -0.5353 -0.5651
 7906SOL    HW235178   2.174   1.194   6.045 -1.4072 -4.1224 -0.2631
 7907SOL     OW35179   0.753   1.616  13.319 -0.0599  0.0012 -0.1017
 7907SOL    HW135180   0.762   1.536  13.268  1.0644 -0.6125  1.0668
 7907SOL    HW235181   0.672   1.651  13.282 -1.7028 -1.9587  1.6196
 7908SOL     OW35182   4.441   1.626   4.913 -0.5153  0.1214 -0.0557
 7908SOL    HW135183   4.358   1.658   4.877  0.3129  2.2767 -0.0370
 7908SOL    HW235184   4.405   1.549   4.959 -0.2081  1.1451  1.8867
 7909SOL     OW35185   0.159   0.804  12.544  0.5733  0.2176  0.4237
 7909SOL    HW135186   0.140   0.848  12.461  1.0707 -1.1983 -0.4383
 7909SOL    HW235187   0.204   0.729  12.507 -1.6314 -0.8940  0.0010
 7910SOL     OW35188   4.480   1.202   5.676  0.1201  0.7179  0.3442
 7910SOL    HW135189   4.460   1.273   5.737  1.5384  3.2456 -2.1141
 7910SOL    HW235190   4.540   1.249   5.618 -1.0403  0.9327 -0.6974
 7911SOL     OW35191   1.547   4.351   1.289  0.1242  0.5065 -0.6566
 7911SOL    HW135192   1.582   4.273   1.245 -0.2777  0.0923 -0.2391
 7911SOL    HW235193   1.460   4.348   1.251 -0.3192  0.4407  0.3495
 7912SOL     OW35194   2.156   2.821  11.153  0.3261  0.1170  0.4246
 7912SOL    HW135195   2.108   2.904  11.146  0.7843  0.4844  1.6109
 7912SOL    HW235196   2.125   2.803  11.242  0.7667 -0.1047  0.5354
 7913SOL     OW35197   3.899   2.681   7.455 -0.1568 -0.5566 -0.4057
 7913SOL    HW135198   3.884   2.675   7.549 -2.5935  0.9835 -0.7072
 7913SOL    HW235199   3.879   2.772   7.432 -2.3739 -1.3371 -1.5321
 7914SOL     OW35200   1.843   2.819   4.911 -0.3359  0.4109  0.3202
 7914SOL    HW135201   1.824   2.739   4.862 -4.4037  1.2167  0.5749
 7914SOL    HW235202   1.784   2.883   4.871 -1.9073 -0.3370  1.4295
 7915SOL     OW35203   0.191   1.711  17.198  0.5624  0.1797  0.1177
 7915SOL    HW135204   0.197   1.669  17.112  0.7792 -0.2230  0.3355
 7915SOL    HW235205   0.222   1.640  17.254  0.4138 -0.1924 -0.2740
 7916SOL     OW35206   4.584   0.597   5.218 -0.5503 -0.2960  0.2469
 7916SOL    HW135207   4.491   0.594   5.238 -0.7581  0.6152 -0.6011
 7916SOL    HW235208   4.588   0.640   5.133 -0.1616 -0.9169 -0.0530
 7917SOL     OW35209   3.590   1.445  11.493  0.1490 -0.5768 -0.3867
 7917SOL    HW135210   3.588   1.539  11.473 -1.3212 -0.3795  0.7082
 7917SOL    HW235211   3.683   1.429  11.478  0.2796 -1.6187  1.4600
 7918SOL     OW35212   3.818   4.683  17.443 -0.5700 -0.1831 -0.6137
 7918SOL    HW135213   3.739   4.664  17.393 -0.5008 -1.2653 -0.3114
 7918SOL    HW235214   3.801   4.611  17.504 -0.1601 -1.4576 -2.0210
 7919SOL     OW35215   2.313   3.575   8.971  0.1525 -0.9362 -0.2853
 7919SOL    HW135216   2.258   3.511   9.016 -0.6006  0.5240  0.8839
 7919SOL    HW235217   2.396   3.575   9.020  0.3776  0.9729 -0.6677
 7920SOL     OW35218   2.213   4.366  11.383  0.7980 -0.1636 -0.0240
 7920SOL    HW135219   2.290   4.320  11.415  1.2901 -0.2709 -1.3786
 7920SOL    HW235220   2.247   4.408  11.304 -0.9010 -1.6894 -1.5649
 7921SOL     OW35221   1.112   2.762   6.339  0.2548  0.0837  0.4739
 7921SOL    HW135222   1.171   2.801   6.275 -2.9369  0.0488 -2.5121
 7921SOL    HW235223   1.169   2.687   6.353  0.2294  0.6741  3.6778
 7922SOL     OW35224   3.505   3.247  16.084  0.8432 -0.0839  0.0512
 7922SOL    HW135225   3.548   3.207  16.009 -1.2974  0.3917 -1.4311
 7922SOL    HW235226   3.576   3.244  16.149 -0.5115 -0.9764  1.4930
 7923SOL     OW35227   1.489   1.855  15.556 -0.4113 -0.2634  0.2232
 7923SOL    HW135228   1.505   1.774  15.604  0.9612 -0.0301  0.1492
 7923SOL    HW235229   1.533   1.910  15.620 -0.7004  1.2407 -0.8693
 7924SOL     OW35230   1.479   0.827   4.975 -0.0053 -0.0045 -0.4338
 7924SOL    HW135231   1.442   0.781   5.050 -1.0805  0.1199 -0.8908
 7924SOL    HW235232   1.512   0.748   4.933  0.6155 -0.7962  1.6027
 7925SOL     OW35233   1.492   3.632   1.539 -0.3074 -0.1768  0.0972
 7925SOL    HW135234   1.513   3.576   1.614  2.7634 -1.0894 -1.4341
 7925SOL    HW235235   1.408   3.596   1.511  0.4535 -1.9853  0.1300
 7926SOL     OW35236   4.078   4.461   9.985 -1.0015  0.1883  0.4400
 7926SOL    HW135237   4.020   4.385   9.997 -2.2256  1.2185  1.1143
 7926SOL    HW235238   4.025   4.527  10.029 -0.6615  0.3232  0.6393
 7927SOL     OW35239   4.175   0.495  15.897  0.5145 -0.1571 -0.0174
 7927SOL    HW135240   4.118   0.569  15.917 -1.6287 -1.9014  0.3691
 7927SOL    HW235241   4.233   0.491  15.974  1.9339 -0.2674 -1.0927
 7928SOL     OW35242   2.378   4.418   6.312  0.2649  0.1196  0.1600
 7928SOL    HW135243   2.299   4.460   6.344 -0.7679 -2.7941  1.4385
 7928SOL    HW235244   2.380   4.449   6.221  2.3850  0.4124  0.2997
 7929SOL     OW35245   1.556   3.353   6.392  0.4500  0.0231  0.0839
 7929SOL    HW135246   1.597   3.423   6.443 -0.6172  0.6909  0.0392
 7929SOL    HW235247   1.473   3.342   6.438  0.3156 -2.1615 -0.7020
 7930SOL     OW35248   1.764   3.915   1.839  0.4906  0.3848  0.2770
 7930SOL    HW135249   1.713   3.929   1.919 -1.2770  1.5449 -1.0474
 7930SOL    HW235250   1.807   3.831   1.855 -0.3997 -0.4043 -1.4497
 7931SOL     OW35251   0.352   0.731   6.432 -0.5593 -0.0337  0.4818
 7931SOL    HW135252   0.379   0.639   6.427 -1.5270 -0.2365 -1.0241
 7931SOL    HW235253   0.433   0.777   6.410  0.7046 -2.4605 -0.0531
 7932SOL     OW35254   0.313   3.972   6.664  0.4986  0.2258  0.1989
 7932SOL    HW135255   0.252   3.996   6.595 -1.4075  0.9101  2.1416
 7932SOL    HW235256   0.365   4.053   6.663 -0.0159  0.5677  1.4474
 7933SOL     OW35257   2.324   2.867   2.583 -0.0539 -0.6159  0.1100
 7933SOL    HW135258   2.280   2.802   2.638  0.0288  0.0089  0.9109
 7933SOL    HW235259   2.384   2.815   2.531  1.6456  1.2253  0.2446
 7934SOL     OW35260   0.129   1.316  16.015  0.6974 -0.5350 -0.2720
 7934SOL    HW135261   0.071   1.263  16.069  0.9532 -0.2655  0.2716
 7934SOL    HW235262   0.064   1.381  15.989  0.7077 -0.4563 -0.1002
 7935SOL     OW35263   0.385   3.606   9.250 -0.6048  0.0497 -0.3001
 7935SOL    HW135264   0.365   3.519   9.286 -0.2912  0.3807  0.6786
 7935SOL    HW235265   0.457   3.624   9.311 -0.6059 -1.4406  0.1460
 7936SOL     OW35266   0.426   1.307   5.077  0.6311  0.5649 -0.4714
 7936SOL    HW135267   0.363   1.308   5.149 -2.1231  0.7033 -2.8546
 7936SOL    HW235268   0.484   1.231   5.085 -1.2920 -0.4843  3.9093
 7937SOL     OW35269   4.428   4.264  11.794  0.8175  0.6431  0.1873
 7937SOL    HW135270   4.488   4.221  11.733 -2.2646 -3.2037 -0.2198
 7937SOL    HW235271   4.492   4.304  11.852  0.4768 -0.1845  1.1601
 7938SOL     OW35272   0.968   4.101   2.207  0.2651 -0.0366 -0.4043
 7938SOL    HW135273   0.949   4.008   2.218 -1.5820  0.0023 -3.3124
 7938SOL    HW235274   1.064   4.097   2.204  0.2807 -1.2977  1.7458
 7939SOL     OW35275   0.710   3.532   3.676  0.2175  0.1539  0.3640
 7939SOL    HW135276   0.634   3.590   3.685 -0.7778 -1.2293  0.7728
 7939SOL    HW235277   0.787   3.590   3.675 -1.4071  2.3098  0.0131
 7940SOL     OW35278   0.929   3.153   8.234 -0.3281 -0.3322  0.1128
 7940SOL    HW135279   0.915   3.061   8.211  0.8181 -0.3985 -0.2884
 7940SOL    HW235280   1.013   3.146   8.279 -0.0238 -1.2132 -0.5919
 7941SOL     OW35281   3.805   0.142   9.298 -0.2678  0.0546  0.0095
 7941SOL    HW135282   3.828   0.224   9.255  0.1751  0.5660  1.2175
 7941SOL    HW235283   3.852   0.080   9.242 -1.8902 -0.1223 -1.1400
 7942SOL     OW35284   0.695   0.894  15.727 -0.6195 -0.5328  0.1889
 7942SOL    HW135285   0.668   0.979  15.692  0.6803 -0.1161  0.2178
 7942SOL    HW235286   0.631   0.900  15.798 -2.6987 -1.3775 -1.5875
 7943SOL     OW35287   1.263   1.136   1.018  0.0769 -0.2363 -0.2672
 7943SOL    HW135288   1.194   1.184   1.062  0.0465  0.9911 -1.6342
 7943SOL    HW235289   1.334   1.136   1.082  0.2566 -1.0032 -0.4606
 7944SOL     OW35290   4.654   0.692   5.509  0.0136 -0.0222 -0.2165
 7944SOL    HW135291   4.666   0.786   5.521 -0.7451 -0.0267  0.5626
 7944SOL    HW235292   4.631   0.679   5.417 -1.5988  1.0863  0.0322
 7945SOL     OW35293   2.789   3.117   5.926 -0.0908  0.1369  0.5708
 7945SOL    HW135294   2.885   3.117   5.928 -0.0587 -1.2627 -0.7659
 7945SOL    HW235295   2.785   3.207   5.956  0.6874  0.6863 -0.9721
 7946SOL     OW35296   1.498   1.766  16.238  0.5268  0.2082 -0.2056
 7946SOL    HW135297   1.558   1.831  16.274  0.6091  0.1556 -0.2496
 7946SOL    HW235298   1.524   1.776  16.147  0.2357 -0.5620 -0.3721
 7947SOL     OW35299   4.255   0.605  13.727 -0.7624 -0.0652  0.2687
 7947SOL    HW135300   4.268   0.698  13.705  0.5077  0.0460  1.4958
 7947SOL    HW235301   4.313   0.605  13.803 -1.9959 -0.7616  1.2072
 7948SOL     OW35302   0.693   1.598   9.283 -0.2175 -0.2586 -0.1781
 7948SOL    HW135303   0.710   1.688   9.311 -0.6415  0.5003 -2.3771
 7948SOL    HW235304   0.739   1.548   9.351 -1.6530  0.6113  1.4388
 7949SOL     OW35305   2.786   2.012   4.599  0.8401  0.4103 -0.0781
 7949SOL    HW135306   2.733   2.091   4.583  0.7140  0.3321 -0.0410
 7949SOL    HW235307   2.831   2.034   4.680 -1.4249  0.8958  1.0495
 7950SOL     OW35308   1.946   3.484   8.363  0.2278  0.1065 -0.0879
 7950SOL    HW135309   2.032   3.487   8.403  0.3644  1.1497 -0.4391
 7950SOL    HW235310   1.907   3.499   8.449  0.0745 -1.0948  0.0556
 7951SOL     OW35311   3.600   4.091   0.862 -0.0483 -0.1061 -0.1161
 7951SOL    HW135312   3.664   4.088   0.791 -0.4203  0.5520 -0.4870
 7951SOL    HW235313   3.573   4.182   0.875 -1.7038 -0.5131 -0.7448
 7952SOL     OW35314   0.139   0.983   8.640  0.1633 -0.5265  0.0999
 7952SOL    HW135315   0.175   0.980   8.552 -0.4456 -1.0458 -0.1372
 7952SOL    HW235316   0.062   1.040   8.634  1.9471  1.8856  0.4794
 7953SOL     OW35317   2.980   0.826  11.186  0.2317 -0.0102 -0.1894
 7953SOL    HW135318   2.901   0.877  11.166  0.2064 -1.2693 -3.1630
 7953SOL    HW235319   2.950   0.745  11.228  0.9425 -0.5811 -0.7873
 7954SOL     OW35320   4.123   1.000  15.582 -0.1053  1.2422  0.0973
 7954SOL    HW135321   4.030   1.021  15.577 -0.4045 -0.3910 -1.0619
 7954SOL    HW235322   4.138   0.965  15.494  0.0884  0.4775  0.4394
 7955SOL     OW35323   3.361   3.903  15.753  0.1027  0.0474  0.1857
 7955SOL    HW135324   3.430   3.969  15.743 -0.5899  0.4577 -1.8580
 7955SOL    HW235325   3.407   3.834  15.801  1.2017 -0.0844 -1.0598
 7956SOL     OW35326   1.851   3.649   5.938  0.7215  0.4890 -0.6208
 7956SOL    HW135327   1.903   3.595   5.879 -0.8029 -1.7707  0.1175
 7956SOL    HW235328   1.917   3.708   5.975 -3.1255  4.5078 -0.1752
 7957SOL     OW35329   2.771   3.528   6.886  0.1710 -0.0851  0.1589
 7957SOL    HW135330   2.677   3.549   6.881 -0.0564 -1.1948 -0.3152
 7957SOL    HW235331   2.812   3.578   6.816 -2.0031 -2.0123 -2.4990
 7958SOL     OW35332   0.906   1.329   3.371 -0.7589 -0.3195  0.1917
 7958SOL    HW135333   0.883   1.267   3.440 -1.1863 -1.3368 -0.8771
 7958SOL    HW235334   0.873   1.404   3.420 -1.9287 -0.9814  0.4065
 7959SOL     OW35335   2.919   3.985  15.530 -0.4758 -0.0673  0.0792
 7959SOL    HW135336   3.011   3.964  15.516 -0.4402 -0.3715  0.7609
 7959SOL    HW235337   2.921   4.074  15.565 -0.8274  0.0275 -0.1392
 7960SOL     OW35338   1.053   1.033   6.383 -0.2799  0.3055 -0.0942
 7960SOL    HW135339   1.050   1.075   6.298 -1.4565  1.0450  0.3019
 7960SOL    HW235340   0.962   1.030   6.413  0.0248  0.5371  0.8549
 7961SOL     OW35341   0.486   3.664   7.928  0.0691 -0.1276 -0.4715
 7961SOL    HW135342   0.538   3.658   8.008  2.0578 -1.9556 -1.9056
 7961SOL    HW235343   0.399   3.682   7.964  0.0184  0.7943 -1.0414
 7962SOL     OW35344   3.347   2.419   3.179 -0.4256  0.3853 -0.2222
 7962SOL    HW135345   3.428   2.373   3.200 -0.9686  0.0963  1.2448
 7962SOL    HW235346   3.366   2.472   3.102  0.6428 -0.6767 -0.6935
 7963SOL     OW35347   0.357   0.210   6.985 -0.1290 -0.2524  0.4936
 7963SOL    HW135348   0.324   0.182   6.899  2.3014 -1.4387 -0.0507
 7963SOL    HW235349   0.387   0.124   7.015 -0.6342  0.3199  2.5912
 7964SOL     OW35350   4.052   3.825   8.149  0.2790  0.0329 -0.4099
 7964SOL    HW135351   4.032   3.812   8.056 -0.3510 -0.5282 -0.1985
 7964SOL    HW235352   4.114   3.898   8.146 -0.8176  0.8326 -3.4686
 7965SOL     OW35353   1.120   3.271   9.384  0.1103  0.3571 -0.5730
 7965SOL    HW135354   1.148   3.341   9.442  1.1806  1.3369 -2.2804
 7965SOL    HW235355   1.120   3.192   9.438  5.0708  1.8974  1.6802
 7966SOL     OW35356   4.459   1.698   7.671 -0.3449  0.2524 -0.1151
 7966SOL    HW135357   4.366   1.687   7.688  0.5746  0.2689  4.8919
 7966SOL    HW235358   4.464   1.688   7.576  1.6496  0.6252 -0.0568
 7967SOL     OW35359   0.332   3.483  11.374 -0.6753  0.3829 -0.3440
 7967SOL    HW135360   0.397   3.516  11.312  1.9810 -1.8869  1.2639
 7967SOL    HW235361   0.256   3.458  11.322 -0.3562 -3.0098  0.8625
 7968SOL     OW35362   1.188   2.355   6.540  0.2357 -0.2987 -0.0587
 7968SOL    HW135363   1.146   2.342   6.625 -0.1516  0.8889 -0.0676
 7968SOL    HW235364   1.277   2.338   6.570  0.0533  0.4652  0.9419
 7969SOL     OW35365   2.331   3.318   5.641 -0.5330 -0.4581 -0.3244
 7969SOL    HW135366   2.314   3.278   5.556  2.0242 -0.3104 -0.9002
 7969SOL    HW235367   2.308   3.252   5.706 -2.6407  1.5021  0.9463
 7970SOL     OW35368   3.752   0.787   4.003  0.0875 -0.0030  0.7924
 7970SOL    HW135369   3.763   0.716   4.066 -0.8338  0.0364  0.9998
 7970SOL    HW235370   3.688   0.749   3.942 -0.3738  1.9287  0.0720
 7971SOL     OW35371   3.829   1.820  11.008 -0.3093  0.0837 -0.0667
 7971SOL    HW135372   3.921   1.844  10.997  0.0814 -1.2603  0.2535
 7971SOL    HW235373   3.806   1.875  11.084 -1.3048  0.4710 -0.6542
 7972SOL     OW35374   4.429   3.757   2.533  0.4836 -0.1182  0.0348
 7972SOL    HW135375   4.513   3.802   2.540 -0.1116  0.7655  1.5403
 7972SOL    HW235376   4.426   3.697   2.607 -0.1962  0.5310  0.5357
 7973SOL     OW35377   4.682   0.396   3.606  0.5245 -0.9190 -0.4667
 7973SOL    HW135378   4.717   0.485   3.612  1.2687 -1.2278 -0.2625
 7973SOL    HW235379   4.642   0.401   3.519 -1.2269  0.8425  0.4381
 7974SOL     OW35380   4.471   1.074  11.452  0.2964  0.2479 -1.0396
 7974SOL    HW135381   4.376   1.074  11.443  0.2355  0.3997 -0.3637
 7974SOL    HW235382   4.472   1.129  11.530 -0.7529 -0.2493 -0.6727
 7975SOL     OW35383   2.535   2.434   8.622  0.5755 -0.4055  0.0144
 7975SOL    HW135384   2.540   2.471   8.710 -2.1059 -4.4664  1.9208
 7975SOL    HW235385   2.560   2.342   8.632 -1.0416 -0.3192  4.9283
 7976SOL     OW35386   2.979   1.910   1.000  0.3220 -1.0166  0.2954
 7976SOL    HW135387   3.073   1.915   0.984  0.2536  2.5249  1.0709
 7976SOL    HW235388   2.951   1.996   0.967  0.1960 -1.1434  0.0662
 7977SOL     OW35389   1.449   1.984   8.940  0.0438  0.1732  0.0681
 7977SOL    HW135390   1.500   2.030   9.007 -1.5968 -1.1895  2.2370
 7977SOL    HW235391   1.400   2.062   8.913  0.2614  0.0825 -0.5943
 7978SOL     OW35392   0.283   2.027   4.091  0.5619  0.3145  0.1342
 7978SOL    HW135393   0.239   1.975   4.159  2.7708 -0.1193  1.2242
 7978SOL    HW235394   0.367   1.982   4.090  0.2729 -0.2599  1.3865
 7979SOL     OW35395   0.624   2.853   3.942  0.3408  0.0623 -0.0104
 7979SOL    HW135396   0.691   2.880   3.879 -0.6202 -0.3005 -1.1767
 7979SOL    HW235397   0.554   2.911   3.913 -0.1259 -1.5034 -1.9923
 7980SOL     OW35398   0.933   3.285   8.911 -0.4146 -0.2205 -0.6555
 7980SOL    HW135399   0.885   3.236   8.977 -0.0151  0.4954  0.1557
 7980SOL    HW235400   0.891   3.367   8.884 -2.9938 -1.0882  0.6977
 7981SOL     OW35401   0.006   1.359  13.064  0.0742 -0.0261  0.1228
 7981SOL    HW135402   4.704   1.312  13.144 -0.3124 -0.5895 -0.3251
 7981SOL    HW235403   4.685   1.305  12.997  3.4332 -2.0077 -0.3812
 7982SOL     OW35404   0.721   1.931   7.765  0.0102  0.2418  0.2219
 7982SOL    HW135405   0.791   1.991   7.789 -0.3843 -0.3222  2.8080
 7982SOL    HW235406   0.739   1.863   7.831  2.5954 -0.1544 -0.8823
 7983SOL     OW35407   3.886   0.573  12.377 -0.5190  0.7951  0.1249
 7983SOL    HW135408   3.839   0.503  12.333 -1.0148  2.2676 -1.6575
 7983SOL    HW235409   3.976   0.543  12.394 -0.5135 -0.5010 -2.2952
 7984SOL     OW35410   4.175   4.202   7.804 -0.3196  0.8688 -0.1686
 7984SOL    HW135411   4.229   4.221   7.881  0.2461 -0.2653 -0.2815
 7984SOL    HW235412   4.219   4.253   7.736  1.3042 -0.9258 -0.4330
 7985SOL     OW35413   0.994   3.477  12.550 -0.0633  0.3127 -0.3412
 7985SOL    HW135414   0.928   3.536  12.514 -0.5863  0.6900  1.2472
 7985SOL    HW235415   0.980   3.486  12.644 -1.6305 -0.0454 -0.5393
 7986SOL     OW35416   4.716   0.284   4.568 -0.1864 -0.0367  0.2006
 7986SOL    HW135417   4.643   0.253   4.513  1.5928  1.2125 -2.8109
 7986SOL    HW235418   4.671   0.322   4.643  1.2547  0.6632  0.7040
 7987SOL     OW35419   2.596   2.704  16.234  0.3769  0.3680  0.1203
 7987SOL    HW135420   2.607   2.626  16.178 -1.3000  0.2482 -0.0402
 7987SOL    HW235421   2.522   2.669  16.284 -1.1093  2.4392 -0.6397
 7988SOL     OW35422   3.116   0.949   8.898  0.7208  0.2705  0.2522
 7988SOL    HW135423   3.114   1.036   8.937 -1.7442  0.5499 -0.5144
 7988SOL    HW235424   3.066   0.897   8.961  2.0697 -0.0425  1.0598
 7989SOL     OW35425   1.720   0.116   3.924  0.0526 -0.1443 -0.5913
 7989SOL    HW135426   1.643   0.173   3.918 -0.4801 -0.7814  0.2152
 7989SOL    HW235427   1.784   0.149   3.860  2.4012 -0.6458  1.4898
 7990SOL     OW35428   0.375   2.115   8.067 -0.3812  0.1655  0.1126
 7990SOL    HW135429   0.334   2.118   8.153 -2.2847 -0.3756 -0.7804
 7990SOL    HW235430   0.461   2.153   8.083  0.6781 -1.1477 -2.4151
 7991SOL     OW35431   3.659   3.975   5.695  0.1312  0.1637  0.1019
 7991SOL    HW135432   3.619   3.973   5.782 -1.0576  0.5365 -0.4386
 7991SOL    HW235433   3.742   3.942   5.728  0.4156 -1.4985 -2.2826
 7992SOL     OW35434   3.672   4.105   3.572  0.0461 -0.3407  0.0617
 7992SOL    HW135435   3.696   4.072   3.659  0.9178  0.6434  0.1944
 7992SOL    HW235436   3.722   4.186   3.584  0.3202 -0.3881 -0.7293
 7993SOL     OW35437   4.352   4.659   7.270  0.1095 -0.9123 -0.3547
 7993SOL    HW135438   4.303   4.636   7.349 -0.1171  1.2775  0.1516
 7993SOL    HW235439   4.377   4.583   7.217 -2.2849 -1.7892 -0.2220
 7994SOL     OW35440   2.152   3.681  10.247 -0.9569 -0.1993  0.2712
 7994SOL    HW135441   2.144   3.768  10.286  0.7735  0.7505 -1.4816
 7994SOL    HW235442   2.171   3.700  10.155  2.3113 -0.3518  0.9283
 7995SOL     OW35443   0.128   3.538   9.039 -0.0710  0.4053 -0.0986
 7995SOL    HW135444   0.150   3.564   9.128  1.7485 -0.7212 -0.2354
 7995SOL    HW235445   0.157   3.447   9.037 -1.2557  0.0939 -3.0294
 7996SOL     OW35446   4.684   1.717   9.746 -0.2277 -0.3899  1.3375
 7996SOL    HW135447   0.038   1.769   9.717 -0.8496 -0.4817 -0.3798
 7996SOL    HW235448   4.696   1.721   9.841  0.1629  0.2097  1.2596
 7997SOL     OW35449   0.467   0.888   2.820  0.1669 -0.1256  0.1385
 7997SOL    HW135450   0.513   0.810   2.789 -0.3043 -0.3883  0.0890
 7997SOL    HW235451   0.392   0.873   2.762 -0.0326  1.2540  0.0518
 7998SOL     OW35452   3.836   1.838   1.944 -0.0557 -0.1755  0.0172
 7998SOL    HW135453   3.853   1.875   1.857 -0.3766 -0.6838 -0.2609
 7998SOL    HW235454   3.742   1.856   1.938  0.1896  1.3139  0.5759
 7999SOL     OW35455   1.947   3.915   7.596 -0.3765 -0.5733 -0.0255
 7999SOL    HW135456   1.936   3.904   7.691  0.0582  3.8432  0.5249
 7999SOL    HW235457   1.857   3.934   7.571  0.3366  0.1235 -2.0541
 8000SOL     OW35458   0.891   4.492   9.197  0.5942  0.3885  0.0588
 8000SOL    HW135459   0.821   4.557   9.187 -3.9960 -4.7795 -1.7396
 8000SOL    HW235460   0.912   4.511   9.288 -0.0412  0.4448  0.1910
 8001SOL     OW35461   0.681   3.066   9.668 -0.5593  0.2347 -0.3803
 8001SOL    HW135462   0.590   3.037   9.670 -0.7061  0.7670  0.6764
 8001SOL    HW235463   0.672   3.135   9.602 -0.2310 -0.4999 -1.1951
 8002SOL     OW35464   0.691   0.663   4.591 -0.1147  0.1747 -0.3126
 8002SOL    HW135465   0.641   0.688   4.669  1.3321 -0.5398  0.8459
 8002SOL    HW235466   0.669   0.734   4.531 -1.1797 -1.2980 -1.6798
 8003SOL     OW35467   1.721   2.053   7.048 -0.3331 -0.0519 -0.2637
 8003SOL    HW135468   1.778   1.983   7.081 -1.5037 -1.3919 -1.0549
 8003SOL    HW235469   1.643   2.021   7.092  0.9238 -1.8642  0.6737
 8004SOL     OW35470   0.566   2.619   8.025 -0.4530  0.1031 -0.2622
 8004SOL    HW135471   0.555   2.596   7.932 -0.3767  1.6182 -0.6482
 8004SOL    HW235472   0.632   2.556   8.054  3.0870  2.6920 -2.6578
 8005SOL     OW35473   2.093   3.366   2.930  0.7488  0.5175 -0.3070
 8005SOL    HW135474   2.079   3.272   2.943  1.4952  0.6944  1.7686
 8005SOL    HW235475   2.128   3.388   3.016  1.0684 -0.8764 -0.0821
 8006SOL     OW35476   3.598   3.620   7.075 -0.0093  0.3065  0.1568
 8006SOL    HW135477   3.602   3.712   7.050  3.5733  1.1507  3.7743
 8006SOL    HW235478   3.531   3.620   7.144 -0.8418  0.0223 -0.6520
 8007SOL     OW35479   3.145   3.574  14.346  0.0515 -0.3863 -0.3388
 8007SOL    HW135480   3.190   3.504  14.300 -1.6486 -2.2099  0.7911
 8007SOL    HW235481   3.063   3.583  14.298  0.7402  0.6151 -1.3385
 8008SOL     OW35482   0.479   4.374   5.761 -0.3134  0.3435  0.2103
 8008SOL    HW135483   0.438   4.319   5.827 -0.6837  0.0374 -0.2782
 8008SOL    HW235484   0.565   4.332   5.765 -0.5953 -0.3011 -0.4670
 8009SOL     OW35485   4.459   4.085  15.299 -0.5492 -0.3826  0.3890
 8009SOL    HW135486   4.371   4.082  15.261 -0.1775  0.1907 -0.5106
 8009SOL    HW235487   4.472   4.179  15.309  0.6654 -0.2814 -2.1461
 8010SOL     OW35488   2.600   0.887   4.030  0.1405 -0.2746 -0.0009
 8010SOL    HW135489   2.546   0.809   4.016  1.0544 -0.9918  0.4404
 8010SOL    HW235490   2.526   0.943   4.052  0.0909  0.1403 -1.2412
 8011SOL     OW35491   2.757   3.122   4.702 -0.1436  0.0236  0.2736
 8011SOL    HW135492   2.708   3.105   4.621 -0.5332 -1.0908  0.7381
 8011SOL    HW235493   2.707   3.198   4.730  0.8655  1.0028 -0.5998
 8012SOL     OW35494   1.633   1.484   8.347  0.5070 -0.4806 -0.7768
 8012SOL    HW135495   1.713   1.531   8.369 -0.6252  1.1943 -0.1659
 8012SOL    HW235496   1.563   1.550   8.349 -1.1300 -2.3017  2.5928
 8013SOL     OW35497   1.856   1.430   2.515  0.1169 -0.2487 -0.3458
 8013SOL    HW135498   1.797   1.505   2.508 -1.7489 -1.7393 -0.8831
 8013SOL    HW235499   1.924   1.463   2.574 -0.7053  0.2044  0.3546
 8014SOL     OW35500   0.011   1.652   7.200 -0.1841 -0.9912  0.0771
 8014SOL    HW135501   0.070   1.627   7.129  0.3365 -2.1249  0.9154
 8014SOL    HW235502   0.062   1.626   7.277  0.1590 -0.3370  0.0738
 8015SOL     OW35503   1.005   2.241   2.807 -0.4304 -0.4546 -0.6258
 8015SOL    HW135504   1.030   2.321   2.854  0.5118 -0.9788 -0.2201
 8015SOL    HW235505   1.088   2.197   2.787 -0.7030 -2.1944  2.1098
 8016SOL     OW35506   3.353   0.790   7.382 -0.3542 -0.0835  0.3825
 8016SOL    HW135507   3.342   0.742   7.300  1.7520  1.7577 -0.9769
 8016SOL    HW235508   3.279   0.772   7.439 -0.0050 -0.3898  0.7366
 8017SOL     OW35509   2.059   0.121  13.957 -0.2265  0.5139 -1.1201
 8017SOL    HW135510   2.020   0.038  13.930  0.3366 -0.0882 -0.0845
 8017SOL    HW235511   2.146   0.124  13.918  1.1181 -0.8917  1.7831
 8018SOL     OW35512   3.210   4.272  15.194  0.8616  0.0986  0.5927
 8018SOL    HW135513   3.121   4.282  15.159  1.3467  1.2090 -0.3289
 8018SOL    HW235514   3.200   4.209  15.266 -1.0782  2.4283  2.3708
 8019SOL     OW35515   4.604   2.751   6.112  0.1368  0.7236 -0.3390
 8019SOL    HW135516   4.682   2.703   6.085 -1.0127 -1.1077 -0.3702
 8019SOL    HW235517   4.546   2.732   6.038 -0.7215  1.2108  0.2079
 8020SOL     OW35518   3.973   0.793   8.181 -0.2230  0.4907 -0.2105
 8020SOL    HW135519   3.906   0.747   8.131  0.7018  0.1471 -1.1260
 8020SOL    HW235520   4.001   0.867   8.128 -1.3247  0.2710 -1.0817
 8021SOL     OW35521   0.297   0.812  10.610  0.1434 -0.2579  0.3998
 8021SOL    HW135522   0.392   0.816  10.617  0.1860  0.5657 -0.8001
 8021SOL    HW235523   0.279   0.728  10.568  0.9623 -0.1020 -0.2458
 8022SOL     OW35524   0.779   1.086   4.448  0.2576  0.2026 -0.1923
 8022SOL    HW135525   0.737   1.154   4.500  2.3870  0.6156  1.0150
 8022SOL    HW235526   0.869   1.078   4.479 -0.9151 -0.9965  2.8601
 8023SOL     OW35527   2.060   3.083   2.980  0.4183 -0.6472  0.0314
 8023SOL    HW135528   2.011   3.048   2.905  1.1428 -0.2040 -0.6516
 8023SOL    HW235529   2.003   3.065   3.054  1.6417  0.5606  1.2602
 8024SOL     OW35530   4.509   1.970   9.547 -0.2274  0.3681 -0.0307
 8024SOL    HW135531   4.448   1.962   9.474 -1.1013  1.9870  0.5084
 8024SOL    HW235532   4.490   1.886   9.588  0.0515  0.1609 -0.3329
 8025SOL     OW35533   2.510   0.044   8.118  0.5504  0.3317 -0.2374
 8025SOL    HW135534   2.465   0.072   8.039 -1.1817  2.6589  1.5893
 8025SOL    HW235535   2.444   0.038   8.187 -0.5914  2.0369 -1.2106
 8026SOL     OW35536   2.603   0.738   5.146 -0.4885  0.3637  0.2586
 8026SOL    HW135537   2.630   0.742   5.054 -1.7946  1.1673 -0.0946
 8026SOL    HW235538   2.611   0.644   5.163 -0.6440  0.6586  1.9934
 8027SOL     OW35539   0.122   2.001   7.596  0.3468  0.5930  0.3455
 8027SOL    HW135540   0.211   2.018   7.565  0.3108  1.7903  0.9229
 8027SOL    HW235541   0.079   2.086   7.593 -2.1590 -0.7051 -0.4218
 8028SOL     OW35542   4.383   0.187   6.024  0.0042  0.1119  0.4910
 8028SOL    HW135543   4.360   0.192   5.932  0.1989  0.0811  0.4412
 8028SOL    HW235544   4.390   0.281   6.042  1.0831 -0.1540  1.5183
 8029SOL     OW35545   4.522   2.679   5.770 -0.2022 -0.7737 -0.1022
 8029SOL    HW135546   4.516   2.603   5.713 -0.0222 -1.8310  1.2775
 8029SOL    HW235547   4.601   2.713   5.728  0.4003 -0.8523  0.9663
 8030SOL     OW35548   0.653   2.731   5.441  0.6335  0.0966  0.5212
 8030SOL    HW135549   0.740   2.692   5.447  0.3742 -0.3402  1.3849
 8030SOL    HW235550   0.615   2.690   5.363 -1.4693 -1.9360  2.6144
 8031SOL     OW35551   1.987   1.482  10.674 -0.4320  0.2238  0.7616
 8031SOL    HW135552   2.041   1.556  10.700  0.3376 -0.2648  0.5882
 8031SOL    HW235553   2.017   1.476  10.583  0.0259  0.1513  0.9138
 8032SOL     OW35554   0.920   3.867   2.992  0.0770  0.1327  0.0117
 8032SOL    HW135555   0.849   3.845   2.932 -1.4122  1.4674  1.2916
 8032SOL    HW235556   0.930   3.957   2.963 -0.0022  0.5654  1.3174
 8033SOL     OW35557   1.567   2.136   3.770  0.0983 -0.8983 -0.2160
 8033SOL    HW135558   1.647   2.085   3.784 -0.1770 -1.3374 -0.2264
 8033SOL    HW235559   1.598   2.225   3.783 -2.1899 -0.0415 -0.6741
 8034SOL     OW35560   3.132   0.063  12.281 -0.3040 -0.3100 -0.1967
 8034SOL    HW135561   3.226   0.079  12.271 -0.3421 -1.8403 -3.0702
 8034SOL    HW235562   3.127   0.051  12.376  0.5396  1.3569  0.0517
 8035SOL     OW35563   4.506   2.606   8.714 -0.1062 -0.1612 -0.4592
 8035SOL    HW135564   4.449   2.672   8.753 -1.0582 -2.1166  1.3998
 8035SOL    HW235565   4.577   2.600   8.779 -0.7102 -3.4289 -0.1006
 8036SOL     OW35566   2.132   0.006   8.873  0.2135 -0.1741  0.2234
 8036SOL    HW135567   2.096   4.658   8.929 -1.3333  0.5857  0.1372
 8036SOL    HW235568   2.212   4.676   8.855  0.9260  0.4388  1.6420
 8037SOL     OW35569   2.206   3.247   0.253  0.2529 -0.0549 -0.1897
 8037SOL    HW135570   2.146   3.197   0.197  0.8211 -0.5378 -0.3770
 8037SOL    HW235571   2.292   3.216   0.224  0.8393  0.2125  1.2813
 8038SOL     OW35572   3.118   3.600   6.208 -0.3818  0.1625 -0.1380
 8038SOL    HW135573   3.029   3.567   6.222 -0.2286  0.4546  1.5081
 8038SOL    HW235574   3.136   3.654   6.285 -0.0247 -0.9725  0.5762
 8039SOL     OW35575   1.536   1.042  14.516  0.1821 -0.4448 -0.2103
 8039SOL    HW135576   1.509   0.973  14.454 -0.5147 -0.5345  0.2044
 8039SOL    HW235577   1.451   1.083  14.529 -1.0959 -3.5644  1.3663
 8040SOL     OW35578   3.206   4.404   7.785  0.4986 -0.3465  0.2392
 8040SOL    HW135579   3.271   4.363   7.843  0.9741  0.3813  0.2157
 8040SOL    HW235580   3.208   4.493   7.819 -0.3119 -0.3664  0.3261
 8041SOL     OW35581   2.097   1.048   5.797 -0.3295  0.2228 -0.0493
 8041SOL    HW135582   2.136   1.068   5.882 -2.6208 -0.1550  1.1010
 8041SOL    HW235583   2.176   1.016   5.753 -1.5779 -2.3808 -0.4322
 8042SOL     OW35584   3.661   3.429   3.700  0.3330 -1.0913 -0.4680
 8042SOL    HW135585   3.725   3.497   3.680 -0.0350 -0.5286  0.3058
 8042SOL    HW235586   3.592   3.471   3.648 -0.3789  0.0090  1.3838
 8043SOL     OW35587   0.708   2.037   2.112 -0.7815  0.7419 -0.1423
 8043SOL    HW135588   0.759   1.958   2.099  1.7519  2.4336 -0.5439
 8043SOL    HW235589   0.620   2.037   2.074 -0.9345 -0.0744  0.2223
 8044SOL     OW35590   1.442   1.402  15.723  0.3975  0.3790  0.3156
 8044SOL    HW135591   1.521   1.360  15.690 -0.6832  0.6804 -2.6800
 8044SOL    HW235592   1.441   1.381  15.816 -0.9968 -1.0215 -0.0133
 8045SOL     OW35593   1.541   3.389   4.788 -0.3213 -0.1061  0.0041
 8045SOL    HW135594   1.604   3.409   4.857 -3.5281 -0.3035  2.9803
 8045SOL    HW235595   1.466   3.378   4.846  0.5328  1.4760  1.4118
 8046SOL     OW35596   4.290   1.112  14.421  0.0356  0.7273  0.0848
 8046SOL    HW135597   4.242   1.127  14.503 -0.1258  1.2310 -0.1083
 8046SOL    HW235598   4.358   1.053  14.455  0.9063  0.8664 -1.4430
 8047SOL     OW35599   3.923   2.586  10.427 -0.3381 -0.0633 -0.5344
 8047SOL    HW135600   3.845   2.531  10.422  1.0372 -1.9164 -1.2154
 8047SOL    HW235601   3.894   2.655  10.487  2.0056  1.9236 -1.6897
 8048SOL     OW35602   2.175   2.307   5.693 -0.7131  0.4369  0.4835
 8048SOL    HW135603   2.159   2.248   5.767  0.4173  0.2420  0.5839
 8048SOL    HW235604   2.102   2.293   5.633 -1.0193  1.0707  0.7047
 8049SOL     OW35605   1.278   1.125  11.112  0.0990 -0.1267  0.0722
 8049SOL    HW135606   1.358   1.166  11.144 -0.7004  2.2300 -0.9320
 8049SOL    HW235607   1.287   1.032  11.130 -1.3721  0.0132  1.4682
 8050SOL     OW35608   4.102   0.406  13.367  0.3151 -0.0018  0.2336
 8050SOL    HW135609   4.085   0.371  13.455 -2.2298 -2.4042 -1.2214
 8050SOL    HW235610   4.180   0.459  13.382  0.5469  0.1376 -1.5398
 8051SOL     OW35611   4.411   0.808   9.631 -0.4008 -0.6432  0.1080
 8051SOL    HW135612   4.399   0.721   9.670  0.0769 -0.3353  0.9485
 8051SOL    HW235613   4.502   0.824   9.655 -0.6228 -1.4575  1.5334
 8052SOL     OW35614   1.893   3.763   1.278 -0.4813 -0.0112 -0.0398
 8052SOL    HW135615   1.831   3.796   1.343  2.6008 -1.7963  3.8582
 8052SOL    HW235616   1.945   3.703   1.332  0.0738  1.9691  1.6211
 8053SOL     OW35617   0.103   3.401   1.294  0.1498 -0.6706 -0.2092
 8053SOL    HW135618   0.011   3.383   1.275  0.7267 -1.1893 -2.5531
 8053SOL    HW235619   0.107   3.417   1.388  0.1060  3.1013 -0.8710
 8054SOL     OW35620   4.489   3.746  16.801 -0.1745  0.4255 -0.0665
 8054SOL    HW135621   4.488   3.838  16.826 -3.0934  0.1720  0.8504
 8054SOL    HW235622   4.582   3.727  16.811  0.0069  0.9379 -0.7821
 8055SOL     OW35623   1.180   1.208   6.555 -0.1922  0.2499 -0.1824
 8055SOL    HW135624   1.181   1.278   6.490  0.3580 -1.2068 -1.7407
 8055SOL    HW235625   1.141   1.139   6.502  0.5523  1.2757 -2.0670
 8056SOL     OW35626   4.455   4.223  16.775  0.0924 -0.1923 -0.0775
 8056SOL    HW135627   4.417   4.305  16.805  0.6525  0.3590 -0.8786
 8056SOL    HW235628   4.386   4.186  16.720 -0.2899  0.3397  0.0491
 8057SOL     OW35629   1.244   0.483  12.388  0.1347 -0.3543  0.3278
 8057SOL    HW135630   1.162   0.503  12.342  1.0575 -0.4703 -1.3868
 8057SOL    HW235631   1.263   0.394  12.357  0.7497  0.1644 -0.7932
 8058SOL     OW35632   0.684   2.946   8.890  0.0422  0.3367 -0.0013
 8058SOL    HW135633   0.607   2.904   8.927 -0.5806  0.9436 -0.5998
 8058SOL    HW235634   0.752   2.926   8.954  0.0804  0.5269  0.0190
 8059SOL     OW35635   3.382   0.357  11.709 -0.1748  0.7130 -0.5880
 8059SOL    HW135636   3.401   0.283  11.652 -1.2947 -0.4820  0.5916
 8059SOL    HW235637   3.470   0.393  11.724  0.6384 -1.7714  0.6487
 8060SOL     OW35638   0.839   3.965   7.143  0.1594 -0.5234 -0.2977
 8060SOL    HW135639   0.874   4.008   7.221 -0.5840 -1.7492  0.7225
 8060SOL    HW235640   0.842   3.874   7.174 -0.5083  0.3336  2.2259
 8061SOL     OW35641   0.834   4.090   3.965 -0.1511 -0.3372  0.0862
 8061SOL    HW135642   0.761   4.040   3.929 -0.7344 -0.2989  1.2120
 8061SOL    HW235643   0.816   4.181   3.942  2.9920  0.5002  0.8941
 8062SOL     OW35644   2.711   3.155  11.642  0.2772  0.7048  0.3100
 8062SOL    HW135645   2.766   3.216  11.692  1.5938 -0.0314 -0.2221
 8062SOL    HW235646   2.774   3.085  11.624 -0.1412  0.3296  0.3172
 8063SOL     OW35647   2.594   2.883   7.224  0.1510 -0.4803  0.3150
 8063SOL    HW135648   2.666   2.880   7.287 -0.9054 -1.6986  1.4749
 8063SOL    HW235649   2.609   2.814   7.159 -0.2953  0.5358 -0.8555
 8064SOL     OW35650   0.190   0.436  10.273  0.1101  0.6102  0.4645
 8064SOL    HW135651   0.167   0.414  10.182 -3.4624  2.2692  1.0010
 8064SOL    HW235652   0.274   0.390  10.280 -1.2796 -1.7317  1.8339
 8065SOL     OW35653   3.769   4.330  14.945  0.2772 -0.2099 -0.0860
 8065SOL    HW135654   3.854   4.330  14.987 -0.7625  0.3181  1.9871
 8065SOL    HW235655   3.765   4.234  14.940  1.1265 -0.3085  1.2170
 8066SOL     OW35656   2.890   4.677   3.852 -0.3708  0.5806 -0.0421
 8066SOL    HW135657   2.799   4.683   3.821 -0.8681 -2.1080  0.8470
 8066SOL    HW235658   2.903   0.040   3.896 -1.9841  0.6319  0.3349
 8067SOL     OW35659   3.835   0.187  15.964  0.6232 -0.1798 -0.5620
 8067SOL    HW135660   3.859   0.202  15.873 -0.0990 -0.8689 -0.8587
 8067SOL    HW235661   3.833   0.092  15.954  1.3597 -0.1144 -1.3128
 8068SOL     OW35662   0.671   4.525   5.592  0.8755 -0.3593 -0.0670
 8068SOL    HW135663   0.734   4.551   5.660  1.1694  3.4716 -1.8226
 8068SOL    HW235664   0.607   4.501   5.659  0.0599 -2.7560 -1.7172
 8069SOL     OW35665   3.449   4.673   4.065  0.5435 -0.3113  0.1780
 8069SOL    HW135666   3.486   4.625   4.139  1.8704  2.1076  1.0835
 8069SOL    HW235667   3.379   4.614   4.036 -0.6281  2.3289 -2.3832
 8070SOL     OW35668   3.215   2.151   5.087 -0.4284  0.9047 -0.3004
 8070SOL    HW135669   3.206   2.247   5.089 -0.3651  0.8932  0.5549
 8070SOL    HW235670   3.189   2.132   5.177  2.1851  1.1427  0.5062
 8071SOL     OW35671   1.221   0.414   6.036 -0.2792  0.4508 -0.4391
 8071SOL    HW135672   1.196   0.457   6.118 -0.0326 -0.1091 -0.0751
 8071SOL    HW235673   1.296   0.466   6.007 -0.1577 -0.8789 -2.5669
 8072SOL     OW35674   3.609   4.000   6.912 -0.0483 -0.2572 -0.0265
 8072SOL    HW135675   3.643   4.086   6.935  0.3451 -0.2683 -0.5698
 8072SOL    HW235676   3.677   3.936   6.930  0.6681  0.0519 -1.6268
 8073SOL     OW35677   4.177   1.661   7.717 -0.2694 -0.0471 -0.0143
 8073SOL    HW135678   4.177   1.565   7.711 -0.8876 -0.0753  0.4786
 8073SOL    HW235679   4.162   1.682   7.625  0.9482  1.6224  0.1714
 8074SOL     OW35680   3.533   2.975   0.824 -0.3618 -0.0423 -0.5078
 8074SOL    HW135681   3.478   2.973   0.746 -0.9418 -0.9530 -0.0781
 8074SOL    HW235682   3.616   3.004   0.785  0.2440  0.0184  0.8126
 8075SOL     OW35683   3.749   4.427   2.061 -0.0197 -0.1842 -0.0201
 8075SOL    HW135684   3.828   4.376   2.047  1.6956  2.5515 -0.2461
 8075SOL    HW235685   3.777   4.515   2.037 -1.4373 -0.1143 -1.3854
 8076SOL     OW35686   3.054   2.478  17.678  0.2727 -0.0730 -0.5041
 8076SOL    HW135687   3.147   2.499  17.684  0.2286 -0.1431  0.6063
 8076SOL    HW235688   3.021   2.563  17.649  1.5978  0.3498 -0.7424
 8077SOL     OW35689   3.866   2.612   4.917  0.1454 -0.7433  0.0288
 8077SOL    HW135690   3.893   2.633   5.007  0.1714 -1.3261  0.1602
 8077SOL    HW235691   3.817   2.532   4.938 -0.4976 -0.2371  0.4382
 8078SOL     OW35692   1.625   0.923   1.053 -0.2544  0.1812  0.6212
 8078SOL    HW135693   1.643   0.918   0.959 -0.9514  0.4558  0.4770
 8078SOL    HW235694   1.695   0.867   1.087  1.0139  1.0278 -0.6315
 8079SOL     OW35695   3.814   0.858  14.987  0.4058  0.1757 -0.3304
 8079SOL    HW135696   3.722   0.835  14.994  0.1787  0.8402 -1.2335
 8079SOL    HW235697   3.803   0.952  15.002  1.2835  0.2787 -0.3393
 8080SOL     OW35698   4.612   4.717   5.784  0.3395  0.1090 -0.5638
 8080SOL    HW135699   4.618   4.622   5.781  3.1162  0.1840  2.3493
 8080SOL    HW235700   4.550   0.012   5.713 -1.4078  1.0777  1.1955
 8081SOL     OW35701   2.941   1.136   3.459  0.4932  0.2066 -0.4966
 8081SOL    HW135702   2.937   1.115   3.553  1.3485  0.1319 -0.4779
 8081SOL    HW235703   2.893   1.219   3.460  0.3522  0.1466 -3.4570
 8082SOL     OW35704   2.005   0.664   6.231 -0.4163 -0.5642  0.4270
 8082SOL    HW135705   1.936   0.610   6.268  0.8976 -1.9959  0.7630
 8082SOL    HW235706   1.952   0.736   6.197  1.4647  0.3104 -0.7231
 8083SOL     OW35707   1.431   4.494   3.268  0.5817  0.4622 -0.0814
 8083SOL    HW135708   1.520   4.478   3.300 -0.3175 -0.1991  2.0820
 8083SOL    HW235709   1.398   4.404   3.260 -0.6706  0.9059  0.0827
 8084SOL     OW35710   2.403   1.852   5.044  0.9147 -0.2016 -0.5500
 8084SOL    HW135711   2.403   1.917   5.114 -0.3343  0.6430 -1.3380
 8084SOL    HW235712   2.494   1.862   5.016  1.3405  2.2018  1.7006
 8085SOL     OW35713   1.247   4.645  15.234  0.1109 -0.6851  0.2613
 8085SOL    HW135714   1.324   4.698  15.256  0.2013  0.1117 -2.0149
 8085SOL    HW235715   1.195   4.704  15.181  0.5347  0.5644  1.2200
 8086SOL     OW35716   1.358   3.346   4.986  0.8456  0.1012  0.2084
 8086SOL    HW135717   1.282   3.289   4.980 -1.5234  3.3692 -0.7221
 8086SOL    HW235718   1.331   3.390   5.067  0.0364  1.6206 -0.9088
 8087SOL     OW35719   0.266   1.501   2.773  0.1245  0.0508  0.4617
 8087SOL    HW135720   0.311   1.568   2.720 -0.3276 -0.4342 -0.5352
 8087SOL    HW235721   0.335   1.457   2.823  0.9832  1.5891  0.6463
 8088SOL     OW35722   1.371   1.524   9.016  0.3623 -0.0887 -0.2348
 8088SOL    HW135723   1.329   1.508   8.932  1.1884  2.4970 -1.1554
 8088SOL    HW235724   1.419   1.442   9.024 -0.4314 -0.4625  0.6089
 8089SOL     OW35725   0.388   1.253   2.257 -0.4996 -0.8753  0.4525
 8089SOL    HW135726   0.352   1.320   2.315  1.7960 -0.6773  1.6175
 8089SOL    HW235727   0.312   1.197   2.242 -1.7590  1.0509 -0.3639
 8090SOL     OW35728   2.077   1.203   6.235  1.0441  0.6518 -0.8048
 8090SOL    HW135729   2.163   1.170   6.262 -0.4497 -0.7879  2.1468
 8090SOL    HW235730   2.020   1.179   6.307  1.1545  0.7224 -0.6941
 8091SOL     OW35731   3.622   3.583   6.755 -0.0955 -0.2554  0.3426
 8091SOL    HW135732   3.560   3.648   6.723  0.7120  1.7751  2.8538
 8091SOL    HW235733   3.567   3.562   6.831 -4.2443  0.6586 -2.4134
 8092SOL     OW35734   0.883   1.176  11.249 -0.6601  0.0977 -0.1119
 8092SOL    HW135735   0.963   1.222  11.273 -0.0229  0.6221 -3.2685
 8092SOL    HW235736   0.888   1.185  11.154  0.7805  0.4654  0.0004
 8093SOL     OW35737   2.052   0.688   5.174  0.3109 -0.0711  0.6594
 8093SOL    HW135738   2.145   0.680   5.193  0.6849 -1.8594 -1.8282
 8093SOL    HW235739   2.059   0.671   5.080 -0.1750  0.0428  0.6023
 8094SOL     OW35740   4.026   0.659   6.688 -0.0010  0.1593  0.0424
 8094SOL    HW135741   4.113   0.697   6.675 -0.3747  0.9053 -0.3153
 8094SOL    HW235742   4.047   0.568   6.709 -0.3273  0.7502  2.8225
 8095SOL     OW35743   0.363   1.221   4.702 -0.5063 -0.4184 -0.3569
 8095SOL    HW135744   0.322   1.302   4.670  0.6767 -0.3835 -1.8110
 8095SOL    HW235745   0.409   1.197   4.621 -0.5436  1.4413 -0.9310
 8096SOL     OW35746   3.452   3.661  10.585 -0.6384 -0.1979  0.0883
 8096SOL    HW135747   3.422   3.740  10.540  0.4877  0.4587  0.4851
 8096SOL    HW235748   3.372   3.609  10.576 -2.3943  2.5448 -0.1989
 8097SOL     OW35749   4.039   1.122   7.051  0.0200  0.3598 -0.2687
 8097SOL    HW135750   4.076   1.162   6.973  1.4881  0.4099  0.4350
 8097SOL    HW235751   4.022   1.204   7.096  2.6245  0.9016 -0.2595
 8098SOL     OW35752   3.823   1.474   5.260 -0.1453  0.0754 -0.1452
 8098SOL    HW135753   3.744   1.497   5.309  0.3256 -1.5197  1.4018
 8098SOL    HW235754   3.875   1.550   5.284 -0.5863 -0.1960  1.7205
 8099SOL     OW35755   4.678   3.594   6.187  0.5268  0.1874 -0.0842
 8099SOL    HW135756   4.696   3.501   6.173 -0.3044  0.0098  0.0598
 8099SOL    HW235757   4.604   3.592   6.247  0.1578 -1.6663 -0.6104
 8100SOL     OW35758   1.907   3.078   5.364 -0.9410  0.7579 -0.0538
 8100SOL    HW135759   1.837   3.143   5.359 -1.6542 -0.0874 -1.0525
 8100SOL    HW235760   1.901   3.028   5.282 -2.2522  0.2130  0.3722
 8101SOL     OW35761   0.514   0.128   8.561 -0.5603 -0.3288 -0.0600
 8101SOL    HW135762   0.571   0.205   8.562 -1.5587  0.3611  3.7601
 8101SOL    HW235763   0.446   0.158   8.500 -1.2786 -2.2500 -0.2107
 8102SOL     OW35764   0.605   2.031   6.280  0.3275 -0.3270  0.4456
 8102SOL    HW135765   0.545   2.106   6.281  0.1658 -0.4500 -0.0028
 8102SOL    HW235766   0.533   1.968   6.276 -0.1442 -0.0319  3.6449
 8103SOL     OW35767   2.661   4.264   2.386 -0.0125  0.7708 -0.5571
 8103SOL    HW135768   2.673   4.324   2.460  4.3744  0.1863 -0.7734
 8103SOL    HW235769   2.604   4.199   2.429 -0.8877  2.1420  0.3553
 8104SOL     OW35770   1.412   3.237   2.155 -0.5386 -0.5383  0.0734
 8104SOL    HW135771   1.495   3.235   2.203  0.1762 -1.0283 -1.1657
 8104SOL    HW235772   1.374   3.294   2.222 -0.6422 -1.6089  0.9332
 8105SOL     OW35773   3.896   0.039   0.218  0.3133 -0.3550  0.6641
 8105SOL    HW135774   3.812   0.076   0.243 -0.4256  0.0464 -2.4262
 8105SOL    HW235775   3.960   0.096   0.262 -0.5681  0.4209  0.9283
 8106SOL     OW35776   4.720   4.030   4.116 -0.0478 -0.2640  0.0858
 8106SOL    HW135777   0.059   4.027   4.042 -2.1878 -0.1097 -1.6698
 8106SOL    HW235778   4.710   4.125   4.130 -0.1140  0.0206 -1.9608
 8107SOL     OW35779   2.682   0.993   8.042  0.0698  0.0079  0.1325
 8107SOL    HW135780   2.746   1.008   8.112  0.1285 -0.6104  0.2078
 8107SOL    HW235781   2.677   0.897   8.042 -2.2609  0.1205  1.3348
 8108SOL     OW35782   3.353   1.403   4.425 -0.4563 -0.8067  0.2753
 8108SOL    HW135783   3.309   1.453   4.493  1.2542 -0.3845  1.0751
 8108SOL    HW235784   3.378   1.320   4.464 -0.0174 -0.6846  0.2623
 8109SOL     OW35785   3.818   4.132   0.705  0.2472 -0.4072 -0.4637
 8109SOL    HW135786   3.865   4.213   0.684  1.0042 -0.6017  0.4526
 8109SOL    HW235787   3.892   4.076   0.727 -0.1240  0.1624  2.2874
 8110SOL     OW35788   2.421   3.481   4.047 -0.5407  0.2152 -0.1459
 8110SOL    HW135789   2.401   3.560   3.997  0.5610  1.5209  1.5305
 8110SOL    HW235790   2.337   3.466   4.090 -0.6021 -1.6162 -0.8633
 8111SOL     OW35791   2.891   4.532   6.621 -0.8516 -0.6810  0.0851
 8111SOL    HW135792   2.913   4.581   6.542 -3.0098 -2.1651 -1.4428
 8111SOL    HW235793   2.975   4.544   6.665 -1.5344 -2.2115  1.8458
 8112SOL     OW35794   0.036   3.718  16.514 -0.1100  0.0730 -0.2003
 8112SOL    HW135795   0.082   3.651  16.464  0.2339 -0.0292  0.2657
 8112SOL    HW235796   0.025   3.673  16.597  0.3542 -0.0952 -0.2300
 8113SOL     OW35797   1.478   2.760   8.366 -0.0797  0.2537 -0.3489
 8113SOL    HW135798   1.539   2.703   8.412  0.2613  1.0297  0.1535
 8113SOL    HW235799   1.460   2.702   8.292 -0.1411 -0.1385 -0.0264
 8114SOL     OW35800   0.247   2.757  15.579  0.0211 -0.1449  0.1886
 8114SOL    HW135801   0.255   2.666  15.609 -2.5920 -0.1310  0.8766
 8114SOL    HW235802   0.340   2.777  15.563  0.0830  0.4279  1.2942
 8115SOL     OW35803   1.610   1.852   5.936 -1.0317 -0.6243  0.5104
 8115SOL    HW135804   1.703   1.861   5.915 -0.7432  1.0270  2.4958
 8115SOL    HW235805   1.624   1.825   6.026  1.8189  0.7291  0.4989
 8116SOL     OW35806   4.577   2.812   4.923 -0.2956 -0.2036 -0.2349
 8116SOL    HW135807   4.626   2.740   4.882 -0.7093 -1.6611  1.7879
 8116SOL    HW235808   4.518   2.753   4.969  1.3900 -0.9986  0.9352
 8117SOL     OW35809   4.082   4.372   5.303 -0.0762  0.4705 -0.7721
 8117SOL    HW135810   4.154   4.361   5.241  1.4548  0.3589  1.0175
 8117SOL    HW235811   4.125   4.437   5.359  3.4500 -0.8090 -1.9568
 8118SOL     OW35812   0.804   4.092   7.423 -0.4951  0.4210  0.4885
 8118SOL    HW135813   0.863   4.053   7.488 -0.0135  0.7110  0.2318
 8118SOL    HW235814   0.721   4.079   7.469 -0.3961  0.7093  0.7482
 8119SOL     OW35815   0.715   0.939   2.430  0.4048  0.2202  0.8938
 8119SOL    HW135816   0.706   0.845   2.440  2.5140 -0.0567 -0.0193
 8119SOL    HW235817   0.625   0.969   2.445  0.1770 -0.1618  0.2587
 8120SOL     OW35818   0.059   4.158   3.482  0.3649  0.2357 -0.1409
 8120SOL    HW135819   0.062   4.073   3.526 -2.1128  0.0876 -0.2871
 8120SOL    HW235820   4.716   4.146   3.412 -1.2163 -0.6937  1.4722
 8121SOL     OW35821   3.220   1.609   1.481 -0.4154 -0.5516  0.5824
 8121SOL    HW135822   3.244   1.701   1.492 -0.7971 -0.3307 -0.4559
 8121SOL    HW235823   3.233   1.598   1.387 -0.8088  0.9077  0.3620
 8122SOL     OW35824   3.019   4.295   3.430 -0.0440  0.2816  0.5945
 8122SOL    HW135825   2.954   4.304   3.500 -2.6055 -0.9847 -1.5957
 8122SOL    HW235826   2.970   4.353   3.372 -0.8145 -0.5697  0.3839
 8123SOL     OW35827   0.205   1.840  13.039 -0.6070  0.1086  0.2425
 8123SOL    HW135828   0.176   1.764  12.988 -2.5888  0.7197  0.4347
 8123SOL    HW235829   0.285   1.806  13.079  0.5840  0.2639 -2.0327
 8124SOL     OW35830   0.533   2.234   3.502  0.3380 -0.7915  0.0074
 8124SOL    HW135831   0.455   2.271   3.544  1.3327  0.6215  0.6222
 8124SOL    HW235832   0.498   2.194   3.423 -1.5745  1.2995 -0.2264
 8125SOL     OW35833   0.452   1.255   6.374 -0.4063  0.9220 -0.0330
 8125SOL    HW135834   0.465   1.197   6.299  0.2489 -0.7522  1.3846
 8125SOL    HW235835   0.434   1.188   6.440  2.5261 -0.7623 -0.9844
 8126SOL     OW35836   0.503   2.242  10.136  0.1366 -0.2636 -0.1099
 8126SOL    HW135837   0.587   2.288  10.133  2.0459 -3.6104  1.5241
 8126SOL    HW235838   0.535   2.153  10.154  0.9514  0.3451  1.3884
 8127SOL     OW35839   4.583   2.211  11.452  0.9095 -0.1658  0.2490
 8127SOL    HW135840   4.645   2.265  11.403 -0.2620  0.0381 -1.0247
 8127SOL    HW235841   4.533   2.284  11.489 -1.9415 -1.4888 -0.9873
 8128SOL     OW35842   1.033   3.718   7.577  0.1617  0.1886 -0.0282
 8128SOL    HW135843   0.989   3.673   7.505 -0.2354  0.9897 -0.2867
 8128SOL    HW235844   1.021   3.661   7.652 -0.8965  0.2341 -0.1656
 8129SOL     OW35845   1.704   1.726   8.464  0.1237  0.0997  0.0712
 8129SOL    HW135846   1.661   1.812   8.462 -2.1491 -1.0851 -2.3654
 8129SOL    HW235847   1.795   1.747   8.483  0.0183 -0.6080  1.3788
 8130SOL     OW35848   0.353   2.314   5.622  0.2253  0.0751  0.6575
 8130SOL    HW135849   0.260   2.325   5.601  0.5342  0.9131 -0.2752
 8130SOL    HW235850   0.396   2.399   5.611  1.3211 -0.5493  0.1656
 8131SOL     OW35851   2.702   3.528   5.224  0.2743 -0.1478 -0.0264
 8131SOL    HW135852   2.742   3.537   5.137  0.8447 -0.0607  0.2436
 8131SOL    HW235853   2.773   3.486   5.273  0.2029 -1.2843 -0.9057
 8132SOL     OW35854   1.873   3.166  16.614 -0.2596  0.4803  0.4124
 8132SOL    HW135855   1.888   3.244  16.560 -0.8722  0.4107  0.1499
 8132SOL    HW235856   1.814   3.209  16.676 -2.2482  0.8054 -1.7104
 8133SOL     OW35857   1.615   2.857   3.263 -0.6386 -0.6081 -0.0553
 8133SOL    HW135858   1.618   2.921   3.192  1.7564 -3.0287 -2.1445
 8133SOL    HW235859   1.689   2.879   3.320  0.2289  1.6299 -2.0316
 8134SOL     OW35860   3.010   3.670   4.506  0.2697  0.1773  0.2966
 8134SOL    HW135861   3.071   3.651   4.577 -2.4087 -2.0632  2.0047
 8134SOL    HW235862   3.064   3.649   4.430  0.9377  2.0446  0.2368
 8135SOL     OW35863   1.448   0.928   2.132 -0.3527 -0.0546  0.3365
 8135SOL    HW135864   1.519   0.966   2.184 -0.6294  2.5831 -1.2326
 8135SOL    HW235865   1.473   0.835   2.136 -1.8074 -0.4645 -0.1868
 8136SOL     OW35866   4.213   0.763  11.984 -0.3967 -0.1675 -0.0942
 8136SOL    HW135867   4.239   0.717  11.904 -0.1324  0.2894 -0.2761
 8136SOL    HW235868   4.121   0.742  11.998 -0.3852  0.8536  1.4490
 8137SOL     OW35869   3.779   1.793  17.117 -0.3182 -0.5536 -0.6557
 8137SOL    HW135870   3.819   1.825  17.037 -2.5231  3.1113 -0.2675
 8137SOL    HW235871   3.686   1.787  17.094 -0.2453 -1.7552 -0.6648
 8138SOL     OW35872   2.992   1.112  13.107  0.1864 -0.0306 -0.1573
 8138SOL    HW135873   2.986   1.201  13.141 -1.8371 -0.8450  1.5933
 8138SOL    HW235874   3.001   1.138  13.016  1.5190  0.1007  0.0122
 8139SOL     OW35875   3.613   0.606  10.460 -0.0759  0.2043  0.1022
 8139SOL    HW135876   3.594   0.616  10.367  0.3451 -0.5805 -0.0741
 8139SOL    HW235877   3.665   0.527  10.445  0.9257  1.2210 -1.7573
 8140SOL     OW35878   1.879   2.375   4.452 -0.0878  0.1825  0.0814
 8140SOL    HW135879   1.916   2.451   4.407  1.5105 -1.0009 -0.5978
 8140SOL    HW235880   1.935   2.377   4.530  1.0266  1.3538 -0.7445
 8141SOL     OW35881   2.135   0.705   6.501 -0.6652 -0.7189 -0.2014
 8141SOL    HW135882   2.220   0.738   6.472 -0.2311 -1.0954  0.6497
 8141SOL    HW235883   2.088   0.713   6.417 -0.9544  1.0613  0.1322
 8142SOL     OW35884   0.133   2.162   7.918 -0.4041  0.5754 -0.2763
 8142SOL    HW135885   0.225   2.149   7.941  0.6688  2.8072 -3.2890
 8142SOL    HW235886   0.090   2.098   7.975 -0.5487 -0.0806 -1.1155
 8143SOL     OW35887   0.421   4.626   7.887 -0.2441  0.1112  0.4216
 8143SOL    HW135888   0.513   4.653   7.890  0.7279 -3.1783  0.3660
 8143SOL    HW235889   0.420   4.553   7.949  0.4521 -1.2344 -1.1673
 8144SOL     OW35890   2.202   3.623  13.783  0.0777 -0.1410 -1.1545
 8144SOL    HW135891   2.173   3.637  13.873  2.1819 -3.2975  0.0199
 8144SOL    HW235892   2.296   3.606  13.794  0.0701  0.3896 -0.2726
 8145SOL     OW35893   1.887   0.797  10.749  0.2760 -0.4853  0.4085
 8145SOL    HW135894   1.931   0.819  10.831 -0.9531 -2.7526  1.6740
 8145SOL    HW235895   1.917   0.708  10.732  1.0528 -0.0011 -0.7092
 8146SOL     OW35896   3.155   0.369   4.999 -0.0186  0.5318  0.1362
 8146SOL    HW135897   3.202   0.452   4.991 -1.2140  1.0542 -1.3863
 8146SOL    HW235898   3.177   0.330   4.914  0.9326  0.6432  0.3258
 8147SOL     OW35899   1.374   2.721  14.119 -0.4037 -0.2026 -0.2603
 8147SOL    HW135900   1.458   2.732  14.074 -0.0346 -0.3975  0.3812
 8147SOL    HW235901   1.333   2.800  14.085 -1.6878 -1.1749 -0.9604
 8148SOL     OW35902   1.216   1.015   9.334 -0.2082  0.7791  0.1782
 8148SOL    HW135903   1.122   1.025   9.347  0.1062  3.1016  0.6705
 8148SOL    HW235904   1.220   1.082   9.266  1.2509  0.6472  0.1324
 8149SOL     OW35905   1.851   4.508   0.910 -0.4326 -0.4585 -0.0954
 8149SOL    HW135906   1.779   4.451   0.936 -0.1297 -1.4260 -1.4105
 8149SOL    HW235907   1.809   4.570   0.850 -2.4401 -0.6195  1.1591
 8150SOL     OW35908   2.969   3.165   8.517 -0.3086 -0.2841 -0.3312
 8150SOL    HW135909   2.955   3.071   8.528  0.5268 -0.5572 -1.6253
 8150SOL    HW235910   3.049   3.173   8.570 -0.1784  0.9310 -0.7023
 8151SOL     OW35911   4.664   4.014   7.373  0.0764 -0.1122 -0.0154
 8151SOL    HW135912   4.615   4.066   7.310  0.6891  1.2929  0.6471
 8151SOL    HW235913   4.661   3.930   7.327 -1.3667  0.5015 -1.0119
 8152SOL     OW35914   2.018   0.024   0.872 -0.7502 -0.4942  0.2888
 8152SOL    HW135915   1.985   4.655   0.880 -0.8113 -0.3572  1.5135
 8152SOL    HW235916   1.938   0.076   0.882 -1.2365 -1.0994 -0.3618
 8153SOL     OW35917   2.978   1.563   4.769  0.1026  0.0085 -0.2434
 8153SOL    HW135918   3.014   1.513   4.696 -1.6529  1.3030 -2.0247
 8153SOL    HW235919   2.970   1.652   4.732 -2.1484  0.5320  1.4963
 8154SOL     OW35920   4.464   3.281   8.962 -0.5702 -0.0120  0.0285
 8154SOL    HW135921   4.394   3.236   9.009  0.7401 -1.7865  0.2858
 8154SOL    HW235922   4.451   3.249   8.873  0.1286  0.2203 -0.1588
 8155SOL     OW35923   1.918   0.001   2.419  0.3320 -0.3169 -0.3384
 8155SOL    HW135924   2.009   4.693   2.432  0.1745 -0.5971  0.1482
 8155SOL    HW235925   1.876   4.650   2.467  0.0824  0.0588  0.0062
 8156SOL     OW35926   2.661   1.409  13.640 -0.0742 -0.4792 -0.1180
 8156SOL    HW135927   2.638   1.387  13.550 -2.2131  0.1050  0.2915
 8156SOL    HW235928   2.747   1.449  13.626 -0.0977 -0.5316 -0.4104
 8157SOL     OW35929   4.594   0.330   7.611 -0.6371 -0.0438  0.2587
 8157SOL    HW135930   4.559   0.328   7.700 -2.0001 -1.8194 -0.3198
 8157SOL    HW235931   4.629   0.419   7.608 -1.3823  0.1764 -1.7627
 8158SOL     OW35932   0.855   4.020   1.849 -0.2104  0.0502 -0.2217
 8158SOL    HW135933   0.817   3.954   1.906  2.2832 -1.0792  0.1456
 8158SOL    HW235934   0.810   3.997   1.768  2.1551 -0.4669 -1.4169
 8159SOL     OW35935   3.252   4.283   4.445 -0.2953 -0.1915  0.3107
 8159SOL    HW135936   3.165   4.301   4.479 -0.1499  0.0060  0.5770
 8159SOL    HW235937   3.244   4.331   4.363 -0.3627  0.5156  0.7360
 8160SOL     OW35938   4.141   0.557   5.512 -0.5898  0.3682 -0.1887
 8160SOL    HW135939   4.082   0.607   5.569  0.0298  0.7657  0.1004
 8160SOL    HW235940   4.212   0.540   5.574  0.3805  1.7550 -0.9111
 8161SOL     OW35941   2.938   3.143  14.954  0.2241  0.2140 -0.1551
 8161SOL    HW135942   2.955   3.189  14.871  0.2802  0.0835 -0.2150
 8161SOL    HW235943   2.853   3.181  14.978  0.4484 -0.8007  2.1461
 8162SOL     OW35944   3.688   4.151   2.112  0.3833 -0.1826 -0.2627
 8162SOL    HW135945   3.700   4.242   2.137 -0.0998  0.5760 -2.8334
 8162SOL    HW235946   3.779   4.131   2.094  0.0025 -2.0091 -0.1768
 8163SOL     OW35947   3.217   0.606   6.250 -0.0477 -0.0047  0.3931
 8163SOL    HW135948   3.198   0.516   6.279 -3.9732  0.5994 -0.2083
 8163SOL    HW235949   3.136   0.616   6.200  1.3785  1.3944 -1.6250
 8164SOL     OW35950   1.164   1.128  14.878 -0.0666 -0.0425  0.2035
 8164SOL    HW135951   1.258   1.135  14.864  0.6710 -2.0212  4.0924
 8164SOL    HW235952   1.124   1.118  14.791 -0.9211 -1.3362  0.7453
 8165SOL     OW35953   3.953   0.849   0.631  0.0117 -0.1643  0.3204
 8165SOL    HW135954   3.860   0.851   0.653 -0.2300 -0.9987 -0.6052
 8165SOL    HW235955   3.961   0.935   0.588 -0.4651 -0.2645  0.0208
 8166SOL     OW35956   2.194   3.697  11.621  0.1389 -0.2897 -0.4566
 8166SOL    HW135957   2.223   3.643  11.548  0.1118 -0.8452 -0.0576
 8166SOL    HW235958   2.212   3.789  11.601 -1.0613 -0.3828 -1.9750
 8167SOL     OW35959   1.781   3.277  16.865  1.0082 -0.2904 -0.3577
 8167SOL    HW135960   1.733   3.198  16.890  2.7081 -1.3493 -0.4915
 8167SOL    HW235961   1.729   3.330  16.925  1.5688  0.6328 -0.6986
 8168SOL     OW35962   1.541   1.666  10.135 -0.0847 -0.4699  0.0890
 8168SOL    HW135963   1.464   1.631  10.178  0.4670 -1.7386  0.0279
 8168SOL    HW235964   1.551   1.756  10.167 -2.3048 -0.3462  0.4019
 8169SOL     OW35965   1.539   1.610   8.048  0.6380 -0.0791 -0.3169
 8169SOL    HW135966   1.597   1.672   8.003  1.0658 -1.1434 -1.2380
 8169SOL    HW235967   1.513   1.662   8.124 -3.0917 -0.7159 -1.1223
 8170SOL     OW35968   1.754   0.005   4.830  0.2697 -0.0588  0.2432
 8170SOL    HW135969   1.722   4.639   4.853 -3.2950  1.0240 -0.5491
 8170SOL    HW235970   1.726   0.005   4.738 -1.4976 -0.0094  0.7767
 8171SOL     OW35971   0.593   2.811  14.105  0.0925  0.2396 -0.0857
 8171SOL    HW135972   0.592   2.834  14.012 -0.8573  1.2581  0.1852
 8171SOL    HW235973   0.507   2.771  14.117  1.1810 -1.5613  1.7218
 8172SOL     OW35974   2.321   3.729   4.304 -0.2126  0.2998  0.3327
 8172SOL    HW135975   2.271   3.650   4.283  0.2768  0.8160 -2.8199
 8172SOL    HW235976   2.389   3.690   4.359 -0.3933  1.3778  1.3134
 8173SOL     OW35977   0.441   1.110   3.822 -0.1310 -0.2043 -0.2586
 8173SOL    HW135978   0.366   1.092   3.766 -0.0778 -0.9035 -0.1045
 8173SOL    HW235979   0.484   1.176   3.768  1.3794  0.3367  1.6029
 8174SOL     OW35980   3.407   0.075  10.340  0.2816 -0.2767  0.2571
 8174SOL    HW135981   3.436   0.150  10.288 -1.3298  0.1879  0.0154
 8174SOL    HW235982   3.394   0.017  10.264  1.1379 -1.0705  0.7189
 8175SOL     OW35983   0.989   3.709   4.623 -0.1378  0.2060 -0.0067
 8175SOL    HW135984   1.040   3.728   4.702 -2.1409  0.9551  1.1257
 8175SOL    HW235985   0.941   3.790   4.605  2.2770  1.6288 -0.0397
 8176SOL     OW35986   2.840   1.212   5.482  0.2048 -0.6815 -0.0257
 8176SOL    HW135987   2.806   1.209   5.571 -0.5441  0.1177 -0.2862
 8176SOL    HW235988   2.898   1.287   5.479  0.1314 -0.5800  1.0737
 8177SOL     OW35989   4.074   0.457   0.142  0.2232 -0.0694  0.5791
 8177SOL    HW135990   4.026   0.394   0.195  0.5000  0.1479  1.0934
 8177SOL    HW235991   4.017   0.483   0.070  0.7553  2.2610  0.9875
 8178SOL     OW35992   4.121   0.620   0.373 -0.2840 -0.1135 -0.2760
 8178SOL    HW135993   4.138   0.713   0.357 -1.6405 -0.0233 -1.2110
 8178SOL    HW235994   4.084   0.600   0.287  0.4822 -0.5473 -0.5088
 8179SOL     OW35995   1.687   0.856  14.942 -0.0580 -0.3883  0.5929
 8179SOL    HW135996   1.737   0.775  14.929 -0.8102 -0.7486 -0.0252
 8179SOL    HW235997   1.616   0.851  14.878 -0.6381  0.1644  1.1923
 8180SOL     OW35998   2.963   2.809   9.598  0.3353  0.0865 -0.5508
 8180SOL    HW135999   2.985   2.901   9.615 -0.3275  0.0832  0.3385
 8180SOL    HW236000   2.913   2.795   9.678  0.5168 -1.5491 -0.7214
 8181SOL     OW36001   2.017   1.357  11.052  0.0752 -0.2606 -0.0353
 8181SOL    HW136002   2.058   1.328  11.133  2.8049 -1.2666 -1.7432
 8181SOL    HW236003   1.993   1.445  11.080 -0.8574 -0.2238 -0.9317
 8182SOL     OW36004   4.113   4.491   9.447  0.4525  0.1798 -0.4692
 8182SOL    HW136005   4.117   4.571   9.500 -0.7968  0.6987 -1.1711
 8182SOL    HW236006   4.020   4.470   9.450 -0.0287  2.2254 -1.2316
 8183SOL     OW36007   3.392   1.938   9.308  0.4647 -0.4073 -0.3220
 8183SOL    HW136008   3.351   2.017   9.343 -0.6674 -1.4839  0.7563
 8183SOL    HW236009   3.436   1.898   9.382  3.0502  2.3032 -0.3903
 8184SOL     OW36010   4.250   1.554   2.878 -0.2602 -0.1491 -0.3407
 8184SOL    HW136011   4.209   1.637   2.855 -0.3064 -0.3540 -0.9968
 8184SOL    HW236012   4.282   1.579   2.965 -1.9558  4.7782 -1.1844
 8185SOL     OW36013   4.056   3.949   6.558 -0.2125 -0.3572  0.1770
 8185SOL    HW136014   3.972   3.904   6.561 -0.0317 -0.7126 -0.1145
 8185SOL    HW236015   4.094   3.920   6.641 -0.2113  0.4445  0.4585
 8186SOL     OW36016   3.772   4.428   4.190 -0.5655  0.9726  0.2710
 8186SOL    HW136017   3.841   4.401   4.252 -1.9216 -0.7886  1.0190
 8186SOL    HW236018   3.811   4.449   4.105  1.3748  0.0117  0.9012
 8187SOL     OW36019   4.390   3.886   9.422 -0.2723  0.2838 -0.0141
 8187SOL    HW136020   4.418   3.882   9.331 -0.7222 -1.2108 -0.0927
 8187SOL    HW236021   4.301   3.850   9.426 -0.5754  0.8125 -1.9981
 8188SOL     OW36022   0.420   2.221   6.207 -0.1622 -0.4764 -0.1099
 8188SOL    HW136023   0.401   2.271   6.287  1.2482 -3.6525  2.2204
 8188SOL    HW236024   0.465   2.294   6.164  2.1401 -0.7137  1.9139
 8189SOL     OW36025   3.251   2.684   7.543  0.2949 -0.4774  0.5698
 8189SOL    HW136026   3.320   2.618   7.532  0.6039  0.2133 -1.6687
 8189SOL    HW236027   3.255   2.715   7.634 -0.5332  0.0757  0.4076
 8190SOL     OW36028   3.568   4.620   1.607  0.5216  0.4041  0.2327
 8190SOL    HW136029   3.583   4.585   1.695 -0.0828  1.7574  0.8711
 8190SOL    HW236030   3.558   4.535   1.564  1.1885  0.0131  0.8532
 8191SOL     OW36031   0.670   1.019  12.704  0.4578  0.2241  0.0977
 8191SOL    HW136032   0.689   1.013  12.610 -0.4774  0.4284 -0.1091
 8191SOL    HW236033   0.685   0.926  12.716  0.3544  0.4071  1.6761
 8192SOL     OW36034   1.157   0.991   3.870 -0.1275  0.4156  0.1708
 8192SOL    HW136035   1.108   1.059   3.916  0.1023  0.7721 -0.1136
 8192SOL    HW236036   1.216   0.953   3.935 -0.1877  1.6302  0.9271
 8193SOL     OW36037   4.637   3.876   0.068 -0.4564 -0.1594 -0.1656
 8193SOL    HW136038   4.714   3.892   0.124 -0.3069 -0.1719 -0.3698
 8193SOL    HW236039   4.686   3.874  17.671 -0.8386 -2.7738 -0.3252
 8194SOL     OW36040   3.587   1.633   6.747 -0.0041  0.0534 -0.2308
 8194SOL    HW136041   3.564   1.676   6.830 -0.5834 -1.7657  0.5650
 8194SOL    HW236042   3.518   1.567   6.737  0.6645 -0.3151 -2.3897
 8195SOL     OW36043   4.175   4.065  15.223  0.1671  0.5349 -0.0862
 8195SOL    HW136044   4.122   4.112  15.287  0.1660 -2.4211  2.0742
 8195SOL    HW236045   4.103   4.046  15.162  0.5155 -1.2447  0.0576
 8196SOL     OW36046   1.736   2.791   2.502 -0.1086 -0.2926  0.0298
 8196SOL    HW136047   1.809   2.825   2.449 -0.4070 -1.1827 -0.9536
 8196SOL    HW236048   1.748   2.697   2.491  1.5759 -0.3679  2.6719
 8197SOL     OW36049   1.232   4.231   9.554 -0.0639 -0.4438  0.5464
 8197SOL    HW136050   1.286   4.297   9.598 -0.9232  0.4669  0.2218
 8197SOL    HW236051   1.293   4.157   9.553 -1.2683 -1.4451  1.1134
 8198SOL     OW36052   2.899   3.959  13.301  0.4860 -0.6514 -0.5237
 8198SOL    HW136053   2.934   4.047  13.292 -1.7523  0.1236 -1.5896
 8198SOL    HW236054   2.971   3.929  13.356 -0.9776 -0.7838  1.3326
 8199SOL     OW36055   3.641   4.674   0.809  0.3208 -0.3679  0.4495
 8199SOL    HW136056   3.550   4.644   0.814  0.1667  0.2696  1.4928
 8199SOL    HW236057   3.625   0.048   0.802 -0.2537 -0.5190 -0.3282
 8200SOL     OW36058   0.002   3.620   2.918 -0.1320 -0.0610  0.3883
 8200SOL    HW136059   0.044   3.534   2.926  0.5034  0.1930 -0.2017
 8200SOL    HW236060   0.043   3.638   2.833 -1.4412 -1.7835 -0.5937
 8201SOL     OW36061   2.497   1.111   4.350 -0.0103 -0.0874  0.2638
 8201SOL    HW136062   2.474   1.118   4.257 -0.3281  1.7872  0.4850
 8201SOL    HW236063   2.435   1.175   4.387  0.7992  1.2104 -0.6379
 8202SOL     OW36064   1.221   2.513   3.284  0.4391  0.0428 -0.0633
 8202SOL    HW136065   1.276   2.454   3.336 -1.8283 -1.5187  0.5713
 8202SOL    HW236066   1.274   2.523   3.205  1.3752  0.2760  0.5913
 8203SOL     OW36067   4.617   4.291   5.015 -0.2165 -0.3294  1.0392
 8203SOL    HW136068   4.704   4.255   4.998 -0.3273  0.1528 -0.5190
 8203SOL    HW236069   4.572   4.207   5.019 -0.1313 -0.5043 -2.0649
 8204SOL     OW36070   3.513   2.268  17.525 -0.1256 -0.3831 -0.6513
 8204SOL    HW136071   3.482   2.357  17.538  1.0243  0.0392 -0.7582
 8204SOL    HW236072   3.469   2.219  17.594 -0.9661 -0.1103 -0.9992
 8205SOL     OW36073   0.926   0.612   6.644  0.0620  0.2579 -0.1800
 8205SOL    HW136074   0.883   0.629   6.560 -1.7416  3.2962  1.3732
 8205SOL    HW236075   0.868   0.545   6.681 -1.5197  0.7240 -1.7870
 8206SOL     OW36076   3.475   0.323  12.503 -0.2074  0.2466  0.0810
 8206SOL    HW136077   3.454   0.276  12.584  2.7185 -1.3444 -0.1075
 8206SOL    HW236078   3.395   0.370  12.479 -0.5287  0.0494  0.7670
 8207SOL     OW36079   3.933   1.766  15.691  0.0778  0.0298  0.4757
 8207SOL    HW136080   3.912   1.800  15.778  0.3591 -1.2051  1.0162
 8207SOL    HW236081   4.028   1.772  15.684 -0.0370  3.0651  1.5072
 8208SOL     OW36082   3.422   1.570   9.799  0.3299  0.1308  0.0909
 8208SOL    HW136083   3.370   1.549   9.876 -0.8283 -0.4837 -0.8494
 8208SOL    HW236084   3.378   1.643   9.757  0.3520 -0.0295 -0.2158
 8209SOL     OW36085   2.209   1.786  14.216  0.4297  0.1705 -0.0028
 8209SOL    HW136086   2.153   1.823  14.284  1.0392 -0.1551  0.6755
 8209SOL    HW236087   2.143   1.745  14.160  0.7075 -0.5577  0.2130
 8210SOL     OW36088   3.609   0.762   8.085 -0.5415  0.1275 -0.8618
 8210SOL    HW136089   3.517   0.739   8.070 -0.8325 -0.0183  1.2438
 8210SOL    HW236090   3.610   0.814   8.165  0.7728 -0.3032 -0.5994
 8211SOL     OW36091   3.477   4.573   8.819 -0.4315 -0.0394 -0.2391
 8211SOL    HW136092   3.428   4.506   8.771  0.3255  1.0251 -2.4713
 8211SOL    HW236093   3.435   4.654   8.788 -2.2096 -0.9500 -0.2285
 8212SOL     OW36094   0.944   3.312   7.261  0.3995  0.1408  0.4974
 8212SOL    HW136095   0.894   3.241   7.300 -2.6997  1.3121 -1.3093
 8212SOL    HW236096   1.033   3.295   7.291  0.1658  1.5036  1.9738
 8213SOL     OW36097   2.223   2.787   5.834  0.4968 -0.3481  0.2147
 8213SOL    HW136098   2.301   2.761   5.786 -0.1000 -1.4167 -0.1957
 8213SOL    HW236099   2.270   2.816   5.911  0.5244  0.5101 -0.1298
 8214SOL     OW36100   2.206   3.880   5.924 -0.1805  0.3631  0.7330
 8214SOL    HW136101   2.238   3.907   6.010  0.9453  0.2028  0.3603
 8214SOL    HW236102   2.285   3.869   5.871 -1.6582  1.0675 -1.6183
 8215SOL     OW36103   4.292   4.565   6.567 -0.1858  0.2423 -0.5483
 8215SOL    HW136104   4.224   4.500   6.550 -1.7303  1.2690  1.6451
 8215SOL    HW236105   4.275   4.595   6.657  2.3856  1.2198 -0.3889
 8216SOL     OW36106   4.474   0.508   9.787  0.3881 -0.5411  0.7032
 8216SOL    HW136107   4.498   0.415   9.777  0.2117 -0.5139  0.0035
 8216SOL    HW236108   4.551   0.555   9.818  1.0150  0.7265 -2.8032
 8217SOL     OW36109   3.317   1.578   5.911 -0.2545  0.3405 -0.2147
 8217SOL    HW136110   3.283   1.576   6.000  1.4099  0.5982  0.4257
 8217SOL    HW236111   3.390   1.638   5.923 -0.2145  0.6922 -2.1363
 8218SOL     OW36112   4.657   2.098  11.164 -0.3040 -0.0214  0.4062
 8218SOL    HW136113   4.648   2.165  11.232 -1.4206 -0.6823  0.9193
 8218SOL    HW236114   4.585   2.121  11.105  0.5009  0.3734 -0.4116
 8219SOL     OW36115   2.942   1.527   1.501 -0.3184 -0.3011 -0.2643
 8219SOL    HW136116   2.952   1.434   1.479  0.4772  0.1257 -1.7052
 8219SOL    HW236117   3.027   1.555   1.470  0.0330 -0.0173  0.9613
 8220SOL     OW36118   1.573   3.033   9.905  0.6355 -0.1710  0.4021
 8220SOL    HW136119   1.572   3.067   9.815 -0.1159 -0.3899  0.3306
 8220SOL    HW236120   1.619   3.102   9.953  1.1592 -2.0993  2.6450
 8221SOL     OW36121   1.412   4.201   2.455 -0.6899 -0.0610 -0.2573
 8221SOL    HW136122   1.422   4.176   2.547  0.7001  0.6946 -0.2032
 8221SOL    HW236123   1.414   4.295   2.475 -1.3062  0.4867 -2.8077
 8222SOL     OW36124   1.186   0.168  16.037  0.2189  0.2125 -0.2439
 8222SOL    HW136125   1.108   0.124  16.072  0.9692 -0.2999  0.7993
 8222SOL    HW236126   1.146   0.243  15.993  0.4078 -0.9897 -2.4329
 8223SOL     OW36127   0.436   4.328   9.029 -0.1802 -0.1233 -0.0771
 8223SOL    HW136128   0.364   4.333   9.091 -2.2069 -2.5200 -2.2617
 8223SOL    HW236129   0.389   4.327   8.947 -0.4693  1.1608  0.0664
 8224SOL     OW36130   3.741   2.336  12.584 -0.5485  0.4856  0.2523
 8224SOL    HW136131   3.671   2.398  12.606  1.2828  2.4112  0.6855
 8224SOL    HW236132   3.791   2.382  12.516 -1.9537 -0.0605 -1.1538
 8225SOL     OW36133   3.547   2.509   1.968 -0.1539  0.1871 -0.4133
 8225SOL    HW136134   3.591   2.458   1.900  0.2425 -0.0494  0.0216
 8225SOL    HW236135   3.579   2.462   2.045 -0.4642 -2.9398 -2.2049
 8226SOL     OW36136   4.113   0.985   3.370  0.0944 -0.3530 -0.1872
 8226SOL    HW136137   4.031   0.974   3.322  0.2725 -0.6902 -0.4135
 8226SOL    HW236138   4.173   0.950   3.305  2.0661 -0.3342  1.6357
 8227SOL     OW36139   3.240   0.344   6.356  0.5986  0.6576  0.1315
 8227SOL    HW136140   3.314   0.322   6.412 -1.4248 -1.5323  1.9929
 8227SOL    HW236141   3.240   0.260   6.311  0.3028  1.3718 -1.1939
 8228SOL     OW36142   2.835   3.008   3.579 -0.7181 -0.1795 -0.2418
 8228SOL    HW136143   2.785   2.977   3.655 -0.2233 -0.1583  0.0916
 8228SOL    HW236144   2.903   2.941   3.582 -0.6759 -0.1038  0.4060
 8229SOL     OW36145   2.327   3.099  14.926 -0.0895 -0.1185 -0.3903
 8229SOL    HW136146   2.393   3.168  14.927 -0.8218  0.5635  1.3563
 8229SOL    HW236147   2.264   3.133  14.862  1.1721 -0.7621 -1.9835
 8230SOL     OW36148   4.125   4.396   4.548  0.2937 -0.1975  0.4436
 8230SOL    HW136149   4.136   4.343   4.627 -1.9424 -0.7709  0.3629
 8230SOL    HW236150   4.090   4.477   4.584  0.1115  0.6578 -1.6496
 8231SOL     OW36151   0.089   1.828   7.805 -0.1342 -0.0117  0.1192
 8231SOL    HW136152   0.115   1.871   7.723  0.2501 -1.8749 -0.7475
 8231SOL    HW236153   0.139   1.746   7.802  4.2667  2.7606 -2.8620
 8232SOL     OW36154   0.426   2.535   8.325  0.5188  0.2047 -0.0997
 8232SOL    HW136155   0.364   2.515   8.255  0.7376 -1.4100  0.1654
 8232SOL    HW236156   0.386   2.585   8.395 -0.6109 -1.1972  0.2483
 8233SOL     OW36157   0.167   2.551   5.756 -0.5781 -0.1929  0.2469
 8233SOL    HW136158   0.228   2.499   5.704 -1.2031 -0.8271  0.1525
 8233SOL    HW236159   0.102   2.482   5.768 -0.0095 -0.4150  2.1019
 8234SOL     OW36160   1.240   1.658   9.226  0.5047  0.2309  0.2825
 8234SOL    HW136161   1.275   1.622   9.145 -1.5439  1.2997 -1.0810
 8234SOL    HW236162   1.313   1.619   9.274  0.5210 -1.2848 -0.9764
 8235SOL     OW36163   4.548   2.576   1.666  0.2051 -0.1911 -0.1656
 8235SOL    HW136164   4.612   2.554   1.599  0.3485 -0.5831  0.0977
 8235SOL    HW236165   4.578   2.510   1.729 -2.0256 -0.0673  1.0332
 8236SOL     OW36166   3.051   4.637   7.440 -0.4048  0.2893 -0.3205
 8236SOL    HW136167   3.057   4.713   7.498  0.6669  0.4395 -0.6201
 8236SOL    HW236168   3.017   4.571   7.501  0.8208 -2.8142 -2.9901
 8237SOL     OW36169   3.255   2.650   5.371 -0.1401 -0.0005 -0.0184
 8237SOL    HW136170   3.291   2.681   5.287 -0.5791 -0.0839 -0.2393
 8237SOL    HW236171   3.320   2.682   5.433  0.5889 -0.9026 -0.3122
 8238SOL     OW36172   1.967   1.292  13.843 -0.2414  0.0554 -0.2014
 8238SOL    HW136173   2.061   1.294  13.858 -0.0655 -1.0906 -1.1206
 8238SOL    HW236174   1.952   1.382  13.817 -2.4109 -0.3479 -0.3534
 8239SOL     OW36175   3.198   0.211   4.744 -0.6722 -0.5962 -0.1070
 8239SOL    HW136176   3.222   0.226   4.652  0.9323  0.0934  0.4260
 8239SOL    HW236177   3.281   0.195   4.789 -2.2692 -2.7087  2.0417
 8240SOL     OW36178   3.823   3.070   2.505  0.3636  0.2583 -0.2038
 8240SOL    HW136179   3.728   3.075   2.501  0.3291 -1.1441 -1.1306
 8240SOL    HW236180   3.835   3.050   2.598 -0.5915 -2.0889 -0.5903
 8241SOL     OW36181   3.325   4.593  17.222  0.0099  0.3575  0.0619
 8241SOL    HW136182   3.272   4.670  17.244  0.0404  0.3502  0.1597
 8241SOL    HW236183   3.302   4.533  17.293 -0.1700  1.5053  0.9737
 8242SOL     OW36184   0.410   4.308   4.868 -0.5946  0.2098  0.0358
 8242SOL    HW136185   0.411   4.224   4.913 -1.2305 -0.2355 -0.7770
 8242SOL    HW236186   0.351   4.362   4.920 -1.5345  0.3525 -1.1560
 8243SOL     OW36187   2.667   1.812   8.698 -0.3949 -0.3478  0.1363
 8243SOL    HW136188   2.749   1.825   8.649 -0.3185 -0.4801  0.2304
 8243SOL    HW236189   2.690   1.729   8.741  2.0433  0.1780 -0.1202
 8244SOL     OW36190   3.820   3.911  13.500  0.0873  0.0113  0.0820
 8244SOL    HW136191   3.838   3.826  13.460  0.9669  0.3418 -0.2377
 8244SOL    HW236192   3.895   3.932  13.555  0.0377 -0.2233  0.2387
 8245SOL     OW36193   3.557   4.652   6.183  0.1974  0.3189 -0.3384
 8245SOL    HW136194   3.622   4.692   6.241  0.9257 -1.5906  0.1705
 8245SOL    HW236195   3.550   4.567   6.228  2.5818  0.5225  0.4274
 8246SOL     OW36196   1.664   2.460   7.697 -0.7419  1.1162  0.0031
 8246SOL    HW136197   1.660   2.535   7.756 -1.5483  2.0901 -1.2717
 8246SOL    HW236198   1.604   2.406   7.749  1.0966 -2.0215 -1.1436
 8247SOL     OW36199   1.700   3.066   9.481 -0.4374  0.4371  0.0106
 8247SOL    HW136200   1.779   3.109   9.513  0.4818 -1.8000  0.7549
 8247SOL    HW236201   1.705   2.984   9.530  3.2314  0.7458  0.1632
 8248SOL     OW36202   1.003   0.840   3.422  0.1600 -0.4753  0.7917
 8248SOL    HW136203   1.025   0.895   3.497  1.2315 -0.0744  0.1873
 8248SOL    HW236204   1.068   0.770   3.424  1.4835  0.8653  4.3838
 8249SOL     OW36205   3.004   3.682  16.051 -0.0877  0.2198 -0.3104
 8249SOL    HW136206   3.038   3.747  15.989  2.9167 -0.2310  0.8512
 8249SOL    HW236207   3.019   3.730  16.133  0.8070  1.1456 -1.0134
 8250SOL     OW36208   0.514   1.162   5.446 -0.1650  0.4467 -0.1019
 8250SOL    HW136209   0.549   1.225   5.510  2.3989 -0.9727 -0.1040
 8250SOL    HW236210   0.447   1.206   5.394  1.7201  2.6560 -0.6692
 8251SOL     OW36211   1.929   1.102   1.628  0.0202 -0.3335  0.4337
 8251SOL    HW136212   1.966   1.101   1.717  1.6064 -1.2933 -0.2407
 8251SOL    HW236213   1.935   1.196   1.616  1.0140 -0.4715 -0.1353
 8252SOL     OW36214   0.263   3.399   6.283 -0.0398 -0.5934  0.3137
 8252SOL    HW136215   0.318   3.462   6.237  0.6068  0.2402  2.2589
 8252SOL    HW236216   0.267   3.343   6.206  0.2800  0.1164 -0.1870
 8253SOL     OW36217   0.599   2.118  10.533 -0.4310  0.4168 -0.8257
 8253SOL    HW136218   0.516   2.104  10.578 -1.3129 -0.2646 -2.6583
 8253SOL    HW236219   0.576   2.201  10.492 -0.8066 -0.0350 -1.5174
 8254SOL     OW36220   0.067   3.295   3.576 -0.2452 -0.0351 -0.4447
 8254SOL    HW136221   0.051   3.222   3.636 -2.4404 -0.0025 -0.9889
 8254SOL    HW236222   0.112   3.357   3.634 -0.8046 -0.8062  0.8271
 8255SOL     OW36223   3.895   2.479  11.500  0.0320  0.3231 -0.5538
 8255SOL    HW136224   3.918   2.563  11.461  0.6452  1.2060  1.6908
 8255SOL    HW236225   3.982   2.439  11.503 -0.0154  0.6108  4.3086
 8256SOL     OW36226   2.845   3.568   6.530 -0.1882 -0.0690 -0.5870
 8256SOL    HW136227   2.920   3.560   6.471  0.8676  1.7453  0.5146
 8256SOL    HW236228   2.895   3.614   6.597 -2.4400 -1.4270  2.0313
 8257SOL     OW36229   2.936   0.556   5.585  0.3216 -0.8692 -0.2176
 8257SOL    HW136230   3.007   0.602   5.631 -2.0544  1.9914  0.5795
 8257SOL    HW236231   2.913   0.628   5.526  0.2231  0.4545  1.4606
 8258SOL     OW36232   3.762   0.711   2.848  0.2125  0.7005 -0.1474
 8258SOL    HW136233   3.780   0.789   2.796  2.0503  1.0297  0.9957
 8258SOL    HW236234   3.853   0.707   2.879 -0.7427  1.4208  2.7253
 8259SOL     OW36235   3.650   0.689   6.130 -0.1569  1.0385 -0.0084
 8259SOL    HW136236   3.709   0.639   6.187 -1.5822 -0.3602  0.2326
 8259SOL    HW236237   3.593   0.628   6.083  1.7104 -1.7210  1.2930
 8260SOL     OW36238   1.668   2.947   2.043  0.7083  0.0005 -0.5575
 8260SOL    HW136239   1.597   2.914   2.098  2.7451 -3.0435  0.1994
 8260SOL    HW236240   1.703   2.864   2.012  2.0322  0.0401  0.8620
 8261SOL     OW36241   3.180   3.606  15.000  0.2548  0.0918  0.1593
 8261SOL    HW136242   3.213   3.628  14.913 -3.4394  1.0914 -1.0143
 8261SOL    HW236243   3.099   3.563  14.974 -0.3485  1.2399  0.1281
 8262SOL     OW36244   4.316   2.030  10.839 -0.4979  0.7013  0.1758
 8262SOL    HW136245   4.297   2.121  10.817 -2.3777  0.4879  0.9112
 8262SOL    HW236246   4.306   1.991  10.753  0.7979  0.0596  0.3288
 8263SOL     OW36247   4.289   3.424   4.727  0.0852 -0.5256 -0.2686
 8263SOL    HW136248   4.210   3.382   4.694  0.1287 -1.4689  0.8617
 8263SOL    HW236249   4.291   3.513   4.690  0.4987 -0.2571  0.3964
 8264SOL     OW36250   3.348   3.214   4.166 -0.1348 -0.1517  0.2156
 8264SOL    HW136251   3.316   3.300   4.140  2.3188  0.9457  0.8231
 8264SOL    HW236252   3.288   3.194   4.238 -0.0627  1.2881  0.6882
 8265SOL     OW36253   1.732   0.624   9.127  0.3592  0.7263 -0.5389
 8265SOL    HW136254   1.647   0.664   9.141  1.3170  2.4943  0.2542
 8265SOL    HW236255   1.728   0.546   9.182  0.5944  0.2323 -1.2186
 8266SOL     OW36256   4.500   0.321   5.270 -0.2135  0.2606  0.0408
 8266SOL    HW136257   4.550   0.400   5.250  1.7084 -0.7211  0.9992
 8266SOL    HW236258   4.472   0.291   5.184 -0.1871 -1.5255  0.6641
 8267SOL     OW36259   2.725   2.650   6.754 -1.1253  0.0215 -0.6488
 8267SOL    HW136260   2.818   2.667   6.743 -0.7990 -1.1016  0.3798
 8267SOL    HW236261   2.697   2.665   6.663  0.3530  2.4397 -0.7018
 8268SOL     OW36262   2.042   1.246   8.414  0.1992 -0.7127 -0.4434
 8268SOL    HW136263   2.012   1.262   8.325 -0.5241  1.3900  0.1693
 8268SOL    HW236264   2.123   1.295   8.400 -0.7478  1.0858  0.3538
 8269SOL     OW36265   1.968   0.349   1.160  0.4823  0.5137  0.1980
 8269SOL    HW136266   1.961   0.290   1.234  2.6544  0.7716  0.6192
 8269SOL    HW236267   1.893   0.311   1.115  0.0387  2.1852 -0.4825
 8270SOL     OW36268   2.418   4.604   3.985 -0.5209  0.2735 -0.0339
 8270SOL    HW136269   2.393   4.512   3.987 -0.6291  0.3480  1.9028
 8270SOL    HW236270   2.361   4.651   4.047 -0.6574  0.6832 -0.4694
 8271SOL     OW36271   4.504   2.612   0.279  0.0794  0.1995  0.9194
 8271SOL    HW136272   4.594   2.585   0.293  0.8390  2.3003  0.0907
 8271SOL    HW236273   4.461   2.598   0.363 -0.3804 -0.7915  0.5169
 8272SOL     OW36274   3.889   2.450   2.806  0.2167 -0.5163  0.0118
 8272SOL    HW136275   3.816   2.512   2.797  0.8824  0.9108  4.2281
 8272SOL    HW236276   3.961   2.506   2.776 -0.5808  0.3526 -0.2688
 8273SOL     OW36277   1.325   0.816  11.699 -0.0630  0.6908 -0.3046
 8273SOL    HW136278   1.337   0.866  11.780  2.2379 -1.0439  0.4115
 8273SOL    HW236279   1.396   0.753  11.693  0.6184  1.4845 -0.5313
 8274SOL     OW36280   1.673   3.847   7.159  0.1863  0.1725 -0.2297
 8274SOL    HW136281   1.761   3.820   7.134  1.2519  1.0001  2.5788
 8274SOL    HW236282   1.666   3.800   7.242  2.2128  0.4923  0.1128
 8275SOL     OW36283   1.110   4.493  14.539 -0.1072 -0.5670 -0.1414
 8275SOL    HW136284   1.040   4.459  14.482 -0.6193  1.9004 -0.9915
 8275SOL    HW236285   1.062   4.524  14.615 -1.8382 -0.8886 -1.0944
 8276SOL     OW36286   1.061   1.563   6.594  0.1745 -0.1451  0.2966
 8276SOL    HW136287   1.027   1.640   6.639  0.9285  0.6244 -0.4475
 8276SOL    HW236288   1.134   1.537   6.650  1.5442  0.9201 -0.9916
 8277SOL     OW36289   3.777   4.487  13.881  0.9754 -0.1317 -0.0764
 8277SOL    HW136290   3.798   4.394  13.876 -1.5466 -0.6565 -0.7920
 8277SOL    HW236291   3.694   4.484  13.833  0.5180 -0.2326  0.7247
 8278SOL     OW36292   3.424   2.230   4.382  0.7304  0.5399 -0.4497
 8278SOL    HW136293   3.471   2.313   4.394  0.0042  1.3942 -3.5786
 8278SOL    HW236294   3.471   2.172   4.442 -1.7899 -0.5410  0.4633
 8279SOL     OW36295   2.839   1.295   3.034  0.7237  0.0512 -0.6677
 8279SOL    HW136296   2.848   1.390   3.023  1.8508  0.4186  3.2164
 8279SOL    HW236297   2.831   1.287   3.129 -0.1764  0.8681 -0.6790
 8280SOL     OW36298   0.217   1.093   4.331 -0.4893  0.4058  0.1813
 8280SOL    HW136299   0.198   1.184   4.349  1.5841  0.9007 -0.1797
 8280SOL    HW236300   0.249   1.097   4.241  0.8975  0.6065  0.6860
 8281SOL     OW36301   3.338   0.366   6.907  0.2321  0.6009  0.1418
 8281SOL    HW136302   3.350   0.386   7.000 -2.4123  0.1715  0.5759
 8281SOL    HW236303   3.421   0.390   6.865  0.1300 -1.6189 -1.3094
 8282SOL     OW36304   1.478   3.681  15.474 -0.5486 -0.1044  0.6131
 8282SOL    HW136305   1.544   3.729  15.424 -0.0767 -2.5295 -1.0721
 8282SOL    HW236306   1.463   3.595  15.434  2.0769 -0.3322  0.1148
 8283SOL     OW36307   0.771   0.278  14.361  0.2051  0.2669  0.1745
 8283SOL    HW136308   0.773   0.371  14.337  1.7024  0.4634  1.0400
 8283SOL    HW236309   0.853   0.273  14.412  0.9948 -1.0620 -1.2402
 8284SOL     OW36310   3.160   2.941   8.437 -0.5593 -0.6064  0.5496
 8284SOL    HW136311   3.164   3.004   8.508 -0.1198  0.1791 -0.1688
 8284SOL    HW236312   3.211   2.990   8.372  1.6711 -0.9984  1.9891
 8285SOL     OW36313   1.104   2.824   4.963  0.0509  0.0310  0.0620
 8285SOL    HW136314   1.085   2.747   4.910  0.9428  0.0516 -0.2909
 8285SOL    HW236315   1.192   2.835   4.927 -0.2558  1.8227 -0.1470
 8286SOL     OW36316   0.026   4.663   6.883  0.2599 -0.5869 -0.3087
 8286SOL    HW136317   0.063   0.007   6.823  0.5861 -0.0213  0.5013
 8286SOL    HW236318   0.028   4.720   6.960 -1.0035 -0.6858 -0.1999
 8287SOL     OW36319   1.547   0.627   9.556 -0.4598  0.3132 -0.4796
 8287SOL    HW136320   1.581   0.670   9.477  2.0811  0.0952  0.5093
 8287SOL    HW236321   1.627   0.622   9.608 -0.6997 -0.9117 -0.2408
 8288SOL     OW36322   1.394   2.289   3.132 -0.3231 -0.3285  0.3282
 8288SOL    HW136323   1.380   2.250   3.219 -2.6796  1.2477  0.6689
 8288SOL    HW236324   1.488   2.304   3.136 -0.0663 -2.1753  1.1918
 8289SOL     OW36325   4.557   2.362   1.101 -0.4228  0.4883  0.2213
 8289SOL    HW136326   4.645   2.394   1.116  0.2648 -0.2102 -2.2811
 8289SOL    HW236327   4.505   2.438   1.128  0.4454  1.0559  0.2763
 8290SOL     OW36328   1.827   3.035   1.460 -0.7458  0.0018  0.2211
 8290SOL    HW136329   1.823   3.054   1.554 -0.6146 -0.1119  0.2502
 8290SOL    HW236330   1.915   3.008   1.433 -0.2257 -0.4954  2.4202
 8291SOL     OW36331   0.843   3.431   9.454 -0.3343  0.0666  0.5341
 8291SOL    HW136332   0.784   3.356   9.458  0.6692 -0.7354  0.6235
 8291SOL    HW236333   0.899   3.422   9.531  0.7870 -0.6381 -0.3487
 8292SOL     OW36334   2.832   2.642   2.941  0.2109 -0.8977 -0.0925
 8292SOL    HW136335   2.917   2.631   2.899 -1.0793 -0.5579 -2.7729
 8292SOL    HW236336   2.859   2.620   3.030 -0.9608 -2.8754 -0.2271
 8293SOL     OW36337   2.846   3.682  10.733 -0.2526 -0.1624  0.1180
 8293SOL    HW136338   2.805   3.665  10.817 -1.1328 -2.1299 -0.7229
 8293SOL    HW236339   2.809   3.767  10.710  0.4758  0.5249  1.4793
 8294SOL     OW36340   2.997   3.309   4.750 -0.3005  0.2168 -0.4417
 8294SOL    HW136341   2.949   3.335   4.672  1.1785  2.2541 -0.6626
 8294SOL    HW236342   3.045   3.390   4.765  0.5878 -0.6168  1.2652
 8295SOL     OW36343   0.148   0.707  13.104 -0.0452  0.2453 -0.1877
 8295SOL    HW136344   0.158   0.788  13.053 -0.3907 -0.0412 -0.7179
 8295SOL    HW236345   0.099   0.743  13.177 -0.9556 -1.7827  0.2103
 8296SOL     OW36346   3.873   2.661   4.041  0.4741 -0.6619 -0.1197
 8296SOL    HW136347   3.941   2.714   4.001  0.3743  0.5961  1.3828
 8296SOL    HW236348   3.839   2.621   3.961  1.6236 -0.6828 -0.5890
 8297SOL     OW36349   3.005   1.785   6.389  0.2368  0.0405  0.4394
 8297SOL    HW136350   3.025   1.692   6.400  0.9368  0.1465  0.0695
 8297SOL    HW236351   2.926   1.779   6.335  0.2173  0.8882  0.3875
 8298SOL     OW36352   4.116   0.665   9.413 -0.1916  0.2642  0.3863
 8298SOL    HW136353   4.047   0.712   9.460 -1.2621 -1.0104  0.0973
 8298SOL    HW236354   4.177   0.727   9.373 -0.7284  0.3619 -0.2778
 8299SOL     OW36355   4.315   4.337   7.590  0.4853  0.2844  0.4296
 8299SOL    HW136356   4.402   4.328   7.628 -1.0421 -0.5471  3.7878
 8299SOL    HW236357   4.309   4.431   7.576 -1.3416 -0.0551 -1.2146
 8300SOL     OW36358   1.064   2.270   4.417  0.0688 -0.6712  0.5716
 8300SOL    HW136359   0.973   2.250   4.394  0.4279  0.7698 -2.0979
 8300SOL    HW236360   1.111   2.206   4.364  1.8902 -0.7952  2.3355
 8301SOL     OW36361   1.767   3.829   6.481  0.1598  0.5140  0.5479
 8301SOL    HW136362   1.730   3.911   6.513  0.3890  0.0086  2.0943
 8301SOL    HW236363   1.860   3.851   6.475 -0.0199  1.2851  0.6462
 8302SOL     OW36364   0.979   3.726  14.061 -0.6251  0.1752  0.2639
 8302SOL    HW136365   1.004   3.719  14.153 -1.3044  2.7604  0.6470
 8302SOL    HW236366   1.060   3.694  14.020 -1.6997 -2.4188  0.1807
 8303SOL     OW36367   2.627   2.812   2.928  0.5400 -0.5168 -0.1751
 8303SOL    HW136368   2.636   2.845   2.838 -1.9670  0.0164 -0.2152
 8303SOL    HW236369   2.703   2.753   2.935  0.5378 -0.2543  2.0158
 8304SOL     OW36370   1.501   4.053  15.640 -0.2493 -0.2024 -0.0612
 8304SOL    HW136371   1.573   4.089  15.692  1.6380 -1.6416 -1.6366
 8304SOL    HW236372   1.537   4.090  15.559 -1.7783  1.6145  0.0952
 8305SOL     OW36373   1.325   0.216  17.011 -0.7689 -0.2233 -0.1302
 8305SOL    HW136374   1.278   0.282  17.062  1.2681  0.7073  0.5476
 8305SOL    HW236375   1.304   0.240  16.921  0.5447  0.5985 -0.2254
 8306SOL     OW36376   1.771   1.686   9.505  0.0098  0.3700 -0.7588
 8306SOL    HW136377   1.719   1.756   9.465 -0.2651  0.8308  0.3813
 8306SOL    HW236378   1.856   1.731   9.500  0.9729 -1.1191  2.2677
 8307SOL     OW36379   1.107   2.568   2.514 -0.1628 -0.0698 -0.1412
 8307SOL    HW136380   1.127   2.609   2.598  0.4516  1.1964 -0.9101
 8307SOL    HW236381   1.098   2.645   2.458 -0.1825  0.9444  1.2422
 8308SOL     OW36382   0.575   3.983  17.147  0.3692 -0.1782 -0.8803
 8308SOL    HW136383   0.610   4.017  17.065  0.5157  2.8058  0.4327
 8308SOL    HW236384   0.634   3.911  17.169  3.6614  3.0208  0.7632
 8309SOL     OW36385   0.486   1.097  12.896  0.2525  0.1353  0.4590
 8309SOL    HW136386   0.552   1.080  12.830 -0.0396  1.3834 -0.1474
 8309SOL    HW236387   0.477   1.192  12.890  0.5615  0.1156 -0.2946
 8310SOL     OW36388   4.576   3.282   7.283 -0.0801  0.3281 -0.5366
 8310SOL    HW136389   4.537   3.196   7.298 -0.2634  0.5062  0.0408
 8310SOL    HW236390   4.608   3.296   7.373 -0.6471 -3.3450  0.2389
 8311SOL     OW36391   2.875   3.065   9.743  0.4389 -0.2717 -0.1992
 8311SOL    HW136392   2.821   3.007   9.797 -0.5633 -0.1613 -1.0770
 8311SOL    HW236393   2.823   3.143   9.722  0.1874 -0.0090  1.4353
 8312SOL     OW36394   4.120   0.362   4.403  0.5734  0.2286  0.7268
 8312SOL    HW136395   4.201   0.366   4.351  1.2655  2.5900  1.9668
 8312SOL    HW236396   4.163   0.360   4.489  2.3368 -0.1862 -0.1456
 8313SOL     OW36397   0.829   0.575   2.844  0.0493 -0.5443  0.1559
 8313SOL    HW136398   0.852   0.485   2.823  1.4425 -0.0422 -0.5135
 8313SOL    HW236399   0.876   0.598   2.925  1.0125 -3.0904  0.3202
 8314SOL     OW36400   4.428   1.814   2.673 -0.2700 -0.1482  0.2728
 8314SOL    HW136401   4.415   1.719   2.665 -1.4790 -0.1669  2.3728
 8314SOL    HW236402   4.524   1.811   2.683 -0.1048 -0.2287 -1.3207
 8315SOL     OW36403   3.394   3.690   4.014  0.2370 -0.5455 -0.3550
 8315SOL    HW136404   3.354   3.628   3.953  0.8788 -1.8589  0.5651
 8315SOL    HW236405   3.444   3.624   4.061 -1.3854 -2.2486 -1.0135
 8316SOL     OW36406   4.419   3.364  11.628  0.0402 -0.2466 -0.2829
 8316SOL    HW136407   4.391   3.402  11.544 -0.3450  0.3583  0.1197
 8316SOL    HW236408   4.472   3.293  11.593  1.7052 -0.2832  2.3836
 8317SOL     OW36409   0.786   2.419   4.185 -0.2967 -0.0515  0.2406
 8317SOL    HW136410   0.740   2.365   4.250 -1.1214 -1.9896 -1.9610
 8317SOL    HW236411   0.754   2.507   4.206  0.9588  0.4714 -0.0751
 8318SOL     OW36412   1.475   2.516   3.467  0.1423 -0.1110  0.0409
 8318SOL    HW136413   1.522   2.527   3.384  0.3472 -3.8360 -0.3473
 8318SOL    HW236414   1.536   2.454   3.507 -0.4920 -0.7446  0.0337
 8319SOL     OW36415   1.358   3.334   7.174  0.4067  0.1623 -0.3065
 8319SOL    HW136416   1.382   3.286   7.095  1.9268  0.7068 -0.1699
 8319SOL    HW236417   1.431   3.335   7.235 -0.0245  2.1784  0.1950
 8320SOL     OW36418   3.472   3.011   2.646 -0.5922  0.1182  0.2551
 8320SOL    HW136419   3.378   3.026   2.653 -0.9372 -2.0643  0.3505
 8320SOL    HW236420   3.501   3.075   2.581  3.5464 -1.1633  0.8485
 8321SOL     OW36421   3.673   4.492  13.298 -1.1433  0.0126  0.4643
 8321SOL    HW136422   3.622   4.492  13.217 -0.6268 -0.7063  0.1429
 8321SOL    HW236423   3.759   4.519  13.265 -1.0841 -0.4593  0.2349
 8322SOL     OW36424   2.370   2.255   3.696  0.0632  0.6612  0.3288
 8322SOL    HW136425   2.380   2.290   3.607 -1.1277 -0.1455 -0.1311
 8322SOL    HW236426   2.324   2.322   3.746  1.6654  1.3849  0.8454
 8323SOL     OW36427   0.619   3.145   1.367 -0.1765 -0.0051  0.0421
 8323SOL    HW136428   0.531   3.145   1.328  0.3960  0.3913 -1.2593
 8323SOL    HW236429   0.620   3.058   1.407  1.0590 -0.3121 -0.6522
 8324SOL     OW36430   0.129   3.060  17.069  0.3350 -0.3956  0.3019
 8324SOL    HW136431   0.132   3.079  16.975  0.4229  0.8738  0.5555
 8324SOL    HW236432   0.041   3.090  17.094 -0.0811 -1.4558  0.0940
 8325SOL     OW36433   4.121   2.520   8.611 -0.5050 -0.2457  0.4577
 8325SOL    HW136434   4.071   2.514   8.693 -0.1148  0.2527  0.7309
 8325SOL    HW236435   4.193   2.464   8.640 -0.7143 -0.5789  0.3336
 8326SOL     OW36436   1.913   2.852   7.648 -0.3556  0.4169 -0.3857
 8326SOL    HW136437   1.833   2.902   7.631 -0.1137  0.3295 -1.7537
 8326SOL    HW236438   1.916   2.880   7.740  3.4095  0.7554 -0.6415
 8327SOL     OW36439   4.342   4.243   4.153  0.1612  0.2416  0.5069
 8327SOL    HW136440   4.412   4.273   4.095 -1.6132  3.0409 -0.1748
 8327SOL    HW236441   4.342   4.150   4.129 -1.4421 -0.2334  2.3038
 8328SOL     OW36442   1.854   1.758   2.537 -0.5174 -0.5824 -0.3068
 8328SOL    HW136443   1.764   1.726   2.544  0.0997 -1.7834  2.0298
 8328SOL    HW236444   1.884   1.703   2.610  1.7048 -2.2384 -2.4588
 8329SOL     OW36445   1.294   2.220   2.892  0.2886  0.1088 -0.4161
 8329SOL    HW136446   1.306   2.241   2.985 -0.1960  1.2776 -0.6225
 8329SOL    HW236447   1.367   2.268   2.854  1.4562 -0.9053  0.5641
 8330SOL     OW36448   2.141   0.509   7.537 -0.4269 -0.2875 -0.7101
 8330SOL    HW136449   2.125   0.579   7.601  0.8825  0.2363 -0.9607
 8330SOL    HW236450   2.059   0.467   7.563  0.3077 -1.4134 -0.2175
 8331SOL     OW36451   0.820   2.897  14.969  0.4734 -0.2376 -0.5619
 8331SOL    HW136452   0.841   2.972  15.024  0.1255 -0.9459  0.5395
 8331SOL    HW236453   0.736   2.868  15.003  0.0643  0.2118 -1.1862
 8332SOL     OW36454   1.963   3.858   2.390  0.3220  0.0012  0.0085
 8332SOL    HW136455   1.922   3.832   2.472  0.6912 -0.0963  0.1578
 8332SOL    HW236456   1.994   3.941   2.427  1.0464 -0.4831  0.4834
 8333SOL     OW36457   0.914   2.347   5.926  0.1381  0.1870 -0.1083
 8333SOL    HW136458   0.910   2.251   5.924  2.1217  0.1195 -0.6591
 8333SOL    HW236459   0.867   2.379   5.849 -0.3706  0.9407  0.5059
 8334SOL     OW36460   2.149   4.452   4.670  0.2220  0.0593  0.3249
 8334SOL    HW136461   2.058   4.478   4.684 -0.9559 -2.7691 -2.0373
 8334SOL    HW236462   2.129   4.370   4.626  1.7742  0.4031 -1.0364
 8335SOL     OW36463   3.941   1.727  17.347 -0.5172  0.0210 -0.3952
 8335SOL    HW136464   3.888   1.753  17.272  0.2873  2.2646 -0.1892
 8335SOL    HW236465   3.995   1.654  17.318 -1.7942 -1.0269 -0.1087
 8336SOL     OW36466   0.027   4.650   1.107  0.1671  0.2812 -0.0111
 8336SOL    HW136467   0.033   0.025   1.109  2.1280  0.0848  2.2947
 8336SOL    HW236468   4.659   4.640   1.074 -0.5657  1.1256  1.7188
 8337SOL     OW36469   4.703   0.843   7.461 -0.1382 -0.3775 -0.6278
 8337SOL    HW136470   4.645   0.852   7.537  1.5847  2.9626  0.2711
 8337SOL    HW236471   4.662   0.898   7.394  1.3158 -1.8876 -2.7833
 8338SOL     OW36472   3.100   0.287   7.686 -0.1878 -0.1559 -0.9157
 8338SOL    HW136473   3.101   0.262   7.778 -2.4525 -0.1133 -0.8774
 8338SOL    HW236474   3.148   0.370   7.686 -0.7795  0.1845  0.1827
 8339SOL     OW36475   2.638   2.920  15.390 -0.6082 -0.2840 -0.0914
 8339SOL    HW136476   2.697   2.852  15.356  1.3194  1.3783 -0.0993
 8339SOL    HW236477   2.610   2.946  15.303 -0.4089 -1.7958 -0.6059
 8340SOL     OW36478   2.857   0.802  14.500 -0.4390 -0.6658  0.1212
 8340SOL    HW136479   2.789   0.757  14.449 -0.6913  1.4502 -1.4409
 8340SOL    HW236480   2.841   0.892  14.470 -1.3998 -1.2810 -1.2272
 8341SOL     OW36481   3.841   0.652  12.652  0.0263 -0.2420  0.0799
 8341SOL    HW136482   3.809   0.563  12.670 -0.7996  0.3717  1.6747
 8341SOL    HW236483   3.856   0.652  12.557 -0.6568  2.5748 -0.0435
 8342SOL     OW36484   0.363   1.531  16.046 -0.4170  0.4496  0.1487
 8342SOL    HW136485   0.295   1.523  16.113 -0.1316 -1.8818  0.1663
 8342SOL    HW236486   0.339   1.467  15.980  0.4293  1.8689 -1.5485
 8343SOL     OW36487   3.109   0.348   3.181  0.1118 -0.1160 -0.1672
 8343SOL    HW136488   3.153   0.427   3.210 -0.5636 -0.3050  1.3613
 8343SOL    HW236489   3.040   0.339   3.246 -0.4575 -1.4977 -0.9618
 8344SOL     OW36490   0.773   1.523   8.841  0.1514 -0.2756  0.1152
 8344SOL    HW136491   0.850   1.576   8.823 -0.5300  1.2820  1.7667
 8344SOL    HW236492   0.723   1.589   8.889 -2.2265 -0.7125 -1.8005
 8345SOL     OW36493   0.259   3.462  13.380 -0.1435 -0.0936  0.0888
 8345SOL    HW136494   0.170   3.480  13.349 -1.1847 -0.7897  2.6858
 8345SOL    HW236495   0.243   3.439  13.471  1.4538 -2.0494 -0.1162
 8346SOL     OW36496   3.182   4.002  15.549 -0.3244 -0.6259 -0.8685
 8346SOL    HW136497   3.198   4.011  15.643  2.3329  0.0405 -1.3712
 8346SOL    HW236498   3.265   4.035  15.514 -0.5432  1.0532  0.2151
 8347SOL     OW36499   4.072   2.426   8.854 -0.2093 -0.2705  0.1206
 8347SOL    HW136500   4.039   2.336   8.854  0.8183 -0.6475 -0.4849
 8347SOL    HW236501   4.009   2.465   8.915 -1.8268 -1.2088 -0.9753
 8348SOL     OW36502   3.035   0.284   0.246  0.2661  0.3057  0.0863
 8348SOL    HW136503   3.022   0.277   0.341  0.2589  1.3687  0.1642
 8348SOL    HW236504   2.945   0.303   0.220 -0.6610 -1.3969  2.0680
 8349SOL     OW36505   1.371   0.470   7.111  0.5208  0.0648  0.4761
 8349SOL    HW136506   1.332   0.444   7.027  0.2788  0.0343  0.5985
 8349SOL    HW236507   1.421   0.392   7.135 -0.0074  0.5745  3.1800
 8350SOL     OW36508   2.292   2.143   1.443 -0.4820  0.1941  0.0981
 8350SOL    HW136509   2.274   2.050   1.428 -0.7567  0.5352 -1.6043
 8350SOL    HW236510   2.296   2.147   1.539 -1.4104 -1.0635  0.1968
 8351SOL     OW36511   4.072   4.380  13.564  0.5569 -0.4701 -0.4901
 8351SOL    HW136512   4.021   4.452  13.526 -0.5356 -0.5081  0.9216
 8351SOL    HW236513   4.037   4.379  13.653  1.2445  2.3225 -0.1849
 8352SOL     OW36514   3.058   1.566   5.345  0.1631 -0.2022 -0.5183
 8352SOL    HW136515   2.979   1.514   5.364 -0.2922  0.5434 -0.3744
 8352SOL    HW236516   3.091   1.533   5.262  0.8408  2.6445 -1.3745
 8353SOL     OW36517   4.664   1.733  17.079 -0.3665  0.0707  0.2970
 8353SOL    HW136518   0.031   1.769  17.092 -0.6862  0.9079  0.1807
 8353SOL    HW236519   4.613   1.779  17.146  0.7726  2.5393 -0.5082
 8354SOL     OW36520   0.061   0.134   5.042 -0.9549  0.1195  0.4265
 8354SOL    HW136521   0.149   0.107   5.069 -0.1454  2.6069  0.3103
 8354SOL    HW236522   0.078   0.147   4.948  2.7939  0.6308  1.1747
 8355SOL     OW36523   3.818   1.758   7.604 -0.0700 -0.2559  0.0451
 8355SOL    HW136524   3.859   1.752   7.690  1.4834 -2.9212 -0.8855
 8355SOL    HW236525   3.883   1.795   7.544  0.4849  1.9284  2.0077
 8356SOL     OW36526   0.619   2.614  12.317  0.3864  0.3720  0.0719
 8356SOL    HW136527   0.709   2.596  12.291  0.3469 -1.0677  0.9452
 8356SOL    HW236528   0.593   2.674  12.247  2.6384  1.2661  0.0169
 8357SOL     OW36529   3.680   4.420  11.214 -0.3399  0.3738 -0.0296
 8357SOL    HW136530   3.594   4.382  11.232 -0.7650  1.0449 -0.6626
 8357SOL    HW236531   3.676   4.457  11.125  1.0696 -0.9677 -0.6663
 8358SOL     OW36532   0.297   0.840   2.616  0.5364  0.5049  0.0205
 8358SOL    HW136533   0.235   0.799   2.555 -1.4235  3.0623  0.3288
 8358SOL    HW236534   0.341   0.899   2.555  0.1660  2.8219  2.0198
 8359SOL     OW36535   0.285   3.465   5.117 -0.6347 -0.0207  0.1046
 8359SOL    HW136536   0.378   3.444   5.128 -0.7584 -1.7685 -2.1246
 8359SOL    HW236537   0.263   3.423   5.034  0.4099 -1.0415  0.3371
 8360SOL     OW36538   1.558   3.648   4.200 -0.0857  0.5223  0.8138
 8360SOL    HW136539   1.620   3.648   4.127 -1.4599 -3.4841 -0.3631
 8360SOL    HW236540   1.480   3.611   4.160  0.3369  0.7174 -0.2159
 8361SOL     OW36541   0.127   2.065   0.511  0.0288  0.6512  0.1142
 8361SOL    HW136542   0.075   2.017   0.575 -1.2133 -0.7230 -1.9415
 8361SOL    HW236543   0.067   2.136   0.490 -1.3756 -0.0652  1.7117
 8362SOL     OW36544   3.032   2.979  12.159 -0.7562  0.0714 -0.3550
 8362SOL    HW136545   3.112   3.030  12.172 -0.3976 -0.8963  1.2758
 8362SOL    HW236546   3.075   2.901  12.195 -0.5316  0.7126  0.7725
 8363SOL     OW36547   3.870   3.546   8.982  0.6020  0.3916 -0.4099
 8363SOL    HW136548   3.845   3.627   8.937 -0.9303 -0.1099 -0.4707
 8363SOL    HW236549   3.924   3.494   8.923  0.3955 -1.7489  1.2842
 8364SOL     OW36550   1.759   3.327   4.994 -0.4034 -0.2247  0.5234
 8364SOL    HW136551   1.774   3.419   5.015 -0.3459  0.0820 -0.8838
 8364SOL    HW236552   1.717   3.302   5.076  0.9108  1.0741  1.6026
 8365SOL     OW36553   1.585   4.113  13.730 -0.1179  0.1987  0.7606
 8365SOL    HW136554   1.576   4.027  13.689  2.7899  0.0712  0.3512
 8365SOL    HW236555   1.674   4.111  13.767 -0.1077  1.0339  0.7667
 8366SOL     OW36556   2.865   2.196   6.168 -0.8056  0.9814 -0.0553
 8366SOL    HW136557   2.812   2.221   6.093  0.8640 -0.9585 -1.8908
 8366SOL    HW236558   2.952   2.222   6.138 -0.6604  2.6906  1.8523
 8367SOL     OW36559   4.617   3.233   1.094 -0.1051  0.1915 -0.1204
 8367SOL    HW136560   4.555   3.201   1.029 -1.8650  1.2371  1.0466
 8367SOL    HW236561   4.558   3.268   1.160  0.3970  0.5738  0.1261
 8368SOL     OW36562   1.067   0.842  15.990  0.3481 -0.0715 -0.3286
 8368SOL    HW136563   1.039   0.922  16.035 -0.2360  0.1678 -1.1236
 8368SOL    HW236564   1.058   0.874  15.900  0.4668  0.3373 -0.1974
 8369SOL     OW36565   4.688   0.506  11.810 -0.4275  0.5128 -0.5848
 8369SOL    HW136566   0.009   0.427  11.774 -1.2263 -0.9319  1.6746
 8369SOL    HW236567   0.022   0.578  11.779  0.1636 -0.8969 -2.8765
 8370SOL     OW36568   4.596   4.712   3.786  0.3156  0.2635  0.1289
 8370SOL    HW136569   4.566   4.669   3.866  1.6316 -0.2093  0.3754
 8370SOL    HW236570   4.535   4.678   3.721  1.2746 -0.9092 -0.1576
 8371SOL     OW36571   0.071   2.919   3.307 -0.4524  0.0925 -0.3780
 8371SOL    HW136572   0.031   2.846   3.353 -0.5376  0.7169  0.5381
 8371SOL    HW236573   4.717   2.975   3.286 -1.5455 -0.8799  0.9243
 8372SOL     OW36574   3.083   4.714   6.048 -0.4650 -0.3896  0.7280
 8372SOL    HW136575   3.117   4.631   6.012  1.1348  0.4634  0.2620
 8372SOL    HW236576   2.998   4.718   6.004  0.5888 -1.6155 -1.4265
 8373SOL     OW36577   1.770   4.334   4.929 -0.1157  0.3016 -0.5501
 8373SOL    HW136578   1.697   4.277   4.951  0.0261  1.0524  1.7914
 8373SOL    HW236579   1.743   4.417   4.969 -0.6423  1.4561 -3.2897
 8374SOL     OW36580   3.988   4.005  11.134 -0.2015 -0.0163  0.1695
 8374SOL    HW136581   3.960   3.967  11.051 -1.6901  0.1158  0.6211
 8374SOL    HW236582   3.936   4.084  11.145 -2.2850 -1.2231 -1.1403
 8375SOL     OW36583   2.350   3.826  11.375  0.8328 -0.6360  0.1514
 8375SOL    HW136584   2.306   3.897  11.329  0.5366 -0.9573 -0.0599
 8375SOL    HW236585   2.317   3.747  11.332  0.0315  0.1667 -0.6825
 8376SOL     OW36586   2.793   3.789   3.067  0.0198  0.4999 -0.1288
 8376SOL    HW136587   2.778   3.873   3.025 -1.4756  0.4560  0.3474
 8376SOL    HW236588   2.876   3.814   3.110 -0.3568 -2.2754  2.2085
 8377SOL     OW36589   3.259   3.097  11.855  0.1386  0.2375 -0.8644
 8377SOL    HW136590   3.313   3.125  11.782  1.2846 -0.6918 -0.3775
 8377SOL    HW236591   3.275   3.174  11.909  0.5183 -0.6525  0.2913
 8378SOL     OW36592   4.388   1.560   6.326  1.0275  0.1026  0.2069
 8378SOL    HW136593   4.428   1.489   6.377  0.9068 -0.3572 -0.3348
 8378SOL    HW236594   4.390   1.630   6.391  1.4763 -1.7095  2.1624
 8379SOL     OW36595   0.674   2.677   6.182  0.2574  0.3519 -0.4280
 8379SOL    HW136596   0.757   2.641   6.152 -0.3909 -1.5581  0.0493
 8379SOL    HW236597   0.697   2.770   6.183  2.2057 -0.1937  1.7326
 8380SOL     OW36598   1.416   3.204   3.060  0.0264  0.8712 -0.1404
 8380SOL    HW136599   1.366   3.247   3.130 -0.3795  0.5059 -0.2046
 8380SOL    HW236600   1.355   3.197   2.987  1.1968 -1.2903 -0.9045
 8381SOL     OW36601   1.484   0.978   3.699 -0.5436 -0.2408  0.5072
 8381SOL    HW136602   1.510   0.995   3.609  0.4373  0.4020  0.9136
 8381SOL    HW236603   1.467   1.068   3.727 -0.7716 -0.6216  1.6087
 8382SOL     OW36604   4.377   2.754  10.548  0.2725 -0.7547  0.2419
 8382SOL    HW136605   4.458   2.703  10.537  0.6620 -0.1001  0.0554
 8382SOL    HW236606   4.312   2.686  10.565  0.7893 -0.8917  1.6722
 8383SOL     OW36607   0.028   1.275  13.660 -0.9222 -0.3688  0.4795
 8383SOL    HW136608   0.115   1.305  13.634 -0.9755 -0.0681  0.6511
 8383SOL    HW236609   0.029   1.316  13.747 -0.2950 -1.6359  1.0680
 8384SOL     OW36610   0.152   2.609   6.049  0.2470 -0.3433  0.0878
 8384SOL    HW136611   0.241   2.625   6.079 -0.2798 -0.6479  1.7896
 8384SOL    HW236612   0.169   2.573   5.962  0.4035 -0.9075  0.3540
 8385SOL     OW36613   0.886   1.480  17.301  0.8096  0.1849  0.4069
 8385SOL    HW136614   0.924   1.451  17.218 -0.2368 -1.0579  0.3641
 8385SOL    HW236615   0.796   1.450  17.291  0.6243  1.4434 -1.6677
 8386SOL     OW36616   3.514   0.429   4.549  0.3867 -0.3517 -0.1671
 8386SOL    HW136617   3.462   0.350   4.539  0.1708 -0.4446  1.7887
 8386SOL    HW236618   3.454   0.490   4.590 -0.1766 -1.3650  0.4918
 8387SOL     OW36619   0.925   0.338   5.791 -0.2896  0.4662 -0.4496
 8387SOL    HW136620   0.995   0.279   5.816 -0.6209 -0.1138 -0.8945
 8387SOL    HW236621   0.907   0.301   5.705  1.9204 -1.8412  0.0724
 8388SOL     OW36622   1.820   3.510   2.677 -0.1018  0.3773  0.1391
 8388SOL    HW136623   1.767   3.494   2.599  0.8218 -1.8340 -0.0290
 8388SOL    HW236624   1.807   3.435   2.735  1.0119 -0.2231 -0.3828
 8389SOL     OW36625   0.433   4.223   5.235  0.1761 -0.1947  0.2078
 8389SOL    HW136626   0.403   4.289   5.298 -0.4790 -1.4866  1.2432
 8389SOL    HW236627   0.508   4.182   5.278 -0.6040 -2.0795 -0.2119
 8390SOL     OW36628   1.188   4.256   3.855 -0.1643  0.0312  0.2718
 8390SOL    HW136629   1.127   4.186   3.829 -0.7289  0.5615  0.1697
 8390SOL    HW236630   1.269   4.206   3.855  1.0841  2.0473 -2.8735
 8391SOL     OW36631   1.547   4.085   5.217 -0.2109  0.2145 -0.2546
 8391SOL    HW136632   1.516   4.111   5.304 -0.0779  0.3867 -0.2566
 8391SOL    HW236633   1.626   4.038   5.242 -0.5682  0.1794  0.8008
 8392SOL     OW36634   3.801   3.052   5.017 -0.5062 -0.4509  0.1804
 8392SOL    HW136635   3.887   3.037   5.055  0.1141 -0.2552 -1.1560
 8392SOL    HW236636   3.762   3.078   5.101  0.2355  1.6868 -0.1460
 8393SOL     OW36637   0.361   0.874   7.517 -0.5050  0.1855 -0.1808
 8393SOL    HW136638   0.315   0.808   7.569  1.4687  0.6093  2.1067
 8393SOL    HW236639   0.294   0.936   7.489 -2.0069 -0.1403  2.6982
 8394SOL     OW36640   3.509   2.088   5.548 -0.0177 -0.0630 -0.1082
 8394SOL    HW136641   3.473   2.019   5.492 -1.6791 -0.3656  1.3158
 8394SOL    HW236642   3.428   2.122   5.585  0.2622  0.9854 -0.4510
 8395SOL     OW36643   4.432   4.195   7.995 -0.1162 -0.2377  0.1006
 8395SOL    HW136644   4.494   4.200   8.068  0.5508  0.6804 -0.5323
 8395SOL    HW236645   4.497   4.165   7.931 -0.2210 -0.4461  0.0936
 8396SOL     OW36646   0.002   1.730   9.411  0.2470  0.1995  0.0937
 8396SOL    HW136647   0.041   1.729   9.499  0.1899 -0.5170  0.1111
 8396SOL    HW236648   0.041   1.807   9.369  2.7840 -0.1678  1.7898
 8397SOL     OW36649   3.623   4.641  17.251  0.0628 -0.1285 -0.0790
 8397SOL    HW136650   3.530   4.630  17.232 -0.2378  1.4367  0.4269
 8397SOL    HW236651   3.657   4.595  17.174 -1.3005 -0.1763 -0.6587
 8398SOL     OW36652   3.942   4.550  13.281  0.5466  0.1818 -0.2855
 8398SOL    HW136653   3.950   4.618  13.348 -1.1453  0.0697  0.0120
 8398SOL    HW236654   3.977   4.594  13.203 -0.9091  0.7639 -0.6128
 8399SOL     OW36655   2.757   0.064  14.635  0.1494  0.0871 -0.5686
 8399SOL    HW136656   2.735   4.702  14.593 -0.3392  0.1885 -0.5214
 8399SOL    HW236657   2.680   0.070  14.692  0.6346 -1.0276  0.1983
 8400SOL     OW36658   4.400   3.616  10.996  0.0419  0.2557 -0.5930
 8400SOL    HW136659   4.469   3.677  11.020  1.2332 -1.0387 -0.7239
 8400SOL    HW236660   4.317   3.661  11.011  0.3661  0.3703  0.8628
 8401SOL     OW36661   3.529   4.025   7.941 -0.1257  0.1154  0.2116
 8401SOL    HW136662   3.606   3.968   7.940 -0.1638  0.0676 -0.4533
 8401SOL    HW236663   3.573   4.107   7.922 -0.2518  0.6493  2.2325
 8402SOL     OW36664   2.955   1.459   8.323 -0.4340 -0.5925 -0.5558
 8402SOL    HW136665   3.008   1.382   8.301 -0.6675 -1.3861  1.7103
 8402SOL    HW236666   3.001   1.482   8.403  0.0182  0.0428 -1.0022
 8403SOL     OW36667   2.199   1.004   7.055 -0.1030 -0.3170  0.6614
 8403SOL    HW136668   2.254   0.938   7.099  1.4151 -0.0754 -0.8956
 8403SOL    HW236669   2.254   1.081   7.049 -0.6809 -0.0119 -0.5205
 8404SOL     OW36670   3.828   1.223   1.771  0.2413 -0.0359  0.1756
 8404SOL    HW136671   3.775   1.301   1.785 -0.8250 -0.0035 -3.8342
 8404SOL    HW236672   3.818   1.215   1.676  0.5651  1.4813  0.0105
 8405SOL     OW36673   3.844   0.203   2.931 -0.0848  0.0991  0.5647
 8405SOL    HW136674   3.906   0.131   2.944  0.3522  0.3116 -0.3253
 8405SOL    HW236675   3.894   0.277   2.898  0.1697 -0.1275  0.4407
 8406SOL     OW36676   1.313   1.105   6.994 -0.2813 -0.3663 -0.4213
 8406SOL    HW136677   1.222   1.129   7.012 -0.1561 -0.0464 -0.2274
 8406SOL    HW236678   1.313   1.064   6.908  1.5526 -1.4882  0.1121
 8407SOL     OW36679   3.614   0.366  13.092  0.4092  0.3498  0.0469
 8407SOL    HW136680   3.647   0.447  13.053  0.5695  0.2603 -0.0033
 8407SOL    HW236681   3.668   0.358  13.171 -0.3107 -1.3219  0.3739
 8408SOL     OW36682   1.967   4.297   7.883  0.0762 -0.0290  0.0612
 8408SOL    HW136683   1.966   4.276   7.790  1.9248 -1.0357  0.2734
 8408SOL    HW236684   2.055   4.331   7.899  0.0453 -0.7978  1.8716
 8409SOL     OW36685   2.886   2.275  17.478 -0.4160 -0.1312  0.1348
 8409SOL    HW136686   2.868   2.235  17.563  0.7806  0.3071  0.6083
 8409SOL    HW236687   2.979   2.252  17.471 -0.5150 -0.9067  1.3047
 8410SOL     OW36688   4.677   2.884  16.516 -0.4105 -0.1849 -0.5983
 8410SOL    HW136689   4.659   2.949  16.585  1.8954 -0.8045  0.5777
 8410SOL    HW236690   4.606   2.908  16.456 -0.8048 -0.7222 -0.3444
 8411SOL     OW36691   2.495   4.433   3.724 -0.5479  0.1486 -0.5527
 8411SOL    HW136692   2.478   4.373   3.796  0.2501 -1.0215 -1.3214
 8411SOL    HW236693   2.408   4.431   3.682 -0.9193  0.1357  0.2205
 8412SOL     OW36694   4.420   2.337   9.018  0.2267  0.3651 -0.0693
 8412SOL    HW136695   4.353   2.322   9.085 -0.9406  1.3317 -0.9956
 8412SOL    HW236696   4.415   2.433   9.022 -0.6513  0.3211 -0.0139
 8413SOL     OW36697   1.546   4.487   7.807 -0.2224  0.0761  0.5816
 8413SOL    HW136698   1.568   4.411   7.752  2.1193  0.2303  1.2850
 8413SOL    HW236699   1.637   4.516   7.818 -0.6324  1.1461  1.0753
 8414SOL     OW36700   4.396   1.817  14.674 -0.6198  0.3157 -0.0088
 8414SOL    HW136701   4.475   1.763  14.668  0.4316  1.9681 -1.2311
 8414SOL    HW236702   4.417   1.908  14.696  0.9839  0.2281 -1.1774
 8415SOL     OW36703   4.053   1.647   8.509  0.5382 -0.0529  0.2841
 8415SOL    HW136704   4.019   1.692   8.586  0.3292 -1.9808  1.3273
 8415SOL    HW236705   4.147   1.660   8.522  0.7109 -2.7490  1.6461
 8416SOL     OW36706   2.342   0.590  17.269 -0.3296 -0.0033 -0.1141
 8416SOL    HW136707   2.269   0.538  17.234 -1.3540  0.6530  1.0176
 8416SOL    HW236708   2.359   0.662  17.209 -2.4813 -0.0145 -0.7519
 8417SOL     OW36709   2.132   3.600   5.987 -0.1035 -0.2263  0.3305
 8417SOL    HW136710   2.145   3.693   5.967 -2.0349  0.0225  0.1333
 8417SOL    HW236711   2.148   3.558   5.903 -0.0648  0.5880 -0.0713
 8418SOL     OW36712   1.180   4.018  11.733  0.0677 -0.2929  0.0566
 8418SOL    HW136713   1.266   3.982  11.755 -1.3595 -2.5747  1.8729
 8418SOL    HW236714   1.111   3.952  11.738  1.0738 -1.4418 -1.2119
 8419SOL     OW36715   4.271   3.342   3.217  0.0558  0.7072 -0.2663
 8419SOL    HW136716   4.250   3.431   3.187  0.5528  0.4069 -1.4997
 8419SOL    HW236717   4.337   3.316   3.153 -1.0760 -0.8815 -0.7684
 8420SOL     OW36718   0.326   0.932   5.017  0.1900 -0.3166 -0.4325
 8420SOL    HW136719   0.297   0.987   4.944 -0.0452  0.4456  0.2167
 8420SOL    HW236720   0.262   0.956   5.085  1.1421 -0.8810  0.6609
 8421SOL     OW36721   0.574   2.639   8.916 -0.0705  0.5024 -0.2983
 8421SOL    HW136722   0.613   2.617   8.831 -0.2794 -3.0705  0.5361
 8421SOL    HW236723   0.601   2.566   8.970  1.4473  0.5123 -1.0502
 8422SOL     OW36724   1.716   2.707   6.348 -0.1600  0.1986  0.0558
 8422SOL    HW136725   1.687   2.690   6.437 -0.3572 -0.5391 -0.1513
 8422SOL    HW236726   1.637   2.725   6.297  0.5260 -1.3932 -1.5981
 8423SOL     OW36727   1.611   3.854  17.485  0.1455 -0.0358 -0.3121
 8423SOL    HW136728   1.582   3.906  17.559  0.1853  0.7545 -0.8452
 8423SOL    HW236729   1.647   3.921  17.426 -0.3494  0.3045 -0.2186
 8424SOL     OW36730   3.618   2.921  14.845 -0.0356  0.3466  0.2534
 8424SOL    HW136731   3.634   2.882  14.759 -1.6092 -1.5432  0.8340
 8424SOL    HW236732   3.525   2.942  14.840 -0.1589  0.1151  1.6156
 8425SOL     OW36733   1.100   1.600   4.643 -0.0281  0.3787 -0.4243
 8425SOL    HW136734   1.097   1.695   4.652 -0.4191  0.4777 -1.5650
 8425SOL    HW236735   1.194   1.582   4.648 -0.0306 -0.0003 -1.7197
 8426SOL     OW36736   2.779   4.331   3.574  0.4124 -0.2396  0.5738
 8426SOL    HW136737   2.821   4.338   3.660  0.6259 -1.5446  0.5808
 8426SOL    HW236738   2.686   4.337   3.595  0.8124  0.4659  2.1866
 8427SOL     OW36739   1.025   3.383   4.607 -0.0443  0.4778  0.2536
 8427SOL    HW136740   1.103   3.434   4.586 -0.6795  2.5186  2.8053
 8427SOL    HW236741   0.981   3.363   4.524  1.3749 -0.5838 -0.2378
 8428SOL     OW36742   1.892   3.430   6.654  0.1545 -0.8302  0.7730
 8428SOL    HW136743   1.949   3.439   6.577  0.5154  0.3062  1.1733
 8428SOL    HW236744   1.838   3.355   6.628 -2.4159  1.8213 -1.4793
 8429SOL     OW36745   2.168   2.052  16.360 -0.1134  0.0946  0.1211
 8429SOL    HW136746   2.155   2.017  16.272 -2.9924  2.5592 -0.4164
 8429SOL    HW236747   2.226   1.988  16.401 -1.1850 -0.5556  0.6095
 8430SOL     OW36748   1.443   4.444   4.663 -0.2588 -0.6969 -0.3470
 8430SOL    HW136749   1.363   4.453   4.611 -0.8007 -1.2264  0.3953
 8430SOL    HW236750   1.440   4.350   4.677  1.7089 -0.2400  3.1522
 8431SOL     OW36751   1.648   1.589   2.596  0.8765 -0.2911  0.0835
 8431SOL    HW136752   1.563   1.632   2.586  1.0697  0.2590  0.7912
 8431SOL    HW236753   1.634   1.539   2.676  1.1040 -0.1593  0.2081
 8432SOL     OW36754   4.518   4.593  14.874  0.4347  0.1532 -0.3149
 8432SOL    HW136755   4.598   4.599  14.927 -0.2207  1.6330  0.5234
 8432SOL    HW236756   4.487   4.506  14.898  1.1490  0.1181  0.4974
 8433SOL     OW36757   2.380   3.417   9.939 -0.3853 -0.0359 -0.7069
 8433SOL    HW136758   2.289   3.425   9.912  0.0061  0.9486 -1.7399
 8433SOL    HW236759   2.370   3.451  10.028 -1.3878 -2.2312  0.0303
 8434SOL     OW36760   1.475   1.057   7.759  0.2765  0.1018  0.1628
 8434SOL    HW136761   1.443   1.066   7.669  1.2858 -1.7977 -0.3924
 8434SOL    HW236762   1.398   1.019   7.803 -1.7231  3.2853 -0.5955
 8435SOL     OW36763   4.501   4.229   6.315 -0.6797 -0.3715  0.6485
 8435SOL    HW136764   4.535   4.171   6.384  2.3011 -0.3923 -0.8287
 8435SOL    HW236765   4.539   4.185   6.239  0.7369 -0.5152  1.4193
 8436SOL     OW36766   1.255   0.699  16.128  0.4934 -0.3336  0.2512
 8436SOL    HW136767   1.192   0.753  16.082 -0.1910 -1.4789 -0.1629
 8436SOL    HW236768   1.251   0.623  16.069  2.8674  1.4530 -2.2058
 8437SOL     OW36769   2.367   0.017   6.571 -0.1509  0.1910  0.1125
 8437SOL    HW136770   2.361   0.079   6.644  0.1782 -1.1241  1.2679
 8437SOL    HW236771   2.453   4.699   6.589  0.4778  0.4752 -2.2733
 8438SOL     OW36772   3.005   1.806   9.495  0.0402 -0.8577 -0.3359
 8438SOL    HW136773   2.937   1.829   9.431 -0.8162 -1.7150  0.2571
 8438SOL    HW236774   2.957   1.764   9.567 -1.0687 -0.1966 -0.6753
 8439SOL     OW36775   1.746   1.579   6.104 -0.1151 -0.1751 -0.2350
 8439SOL    HW136776   1.719   1.668   6.125 -0.0463 -0.1014 -0.4575
 8439SOL    HW236777   1.741   1.530   6.186  1.2190  0.4358  0.2252
 8440SOL     OW36778   1.826   1.619   1.701  0.2842 -0.1787 -0.2601
 8440SOL    HW136779   1.862   1.696   1.656  0.8972 -1.7523 -2.4633
 8440SOL    HW236780   1.836   1.551   1.634 -0.2678 -2.2461  1.7773
 8441SOL     OW36781   2.786   4.232   3.062  0.3884 -0.1238 -0.0035
 8441SOL    HW136782   2.844   4.298   3.100 -1.3059 -0.2252  2.8004
 8441SOL    HW236783   2.725   4.212   3.133  0.3042 -0.1555 -0.0859
 8442SOL     OW36784   3.874   1.203   5.249  0.3384 -0.0438 -0.0950
 8442SOL    HW136785   3.854   1.297   5.250  0.4401 -0.0442  2.1355
 8442SOL    HW236786   3.874   1.176   5.157  0.4224  3.1683 -1.0376
 8443SOL     OW36787   2.329   3.091  16.334  0.6557 -0.2255 -0.6139
 8443SOL    HW136788   2.416   3.057  16.313  1.3467  1.9659 -1.3126
 8443SOL    HW236789   2.279   3.011  16.320 -0.3348  0.1026  0.9953
 8444SOL     OW36790   3.941   4.592   7.470  0.2941  0.1677 -0.4260
 8444SOL    HW136791   3.920   4.539   7.546  1.6444 -0.2093 -0.3213
 8444SOL    HW236792   3.935   4.527   7.400 -2.1189  2.9468 -2.7974
 8445SOL     OW36793   3.969   2.367   0.700 -0.8102  0.0197 -0.4489
 8445SOL    HW136794   3.934   2.376   0.789  1.7141 -0.6440  0.6089
 8445SOL    HW236795   3.991   2.461   0.697 -0.8580 -0.0008 -1.2582
 8446SOL     OW36796   0.007   1.892   0.700  0.1665  0.4838  0.2790
 8446SOL    HW136797   4.692   1.804   0.686  0.2233  0.7897 -1.8412
 8446SOL    HW236798   4.694   1.899   0.789 -1.6911  0.7118 -0.4479
 8447SOL     OW36799   2.955   3.376  14.350 -0.0761  0.1062 -0.3956
 8447SOL    HW136800   2.886   3.413  14.405  0.9603  0.8150  0.4228
 8447SOL    HW236801   3.033   3.406  14.397 -1.0264  3.2588 -0.8003
 8448SOL     OW36802   2.425   3.320   7.476 -0.6016  0.0050 -0.0523
 8448SOL    HW136803   2.496   3.384   7.476  2.2276 -3.1007  0.3350
 8448SOL    HW236804   2.356   3.375   7.513  1.7065  1.0747  2.6846
 8449SOL     OW36805   0.690   3.390  10.041 -0.1800 -0.0605 -0.1722
 8449SOL    HW136806   0.616   3.339  10.008 -0.0717  0.6990 -1.5659
 8449SOL    HW236807   0.703   3.345  10.124 -3.0686 -1.5434 -0.5409
 8450SOL     OW36808   3.411   0.651   7.831 -0.1284  0.2961  0.4128
 8450SOL    HW136809   3.373   0.643   7.919  0.1995 -2.2910  0.3013
 8450SOL    HW236810   3.379   0.738   7.808 -0.2452  0.1216 -0.0686
 8451SOL     OW36811   4.048   1.777   2.773 -0.1309 -0.4924 -0.0135
 8451SOL    HW136812   4.039   1.828   2.854  0.1154  0.4749 -0.5926
 8451SOL    HW236813   4.030   1.836   2.699 -1.1586 -2.3217 -1.2415
 8452SOL     OW36814   1.661   0.127   7.226 -0.1407 -0.2540  0.2313
 8452SOL    HW136815   1.677   0.203   7.170  1.2899 -0.9784 -0.3633
 8452SOL    HW236816   1.710   0.153   7.303  2.4039 -2.1487 -0.7441
 8453SOL     OW36817   0.132   0.543  14.918  0.2252 -0.6037 -0.0060
 8453SOL    HW136818   0.129   0.448  14.906  0.4052 -0.4415 -1.2922
 8453SOL    HW236819   0.227   0.553  14.921  0.1504 -0.0474  0.6239
 8454SOL     OW36820   1.275   1.392  10.258  0.1754 -0.1522 -0.5541
 8454SOL    HW136821   1.349   1.368  10.201  0.1717  2.2715 -1.5652
 8454SOL    HW236822   1.237   1.307  10.279  1.7958 -0.4468  1.2399
 8455SOL     OW36823   0.131   0.292  14.780  0.0036 -0.2386  0.1097
 8455SOL    HW136824   0.185   0.342  14.719 -0.6354 -1.0898 -1.1594
 8455SOL    HW236825   0.101   0.225  14.718 -1.1675  0.3865  0.0149
 8456SOL     OW36826   1.595   2.726  15.824  0.5899  0.5936 -0.2473
 8456SOL    HW136827   1.562   2.640  15.850  1.4502  0.5090  0.5613
 8456SOL    HW236828   1.660   2.756  15.888  0.0106  1.2057  0.0481
 8457SOL     OW36829   0.972   2.324   1.410 -0.3393  0.3314 -0.5238
 8457SOL    HW136830   0.952   2.245   1.359 -1.3954  1.1396 -1.3529
 8457SOL    HW236831   0.882   2.343   1.435 -0.6256 -0.3955 -0.9957
 8458SOL     OW36832   2.482   2.864   4.341 -0.3411 -0.2990  0.4675
 8458SOL    HW136833   2.453   2.822   4.421 -0.7837  1.4602  1.2219
 8458SOL    HW236834   2.401   2.868   4.290 -0.7894  0.1525  1.2210
 8459SOL     OW36835   0.725   0.652   6.354 -0.5263  0.1143 -0.1128
 8459SOL    HW136836   0.775   0.728   6.324  0.3854 -0.8786 -1.1530
 8459SOL    HW236837   0.674   0.682   6.429  1.6314  1.0248  0.9739
 8460SOL     OW36838   1.003   0.370   5.145 -0.1096 -0.5830  0.0842
 8460SOL    HW136839   1.040   0.289   5.182  2.9776  0.4101 -0.8720
 8460SOL    HW236840   1.079   0.398   5.095  0.6761 -0.4748  1.3253
 8461SOL     OW36841   1.905   0.938   5.174 -0.4492 -0.0018  0.4412
 8461SOL    HW136842   1.864   0.918   5.090 -0.9687 -2.4219  1.2585
 8461SOL    HW236843   1.944   0.855   5.202  2.4444  1.0472 -0.4921
 8462SOL     OW36844   1.519   2.657   8.832 -0.8539 -0.1085  0.3246
 8462SOL    HW136845   1.598   2.670   8.885 -0.9104  2.0200 -0.1204
 8462SOL    HW236846   1.515   2.745   8.793  1.4817 -1.3782 -2.7665
 8463SOL     OW36847   0.872   4.368   6.857  0.4989 -0.1202 -0.5262
 8463SOL    HW136848   0.804   4.428   6.887 -0.0955 -0.9582 -0.1924
 8463SOL    HW236849   0.827   4.284   6.845  0.7068 -0.1412 -1.1633
 8464SOL     OW36850   0.428   4.032  16.349 -0.3106 -0.3859 -0.0888
 8464SOL    HW136851   0.447   4.120  16.382 -1.9776 -0.3906  0.9387
 8464SOL    HW236852   0.350   4.046  16.296  0.9058  0.9216 -1.5135
 8465SOL     OW36853   1.324   4.384   5.812 -0.3918 -0.5705  0.4973
 8465SOL    HW136854   1.338   4.408   5.904  0.1608 -0.7583  0.4660
 8465SOL    HW236855   1.332   4.289   5.819 -1.5616 -0.5830  1.5238
 8466SOL     OW36856   3.402   4.227   8.243  0.4794  0.2854 -0.1830
 8466SOL    HW136857   3.382   4.142   8.206 -0.4431  0.4541 -0.0769
 8466SOL    HW236858   3.315   4.265   8.258  0.3124  0.0203 -0.4906
 8467SOL     OW36859   3.111   3.054   5.263 -0.2270  0.0350  0.5141
 8467SOL    HW136860   3.184   3.101   5.221  0.5402 -0.8672  0.8295
 8467SOL    HW236861   3.152   3.009   5.337 -0.9729  0.4195  1.1538
 8468SOL     OW36862   3.362   0.985   5.964  0.5980 -0.2462  0.3085
 8468SOL    HW136863   3.375   0.904   5.914 -1.6683 -0.7514  0.5439
 8468SOL    HW236864   3.326   0.961   6.050  0.8327  0.6356  0.6500
 8469SOL     OW36865   3.519   1.582   3.102 -0.2951 -0.6865  0.0941
 8469SOL    HW136866   3.450   1.639   3.068  1.8176 -1.2427 -5.0759
 8469SOL    HW236867   3.503   1.496   3.062  0.1689 -0.7944  0.1354
 8470SOL     OW36868   4.040   2.162   8.873  0.2827  0.5343  0.1963
 8470SOL    HW136869   4.094   2.117   8.939 -1.3098 -0.5916  0.7401
 8470SOL    HW236870   4.100   2.140   8.802 -1.6734 -0.6450 -1.1018
 8471SOL     OW36871   3.660   2.495   3.904  0.3398  0.0986 -0.2933
 8471SOL    HW136872   3.603   2.438   3.853  1.6383 -1.7478  0.3107
 8471SOL    HW236873   3.594   2.525   3.967  1.7575  0.7829  0.8589
 8472SOL     OW36874   1.966   1.628   4.973  0.3041 -0.8033 -0.7263
 8472SOL    HW136875   1.945   1.592   5.060 -0.6485  0.1508 -0.5647
 8472SOL    HW236876   2.044   1.679   4.993  0.5944 -0.5548 -2.5135
 8473SOL     OW36877   2.230   1.734   4.140  0.5882 -0.0718  0.1572
 8473SOL    HW136878   2.300   1.748   4.077 -0.3190  2.4753 -0.2958
 8473SOL    HW236879   2.174   1.812   4.138  0.3251 -0.3146 -1.2777
 8474SOL     OW36880   0.968   0.182   4.323 -0.2307 -0.4605 -0.0901
 8474SOL    HW136881   0.933   0.112   4.378  2.0831 -1.7433 -0.2403
 8474SOL    HW236882   1.031   0.222   4.384  0.0167 -0.2537 -0.4789
 8475SOL     OW36883   0.801   1.270   8.731  0.3177  0.0612 -0.2592
 8475SOL    HW136884   0.725   1.297   8.679 -0.4124  1.0002  1.2992
 8475SOL    HW236885   0.818   1.346   8.787  0.3209  0.2645 -0.5352
 8476SOL     OW36886   1.569   0.595  11.083 -0.0505 -0.2980  0.2115
 8476SOL    HW136887   1.665   0.594  11.086  0.0240  1.5216 -1.3572
 8476SOL    HW236888   1.547   0.651  11.157 -1.4944 -2.7370  1.6261
 8477SOL     OW36889   4.325   4.705  10.876  0.3443  0.4853 -0.0221
 8477SOL    HW136890   4.403   4.654  10.898  0.0652  0.0282 -0.0826
 8477SOL    HW236891   4.344   0.072  10.909  0.2347  0.0526  1.1991
 8478SOL     OW36892   2.873   1.592  15.983 -0.5134 -0.5064  0.1495
 8478SOL    HW136893   2.851   1.657  15.917  1.6806  1.6063  1.4988
 8478SOL    HW236894   2.918   1.537  15.918  0.4541  0.2839  0.1472
 8479SOL     OW36895   1.915   3.319  12.572  0.2009 -0.0175 -0.0330
 8479SOL    HW136896   1.931   3.412  12.554 -0.3571  0.1384  0.2787
 8479SOL    HW236897   1.951   3.281  12.492 -0.1226  0.1979 -0.2842
 8480SOL     OW36898   4.400   2.588   1.078 -0.2039  0.3815 -0.0443
 8480SOL    HW136899   4.431   2.671   1.114 -2.6668  0.7530  1.2455
 8480SOL    HW236900   4.318   2.578   1.126 -0.1507  2.2078  0.4234
 8481SOL     OW36901   1.628   1.524   4.795  0.1294  0.0186 -0.1256
 8481SOL    HW136902   1.623   1.592   4.862 -1.5415  1.1586 -1.4117
 8481SOL    HW236903   1.663   1.451   4.847 -1.8425 -2.6794 -2.5586
 8482SOL     OW36904   1.855   3.670  14.711 -0.0500 -0.1571  0.4473
 8482SOL    HW136905   1.816   3.609  14.773 -2.0909 -1.2355 -1.9146
 8482SOL    HW236906   1.770   3.710  14.694 -0.1441 -0.5887 -0.1023
 8483SOL     OW36907   3.548   3.352   8.359 -0.7133 -0.0539 -0.0918
 8483SOL    HW136908   3.597   3.433   8.344 -0.9447  0.2404  0.7257
 8483SOL    HW236909   3.466   3.375   8.401 -1.3190 -0.0360 -1.2952
 8484SOL     OW36910   3.251   3.134  12.163  0.7033  0.6786  0.0060
 8484SOL    HW136911   3.269   3.221  12.200 -0.0894  0.6875  0.3559
 8484SOL    HW236912   3.345   3.121  12.147  0.5312 -1.6361  0.8020
 8485SOL     OW36913   1.665   2.460  11.414  0.1282  0.0102  0.7621
 8485SOL    HW136914   1.742   2.464  11.357 -0.9700 -1.6407 -0.8411
 8485SOL    HW236915   1.672   2.390  11.480  0.6622 -0.8636 -0.2115
 8486SOL     OW36916   1.811   4.530   7.866 -0.0991  0.3972 -0.3997
 8486SOL    HW136917   1.831   4.441   7.893 -1.7764 -0.3458 -1.6630
 8486SOL    HW236918   1.861   4.536   7.785  1.2962  0.1399  0.4537
 8487SOL     OW36919   1.538   3.691   6.899 -0.0680  0.2873 -0.0544
 8487SOL    HW136920   1.528   3.604   6.861  0.1409  0.6542 -0.9470
 8487SOL    HW236921   1.538   3.685   6.994 -1.7483  0.0406 -0.0644
 8488SOL     OW36922   4.219   3.473   6.647  0.4814 -0.2190  0.0515
 8488SOL    HW136923   4.290   3.531   6.674 -1.0870  0.7141  2.1398
 8488SOL    HW236924   4.257   3.388   6.672 -1.1486 -0.9250  0.0937
 8489SOL     OW36925   4.152   0.197   2.599 -0.0789  0.3041  0.1431
 8489SOL    HW136926   4.120   0.142   2.528  2.8573 -1.2394  0.0383
 8489SOL    HW236927   4.090   0.270   2.596  0.3950  0.6334 -1.3644
 8490SOL     OW36928   4.098   1.962  15.315 -0.4327  0.4642  0.5650
 8490SOL    HW136929   4.026   1.976  15.377 -0.1806  1.9997  0.5101
 8490SOL    HW236930   4.139   2.048  15.322  2.0266 -0.6109 -0.6697
 8491SOL     OW36931   3.208   0.180   2.538  0.3711 -0.1800 -0.3390
 8491SOL    HW136932   3.213   0.163   2.632  1.4491  0.2140 -0.3126
 8491SOL    HW236933   3.171   0.268   2.547 -1.7801 -1.3189  1.8142
 8492SOL     OW36934   1.810   1.866   3.690  0.6632  0.7258 -0.2430
 8492SOL    HW136935   1.897   1.883   3.654  2.0561 -0.9766  2.3063
 8492SOL    HW236936   1.811   1.771   3.680  0.7952  0.7183 -0.1543
 8493SOL     OW36937   1.061   3.745   7.866  0.4480 -0.1069  0.3626
 8493SOL    HW136938   0.972   3.723   7.894  0.7662 -0.1929  1.3067
 8493SOL    HW236939   1.074   3.827   7.914  0.0790  0.1273  0.0615
 8494SOL     OW36940   1.196   2.026  14.561 -0.3855  0.3061 -0.0384
 8494SOL    HW136941   1.117   2.034  14.507  2.3483  2.2704 -3.7371
 8494SOL    HW236942   1.169   2.070  14.642 -0.9104 -0.8776  0.4233
 8495SOL     OW36943   0.822   3.302   6.747  0.4587 -0.3169 -0.0512
 8495SOL    HW136944   0.852   3.354   6.821  1.8418 -0.4966 -0.4764
 8495SOL    HW236945   0.802   3.373   6.686  0.7074 -0.3692 -0.1942
 8496SOL     OW36946   0.871   0.383  15.328 -0.3457  0.5511 -0.3761
 8496SOL    HW136947   0.839   0.431  15.405  0.4480  0.0308  0.2822
 8496SOL    HW236948   0.914   0.301  15.353 -1.4323 -0.2528 -1.2017
 8497SOL     OW36949   3.603   0.106  12.984  0.1614  0.1697 -0.2677
 8497SOL    HW136950   3.699   0.101  12.977  0.0446 -2.3465 -0.3314
 8497SOL    HW236951   3.600   0.200  12.999  0.2400  0.1675 -0.2359
 8498SOL     OW36952   4.359   2.385   0.392 -0.1465  0.2911 -0.2567
 8498SOL    HW136953   4.409   2.449   0.442  1.9993 -0.0271 -2.0029
 8498SOL    HW236954   4.287   2.357   0.448  0.0699  0.1011 -0.0703
 8499SOL     OW36955   0.567   4.149   2.501  0.7125 -0.2227 -0.1776
 8499SOL    HW136956   0.581   4.224   2.444 -0.4502 -0.5633 -0.9131
 8499SOL    HW236957   0.644   4.146   2.558  1.4440 -2.1398 -1.2351
 8500SOL     OW36958   2.790   4.495   1.243 -0.3799 -0.1795 -0.0668
 8500SOL    HW136959   2.701   4.479   1.276 -1.5452  2.7709 -1.7940
 8500SOL    HW236960   2.830   4.416   1.279 -0.1748 -1.4102 -2.9400
 8501SOL     OW36961   3.010   0.940  13.332 -0.1801 -0.4387  0.0795
 8501SOL    HW136962   3.095   0.953  13.374  0.5424 -2.5407 -0.7191
 8501SOL    HW236963   2.994   1.019  13.281  3.7505  1.4084  1.7740
 8502SOL     OW36964   3.963   1.403   8.735  0.0816  0.3345  0.2469
 8502SOL    HW136965   3.897   1.464   8.702 -0.6693 -0.5952  0.0545
 8502SOL    HW236966   3.981   1.452   8.815  0.2917  0.7719 -0.0656
 8503SOL     OW36967   3.916   0.507   4.768 -0.3218  0.1878 -0.2186
 8503SOL    HW136968   3.838   0.559   4.784  0.5297  1.1797  0.6822
 8503SOL    HW236969   3.928   0.526   4.675  3.3253  0.4326  0.2862
 8504SOL     OW36970   3.535   2.080   8.408 -0.3789  0.4065 -0.3051
 8504SOL    HW136971   3.569   2.103   8.322 -1.8202  0.7476 -0.7801
 8504SOL    HW236972   3.576   1.998   8.435 -0.6981 -0.0114 -1.1005
 8505SOL     OW36973   1.618   0.580  12.431 -0.0892  0.2658 -0.3242
 8505SOL    HW136974   1.523   0.585  12.443 -0.5363 -3.0980 -2.4670
 8505SOL    HW236975   1.641   0.518  12.500 -0.0078 -2.1779 -2.5403
 8506SOL     OW36976   2.224   1.412  16.505  0.4417  0.8847 -0.0952
 8506SOL    HW136977   2.235   1.317  16.501 -1.6408  0.6054  1.0966
 8506SOL    HW236978   2.255   1.440  16.419  0.8107 -1.6314 -0.7658
 8507SOL     OW36979   4.232   1.958  10.568  0.3222 -0.3976  0.5836
 8507SOL    HW136980   4.303   1.899  10.543 -0.5899 -0.8819 -0.8557
 8507SOL    HW236981   4.162   1.902  10.537 -0.9690  1.9654 -0.8048
 8508SOL     OW36982   1.708   4.151   4.342  0.1609  0.2232  0.3532
 8508SOL    HW136983   1.714   4.056   4.349 -1.5553  0.1759  1.0412
 8508SOL    HW236984   1.782   4.175   4.286 -0.0572 -0.4170 -0.2059
 8509SOL     OW36985   2.368   2.417  16.575  0.1454  0.0902  0.0013
 8509SOL    HW136986   2.320   2.337  16.594 -1.9471  1.0947 -1.0570
 8509SOL    HW236987   2.378   2.444  16.666 -0.5215  2.5853 -0.6695
 8510SOL     OW36988   0.153   3.366  16.871  0.0954  0.4402  0.3970
 8510SOL    HW136989   0.154   3.279  16.831 -1.3393  1.2161 -1.3267
 8510SOL    HW236990   0.244   3.394  16.862  1.3607 -3.4434  0.9069
 8511SOL     OW36991   0.563   4.523   7.588  0.3798 -0.5468  0.3612
 8511SOL    HW136992   0.617   4.490   7.661  1.7174  0.9615  0.0267
 8511SOL    HW236993   0.629   4.529   7.519 -0.4492 -1.1286 -0.4823
 8512SOL     OW36994   4.309   3.882   5.952 -0.5466 -0.4318 -0.4408
 8512SOL    HW136995   4.403   3.866   5.959 -0.5587  0.1354  0.8807
 8512SOL    HW236996   4.306   3.943   5.878  0.9441 -0.9584 -0.9492
 8513SOL     OW36997   0.320   3.944   6.245  0.1994  0.6707  1.0446
 8513SOL    HW136998   0.389   3.884   6.274 -2.0197 -2.5550 -0.3969
 8513SOL    HW236999   0.266   3.888   6.189  0.2532  0.0771  1.5867
 8514SOL     OW37000   4.571   2.836   3.047  0.2047 -0.5972  0.2275
 8514SOL    HW137001   4.528   2.907   3.094  0.0067  0.6677 -1.8616
 8514SOL    HW237002   4.510   2.769   3.077  0.2211 -1.9061 -2.6372
 8515SOL     OW37003   2.556   2.310  12.378  0.2759 -0.5048 -0.3030
 8515SOL    HW137004   2.587   2.360  12.302 -0.5470 -1.8482 -1.5368
 8515SOL    HW237005   2.639   2.274  12.409  1.2926  1.1955 -1.0994
 8516SOL     OW37006   2.022   3.485   3.558  0.1514  0.3242  0.2983
 8516SOL    HW137007   1.931   3.497   3.532  0.5677  0.3071 -1.1371
 8516SOL    HW237008   2.023   3.391   3.543 -0.6314  0.8352 -2.8791
 8517SOL     OW37009   1.281   2.057   4.978  0.3378 -0.1629  0.1772
 8517SOL    HW137010   1.300   2.116   5.050 -0.3570 -1.9901  1.8564
 8517SOL    HW237011   1.209   2.003   5.009 -1.1734  2.1077  0.6258
 8518SOL     OW37012   4.136   4.385   6.460  0.4082 -0.5105  0.6027
 8518SOL    HW137013   4.080   4.308   6.455 -1.4736  0.8614  0.3996
 8518SOL    HW237014   4.191   4.359   6.386 -0.0801 -0.3444  0.1786
 8519SOL     OW37015   2.473   4.247  11.402  0.0206  0.3745 -0.5016
 8519SOL    HW137016   2.503   4.336  11.380 -1.4424  1.4208  1.8030
 8519SOL    HW237017   2.544   4.186  11.382  0.6011  1.0589 -0.5753
 8520SOL     OW37018   1.041   4.597  12.069 -0.1431 -0.7962  0.1149
 8520SOL    HW137019   1.054   4.581  12.163  0.1996  3.1276  0.7288
 8520SOL    HW237020   1.131   4.584  12.041 -0.0727 -0.3887  0.1504
 8521SOL     OW37021   4.120   0.817   5.268 -0.0574 -0.0654  0.2278
 8521SOL    HW137022   4.115   0.899   5.318  2.4252  0.0976  0.1977
 8521SOL    HW237023   4.035   0.774   5.278  0.8975 -2.3892 -1.6322
 8522SOL     OW37024   0.000   0.833  10.845  0.3212 -0.0274 -0.2036
 8522SOL    HW137025   0.083   0.792  10.870  0.6487  0.8690  0.1876
 8522SOL    HW237026   4.691   0.884  10.920 -0.3173 -0.6112 -0.0570
 8523SOL     OW37027   3.319   3.440   3.871  0.3484  0.5681 -0.3321
 8523SOL    HW137028   3.348   3.480   3.789  1.1432  0.6307 -0.0239
 8523SOL    HW237029   3.346   3.352   3.846 -1.1033 -0.1624  0.6431
 8524SOL     OW37030   2.834   2.231   7.204 -0.1202 -0.6915  0.3308
 8524SOL    HW137031   2.912   2.281   7.226  0.0303 -1.5903  1.8673
 8524SOL    HW237032   2.763   2.295   7.217  2.2559  1.7252  1.3963
 8525SOL     OW37033   0.527   2.935   7.303 -0.1001  0.4403  0.2923
 8525SOL    HW137034   0.506   2.913   7.394 -1.8160 -0.0083 -0.2197
 8525SOL    HW237035   0.501   3.027   7.305  0.0768  0.5262 -1.3084
 8526SOL     OW37036   2.903   0.539  10.245 -0.2518 -0.5885 -0.3619
 8526SOL    HW137037   2.978   0.587  10.281 -1.6719  0.4503  1.1903
 8526SOL    HW237038   2.889   0.481  10.319  3.5333  0.0849  0.9044
 8527SOL     OW37039   2.906   1.329  16.518  0.0562  0.0963  0.4876
 8527SOL    HW137040   2.851   1.342  16.595 -0.4107 -1.6586  0.4454
 8527SOL    HW237041   2.866   1.265  16.460 -1.0265  0.3442  0.9536
 8528SOL     OW37042   2.320   2.169   4.504  0.0275  0.3966  0.1840
 8528SOL    HW137043   2.354   2.124   4.426  0.0360 -1.1631  1.0767
 8528SOL    HW237044   2.282   2.095   4.552 -0.4415 -0.1263 -0.9705
 8529SOL     OW37045   3.560   3.934   8.886 -0.3892  0.1466  0.2888
 8529SOL    HW137046   3.510   3.865   8.842 -0.0018 -0.4230  0.7364
 8529SOL    HW237047   3.526   4.011   8.841  0.4691  0.3047 -0.0982
 8530SOL     OW37048   1.792   2.188  13.901 -0.3287 -0.2545  0.6214
 8530SOL    HW137049   1.708   2.203  13.945 -1.8728 -1.7504 -1.7809
 8530SOL    HW237050   1.844   2.164  13.977  1.4172 -0.4791 -0.6529
 8531SOL     OW37051   4.101   2.411   3.863 -0.3046  0.1350  0.2631
 8531SOL    HW137052   4.180   2.463   3.879  0.2799 -0.5296 -0.4365
 8531SOL    HW237053   4.086   2.385   3.953 -0.6374  1.6876  0.6545
 8532SOL     OW37054   3.320   1.553  13.883  0.3588  0.4277  0.0720
 8532SOL    HW137055   3.378   1.480  13.903  1.9581  1.8244  0.4322
 8532SOL    HW237056   3.251   1.526  13.944 -0.4598  1.6595 -0.3026
 8533SOL     OW37057   3.444   3.811   5.567 -0.3388  0.0865  0.2604
 8533SOL    HW137058   3.455   3.865   5.489  0.8639  0.5116  0.7236
 8533SOL    HW237059   3.462   3.880   5.631  1.8011 -0.4331  0.2186
 8534SOL     OW37060   1.980   2.760   1.709 -0.6889  0.4491  0.5961
 8534SOL    HW137061   2.058   2.816   1.704  1.3432 -2.4664 -0.5410
 8534SOL    HW237062   2.018   2.672   1.699 -0.3629  0.8256 -1.4439
 8535SOL     OW37063   1.302   1.132   5.239  0.8605  0.5652 -0.2619
 8535SOL    HW137064   1.318   1.214   5.192  1.4818 -1.4093 -3.4946
 8535SOL    HW237065   1.229   1.095   5.189 -0.4201  0.4071  1.7236
 8536SOL     OW37066   4.287   2.737   2.811 -0.0786  0.5864 -0.2956
 8536SOL    HW137067   4.319   2.800   2.747  0.8104  0.2141 -0.2226
 8536SOL    HW237068   4.236   2.800   2.862  4.1603  2.4487  1.6875
 8537SOL     OW37069   1.906   0.869   5.526  0.0501  0.7181 -0.0777
 8537SOL    HW137070   1.922   0.777   5.549  0.9572  0.4258 -1.8756
 8537SOL    HW237071   1.904   0.907   5.614 -1.4044 -0.2286  0.2962
 8538SOL     OW37072   0.408   0.032   7.452 -0.0796  0.5481 -0.2862
 8538SOL    HW137073   0.447   4.668   7.432 -1.0169  0.7682 -2.9856
 8538SOL    HW237074   0.325   0.036   7.406 -1.3386 -2.5972  1.7228
 8539SOL     OW37075   2.994   4.353  13.038 -0.3818  0.7078  0.0422
 8539SOL    HW137076   2.985   4.259  13.024 -0.6109  0.7591 -0.1519
 8539SOL    HW237077   2.955   4.359  13.125  0.9480  0.5444  0.6507
 8540SOL     OW37078   1.092   0.875  12.558 -0.4351  0.2545  0.0563
 8540SOL    HW137079   1.119   0.853  12.469  1.7668  2.7266  0.1253
 8540SOL    HW237080   1.172   0.885  12.610 -1.7741  0.1541  2.1693
 8541SOL     OW37081   3.295   4.313  13.282 -0.0194 -0.0820 -0.5309
 8541SOL    HW137082   3.331   4.251  13.219  1.6775 -0.2520  0.5914
 8541SOL    HW237083   3.282   4.384  13.219  1.3884  0.5498 -0.1182
 8542SOL     OW37084   3.266   0.070   6.812 -0.0350  0.0005  0.0138
 8542SOL    HW137085   3.239   0.157   6.784  1.0970  0.0046 -1.0800
 8542SOL    HW237086   3.352   0.062   6.770 -0.9706 -0.7393 -1.7195
 8543SOL     OW37087   1.168   2.709  14.286 -0.0533 -0.0039  0.1433
 8543SOL    HW137088   1.160   2.741  14.376  2.3834  0.4216  0.2246
 8543SOL    HW237089   1.246   2.754  14.252  1.2281 -1.2826  1.3846
 8544SOL     OW37090   2.989   2.272   4.868 -0.1272  0.1989 -0.4359
 8544SOL    HW137091   3.040   2.296   4.945  1.7665 -0.2257 -1.5403
 8544SOL    HW237092   2.937   2.196   4.892  1.1448  0.1446  2.0858
 8545SOL     OW37093   2.746   1.233   0.553  0.3325 -0.0035 -0.3414
 8545SOL    HW137094   2.675   1.176   0.582  1.6221 -0.7758  1.3294
 8545SOL    HW237095   2.717   1.317   0.590 -0.0781 -0.6095  0.7042
 8546SOL     OW37096   0.353   1.252  10.730 -0.3399  0.3990 -0.2207
 8546SOL    HW137097   0.307   1.178  10.689 -0.9948  0.2685  0.7573
 8546SOL    HW237098   0.370   1.210  10.814 -3.4084 -1.4060 -0.4914
 8547SOL     OW37099   0.259   1.172   8.051  0.0531  0.9582  0.0183
 8547SOL    HW137100   0.252   1.076   8.055  3.7706  0.6921  0.4051
 8547SOL    HW237101   0.169   1.192   8.078 -1.0345 -0.6857 -2.4162
 8548SOL     OW37102   3.351   4.621   7.273  0.0755 -0.1361  0.1411
 8548SOL    HW137103   3.345   4.675   7.195 -0.4094 -1.2314 -0.5787
 8548SOL    HW237104   3.290   4.673   7.326  1.4968  1.3860  0.2987
 8549SOL     OW37105   4.159   0.314  17.542 -0.3095  0.1861  0.7845
 8549SOL    HW137106   4.065   0.333  17.537 -0.6279 -1.2708  1.2662
 8549SOL    HW237107   4.189   0.389  17.490 -0.9550  2.8079  4.2056
 8550SOL     OW37108   4.099   0.114   5.963  0.3173  0.1820  0.1323
 8550SOL    HW137109   4.075   0.183   5.901 -0.6254  0.6662  1.0273
 8550SOL    HW237110   4.188   0.138   5.989  1.2790 -1.4627 -1.6753
 8551SOL     OW37111   4.681   1.434   8.682 -0.4292  0.0747  0.4380
 8551SOL    HW137112   4.609   1.452   8.622  1.5867  1.2540 -1.5979
 8551SOL    HW237113   0.031   1.415   8.621 -0.2358  0.1338  0.6447
 8552SOL     OW37114   0.246   1.881  12.444 -0.1618  0.3777 -0.1410
 8552SOL    HW137115   0.222   1.802  12.396  0.6306 -0.6861  1.2046
 8552SOL    HW237116   0.246   1.945  12.374  0.2022 -0.1679 -0.6450
 8553SOL     OW37117   1.554   1.734  11.115 -0.0186  0.2284  0.3102
 8553SOL    HW137118   1.545   1.718  11.021  0.6022 -2.0963  0.6420
 8553SOL    HW237119   1.538   1.829  11.118 -1.0535  0.0559  0.4383
 8554SOL     OW37120   3.962   3.761   5.129  0.3929 -0.3245  0.2387
 8554SOL    HW137121   3.975   3.680   5.178  0.8319  2.0459  4.0020
 8554SOL    HW237122   4.039   3.803   5.167  1.2628 -0.9463 -0.8014
 8555SOL     OW37123   3.851   1.396  11.396  0.5692 -0.0195  0.3463
 8555SOL    HW137124   3.943   1.382  11.378  0.5025  0.8482 -0.6368
 8555SOL    HW237125   3.827   1.441  11.315 -0.9567 -0.1889  0.6883
 8556SOL     OW37126   0.028   3.474   5.216  0.6779 -0.0358 -0.3471
 8556SOL    HW137127   0.037   3.405   5.281 -0.4116  0.7882  0.6795
 8556SOL    HW237128   0.117   3.500   5.190  0.3352  3.0307  1.4601
 8557SOL     OW37129   2.521   3.070   3.604 -0.3304 -0.5459  0.2864
 8557SOL    HW137130   2.563   3.032   3.681  1.5062  0.2675 -0.3226
 8557SOL    HW237131   2.557   3.029   3.526 -4.2405 -3.8017  0.1767
 8558SOL     OW37132   0.333   2.734  14.162 -0.1279 -0.1301  0.0539
 8558SOL    HW137133   0.267   2.803  14.158 -1.1837 -1.2442 -1.9827
 8558SOL    HW237134   0.281   2.656  14.180 -2.0140  0.8307 -1.2316
 8559SOL     OW37135   1.441   2.547   1.395 -0.6514 -0.2942 -0.0804
 8559SOL    HW137136   1.374   2.590   1.341  0.2984  0.3641 -0.7227
 8559SOL    HW237137   1.504   2.619   1.399 -0.7271 -0.2780  0.7983
 8560SOL     OW37138   0.606   1.869   3.025  0.2140  0.5148 -0.4886
 8560SOL    HW137139   0.695   1.838   3.006  0.3617  0.2138  0.7167
 8560SOL    HW237140   0.596   1.947   2.970  3.2719  1.9814  1.0001
 8561SOL     OW37141   2.000   0.955   7.286 -0.0587 -0.1353  0.0685
 8561SOL    HW137142   2.000   0.878   7.343  0.2578  0.5116  0.9593
 8561SOL    HW237143   2.094   0.973   7.287  0.2617 -1.9295  1.7657
 8562SOL     OW37144   1.047   2.637   7.170 -0.4651 -0.1580  0.0192
 8562SOL    HW137145   0.987   2.640   7.096 -0.3163 -2.3263 -0.2073
 8562SOL    HW237146   1.038   2.546   7.198 -1.3258  0.3028  1.2078
 8563SOL     OW37147   3.830   4.646  15.740 -0.2330 -0.1239  0.0937
 8563SOL    HW137148   3.884   4.716  15.704  0.8983 -1.1224 -0.1258
 8563SOL    HW237149   3.820   4.661  15.834 -0.5041  0.1365  0.0255
 8564SOL     OW37150   2.022   3.847   3.859  0.2369  0.8690 -0.2776
 8564SOL    HW137151   2.101   3.874   3.905  1.3909  0.7839 -2.2314
 8564SOL    HW237152   2.044   3.847   3.766  2.2964  4.7111  0.1960
 8565SOL     OW37153   2.579   0.256   4.213 -0.0469  0.2336  0.2207
 8565SOL    HW137154   2.595   0.192   4.143  1.6720 -0.5584  1.3337
 8565SOL    HW237155   2.538   0.204   4.282 -2.2618 -0.6104 -1.7209
 8566SOL     OW37156   4.456   4.134  14.222 -0.2382 -0.7501 -0.1988
 8566SOL    HW137157   4.470   4.178  14.138 -1.1408  1.5577  0.8597
 8566SOL    HW237158   4.453   4.216  14.271 -0.0093 -0.3130 -0.9031
 8567SOL     OW37159   4.000   1.688   6.881  0.0131  0.3162 -0.1785
 8567SOL    HW137160   3.941   1.679   6.957  0.3388  2.0336  0.2768
 8567SOL    HW237161   3.951   1.755   6.833 -1.4902 -1.5805 -1.3499
 8568SOL     OW37162   4.650   3.090   7.862 -0.4373 -0.3240 -0.2851
 8568SOL    HW137163   4.680   3.080   7.952 -1.6759 -3.4712 -0.2095
 8568SOL    HW237164   0.005   3.096   7.804 -0.2662  0.3762  0.0200
 8569SOL     OW37165   3.409   0.528   1.604  0.3749  0.2214  0.3862
 8569SOL    HW137166   3.345   0.484   1.660  0.4649  0.3908  0.6222
 8569SOL    HW237167   3.358   0.546   1.525  2.1283  1.0233 -0.5755
 8570SOL     OW37168   1.746   2.673  17.078 -0.5776 -0.8638 -0.0200
 8570SOL    HW137169   1.780   2.750  17.034 -1.8407  0.4402  1.2797
 8570SOL    HW237170   1.664   2.697  17.123 -0.9445 -0.8131 -0.7220
 8571SOL     OW37171   4.058   2.082   1.572 -0.0555  0.3107 -0.4045
 8571SOL    HW137172   4.011   2.064   1.653  0.9672 -0.4125  0.0203
 8571SOL    HW237173   4.132   2.136   1.597  1.8254 -1.6481 -1.7316
 8572SOL     OW37174   2.215   4.060   5.490  0.4514 -0.2254  0.0977
 8572SOL    HW137175   2.215   4.042   5.396  1.2256 -0.7990  0.2032
 8572SOL    HW237176   2.282   4.127   5.502 -0.3150  0.3604  1.0941
 8573SOL     OW37177   1.281   3.366  17.291  0.1210  0.0614  0.3363
 8573SOL    HW137178   1.240   3.407  17.214  0.9864  1.8965  0.8584
 8573SOL    HW237179   1.236   3.407  17.365 -0.4536 -0.8525  0.4943
 8574SOL     OW37180   1.065   1.642   4.989  0.1586  0.3536  0.2185
 8574SOL    HW137181   1.154   1.608   4.991 -0.6495 -1.8091 -0.1023
 8574SOL    HW237182   1.032   1.579   4.924 -0.8926 -1.1027  2.1553
 8575SOL     OW37183   2.765   3.759   5.379  0.3657 -0.2719 -0.4746
 8575SOL    HW137184   2.810   3.792   5.302 -0.9013  1.2693 -0.5564
 8575SOL    HW237185   2.735   3.676   5.342  1.1861 -0.7667 -0.0471
 8576SOL     OW37186   2.721   2.405   3.406 -0.2067 -0.0410 -0.2717
 8576SOL    HW137187   2.792   2.343   3.420 -0.0623  0.4869  1.3477
 8576SOL    HW237188   2.669   2.353   3.345 -3.7772  0.9644  1.9349
 8577SOL     OW37189   4.245   4.412  11.660 -0.4412  0.1948  0.1274
 8577SOL    HW137190   4.297   4.341  11.698 -0.1308 -0.4146 -1.4339
 8577SOL    HW237191   4.205   4.361  11.590 -0.8104  0.1511  0.3728
 8578SOL     OW37192   4.156   2.372   1.042  0.2017  0.0137 -0.1045
 8578SOL    HW137193   4.207   2.393   1.120  1.7184 -0.1145 -1.0428
 8578SOL    HW237194   4.083   2.434   1.043  0.2131  0.0678 -2.7496
 8579SOL     OW37195   0.696   0.305  13.555 -0.3433  0.3475 -0.3298
 8579SOL    HW137196   0.750   0.358  13.613 -0.5059  1.4456 -1.1636
 8579SOL    HW237197   0.746   0.319  13.474  0.9289  1.1927  0.6211
 8580SOL     OW37198   0.666   2.879   5.938  0.3826  0.2888 -0.5823
 8580SOL    HW137199   0.761   2.885   5.948  0.6593 -2.1306 -1.8051
 8580SOL    HW237200   0.643   2.938   6.009 -0.6371 -0.7642 -0.0270
 8581SOL     OW37201   0.884   4.280   3.519  0.8974  0.4723 -0.2947
 8581SOL    HW137202   0.856   4.367   3.547  0.5961 -0.0251  0.9662
 8581SOL    HW237203   0.876   4.289   3.424  0.1791  1.5334 -0.1316
 8582SOL     OW37204   4.312   0.175   0.838 -0.1842  0.8606 -0.2139
 8582SOL    HW137205   4.395   0.196   0.879 -0.3241 -0.5799  0.8246
 8582SOL    HW237206   4.270   0.260   0.847  1.8395  1.5369  2.6008
 8583SOL     OW37207   2.299   3.911   6.679 -0.4811 -0.3565 -0.2076
 8583SOL    HW137208   2.326   3.949   6.762  0.0699  0.6573 -0.8404
 8583SOL    HW237209   2.299   3.819   6.703 -1.4746 -0.0160  1.0697
 8584SOL     OW37210   1.761   2.538   2.410 -0.1487  0.2782  0.2853
 8584SOL    HW137211   1.770   2.446   2.386 -0.7173  0.0127  1.0987
 8584SOL    HW237212   1.675   2.558   2.374 -0.2735  0.2649  0.5776
 8585SOL     OW37213   2.209   2.232   2.214  1.2998  0.0608 -0.0529
 8585SOL    HW137214   2.153   2.218   2.291  1.2278  1.5241  0.1622
 8585SOL    HW237215   2.161   2.304   2.174  1.7005  0.5546  0.3565
 8586SOL     OW37216   4.687   3.550   5.873  0.0034 -0.0049 -0.3037
 8586SOL    HW137217   4.673   3.505   5.789 -0.8287  2.5703 -1.5332
 8586SOL    HW237218   0.062   3.546   5.877  0.1407  1.3899 -1.8950
 8587SOL     OW37219   2.468   1.869  14.237 -0.2348 -0.2901 -0.1684
 8587SOL    HW137220   2.379   1.832  14.232 -0.9029  1.1772  0.8259
 8587SOL    HW237221   2.440   1.954  14.271  0.6577 -0.5405  1.1626
 8588SOL     OW37222   3.080   3.761   6.977 -0.2034 -0.3733  0.3394
 8588SOL    HW137223   3.122   3.833   7.022  1.8576 -0.6744 -1.1193
 8588SOL    HW237224   3.140   3.694   7.009 -0.9500 -1.5385 -0.6583
 8589SOL     OW37225   3.253   4.659  13.790  0.2750  0.2055  0.3250
 8589SOL    HW137226   3.325   4.686  13.733  0.1027  1.3564  0.6649
 8589SOL    HW237227   3.184   4.641  13.727  0.9390 -0.9072 -0.0903
 8590SOL     OW37228   2.557   3.439   0.578  0.1569  0.1875 -0.1479
 8590SOL    HW137229   2.530   3.444   0.670  0.8077  0.5442  0.0206
 8590SOL    HW237230   2.536   3.346   0.563  1.0359 -0.2609  1.4129
 8591SOL     OW37231   3.687   3.413  15.909  0.1357  0.2895 -0.3218
 8591SOL    HW137232   3.630   3.466  15.853  2.3462  1.3610 -1.6027
 8591SOL    HW237233   3.654   3.324  15.896  0.6143 -0.3374  2.7723
 8592SOL     OW37234   2.098   0.018   7.474 -0.5137 -0.0403  0.2090
 8592SOL    HW137235   2.162   0.077   7.435 -0.2774  0.9415  2.0678
 8592SOL    HW237236   2.068   4.683   7.403 -2.2099  0.3943  0.5843
 8593SOL     OW37237   1.101   0.136   7.067 -0.1929 -0.5246  0.2582
 8593SOL    HW137238   1.195   0.137   7.083 -0.2709 -2.2785  0.8614
 8593SOL    HW237239   1.105   0.156   6.974  2.3679  1.4279  0.8181
 8594SOL     OW37240   3.543   0.206  16.472 -0.5585  0.0868  0.3955
 8594SOL    HW137241   3.571   0.147  16.542 -0.3363 -0.2620  0.0081
 8594SOL    HW237242   3.594   0.170  16.400 -0.7448  0.2031  0.2051
 8595SOL     OW37243   1.039   2.972   2.910 -0.1039 -0.3286  0.0559
 8595SOL    HW137244   1.114   3.018   2.874 -0.7855 -0.1577 -1.1648
 8595SOL    HW237245   0.968   3.028   2.879  0.3730 -0.2307 -0.8699
 8596SOL     OW37246   4.565   0.997  12.166 -0.2455  0.4059  0.2278
 8596SOL    HW137247   4.493   0.935  12.172 -1.3041  1.3458 -3.0333
 8596SOL    HW237248   4.628   0.958  12.227  0.3764 -0.3728 -0.9152
 8597SOL     OW37249   3.525   4.194  14.352 -0.0641 -0.9175  0.1332
 8597SOL    HW137250   3.460   4.125  14.366  0.0712 -1.0397  0.1535
 8597SOL    HW237251   3.476   4.270  14.318  0.2609 -0.6708  0.2130
 8598SOL     OW37252   0.287   2.334   3.617  0.5549  0.3082  0.6185
 8598SOL    HW137253   0.200   2.303   3.590  0.6996  1.2993 -1.0354
 8598SOL    HW237254   0.265   2.354   3.708  1.0917  0.4555  0.7123
 8599SOL     OW37255   1.655   0.380   8.967 -0.0853 -0.4070  0.4191
 8599SOL    HW137256   1.732   0.343   8.923  0.5699  1.0751  0.3243
 8599SOL    HW237257   1.689   0.465   8.995  0.2795 -0.2979 -0.3672
 8600SOL     OW37258   3.667   3.832  10.340  0.3183 -0.0218  0.1808
 8600SOL    HW137259   3.725   3.845  10.415  0.5621  1.3193 -0.2376
 8600SOL    HW237260   3.591   3.874  10.381 -1.2818 -1.2321 -1.5713
 8601SOL     OW37261   0.608   3.191   4.809  0.6300 -0.2079 -0.4001
 8601SOL    HW137262   0.545   3.164   4.742  0.7467 -0.0941 -0.5534
 8601SOL    HW237263   0.682   3.131   4.809 -1.3386 -2.6707  0.2250
 8602SOL     OW37264   0.177   1.594   1.275  0.0494  0.0870 -0.2013
 8602SOL    HW137265   0.248   1.556   1.222  0.2117 -1.0315  0.8094
 8602SOL    HW237266   0.214   1.681   1.292  0.0557  0.2818 -1.2041
 8603SOL     OW37267   0.316   0.293  15.156 -0.2743 -0.3503 -0.3732
 8603SOL    HW137268   0.351   0.365  15.104  1.3958  0.1678  1.4585
 8603SOL    HW237269   0.396   0.255  15.192  0.4026  0.1425 -1.3603
 8604SOL     OW37270   0.765   2.437  13.356 -0.3787 -0.0784 -0.1089
 8604SOL    HW137271   0.790   2.513  13.304  1.7879 -1.0510 -0.4698
 8604SOL    HW237272   0.818   2.444  13.435  0.8189 -1.1590 -0.8272
 8605SOL     OW37273   0.001   0.520   1.128 -0.8995  0.0012  0.2397
 8605SOL    HW137274   4.688   0.444   1.177 -0.1036 -1.4727 -1.5034
 8605SOL    HW237275   0.029   0.471   1.051  4.1286  2.0678  0.7415
 8606SOL     OW37276   3.936   3.681  13.383 -0.0829 -0.2853 -0.4000
 8606SOL    HW137277   4.010   3.741  13.371  0.7690 -1.2437 -0.0482
 8606SOL    HW237278   3.958   3.623  13.457  0.9332  2.0477  1.1288
 8607SOL     OW37279   1.592   0.108   5.868  0.5043 -0.1402  0.4711
 8607SOL    HW137280   1.640   0.030   5.841  1.4323  0.8962 -0.8683
 8607SOL    HW237281   1.545   0.072   5.942 -0.4003 -1.9176 -0.9778
 8608SOL     OW37282   2.992   2.103   8.515 -0.6064 -0.1322 -0.9798
 8608SOL    HW137283   2.956   2.156   8.443  0.8776  2.6579  0.3246
 8608SOL    HW237284   3.080   2.087   8.481  0.6715  0.6879  1.9539
 8609SOL     OW37285   3.443   2.818   8.835  0.5060 -0.5317 -0.1315
 8609SOL    HW137286   3.479   2.799   8.921 -0.5669 -0.1579  0.3894
 8609SOL    HW237287   3.387   2.892   8.858 -1.6420 -2.2790  0.2146
 8610SOL     OW37288   1.359   0.147   7.102  0.6225 -0.3413  0.3324
 8610SOL    HW137289   1.398   0.166   7.187 -1.0091  1.1422  0.7561
 8610SOL    HW237290   1.437   0.127   7.051  1.4689  2.6394  0.4841
 8611SOL     OW37291   3.431   0.585   5.322  0.2109 -0.4362  0.4190
 8611SOL    HW137292   3.484   0.623   5.393 -0.7437 -2.9734  2.4848
 8611SOL    HW237293   3.398   0.500   5.350 -2.1329 -0.0353 -1.1200
 8612SOL     OW37294   3.060   4.129   1.496  0.0352  0.2383  0.3561
 8612SOL    HW137295   3.086   4.102   1.584 -1.3710  1.8505  1.2674
 8612SOL    HW237296   3.116   4.078   1.438  1.7776  0.2357  2.0432
 8613SOL     OW37297   2.125   1.698  10.305 -0.2641 -0.1103  0.5059
 8613SOL    HW137298   2.047   1.645  10.319 -1.1720  1.6810  2.3226
 8613SOL    HW237299   2.163   1.715  10.391  0.9451 -1.2594  0.2002
 8614SOL     OW37300   0.796   1.095   8.342  0.0697 -0.1235 -0.1680
 8614SOL    HW137301   0.735   1.123   8.273 -0.1846 -3.0194 -1.1202
 8614SOL    HW237302   0.877   1.092   8.290 -0.3776  0.8838 -0.9342
 8615SOL     OW37303   0.252   3.748   4.035  0.0366 -0.0435  0.0263
 8615SOL    HW137304   0.283   3.753   4.126  4.1080 -3.8215 -1.1551
 8615SOL    HW237305   0.160   3.731   4.056  0.0311 -0.7861 -0.6350
 8616SOL     OW37306   3.927   4.617  11.218  0.7036  0.8648 -0.5991
 8616SOL    HW137307   3.967   4.544  11.266 -1.5778  1.5198  2.3154
 8616SOL    HW237308   3.838   4.590  11.198  1.1670 -1.5889  0.6885
 8617SOL     OW37309   3.770   0.517   1.995  0.1174  0.6670 -0.5848
 8617SOL    HW137310   3.692   0.556   1.955 -0.9381 -0.1916  0.6453
 8617SOL    HW237311   3.840   0.581   1.990 -0.3614  1.4061  2.1939
 8618SOL     OW37312   1.608   1.825   9.330 -0.1112  0.0024  0.0784
 8618SOL    HW137313   1.563   1.819   9.246  3.1673  1.9528 -1.7621
 8618SOL    HW237314   1.530   1.824   9.386 -0.7238  2.2087 -0.7354
 8619SOL     OW37315   0.802   1.711   6.261  0.2104  0.1874 -0.0654
 8619SOL    HW137316   0.788   1.676   6.349  0.8946 -2.5594 -1.0504
 8619SOL    HW237317   0.815   1.805   6.273  0.1146  0.1632  0.2437
 8620SOL     OW37318   1.080   4.312   6.663 -0.1818 -0.1552  0.0987
 8620SOL    HW137319   1.143   4.249   6.698 -1.8200 -1.3162  0.9409
 8620SOL    HW237320   1.017   4.327   6.733  0.4940  3.6947 -0.1286
 8621SOL     OW37321   2.082   1.473   2.264 -0.3178 -0.7824  0.2709
 8621SOL    HW137322   2.078   1.564   2.294 -0.0904 -1.6342  2.8205
 8621SOL    HW237323   2.102   1.432   2.348 -0.5677 -1.6851 -0.1129
 8622SOL     OW37324   0.057   0.249  11.719 -0.5265  0.4067 -0.0891
 8622SOL    HW137325   0.100   0.177  11.765  0.4635  0.4094 -1.0040
 8622SOL    HW237326   4.691   0.211  11.734  0.0077 -0.8648 -0.2264
 8623SOL     OW37327   2.826   3.506  11.145 -0.0647  0.4629 -0.2865
 8623SOL    HW137328   2.898   3.455  11.107  0.2616  0.9593 -0.3338
 8623SOL    HW237329   2.852   3.597  11.127 -0.9763  0.4662 -1.5766
 8624SOL     OW37330   4.507   0.253   7.877 -0.3000  0.1226 -0.1118
 8624SOL    HW137331   4.446   0.303   7.932  0.6918  0.3026  0.8188
 8624SOL    HW237332   4.499   0.167   7.919  1.6525 -0.1168 -0.2249
 8625SOL     OW37333   1.034   4.328  15.640 -0.2468  0.4080 -0.2534
 8625SOL    HW137334   1.108   4.275  15.608  0.0904 -0.2629  1.6057
 8625SOL    HW237335   0.970   4.318  15.569 -0.0986 -0.9532 -0.2115
 8626SOL     OW37336   1.681   1.305   4.091 -0.6501  0.2675 -0.9571
 8626SOL    HW137337   1.764   1.281   4.050 -0.8730 -1.2990 -0.5144
 8626SOL    HW237338   1.638   1.355   4.022  0.6810  1.1339 -1.1478
 8627SOL     OW37339   1.793   3.091  12.707  0.2762  0.0878  0.6964
 8627SOL    HW137340   1.847   3.170  12.700 -2.1306  1.6208 -0.3784
 8627SOL    HW237341   1.839   3.054  12.782 -2.6832 -0.4831  2.2256
 8628SOL     OW37342   0.938   3.520   4.851 -0.0201 -0.2560 -0.4281
 8628SOL    HW137343   0.875   3.593   4.843  2.4217  1.8392 -0.5250
 8628SOL    HW237344   0.966   3.516   4.760  0.7610  2.2244 -0.3079
 8629SOL     OW37345   3.734   3.960  13.102  0.7810 -0.2589  1.0057
 8629SOL    HW137346   3.816   3.986  13.145  2.2291 -1.2099 -1.1891
 8629SOL    HW237347   3.675   3.953  13.177 -0.7646  2.7079  0.0576
 8630SOL     OW37348   0.970   1.085   6.108  0.1764  0.2662  0.0248
 8630SOL    HW137349   0.930   1.073   6.021  0.1860  1.6129 -0.1731
 8630SOL    HW237350   1.005   1.174   6.102  0.1889  0.2402 -0.3241
 8631SOL     OW37351   4.506   0.242   8.821  0.2074  0.3154 -0.1029
 8631SOL    HW137352   4.530   0.150   8.808 -1.5977 -0.4825  2.2405
 8631SOL    HW237353   4.454   0.248   8.902  0.0800  1.9870 -0.3181
 8632SOL     OW37354   1.436   2.802   2.945 -0.3310 -0.5898 -0.8547
 8632SOL    HW137355   1.470   2.755   2.868  1.2693  0.6478 -0.8994
 8632SOL    HW237356   1.506   2.867   2.953  0.5599 -1.5474 -0.7308
 8633SOL     OW37357   1.009   1.525   7.998  0.3604 -0.8396 -0.2984
 8633SOL    HW137358   1.097   1.557   7.975 -1.1282  4.0580  0.6976
 8633SOL    HW237359   1.044   1.464   8.062 -0.3282 -3.6272 -2.5934
 8634SOL     OW37360   3.094   1.540   6.470  0.5461  0.4766 -0.5325
 8634SOL    HW137361   3.159   1.477   6.438  1.1369  1.1809 -0.7264
 8634SOL    HW237362   3.042   1.483   6.527 -2.0295  0.1174 -3.2046
 8635SOL     OW37363   0.899   1.288  10.086 -0.4299  0.6893  0.4997
 8635SOL    HW137364   0.837   1.333  10.143 -1.3735 -0.3221  0.2880
 8635SOL    HW237365   0.881   1.194  10.090  3.1246  0.0081  0.2522
 8636SOL     OW37366   3.679   4.406  16.701  0.2993  0.0931 -0.3447
 8636SOL    HW137367   3.766   4.385  16.736  1.1338  3.4833 -0.3745
 8636SOL    HW237368   3.688   4.462  16.624 -0.3941  0.7687  0.0632
 8637SOL     OW37369   1.557   4.155   8.317 -0.5160 -0.3144 -0.0754
 8637SOL    HW137370   1.517   4.103   8.247 -1.0400  0.9355 -0.7075
 8637SOL    HW237371   1.496   4.136   8.388  0.2456  1.6345  1.1048
 8638SOL     OW37372   2.915   2.342   6.393 -0.1947 -0.0941  0.1893
 8638SOL    HW137373   2.829   2.346   6.435 -0.8896  1.4057 -1.4052
 8638SOL    HW237374   2.901   2.280   6.322  1.1369  0.5415 -0.6184
 8639SOL     OW37375   4.093   4.397   1.181  0.5406 -0.3370 -0.0300
 8639SOL    HW137376   4.013   4.358   1.145  0.2241 -0.9550  1.3458
 8639SOL    HW237377   4.067   4.396   1.273 -1.2191  1.1060 -0.4930
 8640SOL     OW37378   1.095   4.103   1.069 -0.1402  0.1077  0.0788
 8640SOL    HW137379   1.184   4.068   1.081 -0.0406  0.6148  0.7930
 8640SOL    HW237380   1.065   4.104   1.160  1.1958  1.9280  0.5048
 8641SOL     OW37381   2.219   1.133   4.988 -0.4138  0.0173  0.6396
 8641SOL    HW137382   2.306   1.096   4.974 -0.8165 -0.8228  0.3508
 8641SOL    HW237383   2.173   1.086   4.919 -1.5394  2.1230 -0.0428
 8642SOL     OW37384   4.710   4.579   2.281 -0.2529  0.3862 -0.2867
 8642SOL    HW137385   4.718   4.487   2.303  0.6818  0.4580 -0.3288
 8642SOL    HW237386   4.619   4.566   2.255 -0.3454  0.0658  0.2004
 8643SOL     OW37387   2.445   3.091   0.157  0.2847 -0.6052  0.6874
 8643SOL    HW137388   2.478   3.122   0.073  1.6239  0.3358  1.5663
 8643SOL    HW237389   2.500   3.021   0.192  0.9526 -1.2155 -1.5633
 8644SOL     OW37390   1.224   1.736   7.168  0.0496  0.0183 -0.2580
 8644SOL    HW137391   1.253   1.810   7.221 -2.7843  1.8294 -1.2900
 8644SOL    HW237392   1.286   1.669   7.199  0.0892 -0.2978 -1.0192
 8645SOL     OW37393   0.266   3.392   3.766 -0.3812 -0.1244 -0.4642
 8645SOL    HW137394   0.191   3.417   3.820  0.2633  2.0527 -0.5590
 8645SOL    HW237395   0.325   3.463   3.793 -1.3242  0.2681  0.5343
 8646SOL     OW37396   1.535   0.247  17.211 -0.1852  0.4605 -0.0496
 8646SOL    HW137397   1.589   0.206  17.144 -2.4537 -0.6183 -1.2481
 8646SOL    HW237398   1.473   0.290  17.151  0.3600 -0.0171 -0.9556
 8647SOL     OW37399   4.229   0.051   2.799  0.3608 -0.2775  0.2220
 8647SOL    HW137400   4.205   0.090   2.714 -0.7185  2.4664  1.8007
 8647SOL    HW237401   4.325   0.052   2.797  0.3324  0.7814 -0.8739
 8648SOL     OW37402   4.189   2.260   7.624  0.1874  0.1760  0.2090
 8648SOL    HW137403   4.278   2.294   7.614 -0.5091  1.8947 -0.1461
 8648SOL    HW237404   4.153   2.338   7.666 -1.0181  0.7334 -1.8155
 8649SOL     OW37405   4.714   0.943   5.550  0.1614 -0.3149 -0.3633
 8649SOL    HW137406   4.716   0.992   5.633  0.1256  3.5206 -2.5962
 8649SOL    HW237407   0.084   0.945   5.522  0.8402 -1.0009  1.8028
 8650SOL     OW37408   4.477   2.501  14.627  0.4180 -0.0316 -0.5194
 8650SOL    HW137409   4.554   2.481  14.573 -0.7854 -2.2261 -1.4360
 8650SOL    HW237410   4.494   2.446  14.704  1.9188  0.7733 -0.2765
 8651SOL     OW37411   1.699   0.396   5.559 -0.0497  0.2761 -0.1367
 8651SOL    HW137412   1.625   0.367   5.612  0.5616  2.1605  1.7772
 8651SOL    HW237413   1.645   0.435   5.490 -0.5641 -1.0805 -0.5021
 8652SOL     OW37414   1.911   4.197   6.510  0.3856  0.0280  0.1820
 8652SOL    HW137415   1.857   4.265   6.549  0.2387 -0.3640  0.6619
 8652SOL    HW237416   1.974   4.164   6.573 -0.3586 -3.0421 -0.6732
 8653SOL     OW37417   2.037   1.855  11.504  0.6905  0.1141  0.3242
 8653SOL    HW137418   2.014   1.908  11.428 -0.1231  2.2945  2.1075
 8653SOL    HW237419   1.958   1.870  11.556 -0.4065  0.0756 -1.3168
 8654SOL     OW37420   2.677   1.597   3.842  0.7344  0.0998 -0.3793
 8654SOL    HW137421   2.633   1.515   3.865  0.1196  0.7859  0.8525
 8654SOL    HW237422   2.697   1.639   3.925 -3.2134  1.8378 -0.2901
 8655SOL     OW37423   2.547   0.686  11.761 -0.0050  0.1518 -0.4486
 8655SOL    HW137424   2.519   0.629  11.690  0.2048  1.0501 -1.2512
 8655SOL    HW237425   2.641   0.688  11.742  0.1564 -2.4470  0.0452
 8656SOL     OW37426   2.995   2.494   5.325  0.7267 -0.0182 -0.2225
 8656SOL    HW137427   3.062   2.537   5.378 -0.2991 -0.3439  1.3243
 8656SOL    HW237428   2.934   2.568   5.323 -2.6575 -2.7924  0.8646
 8657SOL     OW37429   3.682   2.937  13.104  0.6761  0.7221 -0.4968
 8657SOL    HW137430   3.762   2.936  13.051  0.8768  0.5198 -0.1941
 8657SOL    HW237431   3.716   2.899  13.186 -1.7001 -0.5505 -0.1225
 8658SOL     OW37432   1.659   4.696   6.687  0.0594  0.4412  0.1309
 8658SOL    HW137433   1.686   4.649   6.766  0.5166  1.0151  0.3190
 8658SOL    HW237434   1.737   0.030   6.689 -0.1933  0.8105 -0.2092
 8659SOL     OW37435   2.906   1.728   0.175 -0.1450 -0.3411  0.0846
 8659SOL    HW137436   2.833   1.696   0.122  0.3976 -1.7647  0.1929
 8659SOL    HW237437   2.878   1.818   0.189 -0.4683 -0.5737  0.9173
 8660SOL     OW37438   1.426   4.140   0.425  0.5356  0.2359 -0.5744
 8660SOL    HW137439   1.365   4.091   0.479  0.3788 -0.4047 -1.3299
 8660SOL    HW237440   1.512   4.100   0.434 -0.1475 -1.1055  0.0505
 8661SOL     OW37441   2.164   3.541   0.158  0.1794  0.8505 -0.6007
 8661SOL    HW137442   2.252   3.563   0.128  1.2117 -1.1740  0.9642
 8661SOL    HW237443   2.178   3.450   0.185 -1.1316  1.2931  1.5415
 8662SOL     OW37444   1.936   0.415   7.677 -0.2359  0.8770 -0.1760
 8662SOL    HW137445   1.877   0.341   7.665  0.1821  0.3151  1.1963
 8662SOL    HW237446   1.920   0.429   7.770 -1.4940 -0.5186 -0.1884
 8663SOL     OW37447   3.984   0.241   1.611 -0.4427 -0.2069  0.3557
 8663SOL    HW137448   3.941   0.323   1.634 -2.3208 -1.1955  0.3234
 8663SOL    HW237449   3.921   0.202   1.551 -0.1014 -1.4598  0.7988
 8664SOL     OW37450   1.685   0.621   6.032 -0.1176  0.1951  0.7678
 8664SOL    HW137451   1.591   0.633   6.019  0.4107  1.9177 -1.3733
 8664SOL    HW237452   1.707   0.540   5.985 -0.3215  0.1760  0.7063
 8665SOL     OW37453   2.523   2.306   5.305  0.1455 -0.3603  0.1403
 8665SOL    HW137454   2.443   2.343   5.266  0.5219  0.8369  0.5134
 8665SOL    HW237455   2.590   2.345   5.250  0.6983 -0.4435  0.7578
 8666SOL     OW37456   4.082   0.287   5.457  0.3913  0.1409 -0.0685
 8666SOL    HW137457   4.130   0.359   5.498 -1.0352  1.4965 -0.7993
 8666SOL    HW237458   4.019   0.326   5.397  0.3195 -0.0583 -0.1206
 8667SOL     OW37459   0.033   2.854   9.393  0.0146 -0.5917  0.4308
 8667SOL    HW137460   4.712   2.792   9.452  1.7504  0.8675  3.1907
 8667SOL    HW237461   0.028   2.823   9.302 -0.2058 -0.9131  0.5544
 8668SOL     OW37462   3.060   3.905   5.653 -0.2199  0.0282 -0.0202
 8668SOL    HW137463   2.987   3.961   5.678  0.8641  1.2675  0.3818
 8668SOL    HW237464   3.051   3.892   5.558 -0.4404  1.5597 -0.2122
 8669SOL     OW37465   1.238   0.087   5.014 -0.6371 -0.1094  0.2912
 8669SOL    HW137466   1.147   0.056   5.015 -1.2418  1.7770  3.0151
 8669SOL    HW237467   1.287   0.021   5.063  1.0280  0.6257 -0.3948
 8670SOL     OW37468   4.400   1.680   6.069 -0.5202  0.0443 -0.4999
 8670SOL    HW137469   4.389   1.640   6.155 -2.8086  1.5152 -0.1126
 8670SOL    HW237470   4.434   1.613   6.010  1.9067  2.6393 -2.0321
 8671SOL     OW37471   1.040   4.133   0.479  0.4244  0.2587  0.2868
 8671SOL    HW137472   0.999   4.178   0.554 -2.9335 -1.2100 -0.6560
 8671SOL    HW237473   1.032   4.202   0.414 -0.4382  0.5633  0.7049
 8672SOL     OW37474   1.615   3.595   7.325 -0.5153  0.0733 -0.0746
 8672SOL    HW137475   1.556   3.520   7.332 -1.2557  0.5823 -0.9030
 8672SOL    HW237476   1.693   3.555   7.287  0.6567  2.9840 -0.7719
 8673SOL     OW37477   1.221   3.240   3.931  0.3790  0.2956  0.4254
 8673SOL    HW137478   1.272   3.176   3.982 -0.1700 -0.3662  0.1450
 8673SOL    HW237479   1.132   3.220   3.959  0.5744  1.0213  1.5530
 8674SOL     OW37480   0.316   1.762   4.874  0.1543 -0.0056 -0.1654
 8674SOL    HW137481   0.311   1.749   4.779 -1.1889 -2.6090  0.2540
 8674SOL    HW237482   0.380   1.694   4.899 -2.0530 -1.8127  0.5582
 8675SOL     OW37483   2.669   1.794   4.508  0.2987  0.7377 -0.2882
 8675SOL    HW137484   2.688   1.881   4.543 -0.6925  1.1649 -0.8533
 8675SOL    HW237485   2.578   1.786   4.537  0.4006  0.1573 -0.1118
 8676SOL     OW37486   3.953   3.670   0.033  0.0953  0.4245  0.6203
 8676SOL    HW137487   3.974   3.644  17.628  2.0716  0.9464  0.9107
 8676SOL    HW237488   3.954   3.581   0.066  0.4389  1.3875  3.1595
 8677SOL     OW37489   3.825   3.242   4.802 -0.6419  0.0161 -0.1716
 8677SOL    HW137490   3.888   3.187   4.754 -1.6692 -1.4884  0.1855
 8677SOL    HW237491   3.815   3.189   4.881  0.5325 -0.6182 -0.4567
 8678SOL     OW37492   0.240   3.413   9.358  0.1404  0.3474 -0.1226
 8678SOL    HW137493   0.198   3.328   9.370 -1.4722  0.8307 -2.6364
 8678SOL    HW237494   0.189   3.463   9.422  1.3734  2.7135 -0.9879
 8679SOL     OW37495   0.678   2.013  14.221 -0.1099  0.6116  0.7120
 8679SOL    HW137496   0.716   1.954  14.287 -1.3031 -1.7476 -0.7469
 8679SOL    HW237497   0.592   1.975  14.204  1.2866 -1.3934 -1.9059
 8680SOL     OW37498   1.880   4.262  15.347  0.1696  0.2527  0.2068
 8680SOL    HW137499   1.886   4.309  15.264  0.5742 -2.5794 -1.3501
 8680SOL    HW237500   1.792   4.226  15.354 -0.0280  0.8264  0.7496
 8681SOL     OW37501   4.081   3.510  10.690  0.2597 -0.1386 -0.1254
 8681SOL    HW137502   4.009   3.447  10.679  1.8619 -2.0471  0.2961
 8681SOL    HW237503   4.114   3.535  10.604  0.3254 -1.7476 -0.5712
 8682SOL     OW37504   1.553   1.610   2.881 -0.4561  0.2467  0.1260
 8682SOL    HW137505   1.605   1.586   2.957 -1.2526 -0.7310  0.3723
 8682SOL    HW237506   1.464   1.580   2.899 -1.1789  1.4272 -1.4650
 8683SOL     OW37507   1.900   3.595   0.112  0.2629 -0.0211 -0.0645
 8683SOL    HW137508   1.979   3.544   0.130 -0.7809 -2.3112 -2.0561
 8683SOL    HW237509   1.855   3.597   0.197 -0.5865 -0.4164 -0.5098
 8684SOL     OW37510   4.440   0.931   0.644  0.2413  0.8013 -0.2349
 8684SOL    HW137511   4.441   0.856   0.585  2.5626  0.9896 -0.4353
 8684SOL    HW237512   4.399   0.899   0.725  1.0987  0.6941  0.1567
 8685SOL     OW37513   1.766   1.374   0.846 -0.1464  0.2725 -0.2652
 8685SOL    HW137514   1.731   1.379   0.935 -1.0472  1.7196 -0.7032
 8685SOL    HW237515   1.749   1.284   0.820  0.0225  0.4839 -1.1253
 8686SOL     OW37516   4.589   0.284  13.488  0.2893 -0.2022  0.0733
 8686SOL    HW137517   4.537   0.360  13.517 -0.6156 -1.5830  2.0874
 8686SOL    HW237518   4.538   0.206  13.509 -1.2617  1.1932  1.5693
 8687SOL     OW37519   2.428   3.278   2.916 -0.0933  0.3623  0.2521
 8687SOL    HW137520   2.377   3.203   2.884  0.0635 -0.1487  1.2070
 8687SOL    HW237521   2.470   3.239   2.993  0.4315  0.8215  0.1964
 8688SOL     OW37522   0.224   0.321   9.843  0.4798 -0.3598 -0.3271
 8688SOL    HW137523   0.298   0.378   9.864 -0.3320  0.3735  0.5586
 8688SOL    HW237524   0.154   0.365   9.892 -0.6689 -1.5345 -0.9088
 8689SOL     OW37525   2.298   0.953   1.514  0.1842 -0.5509  0.4366
 8689SOL    HW137526   2.371   0.901   1.547  0.1295 -1.1910 -0.4650
 8689SOL    HW237527   2.259   0.942   1.601  0.1467  0.1535  0.5115
 8690SOL     OW37528   2.921   1.881   1.255 -0.1247  0.1317  0.0510
 8690SOL    HW137529   2.895   1.973   1.259  2.2265  0.8653 -1.6820
 8690SOL    HW237530   2.943   1.867   1.163  2.9871  0.1493  0.7841
 8691SOL     OW37531   3.808   3.056   7.670  0.0169 -0.0620  0.4068
 8691SOL    HW137532   3.858   2.996   7.726 -0.1246  1.4383  2.1417
 8691SOL    HW237533   3.839   3.141   7.702 -0.6986 -0.7735  2.9906
 8692SOL     OW37534   1.260   2.392   2.385 -0.1111  0.4968  0.0932
 8692SOL    HW137535   1.226   2.311   2.424  1.6593 -0.1936  0.2002
 8692SOL    HW237536   1.203   2.458   2.425 -1.9731 -0.1878 -1.4436
 8693SOL     OW37537   3.623   1.221  16.548  0.2840  0.3596 -0.3989
 8693SOL    HW137538   3.627   1.181  16.634  2.0510  0.3367 -0.4997
 8693SOL    HW237539   3.672   1.160  16.493  0.7519 -0.8108  1.3456
 8694SOL     OW37540   4.701   1.385   7.515 -0.5861 -0.3109  0.0287
 8694SOL    HW137541   0.005   1.347   7.599 -0.1699  0.3989  0.2361
 8694SOL    HW237542   0.057   1.439   7.494 -2.7231  3.2606  1.3879
 8695SOL     OW37543   1.396   3.684   0.203  0.1909 -0.0710 -0.2464
 8695SOL    HW137544   1.483   3.682   0.164  0.6070 -0.4179  0.7250
 8695SOL    HW237545   1.348   3.647   0.128 -0.2512 -1.3997  0.6908
 8696SOL     OW37546   4.139   3.793  16.373  0.4537 -0.1896  0.1448
 8696SOL    HW137547   4.075   3.725  16.393  2.6665 -2.0654  0.7766
 8696SOL    HW237548   4.151   3.782  16.279  0.5338 -2.2183  0.4045
 8697SOL     OW37549   1.198   3.503  17.075  0.0189 -0.2926 -0.2566
 8697SOL    HW137550   1.113   3.523  17.037  0.7394  0.0682 -1.6877
 8697SOL    HW237551   1.253   3.580  17.058  0.2925 -0.3236  0.4525
 8698SOL     OW37552   0.333   0.618   4.783  0.6845 -0.0862 -0.7027
 8698SOL    HW137553   0.353   0.659   4.867  1.7183 -0.2647 -0.8651
 8698SOL    HW237554   0.240   0.633   4.764  0.5759  0.9814  0.6921
 8699SOL     OW37555   1.887   2.970   6.347 -0.1345 -0.1791 -0.5216
 8699SOL    HW137556   1.797   2.970   6.315 -0.3795 -1.2972  0.1383
 8699SOL    HW237557   1.900   2.876   6.361  0.0562  0.0515  0.8809
 8700SOL     OW37558   1.955   1.611   3.415 -0.1018  0.2976  0.4300
 8700SOL    HW137559   2.017   1.568   3.356 -1.0316 -1.0885  0.4562
 8700SOL    HW237560   1.991   1.699   3.428  3.7971 -1.2013 -0.2267
 8701SOL     OW37561   2.291   1.532   8.920  0.3427  0.3190 -0.2662
 8701SOL    HW137562   2.268   1.581   8.842 -1.5459  0.4762  0.3749
 8701SOL    HW237563   2.342   1.458   8.887 -1.8458 -0.4649 -1.8843
 8702SOL     OW37564   3.735   3.185  10.477  0.2826  0.0212  0.0134
 8702SOL    HW137565   3.667   3.124  10.505  0.2549  0.8373  1.7405
 8702SOL    HW237566   3.710   3.207  10.387 -3.4098 -0.2198  0.9565
 8703SOL     OW37567   3.231   1.151   5.013  0.3518 -0.1531 -0.1707
 8703SOL    HW137568   3.151   1.176   4.966 -0.6043  1.2225  2.1761
 8703SOL    HW237569   3.212   1.168   5.106  0.5755  1.4586 -0.4261
 8704SOL     OW37570   2.699   1.380   7.081 -0.4624 -0.2731  0.2205
 8704SOL    HW137571   2.607   1.395   7.060 -0.0136 -0.4391 -1.8217
 8704SOL    HW237572   2.689   1.375   7.176 -1.7089 -2.4550 -0.0152
 8705SOL     OW37573   0.123   1.445   5.960 -0.1806 -0.3747 -0.5886
 8705SOL    HW137574   0.078   1.405   6.034  1.3386 -0.2402  0.3983
 8705SOL    HW237575   0.185   1.382   5.925  1.3858 -0.1752  1.8159
 8706SOL     OW37576   3.040   2.366   5.988 -0.5460 -0.0057  0.3811
 8706SOL    HW137577   3.020   2.453   6.022  2.0745  1.3761 -1.5731
 8706SOL    HW237578   3.057   2.379   5.894  0.5952 -0.8533  0.4692
 8707SOL     OW37579   3.012   3.436   2.374 -0.1265 -0.7507  0.1778
 8707SOL    HW137580   3.007   3.347   2.339  2.1148 -1.0717  0.6578
 8707SOL    HW237581   2.991   3.426   2.467 -1.2438  0.1580  0.0190
 8708SOL     OW37582   1.957   3.158   9.498  0.1154 -0.5177  0.0551
 8708SOL    HW137583   2.022   3.110   9.446 -0.9444 -1.9242  0.0401
 8708SOL    HW237584   1.998   3.244   9.486  3.0603 -2.0014 -0.4239
 8709SOL     OW37585   0.889   4.624   3.665  0.3750  0.0202  0.4509
 8709SOL    HW137586   0.839   4.595   3.589  0.3501  1.3520 -0.0434
 8709SOL    HW237587   0.929   4.709   3.649 -1.1562  1.1356  2.3970
 8710SOL     OW37588   4.176   1.378  11.099  0.1711  0.3693 -0.4162
 8710SOL    HW137589   4.086   1.366  11.068 -0.6263  2.1419  1.2085
 8710SOL    HW237590   4.217   1.412  11.019 -0.4340  0.0294 -0.8716
 8711SOL     OW37591   0.377   2.439   2.735 -0.1577  0.3298 -0.5123
 8711SOL    HW137592   0.292   2.395   2.731 -1.5338  2.6481  3.5110
 8711SOL    HW237593   0.360   2.511   2.796 -1.9383  0.6576 -1.3842
 8712SOL     OW37594   1.654   0.927  11.875  0.0020  0.7796  0.0744
 8712SOL    HW137595   1.692   0.958  11.957  1.1094  1.0024 -0.5256
 8712SOL    HW237596   1.567   0.963  11.890 -0.1185  0.0327  1.1470
 8713SOL     OW37597   1.745   0.722   4.231  0.1719 -0.1104  0.4772
 8713SOL    HW137598   1.752   0.709   4.137  1.5822  4.7262 -0.1051
 8713SOL    HW237599   1.660   0.680   4.245  0.5970 -1.4312 -1.0152
 8714SOL     OW37600   3.108   1.537  16.925  0.7470  0.1537  0.1764
 8714SOL    HW137601   3.161   1.468  16.964 -0.8435 -0.6369  0.9296
 8714SOL    HW237602   3.133   1.616  16.973  2.3120 -0.0337 -0.3130
 8715SOL     OW37603   1.111   4.396   8.386  0.1960 -0.2781  0.0264
 8715SOL    HW137604   1.149   4.469   8.337  0.6073 -1.4909 -1.4955
 8715SOL    HW237605   1.158   4.402   8.469  0.2203  2.0509 -0.1529
 8716SOL     OW37606   2.271   0.815   5.480 -0.4436  0.3812  0.2112
 8716SOL    HW137607   2.309   0.759   5.413 -1.3836 -0.1423  0.1248
 8716SOL    HW237608   2.248   0.744   5.540  3.2210 -1.1999 -0.2840
 8717SOL     OW37609   2.282   3.278  14.463 -0.1029  0.0016 -0.0543
 8717SOL    HW137610   2.353   3.339  14.443 -0.9295  1.5859  1.7669
 8717SOL    HW237611   2.247   3.278  14.374 -0.5031 -0.6552  0.0990
 8718SOL     OW37612   0.485   0.137   3.209 -0.0712  0.3726 -0.3169
 8718SOL    HW137613   0.452   0.088   3.133  0.0866  0.3137 -0.3474
 8718SOL    HW237614   0.419   0.206   3.217  0.9318  1.1897  0.8893
 8719SOL     OW37615   1.670   1.499  10.842 -0.2717 -0.1940 -0.2620
 8719SOL    HW137616   1.609   1.427  10.828 -1.1136  0.4661  0.0374
 8719SOL    HW237617   1.619   1.575  10.869 -0.1775 -0.7535  1.4997
 8720SOL     OW37618   2.137   2.224   6.012 -0.3544  0.6238 -0.4928
 8720SOL    HW137619   2.196   2.167   5.962  1.0073  1.1681  0.4987
 8720SOL    HW237620   2.076   2.163   6.054  1.0140 -0.2299  0.2681
 8721SOL     OW37621   3.265   1.701  15.311 -0.2031  0.1831  0.2278
 8721SOL    HW137622   3.185   1.747  15.285  0.5147  3.2182  3.4685
 8721SOL    HW237623   3.302   1.668  15.229  1.5745  1.0890  0.6711
 8722SOL     OW37624   1.683   2.392  14.145  0.4097  0.3336  0.2664
 8722SOL    HW137625   1.641   2.351  14.070  2.1123 -1.4328  0.2713
 8722SOL    HW237626   1.654   2.335  14.217 -1.1342  1.3512  0.4448
 8723SOL     OW37627   1.682   2.311   3.548 -0.0338  0.3794  0.1428
 8723SOL    HW137628   1.621   2.239   3.530  0.5755 -0.4090  1.2194
 8723SOL    HW237629   1.755   2.260   3.512 -1.8421 -3.0260  1.2445
 8724SOL     OW37630   2.758   0.914   1.538 -0.4245  0.5724 -0.0192
 8724SOL    HW137631   2.832   0.921   1.478 -0.3229  0.4218  0.0894
 8724SOL    HW237632   2.802   0.944   1.617 -1.0810  0.8286  0.2525
 8725SOL     OW37633   0.349   2.272   9.634 -0.3546  0.7667 -0.3445
 8725SOL    HW137634   0.380   2.349   9.586 -1.8878  0.5265 -1.6851
 8725SOL    HW237635   0.367   2.293   9.726  0.4878  1.8725 -0.7516
 8726SOL     OW37636   0.246   1.616   6.400  0.1868 -0.0504  0.1640
 8726SOL    HW137637   0.340   1.609   6.417  0.5127 -1.7709 -2.3069
 8726SOL    HW237638   0.219   1.525   6.398 -1.5832  0.4579  1.3153
 8727SOL     OW37639   1.881   3.228   4.695 -0.5834 -0.2216  0.1472
 8727SOL    HW137640   1.844   3.303   4.647 -3.2423 -0.9919  1.0135
 8727SOL    HW237641   1.858   3.247   4.786  1.9018  1.0456  0.5076
 8728SOL     OW37642   3.000   0.138   0.977 -0.3420 -0.3950  0.6162
 8728SOL    HW137643   2.997   0.064   1.037  0.8092 -1.3177 -0.4830
 8728SOL    HW237644   2.998   0.103   0.888  0.4926 -0.7653  0.7430
 8729SOL     OW37645   2.637   1.631   7.384  0.0017  0.3354 -0.2648
 8729SOL    HW137646   2.593   1.655   7.303 -0.9946  0.4831  0.3292
 8729SOL    HW237647   2.623   1.539   7.406  0.6428  0.7080  1.6586
 8730SOL     OW37648   1.215   3.263   2.609 -0.1703 -0.9367 -0.5017
 8730SOL    HW137649   1.171   3.301   2.532 -0.9135  0.2128  0.4999
 8730SOL    HW237650   1.300   3.306   2.606 -1.9964  2.6077 -2.1965
 8731SOL     OW37651   4.695   1.357   5.603  0.0184  0.4527  0.1230
 8731SOL    HW137652   4.654   1.440   5.628  0.2195  0.7742 -0.6166
 8731SOL    HW237653   0.064   1.363   5.636  0.4389 -3.2966 -0.3761
 8732SOL     OW37654   2.580   2.979  13.954 -0.1540  0.6221  0.7623
 8732SOL    HW137655   2.542   2.891  13.945 -0.1734  0.9699 -2.6661
 8732SOL    HW237656   2.665   2.948  13.985 -0.9101 -2.0657  0.1455
 8733SOL     OW37657   2.260   0.252   7.455  0.0534  0.4360  0.1490
 8733SOL    HW137658   2.276   0.308   7.379 -1.7022 -0.2431 -0.7199
 8733SOL    HW237659   2.221   0.311   7.519 -2.2576 -0.4974 -0.3953
 8734SOL     OW37660   2.136   2.443  12.814  0.5775  1.1185 -1.0122
 8734SOL    HW137661   2.143   2.395  12.731  0.4819  0.3548 -0.5804
 8734SOL    HW237662   2.042   2.439  12.831  0.8159  1.2252  0.3236
 8735SOL     OW37663   3.062   2.405   7.178 -0.0777  0.4059  0.4988
 8735SOL    HW137664   3.093   2.489   7.210 -0.9557  1.3037 -1.0312
 8735SOL    HW237665   3.098   2.342   7.241 -1.3216  0.6631  1.4581
 8736SOL     OW37666   1.277   1.728  16.668  0.3757 -0.2327  1.0116
 8736SOL    HW137667   1.323   1.712  16.586 -0.4554 -0.8927  0.6778
 8736SOL    HW237668   1.336   1.784  16.719 -2.0765  0.7421  2.7983
 8737SOL     OW37669   3.214   2.378  13.917  0.0734 -0.6788  0.1493
 8737SOL    HW137670   3.170   2.303  13.878  0.0283 -0.5007 -0.1420
 8737SOL    HW237671   3.308   2.372  13.902  0.2844  0.8775  0.8066
 8738SOL     OW37672   0.732   0.899  13.541  0.0135 -0.4227 -0.3499
 8738SOL    HW137673   0.793   0.915  13.469 -0.7961  2.3883 -0.3875
 8738SOL    HW237674   0.665   0.848  13.495  0.7671 -0.6802 -1.1694
 8739SOL     OW37675   4.680   0.440   6.797 -0.2258  0.5849 -0.7122
 8739SOL    HW137676   4.608   0.378   6.805  2.6171 -2.5702  0.8215
 8739SOL    HW237677   0.023   0.418   6.865 -0.7622 -2.4811 -1.2141
 8740SOL     OW37678   2.862   1.229   0.173 -0.3588 -0.1600 -0.4868
 8740SOL    HW137679   2.908   1.236   0.257  2.1101  1.5277 -1.9558
 8740SOL    HW237680   2.900   1.307   0.131 -1.0102  1.1710  1.3901
 8741SOL     OW37681   3.942   4.219   8.867  0.0525  0.5269 -0.2797
 8741SOL    HW137682   3.947   4.124   8.880 -0.4082  0.2444 -2.1057
 8741SOL    HW237683   4.016   4.242   8.811 -1.1289  0.8815 -1.7038
 8742SOL     OW37684   3.933   2.376   1.484  0.2126  0.1266  0.4959
 8742SOL    HW137685   3.969   2.313   1.546  0.8011 -0.1373 -0.1090
 8742SOL    HW237686   3.966   2.336   1.403 -2.7204  0.9718 -1.1027
 8743SOL     OW37687   0.026   4.515   9.348  0.6107  0.1239  0.0569
 8743SOL    HW137688   0.017   4.605   9.380  0.1166  0.4505 -0.9941
 8743SOL    HW237689   0.052   4.471   9.429 -3.1619  0.9426  1.7495
 8744SOL     OW37690   3.298   1.922   6.216  0.0073 -0.4549  0.0353
 8744SOL    HW137691   3.218   1.958   6.179  2.4103  3.1957 -1.5938
 8744SOL    HW237692   3.336   1.994   6.266  1.6112 -1.6696  0.5578
 8745SOL     OW37693   0.035   3.908   9.063  0.2791 -0.2646 -0.2301
 8745SOL    HW137694   0.040   3.844   9.134  1.4128  0.9373  0.7734
 8745SOL    HW237695   0.027   3.993   9.107 -1.8787 -1.3871  1.5026
 8746SOL     OW37696   2.838   4.275   4.818 -0.3867  0.0824  0.8078
 8746SOL    HW137697   2.916   4.230   4.784  0.6922  2.6684 -0.1852
 8746SOL    HW237698   2.878   4.362   4.822  2.1349 -0.9709 -0.9580
 8747SOL     OW37699   3.625   4.103  15.164 -0.1635 -0.0985  0.4808
 8747SOL    HW137700   3.689   4.086  15.095 -1.2889 -3.1329  0.1538
 8747SOL    HW237701   3.558   4.150  15.115  0.7522 -2.5044 -3.1493
 8748SOL     OW37702   4.662   3.248  11.438  0.4266  0.2530 -0.0427
 8748SOL    HW137703   0.018   3.295  11.408 -0.8142  2.1669 -0.2433
 8748SOL    HW237704   4.712   3.173  11.470  0.2318 -0.3196 -1.0943
 8749SOL     OW37705   3.583   0.056  11.900  0.1756  0.4767  0.4129
 8749SOL    HW137706   3.620   0.001  11.831  1.2109  2.6953 -0.8121
 8749SOL    HW237707   3.538   4.703  11.941  1.3419 -0.8373 -0.6646
 8750SOL     OW37708   4.034   0.761  15.891  0.1200 -0.1307 -0.2210
 8750SOL    HW137709   3.939   0.756  15.901  0.2981  0.4278  1.7397
 8750SOL    HW237710   4.042   0.851  15.923  1.7775 -0.1172 -0.6596
 8751SOL     OW37711   1.852   1.541  12.921 -0.5097 -0.4861 -0.0711
 8751SOL    HW137712   1.828   1.498  13.003  2.6805 -0.3168  0.9462
 8751SOL    HW237713   1.764   1.560  12.887  0.3820 -1.7111 -3.0976
 8752SOL     OW37714   0.611   4.602   9.069 -0.3535 -0.5805  0.0261
 8752SOL    HW137715   0.524   4.562   9.063 -0.7771  0.3621  0.0044
 8752SOL    HW237716   0.591   4.679   9.016  2.7394  1.4039  1.7670
 8753SOL     OW37717   1.817   0.333   4.535  0.5329  0.0677  0.1595
 8753SOL    HW137718   1.781   0.307   4.620  1.8131  0.7957  0.9163
 8753SOL    HW237719   1.774   0.267   4.480 -1.3149  1.6085 -0.2704
 8754SOL     OW37720   0.516   2.390  14.765  0.5933  0.2324 -0.1654
 8754SOL    HW137721   0.534   2.298  14.784 -0.0965  0.0193 -0.5614
 8754SOL    HW237722   0.587   2.422  14.820  0.1870  2.6201 -1.0551
 8755SOL     OW37723   3.824   1.866   4.295  0.1596 -0.4318 -0.2831
 8755SOL    HW137724   3.826   1.956   4.262 -0.2791 -0.8486 -1.4603
 8755SOL    HW237725   3.911   1.838   4.324  0.6805 -0.5907 -1.9509
 8756SOL     OW37726   0.891   3.486  16.296 -0.2029 -0.6353 -0.2889
 8756SOL    HW137727   0.814   3.458  16.246  0.6243 -1.9974 -0.7804
 8756SOL    HW237728   0.964   3.441  16.254  0.7925 -0.3289  1.1637
 8757SOL     OW37729   0.660   2.229   7.115  0.0192  0.0170 -0.0460
 8757SOL    HW137730   0.642   2.172   7.190 -0.0810 -0.1857 -0.2224
 8757SOL    HW237731   0.577   2.219   7.069 -1.6275 -2.1968  3.4161
 8758SOL     OW37732   0.097   4.017   8.533  0.7441  0.2023 -0.5128
 8758SOL    HW137733   0.019   4.066   8.556  0.2544 -0.3658 -0.9604
 8758SOL    HW237734   0.167   4.063   8.579  0.9400 -1.3350  0.7093
 8759SOL     OW37735   1.007   4.131   3.701 -0.1731 -0.2978 -0.1891
 8759SOL    HW137736   0.930   4.077   3.722 -1.4594  1.7730  0.4671
 8759SOL    HW237737   0.965   4.192   3.639  2.5299  0.5357 -1.1876
 8760SOL     OW37738   3.285   0.034   6.230  0.1277  0.1407  0.1168
 8760SOL    HW137739   3.244   0.026   6.144  1.7815  1.0993 -0.7803
 8760SOL    HW237740   3.375   0.017   6.201  0.1113 -0.7529  0.5809
 8761SOL     OW37741   4.116   3.382  17.156 -0.1559 -0.0773 -0.0920
 8761SOL    HW137742   4.078   3.469  17.164 -0.6595 -0.2526 -0.5760
 8761SOL    HW237743   4.180   3.407  17.089 -0.7489  1.0395 -0.2335
 8762SOL     OW37744   2.531   2.741   7.958  0.0805  0.1734  0.3145
 8762SOL    HW137745   2.495   2.687   7.888  3.2053 -0.8074 -0.5343
 8762SOL    HW237746   2.623   2.717   7.951  0.5705  2.4342 -0.9545
 8763SOL     OW37747   2.635   1.674  10.881 -0.0642  0.0706  0.5758
 8763SOL    HW137748   2.716   1.666  10.930  0.0980  1.6856  0.5863
 8763SOL    HW237749   2.572   1.619  10.928  0.6761 -0.0325  1.4399
 8764SOL     OW37750   0.324   0.121   4.332  0.1008  0.1677 -0.2738
 8764SOL    HW137751   0.271   0.134   4.254 -0.8890 -1.3819  0.1555
 8764SOL    HW237752   0.285   0.039   4.363  0.3293  0.2097  0.1355
 8765SOL     OW37753   0.145   3.144  13.175  0.2776  0.0827  0.4521
 8765SOL    HW137754   0.156   3.144  13.080  0.3594 -1.4865  0.4514
 8765SOL    HW237755   0.084   3.216  13.189  1.1840  0.8575  0.3818
 8766SOL     OW37756   0.822   3.344   6.131 -0.1700 -0.0520  0.6772
 8766SOL    HW137757   0.732   3.350   6.163  0.2213  2.5222  1.2901
 8766SOL    HW237758   0.862   3.421   6.171 -1.2707 -0.0647  1.8071
 8767SOL     OW37759   2.881   2.817  10.482 -0.7294  0.3935 -0.1483
 8767SOL    HW137760   2.830   2.786  10.557 -2.3492  2.3259 -0.4556
 8767SOL    HW237761   2.807   2.824  10.421  0.3130 -0.2017 -1.4695
 8768SOL     OW37762   3.141   0.550   8.076 -0.1704  0.5486 -0.2744
 8768SOL    HW137763   3.091   0.531   8.155 -1.6210 -1.1436 -1.6258
 8768SOL    HW237764   3.120   0.469   8.030 -0.6331  0.6192 -0.1880
 8769SOL     OW37765   2.599   3.229   5.082  0.4187  0.0253  0.3728
 8769SOL    HW137766   2.595   3.316   5.120 -2.4653  1.4879 -3.2673
 8769SOL    HW237767   2.543   3.174   5.137  0.0009  0.4377  0.3526
 8770SOL     OW37768   2.391   4.085   4.521 -0.5292 -0.2878 -0.3064
 8770SOL    HW137769   2.474   4.125   4.548 -0.2898 -0.2792 -1.0470
 8770SOL    HW237770   2.398   4.003   4.570 -2.9085 -0.5971 -0.5054
 8771SOL     OW37771   3.759   2.500   8.665  0.2226  0.1574  0.8831
 8771SOL    HW137772   3.794   2.414   8.641 -0.6678 -0.1969  0.8764
 8771SOL    HW237773   3.667   2.489   8.641  0.8056 -1.0317 -0.8149
 8772SOL     OW37774   3.466   0.868  16.562  0.5674  0.1475 -0.6299
 8772SOL    HW137775   3.539   0.883  16.502  0.3932  1.2484 -0.5585
 8772SOL    HW237776   3.414   0.946  16.548  1.9594  0.8986 -1.6522
 8773SOL     OW37777   1.698   3.614  10.086  0.0503  0.3903  0.3699
 8773SOL    HW137778   1.688   3.567  10.169  3.3603  2.7092  2.0764
 8773SOL    HW237779   1.606   3.638  10.076 -0.2241  0.0627  1.9680
 8774SOL     OW37780   1.945   2.424   9.200 -0.2404  0.0012  0.4121
 8774SOL    HW137781   1.915   2.368   9.272  0.8715 -0.6642  0.3727
 8774SOL    HW237782   2.031   2.385   9.185  0.0670  1.3160 -1.1843
 8775SOL     OW37783   0.349   0.735   5.360 -0.2039  0.0510  0.2076
 8775SOL    HW137784   0.350   0.695   5.273  0.4502  0.8352 -0.1470
 8775SOL    HW237785   0.411   0.674   5.400 -2.1377 -2.7975 -1.0601
 8776SOL     OW37786   4.294   4.206   3.328 -0.3700  0.4240 -0.2198
 8776SOL    HW137787   4.250   4.253   3.399  0.5777  2.4506 -0.9834
 8776SOL    HW237788   4.320   4.121   3.364 -0.0687  0.4818 -0.2996
 8777SOL     OW37789   0.189   4.639   6.476  0.2888 -0.2329 -0.1914
 8777SOL    HW137790   0.136   4.652   6.397  0.3899 -0.3995 -0.2878
 8777SOL    HW237791   0.242   4.563   6.452 -0.0437  0.3898 -2.9208
 8778SOL     OW37792   3.877   2.754   7.755  0.4356 -1.0968  0.4769
 8778SOL    HW137793   3.843   2.764   7.844 -1.9441 -0.2482 -0.5337
 8778SOL    HW237794   3.969   2.778   7.766  0.5142 -0.6129 -1.2201
 8779SOL     OW37795   2.644   1.103   8.976 -0.0080  0.4843  0.5240
 8779SOL    HW137796   2.688   1.131   9.056  0.5891  1.0365  0.0023
 8779SOL    HW237797   2.700   1.139   8.907 -1.7952 -0.4865 -1.4645
 8780SOL     OW37798   0.557   4.598   4.609 -0.0227 -0.3918 -0.0981
 8780SOL    HW137799   0.631   4.615   4.667 -0.8175 -0.4243  0.9245
 8780SOL    HW237800   0.546   4.503   4.614 -1.2396 -0.1678  1.4914
 8781SOL     OW37801   2.295   2.422   5.240 -0.2464  0.0754  0.1589
 8781SOL    HW137802   2.233   2.349   5.238 -1.5784  1.1357  2.0828
 8781SOL    HW237803   2.237   2.497   5.252 -1.3867 -0.8511  0.4514
 8782SOL     OW37804   2.528   4.355   9.360 -0.3359 -0.3097 -0.4739
 8782SOL    HW137805   2.555   4.264   9.347  2.6679  0.3809  0.8054
 8782SOL    HW237806   2.601   4.386   9.414 -1.2392  0.0690  0.5309
 8783SOL     OW37807   3.815   2.987   3.863  0.0404 -0.0043 -0.3143
 8783SOL    HW137808   3.864   2.954   3.788  3.6661  1.3371  1.4832
 8783SOL    HW237809   3.891   3.018   3.911  0.5918 -0.9886 -0.5490
 8784SOL     OW37810   4.384   4.275   1.319 -0.3531 -0.3318 -0.4433
 8784SOL    HW137811   4.362   4.322   1.238 -0.0966  1.1162  0.3255
 8784SOL    HW237812   4.318   4.299   1.384 -0.1502 -0.9973  0.0093
 8785SOL     OW37813   0.758   0.775   9.506 -0.0868 -0.6352  0.0991
 8785SOL    HW137814   0.749   0.869   9.488 -0.4330 -0.5049  0.9559
 8785SOL    HW237815   0.757   0.762   9.600  0.0460 -2.1957 -0.1201
 8786SOL     OW37816   3.828   2.981  12.169  0.2239  0.3020  0.3553
 8786SOL    HW137817   3.793   3.004  12.083  1.1475  0.4976  0.0267
 8786SOL    HW237818   3.797   3.042  12.236 -1.6474 -1.4771  1.0856
 8787SOL     OW37819   2.406   3.436   1.845  0.0959 -0.3266  0.0919
 8787SOL    HW137820   2.345   3.422   1.918 -1.1569 -0.6216 -1.0082
 8787SOL    HW237821   2.492   3.453   1.884 -0.5293  0.4102  1.1509
 8788SOL     OW37822   1.411   2.929   4.586 -0.1904  0.4220 -0.6111
 8788SOL    HW137823   1.478   2.989   4.552  0.7015  0.3746  1.0758
 8788SOL    HW237824   1.439   2.850   4.539  0.7647  0.0577  0.5436
 8789SOL     OW37825   3.224   1.841   1.671  0.5253 -0.2417 -0.1266
 8789SOL    HW137826   3.210   1.806   1.759  0.8487  2.3977  0.9551
 8789SOL    HW237827   3.318   1.851   1.685  0.1722  0.8170  1.5547
 8790SOL     OW37828   2.363   3.082   7.871  0.0010 -0.0386 -0.7523
 8790SOL    HW137829   2.427   3.102   7.802 -0.1714  1.8549 -0.3627
 8790SOL    HW237830   2.296   3.149   7.857 -0.2303  0.3181  2.2195
 8791SOL     OW37831   0.546   4.004   4.774  0.0950  0.4721 -0.1180
 8791SOL    HW137832   0.637   4.031   4.768  0.5189 -1.0003 -0.2870
 8791SOL    HW237833   0.522   4.050   4.854 -3.7737 -2.9416  0.6789
 8792SOL     OW37834   0.925   2.889   5.981  0.5860 -0.5189  0.3313
 8792SOL    HW137835   0.935   2.932   6.066  0.7349 -0.9953  0.5538
 8792SOL    HW237836   1.004   2.840   5.960  2.4598  1.4709  2.7432
 8793SOL     OW37837   1.416   2.533   8.201 -0.5272  0.1980 -0.3103
 8793SOL    HW137838   1.357   2.574   8.137  0.8289 -0.3102 -1.8968
 8793SOL    HW237839   1.360   2.466   8.241  0.5216 -1.3289 -1.4348
 8794SOL     OW37840   0.879   0.877   8.475 -0.5306  0.4372 -0.8889
 8794SOL    HW137841   0.952   0.928   8.510 -0.5885 -1.4491  1.9789
 8794SOL    HW237842   0.816   0.942   8.443 -0.5405  0.2151 -1.3107
 8795SOL     OW37843   4.259   0.988   1.111  1.0201 -0.3475 -0.8300
 8795SOL    HW137844   4.288   1.070   1.151 -0.1939 -1.1229  1.6457
 8795SOL    HW237845   4.190   0.959   1.171  1.3695  1.9281  0.6892
 8796SOL     OW37846   1.646   4.513   9.178  0.4456  0.1452 -0.5697
 8796SOL    HW137847   1.554   4.524   9.199  0.1174  0.1034 -1.9916
 8796SOL    HW237848   1.674   4.602   9.197 -3.3914  0.9735  1.1306
 8797SOL     OW37849   3.789   4.146   8.154 -0.1229  0.3252  0.1637
 8797SOL    HW137850   3.843   4.105   8.221 -1.3399  2.5943  2.5068
 8797SOL    HW237851   3.765   4.067   8.107  0.5040  0.6746 -0.7546
 8798SOL     OW37852   4.143   0.483   8.966  0.4825  0.0776  0.2387
 8798SOL    HW137853   4.062   0.445   8.933  1.5776 -1.7402 -0.3361
 8798SOL    HW237854   4.123   0.479   9.060  3.0418  0.2253  0.7909
 8799SOL     OW37855   3.339   2.969   4.485  0.3341 -0.4036  0.5229
 8799SOL    HW137856   3.294   3.045   4.521  1.2177 -0.2569  1.3119
 8799SOL    HW237857   3.418   2.967   4.538 -0.3248 -2.6532  1.4379
 8800SOL     OW37858   1.545   4.547  10.550 -0.0193  0.5945 -0.0563
 8800SOL    HW137859   1.631   4.582  10.526 -0.4191  1.4617 -0.2166
 8800SOL    HW237860   1.543   4.472  10.491 -1.9540  0.7179 -0.1229
 8801SOL     OW37861   3.245   3.326   7.574  0.0259 -0.0587 -0.4078
 8801SOL    HW137862   3.339   3.321   7.555  0.2259  0.8121  0.3404
 8801SOL    HW237863   3.244   3.347   7.667 -0.2402 -5.2211  0.7676
 8802SOL     OW37864   3.635   0.950  16.363  0.0734 -0.2565 -0.2092
 8802SOL    HW137865   3.626   1.026  16.307  1.0592  1.7511  2.3427
 8802SOL    HW237866   3.654   0.882  16.298  0.4550 -2.0132  1.7433
 8803SOL     OW37867   2.790   3.887  16.118  0.0814  0.1168 -0.3623
 8803SOL    HW137868   2.789   3.862  16.025 -0.8490 -1.4291  0.0656
 8803SOL    HW237869   2.880   3.864  16.142 -0.1570 -0.8494 -0.4077
 8804SOL     OW37870   0.980   1.906   7.499 -0.2135  0.8716  0.0015
 8804SOL    HW137871   0.904   1.882   7.446  0.5784 -0.6368 -0.4779
 8804SOL    HW237872   0.987   1.827   7.553 -0.1015  0.2948 -0.8568
 8805SOL     OW37873   3.914   0.344  12.798  0.1622 -0.1771 -0.5572
 8805SOL    HW137874   3.885   0.279  12.861 -1.6605  0.3980 -0.8164
 8805SOL    HW237875   3.832   0.349  12.750 -1.0664 -1.8775  1.3561
 8806SOL     OW37876   4.560   4.529   7.094 -0.3792 -0.2283  0.1004
 8806SOL    HW137877   4.649   4.497   7.081  0.5457  1.4281  2.3513
 8806SOL    HW237878   4.564   4.624   7.090 -0.4876 -0.1991  0.8905
 8807SOL     OW37879   2.266   1.949   4.669  0.2997  0.2525  0.2440
 8807SOL    HW137880   2.316   1.870   4.647 -0.1275  0.0328  0.0702
 8807SOL    HW237881   2.300   1.975   4.755  1.9761 -4.0130  0.8451
 8808SOL     OW37882   2.843   3.327  11.894  0.2520 -0.4110  0.1598
 8808SOL    HW137883   2.788   3.256  11.926  0.0197 -0.7893 -1.1047
 8808SOL    HW237884   2.921   3.278  11.867  0.2950  0.7565 -1.7986
 8809SOL     OW37885   2.108   2.713   5.616 -0.1483 -0.5605  0.4105
 8809SOL    HW137886   2.173   2.643   5.610 -0.5088 -0.8784  0.2100
 8809SOL    HW237887   2.128   2.742   5.705  1.2189  1.1229 -0.4208
 8810SOL     OW37888   1.453   1.404   0.887  0.0290  0.1505  0.4447
 8810SOL    HW137889   1.413   1.472   0.942 -0.3795 -1.8482  2.6303
 8810SOL    HW237890   1.545   1.399   0.914 -0.6788  2.5932  3.3574
 8811SOL     OW37891   4.400   2.855   6.404  0.6426  0.5448 -0.2379
 8811SOL    HW137892   4.399   2.848   6.499  1.2374  1.2444 -0.1834
 8811SOL    HW237893   4.307   2.864   6.384 -0.1666 -1.3472  2.7619
 8812SOL     OW37894   4.427   4.509   4.434  0.0012  0.4832  0.2719
 8812SOL    HW137895   4.476   4.564   4.495 -1.0254  0.5800  1.0006
 8812SOL    HW237896   4.346   4.561   4.434  0.2752  0.8919  1.5337
 8813SOL     OW37897   3.081   2.173  13.809  0.0345  1.0330  0.4092
 8813SOL    HW137898   3.070   2.116  13.886  1.3826  0.7944  0.4232
 8813SOL    HW237899   3.095   2.109  13.740  2.2243  0.1145  1.6903
 8814SOL     OW37900   3.993   0.169  12.220 -0.1238 -0.9063  0.3591
 8814SOL    HW137901   4.070   0.192  12.168  0.0378 -0.1276  0.9389
 8814SOL    HW237902   4.047   0.150  12.297 -0.3498  0.6398  0.9017
 8815SOL     OW37903   2.675   3.533   3.119 -0.1665  0.2891  0.3038
 8815SOL    HW137904   2.589   3.557   3.152 -0.5691 -2.5654  1.3932
 8815SOL    HW237905   2.703   3.616   3.079  0.8638 -0.5103 -0.6504
 8816SOL     OW37906   1.992   4.717   5.637  0.2734  0.8485 -0.3864
 8816SOL    HW137907   1.995   0.039   5.552 -1.2024  2.0857  0.1708
 8816SOL    HW237908   2.046   0.049   5.696 -2.3653  2.4869  0.5682
 8817SOL     OW37909   1.962   1.327   5.719 -0.0216  0.3259 -0.6660
 8817SOL    HW137910   2.011   1.245   5.725  1.7402  1.4985  0.9958
 8817SOL    HW237911   1.969   1.347   5.626  0.7056 -1.9242 -1.0951
 8818SOL     OW37912   3.795   0.948   8.921 -0.3713 -0.7178 -0.1413
 8818SOL    HW137913   3.787   1.026   8.866 -1.0824 -1.2771 -0.8101
 8818SOL    HW237914   3.779   0.975   9.012 -2.3722 -0.6153 -0.5351
 8819SOL     OW37915   3.304   3.129   2.971 -0.3632  0.4707  0.1156
 8819SOL    HW137916   3.220   3.121   3.016 -0.4486 -0.9229 -0.2732
 8819SOL    HW237917   3.370   3.117   3.039  0.2994  0.5986 -0.5137
 8820SOL     OW37918   2.466   4.670   5.243 -0.1581  0.2983  0.0261
 8820SOL    HW137919   2.530   4.618   5.195 -0.8913 -0.8542  0.3090
 8820SOL    HW237920   2.503   4.657   5.330 -0.1955 -2.3057 -0.3426
 8821SOL     OW37921   2.712   2.165   8.489  0.1882 -0.2939 -0.5898
 8821SOL    HW137922   2.718   2.194   8.580  0.0469  0.5271 -0.8433
 8821SOL    HW237923   2.783   2.101   8.487 -0.3294 -0.8887 -0.2050
 8822SOL     OW37924   0.418   3.989   5.811 -0.2577 -1.0103 -0.1525
 8822SOL    HW137925   0.420   4.060   5.875 -0.4029 -1.1496  0.0046
 8822SOL    HW237926   0.511   3.975   5.793 -0.4463 -0.4869 -1.5190
 8823SOL     OW37927   1.711   2.286  11.628  0.0705 -0.1466  0.3505
 8823SOL    HW137928   1.632   2.275  11.683 -0.4415  0.4956 -0.2592
 8823SOL    HW237929   1.786   2.267  11.684  0.7634 -1.6242 -1.1109
 8824SOL     OW37930   1.527   1.429  16.566 -0.7913  0.0861  0.1348
 8824SOL    HW137931   1.514   1.519  16.534  0.7268 -0.3727 -1.7789
 8824SOL    HW237932   1.538   1.446  16.659 -1.9552 -0.7774  0.4218
 8825SOL     OW37933   1.807   0.413   4.083 -0.1175  0.6186 -0.6240
 8825SOL    HW137934   1.854   0.434   4.164  0.8041  1.2273 -1.3096
 8825SOL    HW237935   1.789   0.496   4.039 -2.1117  0.8563  0.6586
 8826SOL     OW37936   1.920   1.158   7.666  0.1066 -0.6468  0.7510
 8826SOL    HW137937   1.995   1.215   7.683 -0.3951  0.2553 -0.1301
 8826SOL    HW237938   1.946   1.072   7.700  1.8618 -0.2242  0.4927
 8827SOL     OW37939   1.379   3.218   9.190 -0.3503  0.3363  0.4266
 8827SOL    HW137940   1.318   3.253   9.125  1.1917 -1.4452 -1.9600
 8827SOL    HW237941   1.383   3.280   9.264 -2.4797  1.2137 -0.1961
 8828SOL     OW37942   0.594   3.854   4.120  0.4868  0.5143 -0.1308
 8828SOL    HW137943   0.608   3.944   4.148  1.4737  0.3552 -0.0808
 8828SOL    HW237944   0.671   3.818   4.165 -0.3089  0.1496  0.9389
 8829SOL     OW37945   1.777   4.266   3.890 -0.4926 -0.2939  0.3211
 8829SOL    HW137946   1.712   4.317   3.842  0.1922  0.2173 -0.0601
 8829SOL    HW237947   1.730   4.206   3.947 -0.0516 -1.1466 -0.2152
 8830SOL     OW37948   1.729   0.140   2.614  0.0673 -0.0130  0.2914
 8830SOL    HW137949   1.823   0.156   2.616  0.0297  0.6728 -2.7334
 8830SOL    HW237950   1.723   0.052   2.652 -0.3581  0.0375  0.3458
 8831SOL     OW37951   0.420   4.586   6.173 -0.3908  0.7107  0.0037
 8831SOL    HW137952   0.339   4.540   6.150 -0.1884  1.4998 -2.2615
 8831SOL    HW237953   0.442   4.554   6.261 -1.3691 -2.1672 -0.8122
 8832SOL     OW37954   3.800   4.668   1.965 -0.5874 -0.5202 -0.3485
 8832SOL    HW137955   3.721   4.712   1.933 -0.9458 -0.7678  0.1887
 8832SOL    HW237956   3.867   4.683   1.898 -0.8379 -1.7131 -0.8604
 8833SOL     OW37957   2.066   0.068   7.921  0.0554 -0.6555  0.0371
 8833SOL    HW137958   2.044   0.004   7.989  0.6687 -0.8041  0.0888
 8833SOL    HW237959   2.019   0.036   7.844  0.2992 -0.0083 -0.3816
 8834SOL     OW37960   1.228   4.143  15.599  0.2709  0.6706 -0.3047
 8834SOL    HW137961   1.175   4.111  15.672  1.9033 -0.4987  0.3827
 8834SOL    HW237962   1.321   4.152  15.623  0.4040  1.8061 -1.2621
 8835SOL     OW37963   2.331   0.697   7.850  0.4297 -0.6038 -0.3714
 8835SOL    HW137964   2.356   0.782   7.885 -0.3621 -0.2441 -0.6794
 8835SOL    HW237965   2.315   0.646   7.930  0.7476  1.5259  1.0271
 8836SOL     OW37966   2.970   3.112   2.549  0.2461  0.0184  0.0632
 8836SOL    HW137967   2.875   3.116   2.558  0.0446 -0.7801 -1.5730
 8836SOL    HW237968   2.987   3.200   2.583 -0.4412  0.1262  0.1236
 8837SOL     OW37969   3.878   3.917   4.910 -0.6137 -0.4265 -0.4249
 8837SOL    HW137970   3.931   3.898   4.987  2.8168  0.0355 -2.6609
 8837SOL    HW237971   3.934   3.886   4.838  3.6166  0.5784  2.4263
 8838SOL     OW37972   1.494   3.263  11.258  0.0171  0.1737 -0.3685
 8838SOL    HW137973   1.540   3.342  11.229  1.0351  0.7095  2.6825
 8838SOL    HW237974   1.443   3.250  11.178 -0.2011 -1.3676  0.0223
 8839SOL     OW37975   3.686   2.179  14.560 -0.2455  0.1093  0.0875
 8839SOL    HW137976   3.728   2.096  14.581 -2.5419 -0.4836  2.4117
 8839SOL    HW237977   3.616   2.141  14.507 -0.6814  0.4286  0.4290
 8840SOL     OW37978   0.816   1.790   5.111 -0.2994  0.0114  0.2853
 8840SOL    HW137979   0.790   1.747   5.192 -2.1031 -1.8025 -1.2643
 8840SOL    HW237980   0.849   1.709   5.073 -0.1851 -0.3996  1.2599
 8841SOL     OW37981   2.246   1.393  15.688  0.0259  0.0791 -0.6168
 8841SOL    HW137982   2.248   1.386  15.592  2.8420  1.2109 -0.6236
 8841SOL    HW237983   2.271   1.303  15.709  2.3824  1.0185  0.5928
 8842SOL     OW37984   2.562   3.251  11.990 -0.1984  0.3920 -0.3892
 8842SOL    HW137985   2.535   3.175  11.938 -0.1474  0.4413 -0.4875
 8842SOL    HW237986   2.567   3.209  12.075 -0.6368  0.6703 -0.2244
 8843SOL     OW37987   0.773   4.340   3.860 -0.6566  0.1221 -0.1120
 8843SOL    HW137988   0.858   4.378   3.883 -1.3976  1.2902  0.6698
 8843SOL    HW237989   0.729   4.412   3.815 -0.8174 -0.0694 -0.2667
 8844SOL     OW37990   0.619   1.141  15.647 -0.4756  0.4051 -0.8617
 8844SOL    HW137991   0.629   1.199  15.722 -1.5179  0.4317 -0.7523
 8844SOL    HW237992   0.526   1.133  15.628 -0.7167  0.8333  0.1662
 8845SOL     OW37993   1.476   4.627  14.683  0.2601  0.6521  0.1697
 8845SOL    HW137994   1.439   4.557  14.629  0.7587  0.8686 -0.4588
 8845SOL    HW237995   1.559   4.651  14.642 -0.5505  1.0114 -1.2479
 8846SOL     OW37996   2.128   4.009   8.916 -0.0557 -0.0148  0.2934
 8846SOL    HW137997   2.098   4.052   8.996 -2.1602 -0.8535 -0.0631
 8846SOL    HW237998   2.136   3.919   8.945  1.0488 -0.5661 -1.6770
 8847SOL     OW37999   2.696   2.071  16.830 -0.5239  0.3188  0.0455
 8847SOL    HW138000   2.623   2.106  16.778  0.6015  2.5696 -0.0586
 8847SOL    HW238001   2.641   2.066  16.908 -1.5199  1.2573 -0.5896
 8848SOL     OW38002   1.460   1.977  12.919  0.1172 -0.0717  0.0435
 8848SOL    HW138003   1.500   1.944  13.000  0.2073  2.7409  1.1101
 8848SOL    HW238004   1.493   1.913  12.856 -0.8469 -0.7117  0.1812
 8849SOL     OW38005   1.440   3.505   8.106 -0.0617 -0.0111  0.4506
 8849SOL    HW138006   1.472   3.425   8.064  0.0582 -0.5131  1.4849
 8849SOL    HW238007   1.491   3.511   8.186  0.4886 -0.7968  0.1585
 8850SOL     OW38008   0.095   4.338   3.229 -0.1666  0.0706  0.3495
 8850SOL    HW138009   0.095   4.321   3.323 -0.2290  0.5243  0.4331
 8850SOL    HW238010   0.004   4.321   3.205  0.1976 -1.6183  0.1603
 8851SOL     OW38011   4.328   4.516  12.613 -0.1582 -0.0114  0.4937
 8851SOL    HW138012   4.246   4.492  12.657  0.2992  0.3295  1.5246
 8851SOL    HW238013   4.394   4.450  12.634  1.2104  1.1129 -0.2764
 8852SOL     OW38014   4.484   2.588   5.039  0.1866 -0.1986  0.0298
 8852SOL    HW138015   4.448   2.509   4.998 -0.6878 -0.7815  1.9158
 8852SOL    HW238016   4.567   2.549   5.067 -0.3246 -0.8708  0.6263
 8853SOL     OW38017   3.326   1.871   4.774 -0.8674 -0.5473  0.2509
 8853SOL    HW138018   3.409   1.834   4.806 -0.9436  0.5690  1.7572
 8853SOL    HW238019   3.308   1.797   4.716 -1.4537 -0.6589  0.5773
 8854SOL     OW38020   3.597   3.265   3.926 -0.7972  0.1612 -0.7800
 8854SOL    HW138021   3.638   3.321   3.860  0.1308 -1.4860 -1.6008
 8854SOL    HW238022   3.518   3.230   3.884 -1.5911 -0.3337  1.1149
 8855SOL     OW38023   1.628   1.541   5.423  0.2218  0.2620 -0.4038
 8855SOL    HW138024   1.660   1.467   5.373 -2.2530 -2.0918  1.4590
 8855SOL    HW238025   1.673   1.533   5.507 -1.2728  1.0129  0.4799
 8856SOL     OW38026   3.689   1.422   9.277  0.6383  0.4916 -0.0517
 8856SOL    HW138027   3.734   1.355   9.328 -0.5988  1.1251  1.8551
 8856SOL    HW238028   3.747   1.466   9.214 -0.5091  2.0721 -0.0134
 8857SOL     OW38029   0.909   2.498   4.499  0.5376  0.1285 -0.4528
 8857SOL    HW138030   0.958   2.420   4.472  1.1544  0.6115 -0.7019
 8857SOL    HW238031   0.944   2.563   4.439  1.2993 -1.1355 -1.3834
 8858SOL     OW38032   2.479   1.287  12.640 -0.2709 -0.0677 -0.4856
 8858SOL    HW138033   2.389   1.280  12.609  0.2256  0.1815 -1.9594
 8858SOL    HW238034   2.505   1.355  12.579  0.0986  0.8081  0.6477
 8859SOL     OW38035   0.668   0.255   3.672  0.0740 -0.4634 -0.2341
 8859SOL    HW138036   0.625   0.335   3.640  0.3877  0.0357  0.6038
 8859SOL    HW238037   0.757   0.290   3.674 -0.3769  0.8260 -2.0287
 8860SOL     OW38038   2.331   0.779  13.925  0.2563  0.0290  0.0678
 8860SOL    HW138039   2.262   0.722  13.959  0.0985  0.6772  0.8369
 8860SOL    HW238040   2.375   0.739  13.850  3.4538  0.0733  1.9370
 8861SOL     OW38041   2.965   2.826  12.500  0.2850  0.1419  0.3497
 8861SOL    HW138042   3.026   2.776  12.554 -0.0005 -0.8225 -0.2204
 8861SOL    HW238043   2.923   2.751  12.458  2.8733 -0.2856 -1.4594
 8862SOL     OW38044   1.648   2.718   4.610 -0.2441  0.2798  0.1653
 8862SOL    HW138045   1.608   2.731   4.524 -1.0542 -1.0700  0.3355
 8862SOL    HW238046   1.704   2.795   4.612 -1.5642  1.2096  1.3019
 8863SOL     OW38047   4.140   0.352   9.591 -0.0628 -0.4454  0.4191
 8863SOL    HW138048   4.054   0.323   9.560 -0.3413  2.1866 -1.3145
 8863SOL    HW238049   4.202   0.297   9.543  1.2042  2.2989 -1.1423
 8864SOL     OW38050   1.041   3.302  16.179  0.4723 -0.3845  0.1305
 8864SOL    HW138051   1.135   3.317  16.167  0.9026 -2.4236  0.9075
 8864SOL    HW238052   1.026   3.209  16.160 -0.5335 -0.8791  3.3243
 8865SOL     OW38053   3.889   1.003   9.354 -0.5899 -0.6551 -0.0128
 8865SOL    HW138054   3.881   0.945   9.430 -1.5803  0.4612  0.7450
 8865SOL    HW238055   3.984   1.015   9.354 -0.5215 -1.2595 -1.7478
 8866SOL     OW38056   3.105   3.055   3.133  0.2913  0.4158 -0.2400
 8866SOL    HW138057   3.017   3.042   3.097  0.3704  0.5870 -0.4941
 8866SOL    HW238058   3.125   2.969   3.170  0.5742 -0.6142 -2.7846
 8867SOL     OW38059   1.338   4.490   3.620 -0.0106  0.1423 -0.2347
 8867SOL    HW138060   1.313   4.398   3.633  0.9185 -0.2588 -1.2408
 8867SOL    HW238061   1.375   4.523   3.702  0.6417  0.4032 -0.6385
 8868SOL     OW38062   0.445   2.412  12.327  0.3393  0.2506  0.2697
 8868SOL    HW138063   0.496   2.361  12.389  0.0597 -0.7746 -0.3385
 8868SOL    HW238064   0.498   2.492  12.321 -0.5172  0.8570  0.6347
 8869SOL     OW38065   0.252   0.642   2.848 -0.1395 -0.6521 -0.4219
 8869SOL    HW138066   0.307   0.564   2.861 -1.4583 -1.4702  0.2257
 8869SOL    HW238067   0.278   0.689   2.768  2.7741 -0.4350  0.6463
 8870SOL     OW38068   0.825   3.851  14.696  0.5111 -0.3412 -0.0334
 8870SOL    HW138069   0.909   3.837  14.739  0.4806  1.7004  0.6952
 8870SOL    HW238070   0.794   3.925  14.747 -0.0831 -1.0697  0.6704
 8871SOL     OW38071   0.399   3.722   5.892 -0.0372 -0.1502  0.3787
 8871SOL    HW138072   0.415   3.814   5.868 -2.9248 -0.2446 -1.9015
 8871SOL    HW238073   0.482   3.680   5.868  0.0946  1.0024 -1.2394
 8872SOL     OW38074   3.444   1.578   9.243  0.0808 -0.3785  0.0173
 8872SOL    HW138075   3.503   1.513   9.280 -0.1699  0.4984  1.9895
 8872SOL    HW238076   3.404   1.614   9.323  1.4644  0.4079  0.3627
 8873SOL     OW38077   1.628   3.727   2.446  0.0108  0.0467  0.2823
 8873SOL    HW138078   1.636   3.632   2.459 -2.9639 -0.3308 -0.7429
 8873SOL    HW238079   1.711   3.756   2.407 -0.4031 -0.7206 -1.1688
 8874SOL     OW38080   3.645   3.654  15.233 -0.3483  0.1672  0.1044
 8874SOL    HW138081   3.553   3.677  15.243 -0.3806 -0.1438  0.5487
 8874SOL    HW238082   3.640   3.566  15.193  1.6052  0.2463 -0.3007
 8875SOL     OW38083   1.278   0.155  15.712  0.2273 -0.1164  0.0273
 8875SOL    HW138084   1.199   0.207  15.699  0.0730 -1.2670 -3.5709
 8875SOL    HW238085   1.249   0.077  15.664  2.6218 -1.0353  0.1137
 8876SOL     OW38086   1.751   2.238   8.698 -0.0502 -0.0965 -0.0119
 8876SOL    HW138087   1.754   2.150   8.736  1.5868  1.0992  2.6167
 8876SOL    HW238088   1.662   2.242   8.663 -0.3203  1.6597  0.8663
 8877SOL     OW38089   3.665   4.065   6.441 -0.7889 -0.7613  0.0651
 8877SOL    HW138090   3.709   3.984   6.468 -0.0571 -0.7824 -1.1973
 8877SOL    HW238091   3.653   4.050   6.347 -0.1779  2.7176 -0.5459
 8878SOL     OW38092   4.060   3.970   0.741 -0.3428 -0.2659 -0.3775
 8878SOL    HW138093   4.044   4.020   0.821 -2.2873 -1.6465  0.1113
 8878SOL    HW238094   4.153   3.976   0.719 -0.0194  1.0491  1.3548
 8879SOL     OW38095   1.667   4.439   3.452  0.2441 -0.2879  0.0226
 8879SOL    HW138096   1.698   4.528   3.463  0.7097 -0.6322  1.5019
 8879SOL    HW238097   1.640   4.424   3.543 -1.5631  0.0476 -0.4692
 8880SOL     OW38098   3.836   3.119   1.333 -0.2201 -0.6312 -0.0761
 8880SOL    HW138099   3.830   3.032   1.372 -1.8395  0.8147  2.8558
 8880SOL    HW238100   3.909   3.157   1.382 -0.0076 -0.2444 -0.6963
 8881SOL     OW38101   3.423   4.410   6.056 -0.1675 -0.2361 -0.3007
 8881SOL    HW138102   3.394   4.490   6.012  1.0899  1.7406  2.5148
 8881SOL    HW238103   3.459   4.361   5.982  4.1237  0.1507  1.5540
 8882SOL     OW38104   4.578   4.398   1.572  0.4332 -0.0992 -0.5121
 8882SOL    HW138105   4.519   4.408   1.497 -1.6372 -2.1685  0.8446
 8882SOL    HW238106   4.647   4.442   1.522  0.6965  0.0933  0.0266
 8883SOL     OW38107   2.019   1.028  12.231 -0.0403  0.1444 -0.6867
 8883SOL    HW138108   2.039   0.957  12.292 -0.8104  0.1409 -0.4362
 8883SOL    HW238109   2.017   1.102  12.291 -2.0356 -1.3605  1.0857
 8884SOL     OW38110   0.542   3.727   1.889 -0.5009 -0.1531  0.2775
 8884SOL    HW138111   0.464   3.749   1.939 -0.9901  2.3007 -1.6118
 8884SOL    HW238112   0.517   3.742   1.798  0.1088 -1.0661 -0.0532
 8885SOL     OW38113   0.499   1.213   7.925 -0.4601 -0.1920  0.3009
 8885SOL    HW138114   0.476   1.133   7.877  0.4297 -0.3717  0.1655
 8885SOL    HW238115   0.429   1.214   7.990  0.4676  1.6413  1.2846
 8886SOL     OW38116   4.243   3.083   9.134  0.2154 -0.4272 -0.1407
 8886SOL    HW138117   4.161   3.064   9.088  0.4676 -1.2099 -0.2784
 8886SOL    HW238118   4.201   3.113   9.215  0.2573  1.4538 -0.8213
 8887SOL     OW38119   1.747   2.203   1.796 -0.1279 -0.3415  0.2522
 8887SOL    HW138120   1.684   2.274   1.808 -0.7319 -1.2804  2.5825
 8887SOL    HW238121   1.773   2.219   1.705  1.2853 -0.3943  0.6426
 8888SOL     OW38122   1.306   1.362   3.597  0.7793 -0.2811 -0.1943
 8888SOL    HW138123   1.229   1.315   3.630 -0.2907  2.3391  1.0545
 8888SOL    HW238124   1.284   1.361   3.504 -0.1946 -0.1702  0.0291
 8889SOL     OW38125   3.307   3.476  16.293  0.2921  0.5316  0.0419
 8889SOL    HW138126   3.319   3.466  16.198  0.6016 -0.7860  0.2153
 8889SOL    HW238127   3.220   3.516  16.294  0.8949  1.8813 -1.0190
 8890SOL     OW38128   3.884   3.577  17.464  0.3134  0.3956 -0.4066
 8890SOL    HW138129   3.886   3.541  17.376  4.1007  1.1559 -0.6097
 8890SOL    HW238130   3.901   3.503  17.521  0.3118  0.1368 -0.7462
 8891SOL     OW38131   1.388   2.909  15.785 -0.5326  0.1778 -0.0633
 8891SOL    HW138132   1.436   2.975  15.735  0.0270  0.3256  0.6753
 8891SOL    HW238133   1.443   2.832  15.773  0.1775  0.5915  0.6042
 8892SOL     OW38134   2.244   1.708   3.691  0.1932  0.5673  0.0117
 8892SOL    HW138135   2.333   1.683   3.665  0.7313  2.1820  0.3086
 8892SOL    HW238136   2.256   1.781   3.752 -1.1422 -0.8350  1.9455
 8893SOL     OW38137   3.439   1.433   4.176 -1.1138 -0.0379 -0.1692
 8893SOL    HW138138   3.460   1.525   4.163 -1.3408 -0.0293 -0.4960
 8893SOL    HW238139   3.403   1.423   4.264  1.2048 -0.6679  0.6862
 8894SOL     OW38140   0.511   3.940   3.713 -0.1481 -0.1614  0.6122
 8894SOL    HW138141   0.477   3.944   3.802 -0.8727  1.8916  0.2226
 8894SOL    HW238142   0.522   4.031   3.686  1.1458 -0.4175  0.2697
 8895SOL     OW38143   3.303   0.763   9.580 -0.1624  0.1587 -0.6112
 8895SOL    HW138144   3.272   0.675   9.555 -2.1233  0.7960 -0.4243
 8895SOL    HW238145   3.253   0.818   9.520 -2.2847 -1.4492 -0.3473
 8896SOL     OW38146   2.095   1.167  16.018  0.2574  0.6395 -0.3467
 8896SOL    HW138147   2.028   1.217  16.065 -3.0728 -0.7862 -3.5852
 8896SOL    HW238148   2.052   1.159  15.933 -2.7172 -0.4092  1.2789
 8897SOL     OW38149   2.251   2.944   4.218 -0.3572  0.3821  0.5920
 8897SOL    HW138150   2.162   2.944   4.253  0.0623  0.6585  1.6522
 8897SOL    HW238151   2.260   3.025   4.167  1.9965 -0.3468 -0.1796
 8898SOL     OW38152   0.704   3.899   5.764 -0.6936 -0.8960  0.0552
 8898SOL    HW138153   0.788   3.873   5.728 -0.9931 -0.1178 -1.2198
 8898SOL    HW238154   0.685   3.814   5.802 -0.5685 -0.5748  0.8261
 8899SOL     OW38155   3.176   2.611   8.266  0.2214  0.5603  0.4167
 8899SOL    HW138156   3.250   2.661   8.233  0.5888  0.1645  0.6544
 8899SOL    HW238157   3.203   2.531   8.221 -3.8513 -0.7206  0.1746
 8900SOL     OW38158   1.561   0.292  17.473 -0.1626  0.0802  0.2036
 8900SOL    HW138159   1.571   0.267  17.381 -0.9452  1.0659 -0.1470
 8900SOL    HW238160   1.555   0.387  17.471 -1.8184 -0.0223 -0.2859
 8901SOL     OW38161   1.725   1.558  16.156  0.1568  0.1520  0.2197
 8901SOL    HW138162   1.762   1.641  16.126 -1.3592  1.1811  1.1593
 8901SOL    HW238163   1.752   1.566  16.247  0.5130 -2.0116  0.2834
 8902SOL     OW38164   0.738   0.675   7.932  0.2563 -0.0985  0.1857
 8902SOL    HW138165   0.779   0.672   8.019 -0.3677  0.2459  0.4933
 8902SOL    HW238166   0.703   0.764   7.936 -0.5305 -0.3416 -1.4604
 8903SOL     OW38167   1.754   2.178   5.994 -0.3502 -0.0433  0.4596
 8903SOL    HW138168   1.794   2.168   6.080 -2.0807  2.3018  1.5419
 8903SOL    HW238169   1.802   2.111   5.946 -1.1990 -0.8662  0.7634
 8904SOL     OW38170   0.840   1.620  14.131  0.0267  0.1244 -0.0339
 8904SOL    HW138171   0.828   1.685  14.062 -2.0203 -0.8667 -0.6164
 8904SOL    HW238172   0.763   1.565  14.113 -0.1257  0.3415 -0.0409
 8905SOL     OW38173   4.579   0.373   1.342  0.1294  0.0788 -0.2278
 8905SOL    HW138174   4.521   0.345   1.271 -0.2620 -0.1089  0.1634
 8905SOL    HW238175   4.528   0.454   1.349 -0.2186 -0.0728 -1.0293
 8906SOL     OW38176   3.433   1.182   9.120  0.2451  0.3597  0.4752
 8906SOL    HW138177   3.505   1.120   9.131 -1.0628 -1.5495 -1.9455
 8906SOL    HW238178   3.478   1.267   9.123  0.2160  0.3526  1.1846
 8907SOL     OW38179   4.200   2.174  13.446 -0.5319 -0.1106 -0.0960
 8907SOL    HW138180   4.142   2.107  13.483 -0.1740 -0.1063  0.4700
 8907SOL    HW238181   4.259   2.189  13.520 -0.5423  1.4697 -0.4024
 8908SOL     OW38182   0.615   0.661   2.698  0.4142  0.4164  0.6306
 8908SOL    HW138183   0.585   0.571   2.685 -0.5988  1.1420 -1.9928
 8908SOL    HW238184   0.696   0.642   2.746  1.1950  0.4720 -0.6519
 8909SOL     OW38185   2.795   1.426   8.099 -0.1313 -0.0945  0.0649
 8909SOL    HW138186   2.847   1.417   8.179 -0.8611 -1.1673  0.4187
 8909SOL    HW238187   2.823   1.513   8.071 -0.6470 -0.3684 -1.3001
 8910SOL     OW38188   1.702   1.909   8.210  0.0162  0.1477 -0.2326
 8910SOL    HW138189   1.772   1.937   8.151 -0.4856  0.0874 -0.8527
 8910SOL    HW238190   1.629   1.962   8.179  0.6360  0.9665 -0.2892
 8911SOL     OW38191   2.456   3.411   8.754 -0.2894  0.1497  0.0369
 8911SOL    HW138192   2.381   3.351   8.756 -1.0151  1.0864  1.0141
 8911SOL    HW238193   2.501   3.401   8.838  1.3669 -0.7667 -0.9584
 8912SOL     OW38194   3.811   0.133   6.810 -0.2408 -0.3342  0.1470
 8912SOL    HW138195   3.751   0.201   6.838  1.4845  1.4367 -0.4903
 8912SOL    HW238196   3.823   0.079   6.888 -0.1947  0.6416  0.8137
 8913SOL     OW38197   0.060   1.975   5.364 -0.1965 -0.4048 -0.3726
 8913SOL    HW138198   0.011   1.941   5.289 -1.5700 -1.4926  1.0414
 8913SOL    HW238199   0.134   2.012   5.316 -0.5501  2.0608  1.0349
 8914SOL     OW38200   4.050   3.613   5.547  0.3056 -0.7161  0.0638
 8914SOL    HW138201   4.097   3.655   5.475 -0.5670 -1.3308 -0.8651
 8914SOL    HW238202   4.094   3.530   5.564 -0.4892 -1.5179 -1.7239
 8915SOL     OW38203   2.037   0.272   2.018  0.3130  0.4490 -0.0294
 8915SOL    HW138204   1.986   0.207   2.066 -1.0284 -0.0812 -2.1409
 8915SOL    HW238205   2.054   0.334   2.089  1.2797  1.5456 -1.2189
 8916SOL     OW38206   2.173   1.696   8.716  0.2406 -0.0190  0.1237
 8916SOL    HW138207   2.082   1.707   8.744  0.6951  0.6334  1.3606
 8916SOL    HW238208   2.195   1.787   8.697 -0.1464  0.0158 -0.1520
 8917SOL     OW38209   1.939   0.783  14.659 -0.3953  0.3582 -0.4927
 8917SOL    HW138210   1.898   0.866  14.633  0.2151  0.8963  0.2751
 8917SOL    HW238211   2.026   0.797  14.623  0.3308 -0.5690  0.8952
 8918SOL     OW38212   2.206   1.524   0.795 -0.1276 -1.0041  0.4078
 8918SOL    HW138213   2.144   1.455   0.771 -0.8225 -0.3717  0.3446
 8918SOL    HW238214   2.146   1.581   0.844  0.4615 -0.2856  0.3003
 8919SOL     OW38215   2.506   1.580   5.465 -0.1853  0.3474  0.2978
 8919SOL    HW138216   2.446   1.654   5.464 -0.3593  0.2280  3.0201
 8919SOL    HW238217   2.560   1.596   5.542  1.7965  0.3901 -1.1241
 8920SOL     OW38218   4.393   3.923   3.122 -0.2008 -0.4604  0.1998
 8920SOL    HW138219   4.431   3.862   3.059  1.1542  0.9054 -0.2807
 8920SOL    HW238220   4.394   4.003   3.070 -0.5483  0.6591  1.9210
 8921SOL     OW38221   0.908   3.676   5.982  0.3017 -0.2976  0.0607
 8921SOL    HW138222   0.867   3.607   5.930  1.9363  0.6626 -2.4933
 8921SOL    HW238223   0.986   3.704   5.934 -0.0579  0.0803 -0.3030
 8922SOL     OW38224   2.776   2.684  15.333  0.8457  0.5036  0.4042
 8922SOL    HW138225   2.713   2.663  15.264  0.3805 -0.7316  1.2214
 8922SOL    HW238226   2.859   2.680  15.286  0.1823 -1.2404 -0.6042
 8923SOL     OW38227   2.522   1.466   5.178  0.1233  0.2833 -0.0879
 8923SOL    HW138228   2.480   1.453   5.262  0.4150 -1.4492 -0.2073
 8923SOL    HW238229   2.483   1.398   5.124  2.0701 -1.6485  0.9478
 8924SOL     OW38230   0.100   4.699   3.411 -0.2777 -0.3988  0.1249
 8924SOL    HW138231   0.025   0.031   3.381 -0.6311 -0.7322  0.4209
 8924SOL    HW238232   0.151   0.035   3.467  1.2659 -2.2576  0.5825
 8925SOL     OW38233   4.206   1.692  16.130 -0.0329 -0.2721 -0.1180
 8925SOL    HW138234   4.237   1.619  16.183  2.6673  1.3424  0.5487
 8925SOL    HW238235   4.221   1.658  16.042 -0.1709 -0.6524  0.0035
 8926SOL     OW38236   1.305   0.374   9.306  0.1188  0.0916 -0.0760
 8926SOL    HW138237   1.326   0.380   9.399 -1.9950 -0.7283  0.4473
 8926SOL    HW238238   1.300   0.280   9.288 -0.0027  0.1542 -0.3657
 8927SOL     OW38239   0.513   1.290  12.230  0.2392 -0.2078 -0.0482
 8927SOL    HW138240   0.514   1.365  12.291  1.8441 -3.8853  4.4661
 8927SOL    HW238241   0.510   1.214  12.289 -2.6939 -1.5593 -1.9791
 8928SOL     OW38242   2.598   3.788   3.700 -0.2984  0.5282 -0.3172
 8928SOL    HW138243   2.546   3.850   3.649 -1.2284  0.6448  0.7652
 8928SOL    HW238244   2.638   3.838   3.771  0.4358  0.4232 -0.6586
 8929SOL     OW38245   1.307   1.527  11.192  0.1405 -0.0442  0.0419
 8929SOL    HW138246   1.297   1.579  11.112  0.2550 -0.0328  0.0346
 8929SOL    HW238247   1.385   1.568  11.229  0.2678 -3.0467  3.0930
 8930SOL     OW38248   3.789   4.702  12.148 -0.1196 -0.7932  0.2890
 8930SOL    HW138249   3.735   0.052  12.112  1.5793  0.7412  0.7232
 8930SOL    HW238250   3.855   0.036  12.191  0.1520 -0.0329 -1.0852
 8931SOL     OW38251   2.633   0.828   5.868  0.2034  0.0548 -0.7207
 8931SOL    HW138252   2.636   0.777   5.787 -2.0882  0.8409 -1.3037
 8931SOL    HW238253   2.664   0.903   5.817 -1.0255  0.0818 -1.4280
 8932SOL     OW38254   4.468   1.543   8.528 -0.9587 -0.3509  0.5854
 8932SOL    HW138255   4.414   1.600   8.582  0.4186  1.8539 -0.3426
 8932SOL    HW238256   4.502   1.607   8.465  0.8345 -0.3025  1.6127
 8933SOL     OW38257   1.498   1.935  12.503  0.1053 -0.1766 -0.6144
 8933SOL    HW138258   1.584   1.976  12.495 -0.2996  0.7380 -0.3257
 8933SOL    HW238259   1.458   2.000  12.561  3.6173  2.1605 -0.7767
 8934SOL     OW38260   2.872   0.587   6.940 -0.3857 -0.2155 -0.1196
 8934SOL    HW138261   2.867   0.509   6.995  2.2716 -0.6353 -0.4503
 8934SOL    HW238262   2.950   0.635   6.970  1.6810 -0.4935 -5.0949
 8935SOL     OW38263   3.412   2.348  10.963 -0.4413  0.3154 -0.2790
 8935SOL    HW138264   3.344   2.383  11.021  0.0132  1.6621 -0.5611
 8935SOL    HW238265   3.448   2.435  10.945  1.0771  0.0075  1.2517
 8936SOL     OW38266   3.851   0.020   3.195  0.3425 -0.3720  0.5494
 8936SOL    HW138267   3.799   4.715   3.271  0.9116  0.2934  1.1692
 8936SOL    HW238268   3.792   0.025   3.120  0.9892 -1.7787 -0.0629
 8937SOL     OW38269   1.901   0.220   8.152  0.4931  0.0259 -0.3897
 8937SOL    HW138270   1.955   0.218   8.073 -0.0199  1.5647 -0.7892
 8937SOL    HW238271   1.908   0.128   8.179 -1.1080 -0.1241 -0.4884
 8938SOL     OW38272   2.299   0.377   3.505  0.1839 -0.1098 -0.3250
 8938SOL    HW138273   2.353   0.385   3.426  1.6367  0.2536  0.7068
 8938SOL    HW238274   2.244   0.455   3.507  0.2915 -0.0225 -0.7480
 8939SOL     OW38275   3.630   1.579   0.665  0.5141  0.0755  0.2950
 8939SOL    HW138276   3.619   1.668   0.634 -0.2105 -0.6772 -1.5782
 8939SOL    HW238277   3.596   1.541   0.584 -0.3019 -0.2216  0.7711
 8940SOL     OW38278   1.274   4.237   7.771  0.3432 -0.0985 -0.3021
 8940SOL    HW138279   1.260   4.320   7.817  0.3598 -0.0558 -0.3733
 8940SOL    HW238280   1.182   4.224   7.746 -0.3362  0.2385  2.0376
 8941SOL     OW38281   1.663   1.100  16.261 -0.6411 -0.4924  0.2423
 8941SOL    HW138282   1.696   1.134  16.344  0.0480  1.4091 -0.8133
 8941SOL    HW238283   1.642   1.176  16.207 -2.6685  0.6040  2.5505
 8942SOL     OW38284   1.167   4.587   3.150  0.2167 -0.0603  0.5100
 8942SOL    HW138285   1.073   4.601   3.161  0.4066 -0.0326  2.0827
 8942SOL    HW238286   1.184   4.546   3.235 -0.0004 -0.6668  0.2552
 8943SOL     OW38287   1.110   2.297   7.536 -0.3231  0.5178  0.0877
 8943SOL    HW138288   1.201   2.297   7.567 -0.0281  1.2280 -0.7845
 8943SOL    HW238289   1.073   2.233   7.597  1.0929  0.3933  0.8218
 8944SOL     OW38290   1.603   2.606  14.294  0.7077 -0.0609  0.0379
 8944SOL    HW138291   1.528   2.559  14.331  2.0169 -2.1894 -0.0514
 8944SOL    HW238292   1.627   2.555  14.217  2.6539 -0.8392  1.1734
 8945SOL     OW38293   0.495   2.520   2.342  0.0808 -0.0901  0.6592
 8945SOL    HW138294   0.415   2.542   2.390  0.2176  2.7541 -0.4119
 8945SOL    HW238295   0.555   2.552   2.409  1.9102 -1.5834 -0.2793
 8946SOL     OW38296   3.706   0.442   4.383 -0.2921 -0.2024 -0.6509
 8946SOL    HW138297   3.696   0.352   4.349 -1.7292  0.9281 -3.2065
 8946SOL    HW238298   3.634   0.445   4.445 -0.3533 -5.7266 -0.3752
 8947SOL     OW38299   0.863   0.818  12.733  0.1703 -0.0742 -0.0180
 8947SOL    HW138300   0.930   0.820  12.664 -1.2370 -0.7983 -1.4244
 8947SOL    HW238301   0.925   0.788  12.799  1.7117  0.2364 -1.3294
 8948SOL     OW38302   3.590   2.766   1.968  0.1126  0.2144 -0.5548
 8948SOL    HW138303   3.576   2.672   1.980  1.4224 -0.0015 -0.7153
 8948SOL    HW238304   3.624   2.794   2.053 -1.0919 -1.6765  0.5433
 8949SOL     OW38305   2.748   0.840   4.908 -0.2547 -0.0847 -0.2560
 8949SOL    HW138306   2.830   0.886   4.925  0.3357 -0.3135 -2.5308
 8949SOL    HW238307   2.767   0.785   4.833 -3.3435 -0.1672 -0.9676
 8950SOL     OW38308   1.850   2.737   1.938  0.0795  0.2225 -0.2880
 8950SOL    HW138309   1.934   2.738   1.984 -0.8147 -0.4213  1.3560
 8950SOL    HW238310   1.878   2.753   1.848 -3.0423  2.2836 -0.8766
 8951SOL     OW38311   2.961   1.435   7.085  0.1999 -0.1136 -0.6566
 8951SOL    HW138312   2.867   1.421   7.089  0.1581  0.3373  0.1021
 8951SOL    HW238313   2.990   1.441   7.177 -0.7847 -4.6941 -0.0836
 8952SOL     OW38314   3.088   2.399  12.581 -0.3988  0.1805 -0.0693
 8952SOL    HW138315   3.079   2.364  12.669 -1.5659  0.5457 -0.0428
 8952SOL    HW238316   3.010   2.367  12.537  0.3953  1.0954 -2.1332
 8953SOL     OW38317   0.455   3.922  10.649  0.1375 -0.8414 -0.1879
 8953SOL    HW138318   0.428   4.011  10.670  1.4682 -0.2430 -0.9323
 8953SOL    HW238319   0.490   3.892  10.733  0.1143 -0.1750  0.0559
 8954SOL     OW38320   1.581   3.637   4.473 -0.5514  0.0409 -0.5132
 8954SOL    HW138321   1.583   3.610   4.381  0.9125 -0.4178 -0.3442
 8954SOL    HW238322   1.633   3.567   4.512  3.2061  2.2927 -1.4561
 8955SOL     OW38323   3.324   1.957   3.900  0.4699  0.0389  1.1069
 8955SOL    HW138324   3.348   1.961   3.808 -1.3373  0.4215  0.6642
 8955SOL    HW238325   3.414   1.951   3.933  0.3139  0.5751  1.6422
 8956SOL     OW38326   3.899   1.532  13.314  0.6017 -0.3196 -0.0811
 8956SOL    HW138327   3.930   1.572  13.396  1.5564 -1.9908  0.3708
 8956SOL    HW238328   3.804   1.541  13.325  0.5124 -1.6435  0.2622
 8957SOL     OW38329   4.585   2.617   6.596  0.3697  0.1561  0.1577
 8957SOL    HW138330   4.519   2.667   6.644 -0.8224 -0.0762 -1.2480
 8957SOL    HW238331   4.648   2.631   6.666  0.9721  1.0165 -0.5584
 8958SOL     OW38332   2.955   3.505   7.631 -0.2094  0.1954 -0.2287
 8958SOL    HW138333   2.927   3.528   7.543  0.9752  0.1045 -0.6299
 8958SOL    HW238334   3.023   3.569   7.653  0.2261 -0.6095  0.7819
 8959SOL     OW38335   4.691   0.906  10.593  0.0423 -0.1866 -0.5169
 8959SOL    HW138336   0.043   0.844  10.582  0.2916  0.0450 -0.1616
 8959SOL    HW238337   4.681   0.895  10.688 -0.1061 -3.1302 -0.8710
 8960SOL     OW38338   1.530   2.723   4.354  0.0911 -0.0457  0.4759
 8960SOL    HW138339   1.479   2.775   4.292 -0.9757  0.2580  1.6082
 8960SOL    HW238340   1.594   2.684   4.294 -0.0085  0.4648  0.0422
 8961SOL     OW38341   3.716   4.428   7.633 -0.1967  0.5913  0.3127
 8961SOL    HW138342   3.685   4.507   7.677 -1.9603  1.4066 -2.3794
 8961SOL    HW238343   3.661   4.426   7.554 -1.3910  1.5836  1.1172
 8962SOL     OW38344   4.606   1.450   0.251  0.0343 -0.0739  0.1195
 8962SOL    HW138345   4.618   1.540   0.221 -0.1944  0.4579  1.6022
 8962SOL    HW238346   4.682   1.414   0.206  0.3301  0.7592 -0.0474
 8963SOL     OW38347   0.030   0.299  17.246 -0.0520 -0.1916 -0.4139
 8963SOL    HW138348   0.080   0.370  17.286 -0.6119 -0.4940  0.8247
 8963SOL    HW238349   0.077   0.293  17.163 -1.1761  0.0361 -1.0717
 8964SOL     OW38350   3.955   4.645  10.121 -0.1954  0.2611  0.3206
 8964SOL    HW138351   4.040   4.673  10.154 -0.7278  1.1459  0.9573
 8964SOL    HW238352   3.933   4.719  10.064 -0.2569  0.6675  0.8682
 8965SOL     OW38353   4.336   1.912  12.238  0.0798 -0.2304 -1.0620
 8965SOL    HW138354   4.387   1.875  12.310  0.5392  1.7860 -0.3296
 8965SOL    HW238355   4.264   1.850  12.243 -0.1944 -0.0217 -2.4833
 8966SOL     OW38356   3.874   3.366  12.658 -0.4182  0.0191 -0.1887
 8966SOL    HW138357   3.884   3.460  12.668 -0.7954  0.0776 -0.3605
 8966SOL    HW238358   3.948   3.339  12.713 -1.4059 -0.3030  0.9880
 8967SOL     OW38359   3.447   3.421   1.993  0.1992 -0.3002 -0.0432
 8967SOL    HW138360   3.471   3.366   1.919 -0.6370  2.1128 -2.1017
 8967SOL    HW238361   3.492   3.501   1.965 -0.2893  0.5801  1.6621
 8968SOL     OW38362   2.266   0.052   4.193  0.5340 -0.3583  0.4867
 8968SOL    HW138363   2.304   0.040   4.279 -1.8747  1.8575  1.8624
 8968SOL    HW238364   2.180   0.011   4.200  0.7620 -0.8843  0.1698
 8969SOL     OW38365   1.453   0.181   4.902 -0.2650 -0.1206 -0.3204
 8969SOL    HW138366   1.362   0.161   4.924  0.4566 -1.5236  1.3962
 8969SOL    HW238367   1.473   0.103   4.851 -0.1822 -2.0356  2.6330
 8970SOL     OW38368   0.355   4.205   6.259 -0.0857 -0.3852 -0.0155
 8970SOL    HW138369   0.332   4.113   6.249 -0.1854 -0.2878 -0.6941
 8970SOL    HW238370   0.414   4.205   6.333  2.2705 -1.5238 -1.8983
 8971SOL     OW38371   3.077   3.969  10.696 -0.3740 -0.3733 -1.0663
 8971SOL    HW138372   3.074   4.049  10.644  1.5045  0.0446 -0.5573
 8971SOL    HW238373   3.129   4.003  10.769 -0.1655 -0.0631 -1.3540
 8972SOL     OW38374   0.354   1.793   4.592  0.3551 -0.1153  0.1296
 8972SOL    HW138375   0.404   1.713   4.578  0.0231 -0.2932 -0.0419
 8972SOL    HW238376   0.406   1.859   4.547 -0.4207  0.3774 -0.0407
 8973SOL     OW38377   4.209   4.339   1.540  0.1715  0.0013  0.6901
 8973SOL    HW138378   4.227   4.432   1.557 -1.2006 -0.0078  2.1885
 8973SOL    HW238379   4.123   4.339   1.498 -0.5555 -0.4131  2.1652
 8974SOL     OW38380   0.442   2.880   8.704 -0.4231 -0.2712 -0.1539
 8974SOL    HW138381   0.417   2.972   8.696 -1.6968 -0.4623  1.6668
 8974SOL    HW238382   0.537   2.890   8.693 -0.3329  0.6567  1.3916
 8975SOL     OW38383   4.409   2.051   0.750  0.1281  0.2930 -0.4820
 8975SOL    HW138384   4.433   2.083   0.663  2.4507  1.1753  0.4741
 8975SOL    HW238385   4.414   2.136   0.794 -1.9391  0.3196 -0.2821
 8976SOL     OW38386   2.792   2.402   4.429 -0.2150  0.1801 -0.0268
 8976SOL    HW138387   2.833   2.459   4.494 -1.9644 -1.7267  2.7384
 8976SOL    HW238388   2.731   2.351   4.483 -1.8783  0.0445 -2.0791
 8977SOL     OW38389   0.598   0.880  16.622 -0.5088  0.3846 -0.0652
 8977SOL    HW138390   0.571   0.789  16.626  1.4360 -0.1540  0.9703
 8977SOL    HW238391   0.542   0.921  16.688  0.9710  1.8705  0.2899
 8978SOL     OW38392   1.303   2.456  11.415  0.1210  0.3080  0.0631
 8978SOL    HW138393   1.262   2.540  11.434 -1.5931 -0.6166  0.4886
 8978SOL    HW238394   1.385   2.489  11.381  0.9015 -0.7282  0.9179
 8979SOL     OW38395   2.504   4.562   8.388  0.3937  0.5373  0.4483
 8979SOL    HW138396   2.510   4.480   8.437 -0.9996  1.2720  1.8418
 8979SOL    HW238397   2.542   4.628   8.446  2.6236  0.4451 -0.9016
 8980SOL     OW38398   1.218   1.260   7.652 -0.0817 -0.1544  1.1376
 8980SOL    HW138399   1.266   1.204   7.591 -0.5011  1.2976 -0.5371
 8980SOL    HW238400   1.156   1.305   7.594 -0.0351 -1.7342 -0.1461
 8981SOL     OW38401   1.340   1.495   6.137  0.3928  0.1052 -0.8192
 8981SOL    HW138402   1.301   1.582   6.124  0.8733  0.9013  2.9647
 8981SOL    HW238403   1.334   1.493   6.233 -2.8390  2.3588 -0.9690
 8982SOL     OW38404   4.651   3.914  15.590 -0.3969 -0.6179 -0.1835
 8982SOL    HW138405   4.656   3.852  15.663 -1.1883 -1.8440 -1.1692
 8982SOL    HW238406   4.706   3.985  15.621 -0.4004 -2.2396  3.5326
 8983SOL     OW38407   3.986   4.121   9.147 -0.3948 -0.3923  0.6188
 8983SOL    HW138408   3.898   4.103   9.180 -0.4324  0.2265  0.8645
 8983SOL    HW238409   3.974   4.083   9.060  2.3372 -0.1878  0.1658
 8984SOL     OW38410   1.281   4.503   0.144 -0.2842  0.5039  0.5768
 8984SOL    HW138411   1.299   4.474   0.234  1.7908 -0.5135 -0.1495
 8984SOL    HW238412   1.370   4.534   0.129  0.4865 -2.0820 -0.1965
 8985SOL     OW38413   4.264   1.026   5.661 -0.0558 -0.1631  0.5036
 8985SOL    HW138414   4.183   1.065   5.628  1.5543  0.8316 -2.2529
 8985SOL    HW238415   4.322   1.102   5.666 -0.6041  0.1944  1.5192
 8986SOL     OW38416   0.476   2.973  15.029 -0.0333  0.0299 -0.0203
 8986SOL    HW138417   0.524   2.894  15.052  0.7919  0.8516  1.0690
 8986SOL    HW238418   0.429   2.994  15.110 -0.0921  0.0530 -0.0602
 8987SOL     OW38419   1.861   0.836   6.033 -0.3035  0.1830 -0.0226
 8987SOL    HW138420   1.791   0.771   6.036  1.9611 -2.3342 -1.5323
 8987SOL    HW238421   1.840   0.886   5.953 -0.1145  1.8259  0.9426
 8988SOL     OW38422   2.023   1.419  14.114 -0.0702 -0.9364  1.0808
 8988SOL    HW138423   1.953   1.395  14.054  2.3423  1.4356 -2.6667
 8988SOL    HW238424   2.021   1.339  14.167 -0.5408 -0.4038  1.8761
 8989SOL     OW38425   3.289   4.249   1.644 -0.3736  0.0133 -0.2537
 8989SOL    HW138426   3.309   4.204   1.561 -0.7092  0.0830 -0.3725
 8989SOL    HW238427   3.362   4.311   1.647  0.8464 -1.4874  0.8326
 8990SOL     OW38428   1.153   0.722  16.381  0.2666 -0.0651  0.2318
 8990SOL    HW138429   1.182   0.739  16.291 -0.1198 -0.4761  0.0341
 8990SOL    HW238430   1.208   0.790  16.422  0.7588 -0.2002 -0.1969
 8991SOL     OW38431   3.933   0.388   3.931  0.0734  0.5672  0.1187
 8991SOL    HW138432   4.027   0.391   3.912  0.4329 -1.7851  1.4587
 8991SOL    HW238433   3.900   0.452   3.868 -0.6168  0.2485  0.1540
 8992SOL     OW38434   3.543   2.991   3.699  0.0611 -0.2073 -0.1110
 8992SOL    HW138435   3.604   2.918   3.703 -0.9471 -1.0040  0.7845
 8992SOL    HW238436   3.598   3.068   3.685 -1.1899  0.9991  1.5545
 8993SOL     OW38437   2.691   2.243   8.758 -0.8605 -0.0274 -0.7547
 8993SOL    HW138438   2.741   2.180   8.810 -3.5401 -2.4777 -1.1241
 8993SOL    HW238439   2.747   2.320   8.767 -1.7771  0.5394 -0.0936
 8994SOL     OW38440   3.268   4.488   8.145 -0.6293 -0.0444 -0.3376
 8994SOL    HW138441   3.191   4.453   8.189  0.4990  0.3275  1.9178
 8994SOL    HW238442   3.261   4.453   8.056 -2.4274  0.3359 -0.3370
 8995SOL     OW38443   0.508   1.751   3.634  0.2116  0.5378 -0.7802
 8995SOL    HW138444   0.442   1.815   3.659  1.6089  1.9935 -0.8319
 8995SOL    HW238445   0.552   1.801   3.566 -1.2465  0.4037 -1.8160
 8996SOL     OW38446   0.801   0.300   6.617 -0.4035 -0.0381  0.1516
 8996SOL    HW138447   0.820   0.304   6.523 -0.4698 -2.2254  0.0444
 8996SOL    HW238448   0.728   0.361   6.626 -0.5953 -0.6634  2.6884
 8997SOL     OW38449   3.718   2.144   2.006 -0.6070 -0.0579 -0.0936
 8997SOL    HW138450   3.660   2.073   1.979  2.0459 -1.7556 -1.3757
 8997SOL    HW238451   3.714   2.192   1.924  0.4070  1.2965  0.6481
 8998SOL     OW38452   0.165   4.418   8.876  0.1811  0.2148 -0.2947
 8998SOL    HW138453   0.131   4.499   8.913 -0.7417  0.2573 -1.2476
 8998SOL    HW238454   0.132   4.357   8.943  0.8948 -0.2587 -0.3705
 8999SOL     OW38455   0.194   1.096  16.269  0.2277  0.7614  0.0531
 8999SOL    HW138456   0.158   1.018  16.225 -1.7300  0.8965  1.4362
 8999SOL    HW238457   0.119   1.150  16.293 -0.9680 -1.0512  0.3833
 9000SOL     OW38458   3.959   1.785   6.242 -0.0401 -0.5935  0.4221
 9000SOL    HW138459   3.901   1.720   6.203 -0.2372  0.2481 -0.6744
 9000SOL    HW238460   4.027   1.772   6.176 -0.5160 -1.8360  0.1680
 9001SOL     OW38461   3.190   1.834   3.479  0.0172 -0.1187 -0.7425
 9001SOL    HW138462   3.262   1.818   3.541 -3.0448  0.5237  2.9511
 9001SOL    HW238463   3.208   1.752   3.433 -1.3373 -1.1295  0.5407
 9002SOL     OW38464   3.140   1.585   9.733 -0.1963 -0.1442  0.1224
 9002SOL    HW138465   3.135   1.533   9.813 -0.7691  2.0975  1.5188
 9002SOL    HW238466   3.050   1.615   9.718  0.1979  0.6694 -0.6433
 9003SOL     OW38467   1.630   4.107   3.327  0.1859 -0.1119  0.0475
 9003SOL    HW138468   1.593   4.147   3.249  2.3008  0.0152 -0.9025
 9003SOL    HW238469   1.680   4.185   3.354 -0.4353  0.0697  0.6593
 9004SOL     OW38470   0.749   1.878   1.699 -0.4228  0.0472 -0.1084
 9004SOL    HW138471   0.664   1.853   1.735 -0.4404  0.5004  0.1656
 9004SOL    HW238472   0.722   1.947   1.637  0.4406 -0.6004 -1.2056
 9005SOL     OW38473   1.041   2.372   4.057  0.1517 -0.2235  0.9322
 9005SOL    HW138474   0.988   2.375   3.977  2.1423 -0.7967 -0.4148
 9005SOL    HW238475   0.974   2.394   4.122 -0.8203  1.4596 -0.6381
 9006SOL     OW38476   1.564   3.287   8.938  0.6367 -0.4193  0.0386
 9006SOL    HW138477   1.533   3.375   8.958 -0.2232 -0.8536  0.6124
 9006SOL    HW238478   1.657   3.308   8.923  0.1745  1.7794  0.2954
 9007SOL     OW38479   4.397   3.527   3.891  0.2237  0.2990  0.3721
 9007SOL    HW138480   4.302   3.520   3.901 -0.3213  3.1504 -2.9139
 9007SOL    HW238481   4.414   3.593   3.958  1.2141 -1.5356  1.9347
 9008SOL     OW38482   2.368   1.663   3.221 -0.0205  0.0687  0.4141
 9008SOL    HW138483   2.301   1.724   3.252 -1.2199 -0.3499 -1.3698
 9008SOL    HW238484   2.417   1.727   3.168  0.8027 -0.7742  0.1675
 9009SOL     OW38485   2.592   3.533  14.756 -0.4959  0.7346  0.0045
 9009SOL    HW138486   2.537   3.593  14.707 -2.0615 -0.0561  0.7967
 9009SOL    HW238487   2.539   3.454  14.758  0.4334  0.1432  1.5370
 9010SOL     OW38488   0.590   0.296   1.598  0.3959  0.3712 -0.3862
 9010SOL    HW138489   0.623   0.264   1.682  1.4791  0.6496 -0.7159
 9010SOL    HW238490   0.498   0.269   1.604  0.2117  0.4987 -2.4614
 9011SOL     OW38491   2.869   1.437   8.946  0.1110  0.1051  0.0531
 9011SOL    HW138492   2.787   1.426   8.994 -0.2398  0.8214 -0.3820
 9011SOL    HW238493   2.925   1.437   9.024 -0.8974 -1.3862  0.7625
 9012SOL     OW38494   0.379   1.910   5.371  0.1348 -0.1819  0.7228
 9012SOL    HW138495   0.439   1.977   5.338 -1.0328  0.7636  0.5445
 9012SOL    HW238496   0.381   1.845   5.301  2.2847  0.3152  0.3263
 9013SOL     OW38497   4.510   4.241   8.267 -0.3096 -0.2929  0.6154
 9013SOL    HW138498   4.505   4.178   8.339 -0.7632 -0.1106  0.7391
 9013SOL    HW238499   4.598   4.269   8.291 -0.4986  1.9873 -1.3515
 9014SOL     OW38500   0.295   0.946  16.661 -0.3948 -0.1569  0.5869
 9014SOL    HW138501   0.250   0.943  16.746 -0.8703 -0.4201  0.3273
 9014SOL    HW238502   0.354   1.019  16.679 -0.4887  0.3833 -1.3801
 9015SOL     OW38503   3.059   2.751   6.424  0.2619  0.2912 -0.1919
 9015SOL    HW138504   3.106   2.822   6.466  1.3131 -1.1750  1.1148
 9015SOL    HW238505   3.016   2.725   6.505  2.5067 -2.8432 -0.0067
 9016SOL     OW38506   1.475   3.171   6.966 -0.0429  0.0597 -0.3074
 9016SOL    HW138507   1.426   3.103   6.920 -1.2623  1.2455 -0.7763
 9016SOL    HW238508   1.560   3.132   6.983  1.6452  2.5598 -3.1338
 9017SOL     OW38509   1.953   1.349   6.556  0.3261 -0.6245 -0.8959
 9017SOL    HW138510   1.907   1.422   6.597 -0.4010 -0.8819 -1.2393
 9017SOL    HW238511   1.887   1.280   6.570 -1.3746  1.4395  1.0872
 9018SOL     OW38512   2.421   2.067   5.211  0.1556  0.5443 -0.0123
 9018SOL    HW138513   2.464   2.152   5.205  0.0491  0.6057  0.1015
 9018SOL    HW238514   2.452   2.039   5.297  0.5437  0.3224 -0.2211
 9019SOL     OW38515   0.904   3.534   7.434 -0.4010  0.5006  0.1141
 9019SOL    HW138516   0.922   3.489   7.516 -0.5933  1.3472  0.6186
 9019SOL    HW238517   0.901   3.453   7.383  1.0319 -0.9375  2.3229
 9020SOL     OW38518   3.143   3.699  10.671 -0.1342 -0.8105  0.4453
 9020SOL    HW138519   3.096   3.765  10.721  0.2619  0.6366 -1.1143
 9020SOL    HW238520   3.196   3.655  10.738 -1.0212 -0.2330  1.5263
 9021SOL     OW38521   3.341   4.606   5.869 -0.0047  0.0523  0.4050
 9021SOL    HW138522   3.331   4.656   5.789  0.1387 -0.5163  0.0316
 9021SOL    HW238523   3.255   4.565   5.880 -0.2453  0.1878 -0.9930
 9022SOL     OW38524   2.919   1.837   8.583 -0.0195  0.5347 -0.0371
 9022SOL    HW138525   2.979   1.911   8.570  0.1427  0.0769 -1.8819
 9022SOL    HW238526   2.956   1.783   8.652 -0.3395 -0.5547 -0.7254
 9023SOL     OW38527   0.139   0.415  12.105  0.4334 -0.0695 -0.0416
 9023SOL    HW138528   0.134   0.334  12.056 -0.9523  0.8894 -1.4706
 9023SOL    HW238529   0.222   0.452  12.074  0.4373  0.9327  1.1503
 9024SOL     OW38530   0.792   0.256   8.364 -0.4169 -0.6632 -0.1265
 9024SOL    HW138531   0.717   0.302   8.326 -1.5568 -2.3168  0.1185
 9024SOL    HW238532   0.845   0.221   8.293 -2.3868  0.8296 -2.3327
 9025SOL     OW38533   3.984   1.218  17.048  0.1903  0.4761  0.0141
 9025SOL    HW138534   3.949   1.186  17.131 -1.7674  1.7639 -0.3245
 9025SOL    HW238535   3.948   1.305  17.037  1.0315  0.7598 -0.5189
 9026SOL     OW38536   2.134   1.898  16.788  0.3658 -0.3445 -0.7270
 9026SOL    HW138537   2.184   1.836  16.735  4.2746  1.5823  0.7120
 9026SOL    HW238538   2.083   1.943  16.721  0.3031 -0.6462 -0.8814
 9027SOL     OW38539   3.666   2.126  14.106  0.4096  0.4319 -0.2266
 9027SOL    HW138540   3.726   2.071  14.157 -1.4994  0.0543  1.6096
 9027SOL    HW238541   3.612   2.155  14.180 -0.3997  0.7095 -0.9283
 9028SOL     OW38542   4.292   1.087   3.536  0.0857 -0.3549  0.4531
 9028SOL    HW138543   4.327   1.157   3.482  1.4453 -1.1119  0.3581
 9028SOL    HW238544   4.215   1.063   3.483  0.4000 -1.2096  0.3787
 9029SOL     OW38545   1.960   3.801   6.161  0.6959 -0.1264  0.6322
 9029SOL    HW138546   2.042   3.794   6.210  1.5589  1.8650 -0.5340
 9029SOL    HW238547   1.909   3.744   6.219  0.7632 -1.1835 -0.3517
 9030SOL     OW38548   1.772   2.623   6.896 -0.0957 -0.0062  0.1021
 9030SOL    HW138549   1.707   2.685   6.929 -0.2519 -1.4296  2.5142
 9030SOL    HW238550   1.844   2.632   6.959 -0.9123 -1.6334  1.2720
 9031SOL     OW38551   0.224   3.093  13.603 -0.7057 -0.3747 -0.3262
 9031SOL    HW138552   0.289   3.151  13.642 -1.5218  1.1529 -1.2371
 9031SOL    HW238553   0.149   3.115  13.659 -1.0631 -1.6076 -0.3243
 9032SOL     OW38554   0.870   0.407  12.511  0.3727  0.3936 -0.3338
 9032SOL    HW138555   0.815   0.440  12.582  0.5185 -1.3782  0.6194
 9032SOL    HW238556   0.806   0.351  12.468  2.3694 -2.2606  0.1495
 9033SOL     OW38557   2.184   3.980  11.591  0.0308 -0.4695 -0.3805
 9033SOL    HW138558   2.123   4.039  11.548 -0.6393 -1.1396 -0.3340
 9033SOL    HW238559   2.260   4.038  11.598 -0.6125  0.4973 -1.3815
 9034SOL     OW38560   3.456   3.188   8.597  0.3346 -0.2319  0.1001
 9034SOL    HW138561   3.531   3.130   8.608 -0.4253 -1.1509  0.4619
 9034SOL    HW238562   3.503   3.271   8.593  1.4368 -0.7278  2.3888
 9035SOL     OW38563   3.515   3.306   8.887  0.2466  0.6577  0.2495
 9035SOL    HW138564   3.595   3.266   8.921  0.5638  2.5977  1.7798
 9035SOL    HW238565   3.544   3.349   8.807 -1.8248 -1.1774 -1.4982
 9036SOL     OW38566   0.779   3.067   6.451 -0.1173  0.1326 -0.1394
 9036SOL    HW138567   0.846   3.026   6.506 -0.5392  0.1635  0.4027
 9036SOL    HW238568   0.709   3.088   6.512  0.8037 -3.1297  2.0317
 9037SOL     OW38569   2.132   4.613   2.059  0.1034 -0.0377 -0.1913
 9037SOL    HW138570   2.064   4.680   2.052  0.1972  0.2900  2.0111
 9037SOL    HW238571   2.200   4.648   2.002 -0.7822 -0.9372 -1.8034
 9038SOL     OW38572   3.167   0.714   8.682 -0.0285 -0.5878 -0.1120
 9038SOL    HW138573   3.082   0.680   8.658  0.1749 -1.7446  0.7966
 9038SOL    HW238574   3.177   0.700   8.777  1.3757  1.9489  0.1164
 9039SOL     OW38575   2.935   3.910   7.697 -0.5353  0.3173 -0.6755
 9039SOL    HW138576   2.878   3.911   7.620 -1.6251 -0.3300  0.1217
 9039SOL    HW238577   2.970   3.999   7.693 -1.1325  0.5767 -0.2248
 9040SOL     OW38578   3.385   0.176   4.220  0.1624 -0.9332 -0.3803
 9040SOL    HW138579   3.383   0.085   4.189  1.0275 -0.2936 -2.3138
 9040SOL    HW238580   3.479   0.185   4.235  0.3047 -2.2216 -0.4410
 9041SOL     OW38581   2.145   2.832   9.581 -0.5103  0.1762  0.0996
 9041SOL    HW138582   2.091   2.853   9.505 -0.4411  0.1641  0.0471
 9041SOL    HW238583   2.114   2.743   9.600  2.3798 -0.5997  1.2146
 9042SOL     OW38584   2.974   4.248  13.296 -0.4776  0.7309  0.5242
 9042SOL    HW138585   2.902   4.310  13.307 -2.0987 -1.1219  0.2832
 9042SOL    HW238586   3.054   4.279  13.339  1.7985 -0.6918 -2.6602
 9043SOL     OW38587   3.204   4.622  12.708 -0.3173 -0.0225  0.1705
 9043SOL    HW138588   3.215   4.528  12.726 -0.3059 -0.1787 -0.6109
 9043SOL    HW238589   3.169   4.649  12.792 -2.7663 -0.6865 -0.6321
 9044SOL     OW38590   2.267   2.299  16.268 -0.3868 -0.9462  0.2243
 9044SOL    HW138591   2.219   2.225  16.304 -1.5654  0.2383  1.0865
 9044SOL    HW238592   2.358   2.270  16.277  0.5770  2.1929  0.8297
 9045SOL     OW38593   1.767   0.547   6.289 -0.1819  0.0602  0.3285
 9045SOL    HW138594   1.798   0.457   6.287  1.6868  0.7089 -1.0764
 9045SOL    HW238595   1.733   0.565   6.201 -0.2329  1.3911  0.6151
 9046SOL     OW38596   1.642   2.817   0.373  0.3109 -0.5686  0.2551
 9046SOL    HW138597   1.738   2.819   0.374  0.3507 -1.2621 -1.5469
 9046SOL    HW238598   1.628   2.730   0.335  0.5380 -1.0148  1.1857
 9047SOL     OW38599   1.706   4.563   1.176  0.3635 -0.2616  0.2864
 9047SOL    HW138600   1.635   4.556   1.113  0.5670 -1.4230  0.1799
 9047SOL    HW238601   1.682   4.497   1.242  1.0355  0.4023  1.1972
 9048SOL     OW38602   1.430   2.891  13.279  0.2373  0.1451 -0.1515
 9048SOL    HW138603   1.426   2.816  13.219 -0.0758  0.2796 -0.3015
 9048SOL    HW238604   1.524   2.902  13.291  0.1646 -0.4147  0.9370
 9049SOL     OW38605   3.661   1.794   8.350 -0.6792  0.3203 -0.0501
 9049SOL    HW138606   3.684   1.724   8.412  1.0047  0.9067  0.0014
 9049SOL    HW238607   3.569   1.778   8.329 -0.4675  0.1646 -0.8475
 9050SOL     OW38608   2.850   3.909   1.339 -0.3125  0.0288 -0.0126
 9050SOL    HW138609   2.928   3.855   1.350 -0.1707  0.2529  0.0902
 9050SOL    HW238610   2.826   3.897   1.431  1.1473  1.4165  0.5626
 9051SOL     OW38611   2.412   3.359   8.459 -0.1743 -0.3643 -0.2154
 9051SOL    HW138612   2.376   3.330   8.542  0.7916  0.3829  0.4653
 9051SOL    HW238613   2.502   3.380   8.483  0.2874 -1.9727 -0.5102
 9052SOL     OW38614   3.559   1.701  11.117  0.1728  0.0343 -0.0376
 9052SOL    HW138615   3.475   1.701  11.162 -0.0631  0.8552 -0.4757
 9052SOL    HW238616   3.583   1.792  11.103  1.0653 -0.2673 -0.4589
 9053SOL     OW38617   3.842   0.635   3.124 -0.1801 -0.1936 -0.5947
 9053SOL    HW138618   3.768   0.642   3.064  0.3310  1.3316 -1.0662
 9053SOL    HW238619   3.902   0.664   3.054  1.5808 -2.2443  0.0932
 9054SOL     OW38620   2.048   3.096  10.307  0.6197 -0.5906  0.1138
 9054SOL    HW138621   1.958   3.067  10.296  0.5592 -0.0006 -0.9018
 9054SOL    HW238622   2.079   3.026  10.365 -0.3667  1.5056  3.1891
 9055SOL     OW38623   2.038   0.979  13.931  0.3634 -0.3396 -0.6242
 9055SOL    HW138624   1.974   1.047  13.951  1.2771 -0.1261  1.5392
 9055SOL    HW238625   2.116   1.033  13.933 -0.2515  0.6031 -1.7956
 9056SOL     OW38626   3.437   3.566   7.319 -0.2561 -0.2839  0.1902
 9056SOL    HW138627   3.468   3.627   7.386 -1.7074  1.0350 -0.3306
 9056SOL    HW238628   3.343   3.565   7.338 -0.4981 -0.1188 -0.9787
 9057SOL     OW38629   0.488   2.559  16.480 -0.0966 -0.5949 -0.0604
 9057SOL    HW138630   0.467   2.494  16.547  0.4383  1.4492  2.0966
 9057SOL    HW238631   0.576   2.577  16.513  0.2967 -1.2420 -0.7654
 9058SOL     OW38632   0.805   1.158  17.212 -0.0287  0.7322  0.2217
 9058SOL    HW138633   0.891   1.149  17.170  0.6582  2.8803  1.1638
 9058SOL    HW238634   0.833   1.145  17.303  2.2017 -1.7184 -0.7973
 9059SOL     OW38635   4.413   1.726   6.579 -0.5135  0.2551  0.0225
 9059SOL    HW138636   4.336   1.776   6.605 -1.1480 -0.4207 -0.5540
 9059SOL    HW238637   4.437   1.791   6.513  1.8848  0.5144  1.1315
 9060SOL     OW38638   1.750   2.505   3.037  0.0025 -0.6006  1.0417
 9060SOL    HW138639   1.833   2.507   3.084  1.2561  3.6036 -1.3010
 9060SOL    HW238640   1.786   2.532   2.953  0.0473  3.8642  2.5091
 9061SOL     OW38641   3.062   2.837   8.985  0.3682  0.1312  0.1626
 9061SOL    HW138642   2.968   2.841   9.003 -0.0293 -0.9806 -1.6729
 9061SOL    HW238643   3.069   2.767   8.920 -0.7595  1.7874 -1.7273
 9062SOL     OW38644   0.519   2.283   1.434 -0.3300  0.0754  0.4216
 9062SOL    HW138645   0.482   2.266   1.347 -0.6617 -0.3963  0.6535
 9062SOL    HW238646   0.445   2.315   1.485 -0.1435 -1.1439  1.4488
 9063SOL     OW38647   1.122   3.398   4.305  0.1740  0.6021  0.3828
 9063SOL    HW138648   1.184   3.471   4.298  0.9743 -0.3267 -2.1965
 9063SOL    HW238649   1.040   3.444   4.318 -1.3640 -1.8915 -0.5301
 9064SOL     OW38650   0.219   3.703   7.769  0.1602 -0.4285  0.4168
 9064SOL    HW138651   0.201   3.718   7.862  1.8146  2.3934  0.2870
 9064SOL    HW238652   0.295   3.761   7.759  0.4165 -0.6579  1.0158
 9065SOL     OW38653   4.036   0.990   8.714 -0.1444  0.3575  1.3828
 9065SOL    HW138654   3.941   0.989   8.722 -0.2599 -2.4939 -0.4949
 9065SOL    HW238655   4.064   0.914   8.765  1.4676  0.2901  0.4131
 9066SOL     OW38656   1.915   2.831   5.204 -0.2801  0.5779 -0.1470
 9066SOL    HW138657   1.950   2.748   5.172 -0.1527  0.2239  0.9007
 9066SOL    HW238658   1.884   2.866   5.121  0.1443 -1.6558 -1.2334
 9067SOL     OW38659   3.843   2.315   5.206  0.0122  0.2789 -0.2305
 9067SOL    HW138660   3.855   2.231   5.162  0.8984 -0.0429  0.6357
 9067SOL    HW238661   3.749   2.333   5.199 -0.0000  0.1307 -0.4637
 9068SOL     OW38662   0.402   4.301  17.592 -0.5417 -0.2629  0.4258
 9068SOL    HW138663   0.379   4.385  17.551  0.2266 -0.8790 -1.2939
 9068SOL    HW238664   0.340   4.241  17.549 -0.7046 -1.3645  2.2250
 9069SOL     OW38665   2.480   2.068   0.891  0.1101 -0.1052 -0.0088
 9069SOL    HW138666   2.482   2.013   0.969  2.7045 -1.2506 -0.9105
 9069SOL    HW238667   2.397   2.042   0.851 -0.6525  2.7118 -0.2949
 9070SOL     OW38668   3.955   0.404   8.499 -0.0210  0.0248 -0.1883
 9070SOL    HW138669   3.968   0.481   8.553 -3.5256 -0.2746  1.1040
 9070SOL    HW238670   4.043   0.400   8.460  0.5722  0.8452  1.0978
 9071SOL     OW38671   1.506   3.191   8.454  0.3649 -0.2333 -0.0148
 9071SOL    HW138672   1.559   3.112   8.443 -0.3114 -0.5420 -1.0144
 9071SOL    HW238673   1.485   3.177   8.546  0.5934  1.2169  0.2704
 9072SOL     OW38674   4.373   1.774  16.609  0.7635  0.7161  0.3809
 9072SOL    HW138675   4.419   1.793  16.690 -0.6531 -2.4950  1.9043
 9072SOL    HW238676   4.357   1.862  16.575  0.7120  0.3773 -0.4818
 9073SOL     OW38677   3.314   3.484  16.020  0.0802 -0.2268 -0.3345
 9073SOL    HW138678   3.359   3.403  15.997  0.7691 -0.5533  2.1101
 9073SOL    HW238679   3.245   3.505  15.956 -1.1057 -0.1867  0.9438
 9074SOL     OW38680   3.426   3.024   5.007 -0.5202  0.2813  0.8925
 9074SOL    HW138681   3.488   2.979   4.950 -1.2406 -1.9099  1.8431
 9074SOL    HW238682   3.370   3.065   4.941 -2.4976 -2.0306  1.1392
 9075SOL     OW38683   0.885   2.487   8.344  0.0769  0.0631  0.3460
 9075SOL    HW138684   0.904   2.573   8.380  0.8810  1.0179 -2.3785
 9075SOL    HW238685   0.887   2.451   8.433 -0.6918  2.6565  1.4172
 9076SOL     OW38686   3.614   3.251  12.582 -0.3723  0.1340  0.4871
 9076SOL    HW138687   3.618   3.345  12.564 -1.5089  0.2892  1.0539
 9076SOL    HW238688   3.694   3.250  12.635 -0.8433  0.4054  1.2082
 9077SOL     OW38689   3.412   2.397   5.368 -0.8330 -0.5925  0.1839
 9077SOL    HW138690   3.448   2.373   5.283 -1.2500  3.2832 -1.0733
 9077SOL    HW238691   3.371   2.481   5.349  0.3641 -0.4764 -1.9223
 9078SOL     OW38692   4.381   3.473  16.679 -0.1573 -0.1930 -0.5882
 9078SOL    HW138693   4.397   3.568  16.682 -0.3733 -0.2201  1.2269
 9078SOL    HW238694   4.460   3.435  16.717 -0.2939 -0.2335 -0.3453
 9079SOL     OW38695   0.017   1.968   4.672  0.3931 -0.3499  0.0857
 9079SOL    HW138696   0.094   1.994   4.622  0.7315  0.2377  0.9107
 9079SOL    HW238697   0.008   1.882   4.631 -1.2184 -0.0629 -0.1541
 9080SOL     OW38698   2.371   1.096   5.249 -0.7018  0.1560  0.2281
 9080SOL    HW138699   2.317   1.116   5.173 -1.1194  2.3390  1.0871
 9080SOL    HW238700   2.300   1.083   5.312 -1.0869  0.7691 -0.0847
 9081SOL     OW38701   3.229   4.448   8.801 -0.0077 -0.4021 -0.0672
 9081SOL    HW138702   3.134   4.459   8.789  0.0624 -0.3540 -0.5829
 9081SOL    HW238703   3.232   4.395   8.881  1.0378 -1.0408 -0.5429
 9082SOL     OW38704   4.511   4.257   9.426  0.1603 -0.7365  0.2290
 9082SOL    HW138705   4.515   4.173   9.471 -0.1233 -1.3884 -0.9634
 9082SOL    HW238706   4.549   4.317   9.490 -0.4107 -0.1176 -0.0081
 9083SOL     OW38707   3.017   2.672   8.790  0.1622 -0.2787 -0.6429
 9083SOL    HW138708   3.000   2.580   8.768  1.7195 -1.3855  2.8112
 9083SOL    HW238709   3.081   2.697   8.723  0.0195  0.8962 -0.3359
 9084SOL     OW38710   3.010   0.974   4.439 -0.1252 -0.2338  0.0071
 9084SOL    HW138711   2.929   1.012   4.405 -0.8130 -0.5766  1.2507
 9084SOL    HW238712   3.037   0.901   4.383 -1.1133 -0.6846  0.1201
 9085SOL     OW38713   1.737   3.244   9.961  0.0987 -0.3169  0.2833
 9085SOL    HW138714   1.782   3.214   9.883 -0.6497 -1.1242  0.1572
 9085SOL    HW238715   1.812   3.259  10.018 -0.3847  1.7097  0.4026
 9086SOL     OW38716   0.933   0.334   6.365  0.1339 -0.4298  0.1545
 9086SOL    HW138717   0.923   0.267   6.297  0.4295  0.0237 -0.3379
 9086SOL    HW238718   1.014   0.315   6.412 -0.0694 -2.4574 -0.3392
 9087SOL     OW38719   1.156   3.137   4.292 -0.2650  0.0308  0.5183
 9087SOL    HW138720   1.108   3.119   4.212  2.7725 -1.8541 -0.8899
 9087SOL    HW238721   1.139   3.231   4.297  2.4147  0.4715  1.2158
 9088SOL     OW38722   0.938   4.493   8.719 -0.6590  0.6199  0.0671
 9088SOL    HW138723   0.981   4.529   8.797 -1.7739  1.1454  0.4310
 9088SOL    HW238724   0.926   4.569   8.662  0.6466  1.0820  0.4161
 9089SOL     OW38725   1.098   2.254   6.787 -0.0521  0.0216  0.2420
 9089SOL    HW138726   1.115   2.342   6.819  0.2263  0.3294 -0.7821
 9089SOL    HW238727   1.137   2.198   6.855 -0.1015 -3.6424 -2.7545
 9090SOL     OW38728   4.709   1.708   0.320  0.3010 -0.3663  0.9630
 9090SOL    HW138729   4.677   1.794   0.348 -0.2757  0.3174 -1.8774
 9090SOL    HW238730   0.081   1.729   0.311 -0.3059  1.7080 -0.3510
 9091SOL     OW38731   2.019   4.623   6.660 -0.0026  0.1477  0.6195
 9091SOL    HW138732   1.978   4.709   6.655  0.2306  0.1475 -1.3935
 9091SOL    HW238733   2.044   4.617   6.753 -0.1825  2.1849  0.7924
 9092SOL     OW38734   3.357   4.648  10.122 -0.0009  0.0547  0.4450
 9092SOL    HW138735   3.394   4.568  10.084  0.3415 -0.3550  1.6422
 9092SOL    HW238736   3.338   4.700  10.044 -2.5517 -0.4501  0.7268
 9093SOL     OW38737   1.211   1.095   2.003 -0.1092 -0.0713  0.0044
 9093SOL    HW138738   1.129   1.074   2.048 -0.4257 -0.7768 -0.9129
 9093SOL    HW238739   1.276   1.081   2.071 -0.3217  0.5010  0.3246
 9094SOL     OW38740   1.543   2.806  17.241  0.1601  0.0075  0.0991
 9094SOL    HW138741   1.496   2.827  17.161 -0.9437 -0.2602  0.6691
 9094SOL    HW238742   1.477   2.834  17.305  1.6314  1.4915  0.9656
 9095SOL     OW38743   1.773   1.004  11.599 -0.0278  0.2994 -0.0265
 9095SOL    HW138744   1.755   0.970  11.687 -2.0872  0.8594 -0.2444
 9095SOL    HW238745   1.783   1.095  11.627 -1.0890  0.0493  1.1302
 9096SOL     OW38746   0.175   0.468   8.532 -0.6509 -0.9929  0.6680
 9096SOL    HW138747   0.088   0.496   8.560 -0.1603  0.1493  1.0620
 9096SOL    HW238748   0.167   0.373   8.538 -0.4694 -0.9402  1.7292
 9097SOL     OW38749   0.197   4.469   1.663 -0.9320  0.2988  0.5396
 9097SOL    HW138750   0.193   4.456   1.568 -1.3861 -0.6503  0.6963
 9097SOL    HW238751   0.252   4.546   1.677  0.1030  0.0729 -2.2346
 9098SOL     OW38752   2.544   0.631   7.688  0.0402  1.0173  0.1061
 9098SOL    HW138753   2.614   0.663   7.745 -1.0843  1.3035  1.3126
 9098SOL    HW238754   2.467   0.664   7.734  0.4342 -1.2761  2.4079
 9099SOL     OW38755   1.020   2.685   3.319  0.9446  0.3054 -0.2707
 9099SOL    HW138756   1.052   2.746   3.253 -1.6019  1.4368 -0.4458
 9099SOL    HW238757   1.081   2.611   3.314 -0.8139 -1.0704 -1.1483
 9100SOL     OW38758   4.380   4.445   2.679 -0.0675 -0.1366  0.2747
 9100SOL    HW138759   4.377   4.517   2.615 -0.7558  0.0373  0.5070
 9100SOL    HW238760   4.286   4.442   2.694  0.0075 -0.5441  0.6471
 9101SOL     OW38761   3.828   0.319  13.935  0.0717  0.3771  0.1975
 9101SOL    HW138762   3.897   0.308  14.000 -0.3639 -3.2713 -0.0035
 9101SOL    HW238763   3.762   0.255  13.959  0.8495  0.1531  1.7458
 9102SOL     OW38764   0.018   2.303   2.082 -0.1250 -0.4939 -0.3982
 9102SOL    HW138765   0.011   2.272   2.172 -0.3581  2.8233  0.7212
 9102SOL    HW238766   0.094   2.360   2.092  1.2496 -2.8002  2.2569
 9103SOL     OW38767   0.435   2.769  15.798  0.4544  0.0352  0.9126
 9103SOL    HW138768   0.461   2.784  15.707  1.1131  0.1633  1.1185
 9103SOL    HW238769   0.457   2.677  15.813  0.6727 -0.4369 -2.3643
 9104SOL     OW38770   3.648   1.101   5.380  0.5269 -0.1016  0.3075
 9104SOL    HW138771   3.736   1.131   5.360 -0.1906  1.5327 -0.3914
 9104SOL    HW238772   3.607   1.186   5.396  0.8895 -0.0632  1.0241
 9105SOL     OW38773   1.284   4.003  11.186  0.0462 -0.4786  0.6079
 9105SOL    HW138774   1.212   4.026  11.127  2.3161  0.4591 -1.7922
 9105SOL    HW238775   1.350   4.068  11.160 -2.5096  2.4277  1.3369
 9106SOL     OW38776   2.657   4.066   6.838 -0.2916 -0.0505  0.3580
 9106SOL    HW138777   2.713   4.012   6.782  1.2842  0.6549  1.2240
 9106SOL    HW238778   2.682   4.150   6.800 -0.4343  0.5084  1.4796
 9107SOL     OW38779   4.514   1.479   7.350 -0.1086  0.6146 -0.1706
 9107SOL    HW138780   4.568   1.509   7.277  0.2721  1.1900  0.3484
 9107SOL    HW238781   4.584   1.463   7.413 -0.0812  1.1349 -0.0687
 9108SOL     OW38782   4.666   1.872   8.936 -0.1608  0.1980 -0.2711
 9108SOL    HW138783   0.007   1.805   8.966 -1.5259 -0.6318  0.6313
 9108SOL    HW238784   0.004   1.932   8.889  1.0513 -1.2987 -0.6646
 9109SOL     OW38785   3.087   3.218  11.638 -0.1202  0.3478 -0.0212
 9109SOL    HW138786   3.136   3.177  11.709 -1.6208 -2.4955 -0.6182
 9109SOL    HW238787   3.109   3.311  11.643 -1.5846  0.6107  1.7406
 9110SOL     OW38788   4.310   0.683   7.211 -0.1249 -0.2182 -0.0091
 9110SOL    HW138789   4.281   0.747   7.146  0.8363  0.6326  0.3803
 9110SOL    HW238790   4.344   0.611   7.158  1.2312 -1.1297  2.1164
 9111SOL     OW38791   1.894   0.092   2.140 -0.2066  0.7095 -0.2291
 9111SOL    HW138792   1.832   0.020   2.130 -0.2261  0.7312 -0.2643
 9111SOL    HW238793   1.913   0.091   2.234  1.9346 -0.2874 -0.6781
 9112SOL     OW38794   3.695   0.350   6.970  0.4875  0.5096 -0.1937
 9112SOL    HW138795   3.647   0.282   7.017  3.5563 -2.0403 -0.7457
 9112SOL    HW238796   3.712   0.414   7.039  1.6902 -1.0498  0.9562
 9113SOL     OW38797   1.181   1.362   8.106 -0.5869 -0.0686 -0.1860
 9113SOL    HW138798   1.229   1.384   8.026  2.7203  0.5401  1.9400
 9113SOL    HW238799   1.248   1.374   8.174 -0.7003  2.9196 -0.6080
 9114SOL     OW38800   3.143   2.208   7.363  0.3379  0.1940 -0.7085
 9114SOL    HW138801   3.093   2.126   7.365  1.2991 -0.4269 -1.8763
 9114SOL    HW238802   3.226   2.176   7.400  0.2430 -0.1959 -0.8305
 9115SOL     OW38803   4.362   0.874   5.450 -0.0963  0.1162 -0.1847
 9115SOL    HW138804   4.373   0.791   5.496 -1.3809 -1.5694 -2.9124
 9115SOL    HW238805   4.313   0.930   5.509 -1.8270 -1.0881 -0.4859
 9116SOL     OW38806   1.039   0.821  15.347  0.4845  0.0476 -0.0895
 9116SOL    HW138807   0.996   0.864  15.422  2.5785 -1.0852  1.7771
 9116SOL    HW238808   0.966   0.770  15.311 -0.8698 -0.4712  3.3122
 9117SOL     OW38809   3.067   3.880  15.889  0.4758  0.4105  0.2362
 9117SOL    HW138810   3.005   3.949  15.866  0.3587  0.0781 -0.4455
 9117SOL    HW238811   3.141   3.895  15.830  0.1898 -0.8487 -0.4440
 9118SOL     OW38812   3.965   2.191   9.204 -0.2397  0.0182  0.0633
 9118SOL    HW138813   3.905   2.220   9.135 -1.4505  0.6549  1.3541
 9118SOL    HW238814   3.921   2.231   9.280  3.1352  2.9186  0.4658
 9119SOL     OW38815   4.498   3.787   4.586 -0.2194 -0.7327  0.8711
 9119SOL    HW138816   4.408   3.763   4.608  0.1325 -2.2375  0.6566
 9119SOL    HW238817   4.481   3.878   4.562 -0.0959 -1.0511 -0.4225
 9120SOL     OW38818   4.475   0.744   0.470 -0.4585 -0.1032  0.9982
 9120SOL    HW138819   4.486   0.701   0.385  0.3976  0.8372  0.6245
 9120SOL    HW238820   4.531   0.692   0.526 -0.1052  0.6498  1.3464
 9121SOL     OW38821   0.188   2.307  10.548 -0.6444 -0.3952 -0.3039
 9121SOL    HW138822   0.246   2.251  10.599  0.2997 -0.1744 -1.1524
 9121SOL    HW238823   0.152   2.366  10.614  1.7545 -0.9906  1.5178
 9122SOL     OW38824   4.149   2.092   9.372 -0.0126  0.6386  0.3058
 9122SOL    HW138825   4.102   2.133   9.299 -1.1848 -2.8259 -0.8569
 9122SOL    HW238826   4.090   2.087   9.447  0.8812 -0.4746  0.9293
 9123SOL     OW38827   4.585   4.007  16.923 -0.2811  0.2172  0.2638
 9123SOL    HW138828   4.637   4.025  17.001  0.8598  1.2941 -0.7488
 9123SOL    HW238829   4.573   4.089  16.875 -0.3947  0.6942  1.1045
 9124SOL     OW38830   2.758   0.649  15.314 -0.2148 -0.4256 -0.1763
 9124SOL    HW138831   2.840   0.635  15.363 -0.4265 -0.8145  0.0670
 9124SOL    HW238832   2.735   0.740  15.333  1.2030  0.7464 -4.0712
 9125SOL     OW38833   0.420   1.934   1.584  0.2111 -0.3109 -0.0499
 9125SOL    HW138834   0.421   1.880   1.663 -1.7090  0.7474  0.6722
 9125SOL    HW238835   0.450   1.868   1.522 -2.1520  0.1004 -1.6151
 9126SOL     OW38836   3.066   1.787   7.498  0.3176  0.5488 -0.1989
 9126SOL    HW138837   3.038   1.863   7.549 -0.3778 -1.2408  2.1095
 9126SOL    HW238838   3.160   1.803   7.496  0.4456  0.0658  1.4109
 9127SOL     OW38839   4.443   2.334   7.973  0.1304  0.3454  0.2805
 9127SOL    HW138840   4.496   2.279   7.915 -0.8194 -1.3360  1.0046
 9127SOL    HW238841   4.483   2.319   8.058 -1.5978 -0.4171  0.9515
 9128SOL     OW38842   2.808   2.820  16.373 -0.3902  0.5562  0.4987
 9128SOL    HW138843   2.723   2.777  16.381 -0.3331  0.4270  0.4103
 9128SOL    HW238844   2.850   2.746  16.329 -2.9204 -0.3698 -0.3517
 9129SOL     OW38845   2.943   4.239   5.885  0.0706 -0.3327  0.0856
 9129SOL    HW138846   3.026   4.213   5.924 -0.1286  2.8270  2.5781
 9129SOL    HW238847   2.910   4.153   5.857 -1.6188  1.1833 -2.6384
 9130SOL     OW38848   0.982   1.704   6.826  0.2858  0.2386  0.0272
 9130SOL    HW138849   0.956   1.640   6.893  0.8641 -0.2320 -0.1972
 9130SOL    HW238850   0.906   1.762   6.826 -1.0092 -1.4509 -1.1306
 9131SOL     OW38851   1.211   4.226   3.514  0.0851 -0.0110  0.0533
 9131SOL    HW138852   1.120   4.250   3.527 -0.3098 -0.4882 -1.8426
 9131SOL    HW238853   1.236   4.294   3.452  0.8744 -2.2481 -2.1073
 9132SOL     OW38854   4.614   3.274   8.407  0.0333 -0.0127  0.1145
 9132SOL    HW138855   4.530   3.301   8.444 -0.4321  0.8711 -1.5559
 9132SOL    HW238856   4.660   3.350   8.441  3.4066 -2.7034  1.5559
 9133SOL     OW38857   2.820   2.423  13.845 -0.6533 -0.2821 -0.0532
 9133SOL    HW138858   2.804   2.363  13.918 -1.7695 -0.6154 -0.5646
 9133SOL    HW238859   2.814   2.355  13.777  0.0214  0.2242 -0.6160
 9134SOL     OW38860   2.923   4.224   7.940 -0.4162  0.0186  0.1146
 9134SOL    HW138861   2.847   4.280   7.924  0.4231  0.9700 -0.5347
 9134SOL    HW238862   2.958   4.200   7.855 -1.7663 -1.0174 -0.1598
 9135SOL     OW38863   1.062   1.322   6.307 -0.1260  0.2296 -0.2052
 9135SOL    HW138864   1.063   1.410   6.270 -0.0956  0.6082  0.7092
 9135SOL    HW238865   0.985   1.283   6.265  0.8598 -0.7210 -1.1445
 9136SOL     OW38866   2.233   1.871   1.342  0.2304 -0.5747 -0.1123
 9136SOL    HW138867   2.317   1.844   1.379 -0.8283 -2.0884  1.1716
 9136SOL    HW238868   2.203   1.789   1.303 -1.4599 -0.7411  1.5410
 9137SOL     OW38869   1.231   4.464   8.622 -0.0618 -0.6784 -0.0380
 9137SOL    HW138870   1.287   4.393   8.652  2.4049  1.2395 -0.1667
 9137SOL    HW238871   1.152   4.443   8.673  1.9955 -1.2369  2.9133
 9138SOL     OW38872   3.574   4.409   6.308 -0.5553 -0.1753  0.3520
 9138SOL    HW138873   3.525   4.354   6.246 -0.2176 -2.3820  2.0543
 9138SOL    HW238874   3.549   4.363   6.388  0.4527 -0.7132  0.3544
 9139SOL     OW38875   4.584   0.657  17.378  0.1597 -0.4895  0.1585
 9139SOL    HW138876   4.561   0.687  17.466 -2.2095 -0.9001 -0.3185
 9139SOL    HW238877   4.503   0.677  17.332  1.6132  1.9844 -1.3602
 9140SOL     OW38878   4.038   4.136   0.952  0.2726 -0.2328  0.3533
 9140SOL    HW138879   4.096   4.131   1.028  0.0558 -0.4735  0.5037
 9140SOL    HW238880   3.960   4.173   0.993 -0.1146 -1.3565  0.6435
 9141SOL     OW38881   0.161   1.984   8.785 -0.1961 -0.1193  0.4971
 9141SOL    HW138882   0.194   2.072   8.764 -1.3629  0.3117  0.5032
 9141SOL    HW238883   0.241   1.931   8.783  0.5227  0.8961  1.8390
 9142SOL     OW38884   3.527   4.108   7.263  0.2266  0.1571 -0.0788
 9142SOL    HW138885   3.434   4.130   7.266  0.2480  0.0882  1.0814
 9142SOL    HW238886   3.539   4.082   7.355 -1.3031 -0.4907 -0.0535
 9143SOL     OW38887   3.242   0.599   2.786  0.2518 -0.3936 -0.1557
 9143SOL    HW138888   3.187   0.549   2.846 -0.4424  0.9579  0.3458
 9143SOL    HW238889   3.308   0.637   2.844  0.2111 -1.9019  0.8773
 9144SOL     OW38890   2.310   4.666   4.681  0.1227  0.5454  0.3600
 9144SOL    HW138891   2.243   4.599   4.674 -0.2283  0.9631 -0.2855
 9144SOL    HW238892   2.380   4.601   4.673  0.0479  0.2927  1.7396
 9145SOL     OW38893   4.047   2.288  15.123 -0.2126  0.2552  0.1077
 9145SOL    HW138894   3.955   2.259  15.119 -0.2824  0.8477 -2.3359
 9145SOL    HW238895   4.044   2.349  15.050 -0.1787  0.0907 -0.0302
 9146SOL     OW38896   1.614   0.870   6.477 -0.0659  0.0018 -0.5004
 9146SOL    HW138897   1.551   0.890   6.546 -0.0015  1.9255 -0.9993
 9146SOL    HW238898   1.631   0.780   6.505  1.2879  0.6652  0.7883
 9147SOL     OW38899   1.555   3.535   0.404  0.4901 -0.4722 -0.0444
 9147SOL    HW138900   1.487   3.494   0.459 -0.0398  2.7330  1.6802
 9147SOL    HW238901   1.505   3.553   0.324 -0.3964 -0.3741  0.5275
 9148SOL     OW38902   4.269   0.905   5.060  0.0130  0.3491 -0.3503
 9148SOL    HW138903   4.196   0.959   5.031 -0.1774  0.2977  0.0273
 9148SOL    HW238904   4.221   0.850   5.123 -0.2319  1.7684  0.6905
 9149SOL     OW38905   2.041   4.399   1.870  0.2668 -0.1931  0.3478
 9149SOL    HW138906   1.956   4.414   1.829  1.0934 -0.0652 -1.3302
 9149SOL    HW238907   2.046   4.466   1.938  1.2112 -0.5767  0.6494
 9150SOL     OW38908   1.625   3.274   8.067 -0.4183 -0.0101  0.1564
 9150SOL    HW138909   1.594   3.218   7.995 -0.5119 -0.2003  0.3439
 9150SOL    HW238910   1.568   3.258   8.143 -0.4284 -1.9100 -0.2588
 9151SOL     OW38911   2.058   2.892  16.792 -0.2602  0.1939  0.1418
 9151SOL    HW138912   2.126   2.865  16.854 -0.7507 -1.3538 -0.0001
 9151SOL    HW238913   2.003   2.815  16.775 -1.3589  1.0830 -0.3204
 9152SOL     OW38914   0.440   4.123   7.148  0.1416  0.7427 -0.7731
 9152SOL    HW138915   0.413   4.064   7.078  0.6439  1.6931 -1.7689
 9152SOL    HW238916   0.533   4.134   7.128  1.4860 -1.3508  4.3316
 9153SOL     OW38917   2.435   4.321   3.405  0.1529  0.2744  0.4078
 9153SOL    HW138918   2.352   4.353   3.370 -0.1383  0.2719  1.0885
 9153SOL    HW238919   2.495   4.384   3.365  1.7145 -1.4894  0.0195
 9154SOL     OW38920   3.737   3.768   7.724 -0.4540 -0.2283  0.0478
 9154SOL    HW138921   3.712   3.675   7.724 -0.4536 -0.2334 -0.7754
 9154SOL    HW238922   3.662   3.807   7.678  0.0115  0.3210 -0.2481
 9155SOL     OW38923   0.288   3.691  15.296  0.1160  0.0933  0.1615
 9155SOL    HW138924   0.237   3.771  15.307 -0.0944  0.0863 -0.7299
 9155SOL    HW238925   0.257   3.639  15.370  1.2956 -1.1233 -0.1920
 9156SOL     OW38926   0.011   4.556   7.862  0.2214 -0.5796  0.2878
 9156SOL    HW138927   0.082   4.497   7.887 -0.2337 -1.5990 -0.7873
 9156SOL    HW238928   0.062   4.628   7.825  0.5342 -1.6144 -1.3175
 9157SOL     OW38929   2.055   2.535   2.233 -0.2410 -0.1966 -1.1637
 9157SOL    HW138930   2.121   2.602   2.217 -1.3068  1.0623 -0.3143
 9157SOL    HW238931   2.063   2.502   2.323 -2.0371  2.8583  0.1064
 9158SOL     OW38932   4.277   4.286   4.798 -0.3577 -0.5009  0.1894
 9158SOL    HW138933   4.310   4.201   4.771  2.1474  0.5913 -0.1913
 9158SOL    HW238934   4.253   4.277   4.891 -1.5001  2.2291  0.1593
 9159SOL     OW38935   3.473   2.779   3.958  1.0712 -0.5603 -0.0708
 9159SOL    HW138936   3.530   2.783   3.881  0.5091 -1.1502 -0.5254
 9159SOL    HW238937   3.490   2.863   4.001  0.0423 -0.4922  0.1994
 9160SOL     OW38938   2.351   3.026   9.923 -0.2073  0.4755 -0.4566
 9160SOL    HW138939   2.307   3.088   9.980  1.1669  0.6600  0.3967
 9160SOL    HW238940   2.423   3.081   9.896  1.8962 -0.8543  2.4333
 9161SOL     OW38941   4.191   3.009   6.813 -0.3749 -0.2265  0.6793
 9161SOL    HW138942   4.168   2.916   6.807 -1.4146  0.0393  0.6411
 9161SOL    HW238943   4.154   3.032   6.898 -0.1997 -0.0024  0.6931
 9162SOL     OW38944   0.311   1.457  11.122 -0.7378  0.0010  0.8890
 9162SOL    HW138945   0.351   1.381  11.080  0.0667  0.7892  0.2166
 9162SOL    HW238946   0.217   1.443  11.126 -1.0341  1.2440 -1.7883
 9163SOL     OW38947   2.266   2.827  16.288  0.2775 -0.7772 -0.1429
 9163SOL    HW138948   2.296   2.813  16.198  1.0963  0.9999 -0.1708
 9163SOL    HW238949   2.305   2.751  16.330 -1.4500 -0.8552  1.2797
 9164SOL     OW38950   4.440   0.572   7.739 -0.7911 -0.1556  0.5054
 9164SOL    HW138951   4.449   0.630   7.664 -0.4416 -1.3258 -0.3515
 9164SOL    HW238952   4.362   0.521   7.717 -2.0312  0.6902  2.9326
 9165SOL     OW38953   4.200   0.098  13.309 -0.5560 -0.3646 -0.1481
 9165SOL    HW138954   4.182   0.099  13.403 -1.8211  2.4291 -0.4402
 9165SOL    HW238955   4.120   0.129  13.269 -2.2091 -2.9016  1.1901
 9166SOL     OW38956   3.635   0.649   1.143  0.6009 -0.1996  0.1648
 9166SOL    HW138957   3.577   0.679   1.213  1.4305 -1.7177  1.4861
 9166SOL    HW238958   3.656   0.558   1.163 -0.1249 -0.5768 -0.7711
 9167SOL     OW38959   2.121   1.280   2.487 -0.5735  0.2206 -0.0104
 9167SOL    HW138960   2.027   1.261   2.484 -0.6023  0.3153  0.3544
 9167SOL    HW238961   2.150   1.204   2.536 -1.4643  0.0932  0.3180
 9168SOL     OW38962   1.996   2.911   7.919 -0.4672  0.9188  0.2563
 9168SOL    HW138963   2.073   2.859   7.940 -1.3465 -0.1701  0.7712
 9168SOL    HW238964   2.031   3.000   7.928  1.6760 -0.1228  2.3602
 9169SOL     OW38965   3.688   3.662   6.192 -0.3195  0.2226 -0.3195
 9169SOL    HW138966   3.700   3.655   6.097  0.9191 -1.1430 -0.0705
 9169SOL    HW238967   3.668   3.573   6.220  0.1424  0.1354 -0.2685
 9170SOL     OW38968   3.446   1.336   9.601 -0.8040 -0.3828  0.5397
 9170SOL    HW138969   3.390   1.346   9.678 -2.1363 -0.2070 -0.4567
 9170SOL    HW238970   3.491   1.421   9.597 -0.1100 -0.7952 -0.3702
 9171SOL     OW38971   3.119   0.971   4.704 -0.0801  1.0706 -0.2729
 9171SOL    HW138972   3.115   1.066   4.721 -1.4556  1.1490 -0.9732
 9171SOL    HW238973   3.062   0.966   4.628 -0.4198 -0.8811  0.1221
 9172SOL     OW38974   0.050   2.886   5.133 -0.8154 -0.1733  0.8069
 9172SOL    HW138975   4.699   2.846   5.084  1.8193 -0.4616 -2.8646
 9172SOL    HW238976   0.009   2.916   5.214 -1.1672  2.0578 -0.1897
 9173SOL     OW38977   2.934   4.551   5.070  0.2914 -0.1427 -0.4526
 9173SOL    HW138978   2.973   4.632   5.104  2.3946 -1.1173 -0.5830
 9173SOL    HW238979   2.915   4.580   4.981 -0.7470 -1.6818 -0.7264
 9174SOL     OW38980   3.296   4.341   3.429  0.5585 -0.2101  0.3269
 9174SOL    HW138981   3.298   4.361   3.335  0.5862 -1.0392  0.1525
 9174SOL    HW238982   3.202   4.325   3.443  0.4716  1.3845  1.5052
 9175SOL     OW38983   3.575   2.842   3.188  0.3306  0.6486 -0.0151
 9175SOL    HW138984   3.583   2.773   3.253  0.7341  1.5863  0.9310
 9175SOL    HW238985   3.546   2.919   3.237  1.6476  0.9922  0.2237
 9176SOL     OW38986   4.219   2.757   8.580 -0.1057 -0.3385  0.8166
 9176SOL    HW138987   4.189   2.668   8.599 -0.5102 -0.1579  1.0303
 9176SOL    HW238988   4.241   2.788   8.668  1.2261  0.5762  0.1725
 9177SOL     OW38989   3.400   4.085  15.399 -0.6951 -0.9286  0.4798
 9177SOL    HW138990   3.434   4.062  15.312  0.1654 -2.1638  1.1443
 9177SOL    HW238991   3.470   4.044  15.450 -0.8286 -4.0860 -1.8741
 9178SOL     OW38992   3.149   3.944   6.513 -0.5176  0.2855 -0.2912
 9178SOL    HW138993   3.130   4.021   6.566  3.1690  0.2586  1.0882
 9178SOL    HW238994   3.244   3.937   6.509 -0.5258  0.4589 -0.7212
 9179SOL     OW38995   0.385   3.045   6.103 -0.2414  0.1131 -0.5497
 9179SOL    HW138996   0.349   3.024   6.017  0.1263  0.1397 -0.7109
 9179SOL    HW238997   0.369   3.139   6.106 -0.5945  0.0563 -0.5772
 9180SOL     OW38998   4.405   2.681   1.462 -0.4042 -0.3350 -0.3284
 9180SOL    HW138999   4.452   2.643   1.536 -0.1753 -1.1941 -0.9154
 9180SOL    HW239000   4.310   2.680   1.477 -0.3852 -0.4782 -0.2223
 9181SOL     OW39001   0.989   4.492  11.388  0.5120  0.4278 -0.0693
 9181SOL    HW139002   1.047   4.555  11.430  0.5926  0.9488 -0.9549
 9181SOL    HW239003   0.989   4.420  11.450 -0.4655  0.4338 -0.0575
 9182SOL     OW39004   1.805   1.116  13.677 -0.5133 -0.1282 -0.2042
 9182SOL    HW139005   1.775   1.030  13.708 -0.2618  0.5623  1.9451
 9182SOL    HW239006   1.852   1.153  13.752 -0.6844  0.6979 -0.5061
 9183SOL     OW39007   3.663   3.219   2.723 -0.3665  0.6621  0.2555
 9183SOL    HW139008   3.592   3.283   2.726 -0.7018  0.3914 -1.6655
 9183SOL    HW239009   3.669   3.206   2.818  1.0695 -0.3823  0.0143
 9184SOL     OW39010   0.807   4.140  11.644  0.0449 -0.4097  0.4264
 9184SOL    HW139011   0.716   4.156  11.668 -0.0296 -0.7839  0.3967
 9184SOL    HW239012   0.851   4.108  11.723 -1.6041 -1.9250  0.7410
 9185SOL     OW39013   0.216   0.685   9.069  0.0098 -0.4973 -0.3354
 9185SOL    HW139014   0.236   0.699   8.977  0.6306 -5.2337 -0.9390
 9185SOL    HW239015   0.273   0.751   9.108 -2.1377  0.9821  0.3234
 9186SOL     OW39016   2.294   2.926   7.173  0.1959  0.2883  0.1905
 9186SOL    HW139017   2.385   2.901   7.156  0.3089  2.2897 -2.1195
 9186SOL    HW239018   2.245   2.902   7.094 -0.9908 -0.8253  1.2567
 9187SOL     OW39019   4.670   3.815  15.834 -0.4355 -0.3804  0.0343
 9187SOL    HW139020   0.033   3.775  15.858 -0.4648  0.0242  0.8165
 9187SOL    HW239021   4.657   3.871  15.911 -1.1846 -0.7121  0.1404
 9188SOL     OW39022   1.617   1.277   4.358  0.6189  0.7091  0.2604
 9188SOL    HW139023   1.654   1.291   4.271  0.3920  2.0016  0.3746
 9188SOL    HW239024   1.621   1.358   4.410  0.4950 -0.6290  2.3361
 9189SOL     OW39025   0.065   2.454   3.212  0.3160 -0.1485  0.2564
 9189SOL    HW139026   0.148   2.414   3.188 -0.0478 -0.6278 -0.1947
 9189SOL    HW239027   0.018   2.430   3.132  1.7646 -2.9655  0.2362
 9190SOL     OW39028   3.224   2.367   0.328 -0.0250 -0.2932  0.0868
 9190SOL    HW139029   3.220   2.444   0.384  1.0783 -0.4583  0.3964
 9190SOL    HW239030   3.295   2.383   0.266 -0.3675  1.7232  0.2411
 9191SOL     OW39031   3.366   3.493   4.385  0.2956 -0.1923  0.2205
 9191SOL    HW139032   3.353   3.442   4.465 -0.7627  0.4931  0.4843
 9191SOL    HW239033   3.429   3.429   4.352 -0.7291 -1.4775  0.7273
 9192SOL     OW39034   4.499   2.536   7.110 -0.0225  0.6283 -0.4586
 9192SOL    HW139035   4.473   2.497   7.194  1.8462  0.1953 -0.1000
 9192SOL    HW239036   4.424   2.593   7.092 -1.1261 -0.4413  0.6843
 9193SOL     OW39037   4.398   3.939   7.179  0.0115 -0.2242 -0.0003
 9193SOL    HW139038   4.375   3.996   7.251  0.1408  2.3355 -1.9954
 9193SOL    HW239039   4.347   3.862   7.205  0.7141 -1.4474 -2.1689
 9194SOL     OW39040   4.136   0.811   9.819  0.4578 -0.1005 -0.2094
 9194SOL    HW139041   4.150   0.791   9.727  1.7536  1.9964 -0.4383
 9194SOL    HW239042   4.100   0.729   9.853  1.5937 -0.1638  0.8253
 9195SOL     OW39043   3.533   2.782   7.885 -0.2186 -0.2628 -0.4169
 9195SOL    HW139044   3.558   2.803   7.795  0.7918 -3.2854 -0.8456
 9195SOL    HW239045   3.608   2.817   7.933 -0.3154 -1.7869  0.8315
 9196SOL     OW39046   2.796   4.363  15.341 -0.1256  0.3588  0.7416
 9196SOL    HW139047   2.735   4.436  15.348 -3.9650 -2.9186  1.6797
 9196SOL    HW239048   2.795   4.323  15.428 -0.0590 -2.8977 -0.7508
 9197SOL     OW39049   1.742   1.320   5.287 -0.0083 -0.9025 -0.2341
 9197SOL    HW139050   1.667   1.269   5.318 -0.6590  0.1732 -0.0653
 9197SOL    HW239051   1.758   1.302   5.194 -2.0992 -1.7343 -0.4340
 9198SOL     OW39052   4.323   4.551   0.464 -0.2940  0.0743 -0.3165
 9198SOL    HW139053   4.334   4.579   0.373 -1.5832  1.3030 -0.0914
 9198SOL    HW239054   4.309   4.638   0.502 -0.2209 -0.1528  0.2322
 9199SOL     OW39055   2.401   4.168   2.199  0.7229 -0.7823  0.1747
 9199SOL    HW139056   2.333   4.192   2.136  1.9082 -0.9754 -1.1729
 9199SOL    HW239057   2.355   4.176   2.282 -0.1590  0.9415 -0.4759
 9200SOL     OW39058   1.863   0.016   6.159  0.1157  0.1273 -0.1880
 9200SOL    HW139059   1.931   4.669   6.157  0.6160  0.5794  1.3880
 9200SOL    HW239060   1.904   0.074   6.095  1.3151 -0.5382 -0.0276
 9201SOL     OW39061   2.476   4.480   4.575  0.4815  0.2899 -0.4296
 9201SOL    HW139062   2.526   4.400   4.593  0.1938  0.6309  1.8182
 9201SOL    HW239063   2.427   4.457   4.496  1.9126 -1.4552 -0.8035
 9202SOL     OW39064   3.496   1.828   3.378 -0.8404 -0.4535 -0.4309
 9202SOL    HW139065   3.563   1.839   3.446 -0.8259 -2.3639 -0.1409
 9202SOL    HW239066   3.533   1.849   3.293  1.7330  1.0822  1.0414
 9203SOL     OW39067   4.424   4.481   1.787 -0.3551  0.0667  0.8559
 9203SOL    HW139068   4.355   4.526   1.738 -0.2767 -0.2972  0.4119
 9203SOL    HW239069   4.492   4.476   1.720 -1.1612  2.5036 -0.1290
 9204SOL     OW39070   4.240   1.595   2.377  0.3700 -0.0264 -0.0795
 9204SOL    HW139071   4.162   1.545   2.352 -0.5490  1.9759 -1.2000
 9204SOL    HW239072   4.198   1.681   2.375  0.1520 -0.1315 -0.0085
 9205SOL     OW39073   1.364   2.084   5.470  0.1620  0.1782 -0.0586
 9205SOL    HW139074   1.417   2.069   5.549 -1.4950  0.4910  1.1127
 9205SOL    HW239075   1.318   2.001   5.457  0.5517  0.2339 -1.7589
 9206SOL     OW39076   4.664   0.718   9.886 -0.0440  0.2790  0.1512
 9206SOL    HW139077   4.666   0.777   9.962  3.0377  1.2297 -0.6691
 9206SOL    HW239078   4.672   0.773   9.808 -1.5454 -0.3299 -0.4190
 9207SOL     OW39079   3.891   0.940   6.706  0.4145 -0.1619  0.3084
 9207SOL    HW139080   3.888   1.036   6.704 -0.0180 -0.1391  2.2842
 9207SOL    HW239081   3.923   0.926   6.617  0.7937 -1.1926  0.6073
 9208SOL     OW39082   2.876   1.740   6.126  1.1353 -0.2013 -0.0917
 9208SOL    HW139083   2.891   1.667   6.066 -1.0046 -1.1553  0.5076
 9208SOL    HW239084   2.822   1.805   6.081  0.6744 -0.0533  0.6531
 9209SOL     OW39085   0.349   0.746  14.208 -0.0796  0.3625  0.1822
 9209SOL    HW139086   0.311   0.680  14.149 -1.0111 -0.1319  1.3270
 9209SOL    HW239087   0.402   0.802  14.151  0.3124  0.4348  0.6226
 9210SOL     OW39088   3.130   0.080  16.139 -0.1415 -0.2971  0.7208
 9210SOL    HW139089   3.041   0.114  16.142 -0.5882 -1.2635 -1.6437
 9210SOL    HW239090   3.145   0.051  16.048 -2.8657 -2.7441  1.0452
 9211SOL     OW39091   3.656   1.564   4.491  0.5976 -0.3490 -0.1627
 9211SOL    HW139092   3.628   1.474   4.476 -0.0863 -0.0866 -0.4648
 9211SOL    HW239093   3.582   1.612   4.453  2.4320  1.3010 -1.6761
 9212SOL     OW39094   2.978   3.441  15.931 -0.6649 -0.8169  0.3760
 9212SOL    HW139095   2.997   3.522  15.979 -0.4626  1.4043 -3.4609
 9212SOL    HW239096   2.917   3.474  15.865  0.1241  0.2580  0.1863
 9213SOL     OW39097   3.335   3.927   1.942  0.8760  0.0537  0.2473
 9213SOL    HW139098   3.371   4.003   1.988 -1.3765  1.3760 -0.1855
 9213SOL    HW239099   3.363   3.946   1.852  1.7958 -1.8908  0.1090
 9214SOL     OW39100   1.539   3.407  12.344  0.2345  0.0274 -0.5465
 9214SOL    HW139101   1.580   3.324  12.370  0.2084  0.6469  1.4491
 9214SOL    HW239102   1.462   3.415  12.400 -0.0495  0.1681 -0.9585
 9215SOL     OW39103   0.750   3.867   2.761 -0.0200 -0.5522 -0.5568
 9215SOL    HW139104   0.821   3.843   2.701  0.2012 -0.1070 -0.4649
 9215SOL    HW239105   0.682   3.804   2.733 -0.1350 -0.8046  0.2777
 9216SOL     OW39106   2.988   3.960   9.340  0.0443 -0.0834 -0.0697
 9216SOL    HW139107   3.080   3.934   9.344 -0.4373 -1.8991 -0.7784
 9216SOL    HW239108   2.996   4.054   9.355  0.0944 -0.1156  0.1048
 9217SOL     OW39109   0.570   0.426  11.339 -0.0322  0.4931 -0.9938
 9217SOL    HW139110   0.639   0.372  11.301  1.0764  0.8769  0.4390
 9217SOL    HW239111   0.611   0.511  11.321  0.8756  0.0481 -1.0431
 9218SOL     OW39112   0.044   4.304   5.418  0.3550 -0.0013 -0.2070
 9218SOL    HW139113   4.697   4.355   5.374 -1.3744 -2.0475  0.0475
 9218SOL    HW239114   0.063   4.360   5.494 -1.0061 -2.3153  1.8332
 9219SOL     OW39115   3.199   2.087  14.978 -0.8344 -0.1365 -0.0923
 9219SOL    HW139116   3.279   2.035  14.979 -0.3683  0.5685 -0.9253
 9219SOL    HW239117   3.226   2.160  15.034 -1.7332  1.4219 -1.6809
 9220SOL     OW39118   3.472   4.161   4.545 -0.4265  0.1310 -0.0716
 9220SOL    HW139119   3.535   4.232   4.546 -1.0165  0.6778 -2.3516
 9220SOL    HW239120   3.392   4.196   4.504 -0.1978  0.9392  0.1842
 9221SOL     OW39121   0.780   3.218  11.076  0.7711  0.0290  0.3633
 9221SOL    HW139122   0.748   3.260  10.996 -1.4969 -1.5003  0.4803
 9221SOL    HW239123   0.753   3.284  11.139  1.2849  0.2375  0.3666
 9222SOL     OW39124   4.521   4.508   0.988  0.2911 -0.0059  0.2722
 9222SOL    HW139125   4.441   4.465   0.957 -1.5639  1.8809  2.4012
 9222SOL    HW239126   4.584   4.471   0.926 -0.9031  0.5012 -1.2255
 9223SOL     OW39127   1.378   2.574   4.713  0.6675  0.4053  0.1014
 9223SOL    HW139128   1.298   2.525   4.695  0.6702 -0.5222  2.6055
 9223SOL    HW239129   1.448   2.517   4.680  0.6896 -0.6624  2.0080
 9224SOL     OW39130   4.703   2.132   9.490 -0.0732 -0.3674  0.0232
 9224SOL    HW139131   4.658   2.215   9.474 -0.2287 -0.1795  1.4664
 9224SOL    HW239132   4.632   2.081   9.530  1.3874 -0.5304  2.4245
 9225SOL     OW39133   4.168   2.565  13.521  0.1920 -0.2220 -0.7802
 9225SOL    HW139134   4.110   2.504  13.475 -0.2730 -0.6275  0.3290
 9225SOL    HW239135   4.118   2.573  13.603  0.3571 -1.3765 -0.5741
 9226SOL     OW39136   2.498   1.496   1.364  0.1247  0.5350 -0.1900
 9226SOL    HW139137   2.543   1.522   1.445 -0.8381  0.4685  0.3773
 9226SOL    HW239138   2.411   1.503   1.405  1.4041  0.1530  2.5713
 9227SOL     OW39139   2.999   2.015   4.246 -0.5378  0.3090  0.0390
 9227SOL    HW139140   2.962   2.103   4.233  0.8063  1.1110  1.6072
 9227SOL    HW239141   3.067   2.036   4.310  0.1562 -0.3028 -0.5072
 9228SOL     OW39142   1.070   3.157   2.088 -0.0678  0.3180  0.1018
 9228SOL    HW139143   1.024   3.098   2.029  0.2910  0.9559 -0.8278
 9228SOL    HW239144   1.159   3.126   2.073 -0.1688 -0.0764  0.3336
 9229SOL     OW39145   1.714   1.494   9.293  0.5155 -0.2771  0.4429
 9229SOL    HW139146   1.770   1.419   9.310  0.6001 -0.4096 -0.4370
 9229SOL    HW239147   1.740   1.554   9.363  0.7411 -2.0892  1.9208
 9230SOL     OW39148   2.998   2.208   8.753  0.5009  0.3047 -0.3887
 9230SOL    HW139149   3.047   2.158   8.819  0.2365 -2.3238 -2.2051
 9230SOL    HW239150   3.007   2.158   8.672 -0.7112 -0.2214 -0.1982
 9231SOL     OW39151   1.252   2.670   4.439 -0.4049 -0.3987  0.4052
 9231SOL    HW139152   1.159   2.660   4.418 -0.3983  0.3027  0.0388
 9231SOL    HW239153   1.276   2.747   4.388 -0.7609 -0.2147  0.5145
 9232SOL     OW39154   2.974   4.010   3.433 -0.6266 -0.4848 -0.1505
 9232SOL    HW139155   2.956   4.000   3.526 -0.0241 -0.6599 -0.0558
 9232SOL    HW239156   2.985   4.105   3.427  1.9844 -0.6067  2.7712
 9233SOL     OW39157   4.435   1.254  14.212 -0.0823  0.7834 -0.1790
 9233SOL    HW139158   4.449   1.182  14.151  1.0222 -0.4715  1.5549
 9233SOL    HW239159   4.386   1.213  14.283  1.3522 -0.3921  0.1292
 9234SOL     OW39160   1.984   1.242   2.125  0.1595  0.1140  0.3705
 9234SOL    HW139161   2.029   1.326   2.128 -1.6327  1.0297  1.8127
 9234SOL    HW239162   1.925   1.247   2.201  1.4181 -0.0982  1.3564
 9235SOL     OW39163   4.524   2.455   2.618 -0.8378  0.0699  0.4345
 9235SOL    HW139164   4.619   2.452   2.605 -1.0788  1.9343 -1.6512
 9235SOL    HW239165   4.508   2.362   2.638 -0.9768  0.0812  0.3766
 9236SOL     OW39166   4.120   1.126   9.794 -0.2250  0.2190 -0.2137
 9236SOL    HW139167   4.059   1.083   9.734  0.3627 -0.9316  0.0149
 9236SOL    HW239168   4.121   1.212   9.752 -0.0524  1.2692  1.9029
 9237SOL     OW39169   1.361   2.632   7.694  0.8789  0.0622  0.4108
 9237SOL    HW139170   1.268   2.629   7.668  2.0002 -0.0562 -3.5176
 9237SOL    HW239171   1.392   2.716   7.661 -1.2371  0.5198 -0.4183
 9238SOL     OW39172   2.619   1.313   1.227  0.3453 -0.0834  0.5134
 9238SOL    HW139173   2.600   1.391   1.279  0.8645  0.0468  0.5078
 9238SOL    HW239174   2.587   1.252   1.293  0.6598  2.0365  2.6117
 9239SOL     OW39175   4.266   1.942   3.332  0.3836 -0.0123  0.2915
 9239SOL    HW139176   4.237   1.852   3.318 -1.3152  0.9851 -2.5431
 9239SOL    HW239177   4.230   1.997   3.262 -0.2848  0.1026  0.7301
 9240SOL     OW39178   0.506   0.396  11.766  0.2808 -0.1260  0.8023
 9240SOL    HW139179   0.516   0.483  11.727 -0.9122  0.2454  1.3149
 9240SOL    HW239180   0.434   0.360  11.715  0.2781 -0.4135  1.0080
 9241SOL     OW39181   1.362   3.100   1.775  0.0263 -0.4053 -0.0302
 9241SOL    HW139182   1.346   3.134   1.687 -0.1656 -1.3185 -0.3473
 9241SOL    HW239183   1.438   3.047   1.751  0.5953  0.6382 -0.5412
 9242SOL     OW39184   4.120   0.629   0.641 -0.1727 -0.1857  0.1712
 9242SOL    HW139185   4.084   0.717   0.643  1.1325  0.3929 -1.7118
 9242SOL    HW239186   4.109   0.624   0.547  1.0596 -0.2558  0.0292
 9243SOL     OW39187   3.690   0.783   3.324  0.3203  0.5817  0.1053
 9243SOL    HW139188   3.746   0.743   3.258 -0.8512 -0.8703 -0.0071
 9243SOL    HW239189   3.610   0.815   3.283 -0.6531 -0.1895  1.3793
 9244SOL     OW39190   0.342   4.212   5.983  0.0714  0.0466  0.0119
 9244SOL    HW139191   0.363   4.207   6.076  0.2329 -2.4818 -0.1643
 9244SOL    HW239192   0.246   4.216   5.990 -0.0663 -0.2602 -1.6061
 9245SOL     OW39193   1.699   2.957  13.332  0.0963  0.1009 -0.1942
 9245SOL    HW139194   1.711   3.043  13.291 -0.7409  0.1697 -0.2845
 9245SOL    HW239195   1.786   2.946  13.371 -0.1432 -1.4795 -0.1184
 9246SOL     OW39196   2.742   4.364   7.299  0.2796 -0.0789  0.6038
 9246SOL    HW139197   2.685   4.342   7.225 -1.6692 -0.6384  2.2718
 9246SOL    HW239198   2.705   4.310   7.368 -2.8329  1.0304 -0.2111
 9247SOL     OW39199   2.798   2.976   7.780 -1.0611  0.1166  0.2932
 9247SOL    HW139200   2.744   3.009   7.851 -0.6905 -0.9008  1.0536
 9247SOL    HW239201   2.812   3.053   7.726  0.0216 -0.4314 -0.2126
 9248SOL     OW39202   0.302   4.450  14.435 -0.4774  0.4382 -0.3435
 9248SOL    HW139203   0.279   4.491  14.518 -0.7084  0.6286 -0.5045
 9248SOL    HW239204   0.393   4.420  14.443 -0.6806 -0.6129 -1.8279
 9249SOL     OW39205   0.849   3.753   4.233 -0.7162 -0.2855  0.1242
 9249SOL    HW139206   0.895   3.751   4.150 -2.7403  3.1514 -1.0689
 9249SOL    HW239207   0.887   3.679   4.281 -2.5318 -2.2888 -1.5348
 9250SOL     OW39208   3.493   4.533  15.524 -0.4142 -0.7071 -0.3268
 9250SOL    HW139209   3.417   4.493  15.566  0.2256  1.1060  2.6350
 9250SOL    HW239210   3.554   4.485  15.580  0.5396  0.7566 -0.0963
 9251SOL     OW39211   3.270   0.180   1.017  0.6889  0.6171 -0.1972
 9251SOL    HW139212   3.177   0.168   1.003  1.0280 -3.4278  1.0368
 9251SOL    HW239213   3.308   0.173   0.929 -0.7785 -0.5041 -0.7273
 9252SOL     OW39214   3.091   2.584  17.254  0.2036  0.2988 -0.4289
 9252SOL    HW139215   3.149   2.657  17.233 -0.6265  0.1620 -3.1736
 9252SOL    HW239216   3.011   2.633  17.271  0.8495  1.8534 -1.8531
 9253SOL     OW39217   4.667   0.603   4.420 -0.4584  0.5943 -0.7980
 9253SOL    HW139218   0.021   0.544   4.420 -0.0562  1.1094 -0.7106
 9253SOL    HW239219   4.700   0.692   4.414  0.8304  0.0689 -1.3448
 9254SOL     OW39220   2.815   2.155  15.189  0.3104 -0.5673  0.0900
 9254SOL    HW139221   2.867   2.208  15.250  1.5939 -1.3031 -0.3748
 9254SOL    HW239222   2.838   2.071  15.230 -1.7164 -0.8530  0.6322
 9255SOL     OW39223   1.648   0.134   5.068 -0.3545  0.2512 -0.1439
 9255SOL    HW139224   1.571   0.158   5.016  0.4956  1.6526 -0.7680
 9255SOL    HW239225   1.670   0.049   5.029 -0.3038 -0.1358  0.7357
 9256SOL     OW39226   2.827   2.647   3.372 -0.2378 -0.0557  0.5154
 9256SOL    HW139227   2.736   2.669   3.393 -0.4658 -0.3345 -0.1719
 9256SOL    HW239228   2.813   2.553   3.356  0.4406 -0.1118  0.2524
 9257SOL     OW39229   2.210   4.225   1.520  0.2285  0.2238 -0.2939
 9257SOL    HW139230   2.158   4.189   1.591  1.2590 -0.8603 -0.0791
 9257SOL    HW239231   2.231   4.309   1.561 -1.9568 -0.1715  1.5766
 9258SOL     OW39232   4.240   1.680  10.249  0.5051  0.0908 -0.0444
 9258SOL    HW139233   4.220   1.642  10.335  1.8064 -0.7884 -0.1314
 9258SOL    HW239234   4.177   1.751  10.237 -0.1187 -0.8245 -2.1965
 9259SOL     OW39235   1.367   1.587   4.729 -0.0585 -0.0697 -0.0523
 9259SOL    HW139236   1.346   1.596   4.822  0.1350 -0.9682  0.0748
 9259SOL    HW239237   1.461   1.601   4.716 -0.2944  2.4827  1.0151
 9260SOL     OW39238   1.142   0.963   0.415  0.5078 -0.0981 -0.7324
 9260SOL    HW139239   1.220   1.018   0.414 -0.9141  1.9861 -0.2856
 9260SOL    HW239240   1.174   0.876   0.436  0.8847 -0.5522 -3.1912
 9261SOL     OW39241   1.124   1.638   3.219 -0.2942 -0.4171 -0.4177
 9261SOL    HW139242   1.120   1.559   3.166  1.3725  0.5359 -1.9603
 9261SOL    HW239243   1.128   1.600   3.306 -0.7309  0.1384 -0.1513
 9262SOL     OW39244   2.309   2.780   7.421  0.1665 -0.7207 -0.1873
 9262SOL    HW139245   2.290   2.851   7.482  1.2013 -0.4914 -0.1263
 9262SOL    HW239246   2.283   2.822   7.339 -3.3105 -1.4338  0.5528
 9263SOL     OW39247   3.551   0.822  15.009  0.0495 -0.3308 -0.5445
 9263SOL    HW139248   3.471   0.791  15.052  0.9809 -0.5433  1.0614
 9263SOL    HW239249   3.526   0.885  14.942 -1.0316 -0.0518  0.1305
 9264SOL     OW39250   3.850   0.138   6.073 -0.1519  0.4586  0.2241
 9264SOL    HW139251   3.931   0.137   6.021 -0.8527  0.2998 -0.8606
 9264SOL    HW239252   3.870   0.139   6.167 -2.2561  0.9788  0.6510
 9265SOL     OW39253   1.962   3.478   3.924 -0.3122 -0.2144 -0.4561
 9265SOL    HW139254   1.921   3.557   3.887 -0.5683 -0.3741 -0.5170
 9265SOL    HW239255   2.041   3.516   3.962 -0.8326 -0.0707  0.4974
 9266SOL     OW39256   0.770   0.486   1.848  1.0011  0.1789 -0.4578
 9266SOL    HW139257   0.820   0.412   1.883  1.2584 -0.4960 -2.2710
 9266SOL    HW239258   0.700   0.480   1.913  1.5991 -1.0988  0.0867
 9267SOL     OW39259   3.772   2.935   1.862  0.1209 -0.1579 -0.2754
 9267SOL    HW139260   3.755   2.989   1.939 -1.2903  1.8844 -2.0013
 9267SOL    HW239261   3.702   2.873   1.884 -1.7681  2.3817  0.8702
 9268SOL     OW39262   1.795   0.597   1.135 -0.4141 -0.5292 -0.1101
 9268SOL    HW139263   1.835   0.515   1.164 -3.4784 -1.5084  1.3963
 9268SOL    HW239264   1.707   0.560   1.129 -0.1730 -1.1200  0.0496
 9269SOL     OW39265   3.594   4.138  14.798  0.6461  0.2181  0.1027
 9269SOL    HW139266   3.613   4.083  14.722 -0.4254 -0.0390  0.0150
 9269SOL    HW239267   3.668   4.113  14.853  0.7552 -1.1800 -0.6817
 9270SOL     OW39268   1.824   0.028  10.347 -0.2797  0.5221 -0.2509
 9270SOL    HW139269   1.862   4.678  10.399 -2.0397 -1.9732 -2.3260
 9270SOL    HW239270   1.877   0.107  10.360  3.3309 -2.0162  0.3367
 9271SOL     OW39271   0.765   1.780   5.620 -0.3553  0.2206 -0.1227
 9271SOL    HW139272   0.700   1.713   5.643 -0.5857  0.0836 -1.1649
 9271SOL    HW239273   0.726   1.864   5.595  0.6058  1.4837  2.5938
 9272SOL     OW39274   3.532   2.271   6.753  0.3875 -0.2759  0.4276
 9272SOL    HW139275   3.445   2.285   6.791 -0.7968 -0.5133 -2.2021
 9272SOL    HW239276   3.547   2.177   6.756 -0.4141 -0.4804 -2.1613
 9273SOL     OW39277   3.123   0.339   8.557 -0.6734  0.4420  0.4910
 9273SOL    HW139278   3.084   0.427   8.552  0.7877  1.2448  2.8045
 9273SOL    HW239279   3.056   0.283   8.517  1.5497 -2.2003  0.5008
 9274SOL     OW39280   2.548   2.468  16.808  0.6616 -0.1338 -0.5554
 9274SOL    HW139281   2.612   2.473  16.737  0.9523 -1.7044 -0.3928
 9274SOL    HW239282   2.605   2.454  16.883 -0.8390 -0.3256  0.5493
 9275SOL     OW39283   0.107   1.764   8.277  0.6774 -0.1992  0.6655
 9275SOL    HW139284   0.192   1.775   8.321  1.2475 -1.6449 -0.0889
 9275SOL    HW239285   0.128   1.686   8.225  0.2974 -1.3600  2.2548
 9276SOL     OW39286   3.718   1.536   8.635 -0.2779  0.2201  0.1009
 9276SOL    HW139287   3.659   1.513   8.564  1.1241 -0.0668 -0.9728
 9276SOL    HW239288   3.700   1.627   8.657  0.8809  0.0250  1.8980
 9277SOL     OW39289   3.294   2.782  14.012 -0.5390  0.5412 -0.1392
 9277SOL    HW139290   3.358   2.725  14.054 -0.6217  0.5110 -0.0540
 9277SOL    HW239291   3.236   2.723  13.963  0.3671 -2.4859  2.4681
 9278SOL     OW39292   1.195   2.206  11.282 -0.0347 -0.1281  0.0073
 9278SOL    HW139293   1.237   2.191  11.197 -1.4167 -0.8516 -0.5418
 9278SOL    HW239294   1.258   2.276  11.302  0.3021 -0.6793  0.8784
 9279SOL     OW39295   0.738   3.012   3.761 -0.6226 -0.4602 -0.2066
 9279SOL    HW139296   0.792   2.978   3.690 -0.0003  0.3381 -0.1136
 9279SOL    HW239297   0.702   3.090   3.719  0.9054  0.0132 -0.6055
 9280SOL     OW39298   1.166   3.149   3.529  0.6523  0.2901 -0.2063
 9280SOL    HW139299   1.159   3.245   3.528  0.9762  0.3175  0.1324
 9280SOL    HW239300   1.163   3.133   3.435  0.6556 -1.9144  0.1839
 9281SOL     OW39301   3.369   2.996   7.501  0.1547  0.1085 -0.0984
 9281SOL    HW139302   3.305   2.927   7.489 -1.5250  1.4975  0.8905
 9281SOL    HW239303   3.355   3.051   7.424 -0.2965  2.0499  1.3625
 9282SOL     OW39304   1.092   0.440   3.978  0.0115 -0.2582  0.0999
 9282SOL    HW139305   1.100   0.517   3.921 -0.1953  0.5892  1.2129
 9282SOL    HW239306   0.998   0.426   3.977  0.1607 -1.2219 -0.2412
 9283SOL     OW39307   1.723   0.440   1.943 -0.4996  0.0976  0.2632
 9283SOL    HW139308   1.708   0.395   1.859 -1.0491 -1.0873  0.9996
 9283SOL    HW239309   1.698   0.381   2.013  0.0722 -0.4176  0.0286
 9284SOL     OW39310   0.260   2.103   9.459  0.2720 -0.4857  0.2984
 9284SOL    HW139311   0.167   2.090   9.478  0.0905  1.2784  0.6376
 9284SOL    HW239312   0.287   2.148   9.539  1.5989  0.3649 -0.6258
 9285SOL     OW39313   1.854   1.046   6.422 -0.0140 -0.1844 -0.1625
 9285SOL    HW139314   1.918   1.020   6.489  1.4831  3.8629 -0.0180
 9285SOL    HW239315   1.785   0.980   6.435  0.9071 -1.1427 -0.1773
 9286SOL     OW39316   4.634   0.806   3.132  0.5957  0.1886  0.3312
 9286SOL    HW139317   4.602   0.849   3.052  0.6638  0.6527  0.5522
 9286SOL    HW239318   0.005   0.831   3.122  0.0997  1.7808 -0.2756
 9287SOL     OW39319   3.480   1.998  14.671 -0.0436  0.1099 -0.3504
 9287SOL    HW139320   3.575   1.984  14.673  0.0024  0.2922 -1.0975
 9287SOL    HW239321   3.449   1.930  14.611 -0.8334  1.3009 -1.3048
 9288SOL     OW39322   3.000   0.178  14.607  0.6196 -0.0896 -0.4982
 9288SOL    HW139323   3.009   0.210  14.696 -2.0809  0.7722 -0.5318
 9288SOL    HW239324   2.922   0.124  14.616 -0.7252  1.9580  0.0839
 9289SOL     OW39325   3.111   2.278  12.814  0.2829 -0.0699 -0.1527
 9289SOL    HW139326   3.139   2.283  12.906  0.9245 -1.5821 -0.2720
 9289SOL    HW239327   3.180   2.223  12.777  1.1542 -0.0836  1.4656
 9290SOL     OW39328   2.572   1.120  12.196 -0.1719  0.2215  0.0236
 9290SOL    HW139329   2.634   1.060  12.153  1.2828  1.5939  0.2183
 9290SOL    HW239330   2.506   1.121  12.126 -1.0215  0.2653  0.8244
 9291SOL     OW39331   2.144   1.239   8.003  0.5139  0.2506  0.0365
 9291SOL    HW139332   2.218   1.259   8.060 -0.3751  0.6132  1.0698
 9291SOL    HW239333   2.070   1.258   8.061 -0.7251 -2.7558 -0.5160
 9292SOL     OW39334   2.741   3.590  11.904 -0.0931 -0.3277  0.2816
 9292SOL    HW139335   2.826   3.613  11.941  0.6924 -2.7899 -0.0036
 9292SOL    HW239336   2.758   3.496  11.904 -1.2965 -0.5455 -0.5359
 9293SOL     OW39337   4.368   1.572   1.094  1.0364  0.1110  0.1188
 9293SOL    HW139338   4.415   1.517   1.156  0.5897 -0.7423 -0.2984
 9293SOL    HW239339   4.433   1.635   1.062  0.1723  0.8889 -0.1197
 9294SOL     OW39340   2.272   1.447   8.187 -0.6660  0.1647 -0.4169
 9294SOL    HW139341   2.229   1.525   8.222  2.5601  1.8826 -0.2519
 9294SOL    HW239342   2.339   1.483   8.128 -1.3071  1.5648 -0.2900
 9295SOL     OW39343   3.850   2.976   7.427  0.4163 -0.4104  0.0049
 9295SOL    HW139344   3.824   2.996   7.517  0.1282 -1.0945  0.0683
 9295SOL    HW239345   3.846   3.059   7.380  2.0912  0.1452  0.8405
 9296SOL     OW39346   3.283   0.867   0.677 -0.0491 -0.1388  0.1040
 9296SOL    HW139347   3.287   0.960   0.654 -0.2648  0.2579  1.6874
 9296SOL    HW239348   3.375   0.846   0.664  0.1776  1.7881 -1.3576
 9297SOL     OW39349   0.746   2.140  14.582  0.1852 -0.2644  0.4891
 9297SOL    HW139350   0.709   2.169  14.498 -2.3434  0.9351  2.0039
 9297SOL    HW239351   0.663   2.129  14.629  0.5208  0.5427  1.2682
 9298SOL     OW39352   4.327   4.012   0.673 -0.3507  0.0491  0.0355
 9298SOL    HW139353   4.371   4.054   0.599  0.3375  0.9045  0.9291
 9298SOL    HW239354   4.354   4.064   0.748 -1.2011 -0.5304  0.7512
 9299SOL     OW39355   3.087   0.064  13.252  0.4665 -0.0265 -0.2469
 9299SOL    HW139356   3.082   0.139  13.311 -1.5247  0.5598 -1.1658
 9299SOL    HW239357   3.180   0.046  13.241  0.1511 -2.0189  0.3629
 9300SOL     OW39358   1.859   2.505   1.399 -0.4564 -0.3017 -0.5240
 9300SOL    HW139359   1.861   2.552   1.316 -0.7127 -0.6143 -0.7074
 9300SOL    HW239360   1.927   2.548   1.452 -0.0974 -1.1225 -0.3096
 9301SOL     OW39361   3.794   3.152   6.344  0.2117 -0.0884 -0.4064
 9301SOL    HW139362   3.858   3.128   6.276  0.5677  1.5798 -0.6653
 9301SOL    HW239363   3.853   3.180   6.413 -1.5206 -0.5985  1.2741
 9302SOL     OW39364   2.547   1.108   3.594  0.3644  0.0395 -0.1308
 9302SOL    HW139365   2.563   1.050   3.519 -2.2630  0.5376 -1.0682
 9302SOL    HW239366   2.582   1.055   3.666 -1.1424 -1.1527 -0.2517
 9303SOL     OW39367   2.884   2.163   3.781  0.8361 -0.2921 -0.1762
 9303SOL    HW139368   2.894   2.081   3.733 -1.4980 -0.6969  0.0530
 9303SOL    HW239369   2.946   2.147   3.852  1.2966 -0.4845 -0.6223
 9304SOL     OW39370   1.505   2.274  12.954  0.4910 -0.4150  0.2147
 9304SOL    HW139371   1.479   2.182  12.962  0.9958 -0.2886  3.1351
 9304SOL    HW239372   1.438   2.318  13.006 -0.0743  0.3461 -1.1282
 9305SOL     OW39373   1.702   0.203   1.820 -0.5418 -0.5954 -0.3351
 9305SOL    HW139374   1.791   0.211   1.854  0.2528 -0.0010 -2.5351
 9305SOL    HW239375   1.690   0.109   1.830  1.4011 -0.7255  0.8648
 9306SOL     OW39376   1.297   0.869   3.282 -0.5605 -0.2242 -0.3324
 9306SOL    HW139377   1.287   0.952   3.329 -1.2906 -1.2945  1.3762
 9306SOL    HW239378   1.391   0.861   3.268 -0.8238 -1.7030 -1.2378
 9307SOL     OW39379   3.754   1.070   5.766  0.2037  0.5366 -0.1679
 9307SOL    HW139380   3.734   0.999   5.828 -1.6169  0.8703 -0.3687
 9307SOL    HW239381   3.768   1.142   5.828  1.7063  0.4632 -0.4228
 9308SOL     OW39382   3.932   3.987   9.466 -0.6934 -0.1299  0.2797
 9308SOL    HW139383   3.847   3.959   9.432 -0.7612  1.3380 -0.7227
 9308SOL    HW239384   3.911   3.998   9.559 -0.3609  1.0141  0.2158
 9309SOL     OW39385   4.040   0.958   6.142  0.2956  0.3459  0.3226
 9309SOL    HW139386   4.003   0.985   6.226 -3.0199 -2.0188 -0.3779
 9309SOL    HW239387   4.108   1.025   6.133  1.3759 -0.3642  3.1799
 9310SOL     OW39388   4.597   4.131   1.010 -0.3197  1.2853 -0.6924
 9310SOL    HW139389   4.638   4.162   0.929  0.5116  0.0645 -0.7421
 9310SOL    HW239390   4.505   4.130   0.981 -0.6169  1.3788  0.2466
 9311SOL     OW39391   0.194   4.593   7.309  0.1438 -0.0368 -0.1894
 9311SOL    HW139392   0.184   4.511   7.357 -0.0033 -0.6442 -1.2725
 9311SOL    HW239393   0.113   4.638   7.331 -0.3230 -0.6911 -0.5944
 9312SOL     OW39394   1.810   3.790   8.849  0.1095 -0.0206 -0.6442
 9312SOL    HW139395   1.900   3.761   8.829  0.6932  1.4213 -0.0554
 9312SOL    HW239396   1.832   3.864   8.906 -0.4939  0.6792 -1.3266
 9313SOL     OW39397   1.068   3.873   0.675 -0.5023 -0.0435  0.1350
 9313SOL    HW139398   1.003   3.893   0.608  1.6511  1.8379 -1.3987
 9313SOL    HW239399   1.048   3.947   0.733  0.4864  1.5958 -1.6123
 9314SOL     OW39400   3.830   2.231  15.462  0.6659 -0.3397  0.4080
 9314SOL    HW139401   3.879   2.154  15.493  2.0754  0.1755 -0.5163
 9314SOL    HW239402   3.759   2.190  15.412  0.0693  0.5702  0.5122
 9315SOL     OW39403   1.245   1.009   5.559  0.1323  0.4051 -0.6005
 9315SOL    HW139404   1.162   1.044   5.526  0.5972  1.3916 -0.7475
 9315SOL    HW239405   1.226   1.002   5.652 -1.1409  1.2935 -0.8021
 9316SOL     OW39406   4.638   4.117   9.191  0.0218  0.4752 -0.2351
 9316SOL    HW139407   4.549   4.083   9.179  0.7795 -1.2695 -0.8480
 9316SOL    HW239408   4.628   4.183   9.259 -0.3480 -0.5368  0.6954
 9317SOL     OW39409   4.013   1.154   3.856  0.0933 -0.7043 -0.4444
 9317SOL    HW139410   4.000   1.128   3.947  3.3025  0.7581  0.4362
 9317SOL    HW239411   3.974   1.083   3.804 -0.0279 -1.3741  0.5767
 9318SOL     OW39412   3.774   4.643   8.695 -0.3140 -0.2602  0.1663
 9318SOL    HW139413   3.785   4.685   8.780  0.0749  0.9638 -0.4750
 9318SOL    HW239414   3.704   4.693   8.653  0.7894  1.3282  0.1820
 9319SOL     OW39415   0.743   2.399   8.011 -0.5324  0.5572  0.0030
 9319SOL    HW139416   0.729   2.307   8.034 -2.6725  1.1499  1.0839
 9319SOL    HW239417   0.767   2.391   7.919 -0.0584  3.2326 -0.1020
 9320SOL     OW39418   1.506   2.080   3.488  0.3986 -0.6883  0.6212
 9320SOL    HW139419   1.431   2.121   3.444  0.5989 -2.3118 -1.2554
 9320SOL    HW239420   1.467   2.043   3.568  0.4630 -0.4100  0.7788
 9321SOL     OW39421   3.856   4.404   8.453  0.3870  0.2680 -0.1191
 9321SOL    HW139422   3.846   4.423   8.359  1.4860 -1.6539 -0.6189
 9321SOL    HW239423   3.821   4.484   8.492  1.1941  0.0382  1.0682
 9322SOL     OW39424   1.977   1.251   1.854 -0.3493  0.0760  0.0859
 9322SOL    HW139425   1.977   1.241   1.949 -1.8103 -1.9235 -0.1172
 9322SOL    HW239426   1.884   1.269   1.842 -0.3131 -0.2968 -0.7512
 9323SOL     OW39427   4.624   2.527   1.367  0.3383  0.7290 -0.3542
 9323SOL    HW139428   4.696   2.531   1.305  1.7631  0.5922  1.2737
 9323SOL    HW239429   4.581   2.609   1.344  0.9370  0.4103 -2.5387
 9324SOL     OW39430   3.851   3.195   8.282 -0.4240  0.3089 -0.1118
 9324SOL    HW139431   3.885   3.132   8.219 -0.7524  0.0990 -0.0758
 9324SOL    HW239432   3.761   3.212   8.256 -0.0918  1.2663 -0.6532
 9325SOL     OW39433   3.804   1.063  12.924  0.0581 -0.0545  0.0737
 9325SOL    HW139434   3.881   1.032  12.971 -0.8752 -0.2800  1.4492
 9325SOL    HW239435   3.820   1.035  12.834 -0.7725  1.1760 -0.4683
 9326SOL     OW39436   2.242   3.173  10.115 -0.3616 -0.7400 -0.4883
 9326SOL    HW139437   2.267   3.265  10.117 -0.0623 -0.8340  0.1556
 9326SOL    HW239438   2.157   3.175  10.158 -0.1143 -0.1932 -0.0226
 9327SOL     OW39439   0.738   3.740   4.787 -0.7629  0.1699  0.0737
 9327SOL    HW139440   0.729   3.692   4.705 -0.2411  0.3035 -0.0626
 9327SOL    HW239441   0.735   3.833   4.762 -2.0608 -0.9137 -3.7337
 9328SOL     OW39442   3.791   3.921   7.945  0.4101 -0.4933 -0.0585
 9328SOL    HW139443   3.787   3.843   7.890  1.3195 -1.4030  1.1691
 9328SOL    HW239444   3.805   3.987   7.878  1.5675 -0.0214  0.6418
 9329SOL     OW39445   4.114   1.754  16.773  0.0768  0.5797 -0.9238
 9329SOL    HW139446   4.130   1.800  16.855  1.6954 -0.7007 -0.5172
 9329SOL    HW239447   4.198   1.775  16.732  1.0037  0.1145  0.7488
 9330SOL     OW39448   0.251   3.451   8.261 -0.1401  0.4152 -0.0143
 9330SOL    HW139449   0.232   3.470   8.169  2.5237 -1.5717 -0.9625
 9330SOL    HW239450   0.301   3.527   8.291  0.1903  0.1678  0.0584
 9331SOL     OW39451   0.363   2.066   8.467  0.0842 -0.3502 -0.1390
 9331SOL    HW139452   0.334   2.141   8.414 -1.2798  0.6607  2.0263
 9331SOL    HW239453   0.334   2.091   8.555 -0.7806  2.3193 -1.1892
 9332SOL     OW39454   2.375   1.820   5.440  0.2277  0.0770 -0.0261
 9332SOL    HW139455   2.315   1.888   5.471 -0.9271 -0.7493 -0.4856
 9332SOL    HW239456   2.327   1.794   5.362  1.8350 -0.5603 -0.8050
 9333SOL     OW39457   3.671   4.429  15.696 -0.5124  0.0035 -0.5108
 9333SOL    HW139458   3.734   4.490  15.732 -1.3861  0.4817  0.2119
 9333SOL    HW239459   3.644   4.386  15.777  1.5925  2.3144  1.3934
 9334SOL     OW39460   1.560   1.554  10.451  0.6294  0.0734  0.2392
 9334SOL    HW139461   1.554   1.605  10.532 -3.6940 -0.2610  0.1175
 9334SOL    HW239462   1.483   1.583  10.403  0.6794  0.4834  0.4035
 9335SOL     OW39463   0.864   1.998   7.145  0.2002 -0.0801  0.0015
 9335SOL    HW139464   0.844   2.061   7.076 -0.6935  0.1658  0.4816
 9335SOL    HW239465   0.865   2.059   7.219  0.4584  0.9653 -0.8735
 9336SOL     OW39466   2.153   3.635   9.541 -0.4086  0.2040  0.3005
 9336SOL    HW139467   2.243   3.619   9.568 -0.0966 -0.9262 -1.3714
 9336SOL    HW239468   2.104   3.634   9.623  1.6125  1.6363  1.5313
 9337SOL     OW39469   4.290   0.296  16.518 -0.4092  0.1662 -0.3459
 9337SOL    HW139470   4.316   0.206  16.496 -0.3922  0.0899 -0.0152
 9337SOL    HW239471   4.244   0.277  16.600 -0.2791  0.7636 -0.1406
 9338SOL     OW39472   1.612   3.195  14.360 -0.1931 -0.1051  0.2557
 9338SOL    HW139473   1.574   3.191  14.273  1.3517 -0.3007 -0.3950
 9338SOL    HW239474   1.698   3.233  14.347 -0.6365  0.6050 -0.5771
 9339SOL     OW39475   0.692   3.705   5.388  0.1074  0.1334  0.4155
 9339SOL    HW139476   0.752   3.777   5.407  0.8635  0.3710 -2.9269
 9339SOL    HW239477   0.744   3.627   5.409 -0.6264 -0.3594  0.4444
 9340SOL     OW39478   3.933   1.055   0.472  0.2138  0.1772  0.3154
 9340SOL    HW139479   3.847   1.094   0.456 -0.0238 -0.0597  1.0142
 9340SOL    HW239480   3.960   1.118   0.539 -1.2888  1.0071  0.1415
 9341SOL     OW39481   1.798   3.611   0.358 -0.0044 -0.1791 -0.0863
 9341SOL    HW139482   1.853   3.553   0.411  0.6537 -0.2663 -0.8709
 9341SOL    HW239483   1.710   3.586   0.387 -0.4676  1.9577  0.3833
 9342SOL     OW39484   3.830   0.926  12.692 -0.1137  0.4441  0.2293
 9342SOL    HW139485   3.871   0.842  12.712  0.0796  0.5396  0.2422
 9342SOL    HW239486   3.784   0.898  12.613  0.9594  0.8836 -0.5627
 9343SOL     OW39487   4.213   1.851   6.690  0.3242 -0.1652 -0.3314
 9343SOL    HW139488   4.189   1.915   6.756 -0.8331 -0.9448 -0.0029
 9343SOL    HW239489   4.128   1.817   6.663  0.8464 -1.5683 -0.2062
 9344SOL     OW39490   0.655   4.344  16.905 -0.4117  0.5399  0.3161
 9344SOL    HW139491   0.578   4.381  16.948 -1.0565 -0.2181 -0.1895
 9344SOL    HW239492   0.617   4.327  16.819 -0.1961  2.3502 -0.1457
 9345SOL     OW39493   4.293   2.527   4.527 -0.3673 -0.8583 -0.2634
 9345SOL    HW139494   4.234   2.482   4.466  1.2119 -0.7713 -1.8558
 9345SOL    HW239495   4.288   2.461   4.597 -0.9599 -1.3874 -0.8090
 9346SOL     OW39496   3.699   3.375   0.313 -0.4592  0.1489  0.9203
 9346SOL    HW139497   3.743   3.421   0.385  0.9216  2.0200 -1.1221
 9346SOL    HW239498   3.624   3.346   0.366 -1.4381  0.3428 -0.3475
 9347SOL     OW39499   0.754   0.017   9.307 -0.2507  0.4215  0.1285
 9347SOL    HW139500   0.659   0.022   9.299 -0.0131  2.0909 -1.7368
 9347SOL    HW239501   0.791   0.088   9.254  1.8677 -0.7072  0.0605
 9348SOL     OW39502   1.402   0.960  11.935  0.2951 -0.0792  0.4018
 9348SOL    HW139503   1.341   1.033  11.944 -0.2693 -0.5885  0.7023
 9348SOL    HW239504   1.367   0.895  11.996  0.0963 -0.1578  0.2028
 9349SOL     OW39505   1.963   4.511   8.597  0.1464 -0.8754 -0.5698
 9349SOL    HW139506   1.927   4.434   8.552 -0.4595 -0.6036 -0.5416
 9349SOL    HW239507   2.056   4.493   8.611  0.7107  0.7371 -2.1420
 9350SOL     OW39508   2.317   1.828  11.432  0.1513  0.0718 -0.5049
 9350SOL    HW139509   2.331   1.829  11.526  0.4032  0.8561 -0.5566
 9350SOL    HW239510   2.227   1.859  11.422 -0.5265 -1.2034  1.5243
 9351SOL     OW39511   1.835   1.613   3.667 -0.0556  0.2403 -0.2320
 9351SOL    HW139512   1.864   1.613   3.575  1.2876 -2.1766  0.1938
 9351SOL    HW239513   1.915   1.591   3.714  0.6878  1.1593 -1.0613
 9352SOL     OW39514   3.446   2.269  16.632 -0.6587  0.3129 -0.0198
 9352SOL    HW139515   3.539   2.287  16.630  0.0353 -3.3160 -1.5753
 9352SOL    HW239516   3.405   2.354  16.647  0.1234  0.6929 -0.0346
 9353SOL     OW39517   1.999   3.306   6.120  0.1195  0.2449 -0.1393
 9353SOL    HW139518   1.910   3.292   6.089  0.2183 -0.1601 -0.2443
 9353SOL    HW239519   1.976   3.365   6.192 -1.0596 -0.5484  0.1349
 9354SOL     OW39520   4.474   2.634  12.323 -0.1827 -0.0793 -0.2801
 9354SOL    HW139521   4.527   2.567  12.366 -2.3516 -1.6430 -0.0157
 9354SOL    HW239522   4.407   2.585  12.275  0.2416 -0.8552 -0.0710
 9355SOL     OW39523   2.823   1.025   2.927 -0.0481 -0.4006  0.4658
 9355SOL    HW139524   2.774   1.105   2.950 -0.4652 -0.5469  0.0846
 9355SOL    HW239525   2.879   1.072   2.866  0.1836 -1.6089 -0.2240
 9356SOL     OW39526   4.131   1.710   3.772 -0.2984  0.0675 -0.4408
 9356SOL    HW139527   4.067   1.710   3.701  0.4080  0.6297 -1.0882
 9356SOL    HW239528   4.191   1.778   3.739  0.4324  1.2891  3.4352
 9357SOL     OW39529   2.958   0.489   6.202  0.3221 -0.1034 -0.3580
 9357SOL    HW139530   2.959   0.452   6.113 -0.9063  1.6085 -1.0798
 9357SOL    HW239531   2.876   0.537   6.192  0.3344  0.0965  0.5283
 9358SOL     OW39532   1.182   0.663   3.535 -0.4248  0.2115 -0.0875
 9358SOL    HW139533   1.274   0.685   3.550 -0.8176  1.8008 -0.0333
 9358SOL    HW239534   1.196   0.577   3.494 -0.7718 -0.7875  1.8653
 9359SOL     OW39535   0.885   0.078  13.948  0.5088 -0.2504  0.1320
 9359SOL    HW139536   0.895   0.172  13.931  1.0302  0.0017  1.7940
 9359SOL    HW239537   0.881   0.082  14.044  1.0404 -2.1021  0.2274
 9360SOL     OW39538   2.490   3.025  13.283  0.2955 -0.4409  0.3058
 9360SOL    HW139539   2.436   3.010  13.361  0.8552 -1.7204  0.4563
 9360SOL    HW239540   2.492   2.935  13.249  0.4384 -0.7233  1.0630
 9361SOL     OW39541   1.646   0.483   7.350  0.1141 -0.4510  0.1558
 9361SOL    HW139542   1.650   0.573   7.318  0.1025 -0.6078 -0.2790
 9361SOL    HW239543   1.612   0.499   7.439  0.8945  1.6562  0.0728
 9362SOL     OW39544   4.477   2.999   9.018  0.7487  0.1707  0.0506
 9362SOL    HW139545   4.402   2.999   9.078  0.3320  0.4320 -0.4736
 9362SOL    HW239546   4.548   2.981   9.080 -1.1163 -0.4273  2.0278
 9363SOL     OW39547   0.776   3.789   1.998 -0.2612  0.4188 -0.1770
 9363SOL    HW139548   0.827   3.713   1.969 -2.9051 -1.5793  0.3707
 9363SOL    HW239549   0.695   3.763   1.953  1.4330 -0.4146 -2.7599
 9364SOL     OW39550   0.437   2.584   7.433 -0.1901 -0.4296  0.4586
 9364SOL    HW139551   0.381   2.509   7.455 -3.0077  1.0663 -1.6974
 9364SOL    HW239552   0.369   2.651   7.429  1.9243  1.7823  1.9166
 9365SOL     OW39553   2.554   4.475   1.354  0.2283  0.6523 -0.1876
 9365SOL    HW139554   2.547   4.550   1.413 -3.4525  0.4388 -0.3562
 9365SOL    HW239555   2.462   4.446   1.357 -0.2819  2.3393  0.3585
 9366SOL     OW39556   2.815   2.853  14.028  0.5477 -0.2033 -0.5851
 9366SOL    HW139557   2.889   2.900  13.989  0.6632  1.7424  1.9687
 9366SOL    HW239558   2.855   2.820  14.108 -0.7529 -1.4988 -0.4586
 9367SOL     OW39559   3.669   3.752  15.699  0.0732  0.1661  0.5103
 9367SOL    HW139560   3.755   3.735  15.737  0.7831 -1.3260 -1.8336
 9367SOL    HW239561   3.625   3.768  15.783 -2.3827 -2.0990 -0.3455
 9368SOL     OW39562   1.102   0.994  14.625 -0.2534 -0.3800 -0.3396
 9368SOL    HW139563   1.155   1.069  14.597  2.0778 -1.4990  1.0393
 9368SOL    HW239564   1.116   0.934  14.552  0.1217  1.4216 -1.7606
 9369SOL     OW39565   4.687   0.630   2.799 -1.0349  0.3279  0.2076
 9369SOL    HW139566   0.055   0.666   2.796 -0.5694 -0.8757 -0.5286
 9369SOL    HW239567   4.645   0.708   2.837  0.7043  2.3299 -1.9789
 9370SOL     OW39568   0.379   3.608   3.841 -0.2144  0.3164  0.5604
 9370SOL    HW139569   0.338   3.653   3.915 -1.4432  2.0805 -1.2353
 9370SOL    HW239570   0.374   3.674   3.773  0.5439 -2.4225 -2.1310
 9371SOL     OW39571   3.339   0.284   5.406  0.4180 -0.0758 -0.1290
 9371SOL    HW139572   3.251   0.265   5.374  0.5096 -2.7046  1.1680
 9371SOL    HW239573   3.325   0.331   5.488 -0.1709 -2.8245  1.3476
 9372SOL     OW39574   2.488   1.115   6.989 -0.0574  0.0122 -0.9938
 9372SOL    HW139575   2.534   1.038   6.955  1.0921 -0.5578  1.8749
 9372SOL    HW239576   2.464   1.163   6.909 -0.8773  1.7716  0.3316
 9373SOL     OW39577   1.028   3.764   4.021 -0.5548  0.0104 -0.4938
 9373SOL    HW139578   1.112   3.788   4.060  0.2180  1.4005 -2.9758
 9373SOL    HW239579   1.045   3.711   3.943  1.3405  1.0223 -0.7482
 9374SOL     OW39580   1.125   1.925   3.901  0.2401  0.4016 -0.3715
 9374SOL    HW139581   1.195   1.989   3.915  0.4196 -0.0339  0.7422
 9374SOL    HW239582   1.100   1.931   3.809  0.5131  0.3895 -0.4457
 9375SOL     OW39583   0.924   2.545   6.138 -0.4183  0.1782 -0.1903
 9375SOL    HW139584   0.943   2.475   6.075  0.6123  1.2950 -1.1194
 9375SOL    HW239585   0.939   2.492   6.216  2.5580  0.6057 -0.4508
 9376SOL     OW39586   2.675   3.440  11.562  0.2154  0.5281  0.3517
 9376SOL    HW139587   2.609   3.451  11.630 -0.5742 -2.3153  0.0684
 9376SOL    HW239588   2.664   3.350  11.532  0.4231  0.9260 -0.9217
 9377SOL     OW39589   4.265   3.767   0.588 -0.4222  0.8459 -0.1382
 9377SOL    HW139590   4.277   3.858   0.562 -0.8475  1.4964  1.9323
 9377SOL    HW239591   4.307   3.767   0.674 -1.1839  0.7938  0.2345
 9378SOL     OW39592   3.306   3.430  13.592  0.0355 -0.3194  0.6920
 9378SOL    HW139593   3.320   3.350  13.642  2.9548  0.1992  0.6673
 9378SOL    HW239594   3.212   3.446  13.597  0.4215  2.0418  0.3182
 9379SOL     OW39595   4.399   0.848   3.621 -0.0476 -0.5607 -0.1824
 9379SOL    HW139596   4.366   0.933   3.590  1.2724  0.5967  1.5459
 9379SOL    HW239597   4.427   0.812   3.537 -1.1440 -0.6550 -0.5089
 9380SOL     OW39598   3.862   3.646  13.932 -0.2718 -0.6866  0.4202
 9380SOL    HW139599   3.773   3.621  13.904 -1.1516  0.7860  1.8808
 9380SOL    HW239600   3.894   3.559  13.957 -1.7143 -0.9818  1.2581
 9381SOL     OW39601   1.552   3.009   2.559  0.3960 -0.2200  0.1415
 9381SOL    HW139602   1.598   2.951   2.497 -0.0166 -1.1656  0.7240
 9381SOL    HW239603   1.469   2.962   2.562  0.5633 -0.4083  1.8093
 9382SOL     OW39604   3.037   2.617  10.733 -0.1809  0.1986 -0.5892
 9382SOL    HW139605   3.034   2.618  10.829  0.9759  1.3498 -0.5685
 9382SOL    HW239606   2.948   2.632  10.700 -0.6772  0.7047  0.9810
 9383SOL     OW39607   3.050   4.682   5.379  0.2416 -0.0029  0.2517
 9383SOL    HW139608   3.083   4.696   5.291 -1.3967 -1.4405 -0.5960
 9383SOL    HW239609   3.027   0.051   5.403 -0.4194 -0.5294  1.6446
 9384SOL     OW39610   3.533   4.432  13.764 -0.0939  0.0959  0.1361
 9384SOL    HW139611   3.520   4.454  13.671 -0.0819 -3.4719 -0.6826
 9384SOL    HW239612   3.445   4.401  13.787  1.3706 -2.9029  1.6001
 9385SOL     OW39613   3.949   4.713  16.758  0.1180  0.3645 -0.5414
 9385SOL    HW139614   3.897   0.066  16.790 -0.8013 -1.3077  1.8521
 9385SOL    HW239615   3.995   4.695  16.840 -0.0305 -1.0112 -0.7668
 9386SOL     OW39616   0.000   2.439   2.916 -0.4125 -0.7787 -0.4752
 9386SOL    HW139617   0.024   2.508   2.854  0.1077  0.4565  1.1021
 9386SOL    HW239618   4.632   2.469   2.931 -1.8802 -5.4574  0.1771
 9387SOL     OW39619   1.170   0.541  12.004  0.7652 -0.1963 -0.4658
 9387SOL    HW139620   1.215   0.497  11.931  1.8814  0.2054 -0.0227
 9387SOL    HW239621   1.162   0.468  12.066 -0.1780 -0.8921 -1.3988
 9388SOL     OW39622   1.719   2.232   2.643  0.7764 -0.1187 -1.1750
 9388SOL    HW139623   1.646   2.203   2.588  0.3480 -1.6057  0.1820
 9388SOL    HW239624   1.788   2.172   2.616  1.6811  0.3552  0.0980
 9389SOL     OW39625   1.427   2.112  12.686 -0.1727 -0.3924 -0.1642
 9389SOL    HW139626   1.412   2.068  12.769 -0.8876  0.0797 -0.0489
 9389SOL    HW239627   1.388   2.197  12.702  0.2920  0.2195 -2.2643
 9390SOL     OW39628   2.903   3.108   6.361 -0.4646 -0.6955  0.1702
 9390SOL    HW139629   2.832   3.136   6.303  2.3803  2.6871 -1.6415
 9390SOL    HW239630   2.949   3.046   6.305  0.0027 -1.9545  1.9332
 9391SOL     OW39631   3.406   2.059  11.903  0.2997 -0.0132 -0.3143
 9391SOL    HW139632   3.409   2.144  11.860 -1.1212 -1.6030 -3.5238
 9391SOL    HW239633   3.476   2.070  11.968 -1.2621  0.3008  1.2927
 9392SOL     OW39634   1.792   1.098   7.363  0.0563  0.4065 -0.1864
 9392SOL    HW139635   1.809   1.122   7.454  1.6964  0.0484 -0.3835
 9392SOL    HW239636   1.876   1.053   7.347  0.1988  1.2008 -1.6220
 9393SOL     OW39637   2.861   0.297   4.253 -0.2036 -0.4902 -0.4942
 9393SOL    HW139638   2.859   0.227   4.318 -0.8443  0.8752  0.9477
 9393SOL    HW239639   2.768   0.292   4.233 -0.4526 -0.4923  0.6499
 9394SOL     OW39640   1.516   3.663   7.696 -0.0263 -0.4028 -0.3846
 9394SOL    HW139641   1.506   3.709   7.613 -0.8911  0.6823  0.3164
 9394SOL    HW239642   1.430   3.621   7.709 -0.6530  0.4282 -1.9646
 9395SOL     OW39643   1.612   1.656  15.745  0.1037 -0.4539  0.1228
 9395SOL    HW139644   1.607   1.570  15.786  1.3348 -0.6114 -0.0758
 9395SOL    HW239645   1.570   1.704  15.817 -0.4833 -0.1414 -0.4271
 9396SOL     OW39646   0.568   2.746  13.285 -0.2251  0.3578  0.6119
 9396SOL    HW139647   0.559   2.841  13.288  1.3026  0.3962  3.6486
 9396SOL    HW239648   0.646   2.738  13.340  0.8016  1.1217 -0.7361
 9397SOL     OW39649   1.740   4.298   8.458 -0.1634 -0.3699  0.1293
 9397SOL    HW139650   1.683   4.244   8.404 -1.3988  0.1488  0.9046
 9397SOL    HW239651   1.708   4.277   8.545 -0.8892  1.2944  0.2746
 9398SOL     OW39652   0.468   0.178   5.857 -0.1213 -0.2290 -0.6130
 9398SOL    HW139653   0.531   0.224   5.912  0.3735 -0.4977 -0.9574
 9398SOL    HW239654   0.486   0.087   5.881  4.1174  0.5582 -0.9483
 9399SOL     OW39655   3.710   4.452  14.242 -0.7920  0.3438 -0.5306
 9399SOL    HW139656   3.726   4.394  14.168  1.3865  1.5725 -1.0190
 9399SOL    HW239657   3.616   4.432  14.248  0.0208 -3.1522  0.2392
 9400SOL     OW39658   2.454   1.296  16.778  0.2049 -0.4787 -0.1047
 9400SOL    HW139659   2.392   1.366  16.802 -1.3879 -1.1683 -2.2789
 9400SOL    HW239660   2.450   1.250  16.861  0.9467  0.4889  0.4767
 9401SOL     OW39661   0.334   2.784   3.397  0.3064 -0.2667 -0.4745
 9401SOL    HW139662   0.239   2.799   3.398  0.1032 -1.8177  1.4008
 9401SOL    HW239663   0.340   2.690   3.414 -0.8832 -0.1906  0.3925
 9402SOL     OW39664   3.156   1.765   0.303 -0.0767  0.5051  0.0023
 9402SOL    HW139665   3.079   1.762   0.247 -0.0797 -0.3209  0.0461
 9402SOL    HW239666   3.144   1.700   0.372 -0.4421 -0.8722 -1.3506
 9403SOL     OW39667   1.574   4.321  11.468  0.0763 -0.0943  0.1644
 9403SOL    HW139668   1.584   4.226  11.475 -0.5165 -0.1741 -0.0458
 9403SOL    HW239669   1.604   4.345  11.380  0.4584 -0.9633  0.0630
 9404SOL     OW39670   3.879   2.258   5.726  0.2642  0.9242  0.7628
 9404SOL    HW139671   3.860   2.285   5.636  1.0357  1.0528  0.6347
 9404SOL    HW239672   3.797   2.211   5.736 -0.3243  1.6039 -0.9340
 9405SOL     OW39673   4.086   2.586   2.695  0.0753  0.6955 -0.1172
 9405SOL    HW139674   4.101   2.656   2.633  0.4566  1.2304  0.5779
 9405SOL    HW239675   4.149   2.620   2.759  0.5219 -1.4594  0.6222
 9406SOL     OW39676   3.975   3.266   5.335 -0.0339  0.0435  0.0160
 9406SOL    HW139677   3.882   3.258   5.352  0.1667 -0.6887  0.7482
 9406SOL    HW239678   4.000   3.174   5.335  2.8524  0.8160 -0.8332
 9407SOL     OW39679   2.178   2.937   8.904  0.3295  0.0230 -0.1404
 9407SOL    HW139680   2.164   2.855   8.952  0.6510 -1.0337 -1.8357
 9407SOL    HW239681   2.207   2.994   8.975  1.2168  0.2728 -0.7055
 9408SOL     OW39682   0.037   1.362   7.200  0.1170  0.3303 -0.5402
 9408SOL    HW139683   0.054   1.366   7.106 -1.1635  2.6809 -0.6759
 9408SOL    HW239684   0.129   1.362   7.228  0.2296  2.0091 -0.9211
 9409SOL     OW39685   2.290   1.968   9.516 -0.3006  0.1768  0.5746
 9409SOL    HW139686   2.316   2.036   9.578  1.4838  0.2603 -0.2710
 9409SOL    HW239687   2.230   2.016   9.461  2.3650  1.3934 -1.2469
 9410SOL     OW39688   0.501   3.355  16.853  0.4484  0.2318  0.0535
 9410SOL    HW139689   0.549   3.405  16.787 -0.0532  0.8074  0.1206
 9410SOL    HW239690   0.575   3.317  16.900 -0.2367 -1.0387  0.1117
 9411SOL     OW39691   3.866   3.648  10.948  0.2853  0.1175 -0.4127
 9411SOL    HW139692   3.789   3.599  10.920  0.4876 -0.7734  0.5615
 9411SOL    HW239693   3.834   3.737  10.937  2.2062  0.6373 -2.0074
 9412SOL     OW39694   1.321   1.052   2.478  0.0951  0.0287  0.3096
 9412SOL    HW139695   1.276   1.020   2.556  0.2759  0.0394  0.4169
 9412SOL    HW239696   1.265   1.012   2.411  2.6418 -2.5041 -0.2769
 9413SOL     OW39697   3.126   1.433   6.874  0.4333  0.0358 -0.1433
 9413SOL    HW139698   3.081   1.434   6.958 -0.1857 -1.0550 -0.4582
 9413SOL    HW239699   3.068   1.496   6.832  0.3612  0.3510  0.4404
 9414SOL     OW39700   3.606   1.065   2.480 -0.1692 -0.8956 -0.3895
 9414SOL    HW139701   3.519   1.041   2.448 -1.7804  2.6099  1.3291
 9414SOL    HW239702   3.655   1.054   2.399  0.3897  1.3167 -0.3620
 9415SOL     OW39703   1.887   1.828   4.461 -0.4069 -0.9194 -0.4192
 9415SOL    HW139704   1.792   1.815   4.461 -0.5913  0.3439 -1.0334
 9415SOL    HW239705   1.884   1.921   4.436  0.3084 -0.5788  0.7245
 9416SOL     OW39706   1.570   0.383   6.807  0.4553  0.2187  0.0599
 9416SOL    HW139707   1.557   0.378   6.712  1.3519 -1.3279  0.0120
 9416SOL    HW239708   1.480   0.391   6.838  0.7796 -0.5244  1.1945
 9417SOL     OW39709   2.421   0.961   8.670 -0.1085 -0.2596  0.0391
 9417SOL    HW139710   2.480   0.976   8.597  0.9807  0.8794  1.1458
 9417SOL    HW239711   2.379   1.046   8.665 -0.0556 -0.2275  0.1318
 9418SOL     OW39712   0.342   4.212   4.120  0.4546  0.2870 -0.9376
 9418SOL    HW139713   0.353   4.161   4.040  0.0978 -0.2936 -0.6177
 9418SOL    HW239714   0.408   4.166   4.174  0.9880  2.5996  0.3685
 9419SOL     OW39715   2.886   4.044   3.688 -0.0308 -0.1823 -0.2720
 9419SOL    HW139716   2.949   4.007   3.749 -1.9219 -1.9283  0.6403
 9419SOL    HW239717   2.820   4.085   3.744  0.0406 -1.0172  0.4140
 9420SOL     OW39718   1.623   3.453  17.352  0.1918  0.4592 -0.4957
 9420SOL    HW139719   1.679   3.518  17.397 -0.8533 -0.1932  1.7483
 9420SOL    HW239720   1.583   3.414  17.430 -0.7052  0.1662 -1.1187
 9421SOL     OW39721   3.217   0.155   2.802  0.7619  0.0321  0.0976
 9421SOL    HW139722   3.223   0.138   2.896 -1.7932  2.9677  0.7773
 9421SOL    HW239723   3.231   0.068   2.765  2.7667  0.5085 -0.2716
 9422SOL     OW39724   2.998   0.245   7.421  0.0288  0.6718 -0.6753
 9422SOL    HW139725   2.929   0.181   7.432  0.3146  0.0977 -2.1482
 9422SOL    HW239726   3.051   0.247   7.501 -0.5704 -2.2138 -0.2039
 9423SOL     OW39727   1.066   2.229   3.739  0.1160  0.6567 -0.4744
 9423SOL    HW139728   1.130   2.192   3.799 -1.2213 -0.0787  0.4975
 9423SOL    HW239729   1.116   2.299   3.697  2.9732 -0.6661  0.7102
 9424SOL     OW39730   4.629   2.156  17.181  0.0453 -0.1435 -0.4601
 9424SOL    HW139731   4.678   2.206  17.116 -1.7020 -0.6809 -2.1674
 9424SOL    HW239732   4.543   2.198  17.188  0.4248  1.0267 -2.9034
 9425SOL     OW39733   0.544   0.164   9.234  0.5357  0.4034  0.0107
 9425SOL    HW139734   0.542   0.259   9.247  1.5181  0.5738 -1.1681
 9425SOL    HW239735   0.571   0.143   9.145 -2.3892 -2.8755 -0.1500
 9426SOL     OW39736   4.441   1.313   6.089 -0.3111 -0.3783 -0.3142
 9426SOL    HW139737   4.483   1.381   6.036 -0.8837 -0.3025 -0.6817
 9426SOL    HW239738   4.488   1.318   6.172 -2.2329  0.3379  0.7297
 9427SOL     OW39739   4.322   4.154   2.958  0.3533  0.4216  0.6108
 9427SOL    HW139740   4.352   4.243   2.977 -2.3396  1.7439 -1.2819
 9427SOL    HW239741   4.336   4.159   2.863  0.2923 -0.9625  0.5288
 9428SOL     OW39742   2.215   3.721   1.357 -0.3050  0.4215  0.2359
 9428SOL    HW139743   2.200   3.815   1.354  0.5310  0.6294  2.8250
 9428SOL    HW239744   2.264   3.712   1.439  2.7424 -0.1604 -1.6568
 9429SOL     OW39745   0.734   2.093   1.513  0.6792 -1.0851 -0.0821
 9429SOL    HW139746   0.656   2.149   1.515  2.3772  1.3088 -0.8654
 9429SOL    HW239747   0.768   2.116   1.427 -0.4288  0.7892 -0.0239
 9430SOL     OW39748   2.255   1.461  17.672  0.1146  0.6181 -0.3376
 9430SOL    HW139749   2.332   1.461  17.615 -1.5126  0.2980 -2.5250
 9430SOL    HW239750   2.281   1.391   0.047 -0.1413  0.2068 -0.7083
 9431SOL     OW39751   3.959   0.743   9.097  0.2732 -0.4559 -0.0364
 9431SOL    HW139752   3.920   0.814   9.148  0.9101  0.5341 -0.9444
 9431SOL    HW239753   4.048   0.767   9.122  0.6232 -0.1330 -1.6017
 9432SOL     OW39754   4.059   4.319   0.087  0.1483  0.5041  0.3671
 9432SOL    HW139755   4.124   4.388   0.093  0.4233  0.5832 -3.3469
 9432SOL    HW239756   3.979   4.370   0.097 -0.3756  0.0946 -1.6686
 9433SOL     OW39757   4.498   2.094   3.420 -0.2361 -0.8835 -0.3233
 9433SOL    HW139758   4.426   2.078   3.359 -1.2106 -0.8148  0.7988
 9433SOL    HW239759   4.546   2.017   3.390  2.5869  1.2441 -1.2694
 9434SOL     OW39760   2.657   2.067   6.329 -0.2303 -0.5784  0.0264
 9434SOL    HW139761   2.743   2.096   6.299 -0.3025 -1.3286 -0.9317
 9434SOL    HW239762   2.667   1.972   6.328 -0.9273 -0.6665  1.3626
 9435SOL     OW39763   3.198   2.530   4.462  0.3207  0.0529  0.5531
 9435SOL    HW139764   3.174   2.478   4.538  1.3448  0.6615  1.2910
 9435SOL    HW239765   3.184   2.623   4.479 -1.1157  0.1353 -1.0290
 9436SOL     OW39766   2.810   0.255   5.037 -0.3569  0.3159 -0.0491
 9436SOL    HW139767   2.721   0.276   5.010 -0.1183  3.7750  1.9642
 9436SOL    HW239768   2.840   0.338   5.073 -1.5004  0.4435  0.6240
 9437SOL     OW39769   4.411   0.787  15.358  0.8484  0.4099 -0.3146
 9437SOL    HW139770   4.481   0.828  15.409 -0.4718 -0.7559  2.4427
 9437SOL    HW239771   4.337   0.847  15.365  0.5146 -0.1198  0.7235
 9438SOL     OW39772   4.081   4.270  16.828 -0.5171  0.6619  0.2233
 9438SOL    HW139773   4.157   4.223  16.794 -1.0860  0.1335 -0.3161
 9438SOL    HW239774   4.076   4.346  16.770 -0.0585 -0.0941 -0.7951
 9439SOL     OW39775   1.903   3.116   2.653  0.7598  0.3219 -0.4622
 9439SOL    HW139776   1.939   3.205   2.658  0.4107  0.4436 -0.1549
 9439SOL    HW239777   1.940   3.090   2.568 -2.0774 -0.6789 -1.3835
 9440SOL     OW39778   4.028   4.529   6.727  0.1965  0.0290 -0.1404
 9440SOL    HW139779   3.935   4.527   6.750  0.6112  0.5902  1.5402
 9440SOL    HW239780   4.056   4.442   6.754  1.9414  0.0689 -1.7611
 9441SOL     OW39781   4.019   2.618  12.289  0.1306 -0.0398 -0.1246
 9441SOL    HW139782   4.018   2.621  12.384  1.0083  0.6004 -0.1391
 9441SOL    HW239783   4.098   2.569  12.269 -0.1705 -0.6796  0.2558
 9442SOL     OW39784   2.378   3.796   5.225 -0.0564  0.8322 -0.4243
 9442SOL    HW139785   2.325   3.854   5.170  0.9393 -0.1534 -2.4393
 9442SOL    HW239786   2.325   3.717   5.218 -0.1920  0.8173  0.7412
 9443SOL     OW39787   3.681   2.513  15.159  0.0217 -0.5178  0.9289
 9443SOL    HW139788   3.769   2.506  15.198  2.1043  0.5838 -3.5735
 9443SOL    HW239789   3.665   2.607  15.150 -1.4546 -0.7284  1.4489
 9444SOL     OW39790   1.234   0.125   9.221  0.3617  0.2427 -0.1543
 9444SOL    HW139791   1.275   0.166   9.144  1.0796  1.7256  1.0143
 9444SOL    HW239792   1.160   0.075   9.186  1.9482 -1.2332 -1.4283
 9445SOL     OW39793   0.909   4.626   3.117 -0.1902 -0.1716 -0.4675
 9445SOL    HW139794   0.820   4.613   3.083 -0.0550  0.0239 -0.8941
 9445SOL    HW239795   0.893   4.663   3.204 -0.2473  0.9670 -0.9606
 9446SOL     OW39796   4.483   0.371   7.339 -0.4095  0.1159 -0.0217
 9446SOL    HW139797   4.543   0.445   7.346  0.3721 -0.2865 -2.6372
 9446SOL    HW239798   4.501   0.325   7.421 -1.6915  0.9756  0.7500
 9447SOL     OW39799   2.587   1.260   7.963  0.2637 -0.2359 -0.4823
 9447SOL    HW139800   2.600   1.170   7.994 -0.3478 -0.6295 -1.3576
 9447SOL    HW239801   2.645   1.302   8.026  1.6576  1.1394 -2.6858
 9448SOL     OW39802   1.504   2.705  14.917 -0.2249 -0.1058  0.1355
 9448SOL    HW139803   1.564   2.672  14.850  1.0888  1.4707  0.5486
 9448SOL    HW239804   1.436   2.638  14.927  1.3410 -1.5219  1.2587
 9449SOL     OW39805   0.634   1.970   5.017 -0.3711  0.3211 -0.0019
 9449SOL    HW139806   0.723   1.936   5.028 -0.1706  0.7672 -0.2431
 9449SOL    HW239807   0.609   1.936   4.931  2.0792  0.4222 -0.7641
 9450SOL     OW39808   3.119   1.357   4.286  0.3757 -0.0653  0.4899
 9450SOL    HW139809   3.214   1.361   4.273  0.2166 -1.2487 -1.0797
 9450SOL    HW239810   3.103   1.283   4.228  0.2872 -0.0856  0.5406
 9451SOL     OW39811   1.310   0.195   0.581 -0.1338 -0.0854 -0.6435
 9451SOL    HW139812   1.288   0.132   0.649 -1.8773  0.7073 -0.4578
 9451SOL    HW239813   1.373   0.156   0.520  1.0642 -0.1489  0.6391
 9452SOL     OW39814   0.747   4.704   4.745 -0.1341 -0.0965 -0.3978
 9452SOL    HW139815   0.795   0.040   4.806 -0.7695 -0.0782  0.0856
 9452SOL    HW239816   0.666   4.709   4.795  1.1352 -0.8895  1.7454
 9453SOL     OW39817   4.581   4.653   5.137 -0.4477 -0.0879 -0.2975
 9453SOL    HW139818   4.636   4.708   5.193  0.1671 -1.5969  0.5669
 9453SOL    HW239819   4.636   4.653   5.059  0.1229 -0.8057  0.1010
 9454SOL     OW39820   4.538   3.400  11.188 -0.0677 -0.0658 -0.2239
 9454SOL    HW139821   4.614   3.458  11.187  0.6076 -0.9495 -0.1300
 9454SOL    HW239822   4.583   3.325  11.226  0.0155  1.6265  2.9892
 9455SOL     OW39823   0.645   2.572  15.713 -0.2543  0.0307  0.6041
 9455SOL    HW139824   0.662   2.659  15.750 -0.1206  0.7144 -1.0498
 9455SOL    HW239825   0.713   2.515  15.749  0.6467  0.9644  0.4136
 9456SOL     OW39826   3.101   1.396   6.151 -0.2922  0.1333  0.2982
 9456SOL    HW139827   3.128   1.487   6.141 -1.0558  0.3199 -0.1504
 9456SOL    HW239828   3.172   1.366   6.207  1.3666  1.5501 -1.0612
 9457SOL     OW39829   0.923   4.659   0.962  0.0654 -0.0900  0.2574
 9457SOL    HW139830   0.906   4.716   0.888 -0.6544  0.8416  1.1394
 9457SOL    HW239831   0.917   4.715   1.039  0.5296 -0.4300  0.5424
 9458SOL     OW39832   4.563   2.782   7.346  0.5649 -0.9881 -0.1016
 9458SOL    HW139833   4.620   2.723   7.298  0.5835 -1.3309  0.3401
 9458SOL    HW239834   4.541   2.728   7.423  0.0598  2.1703  1.9918
 9459SOL     OW39835   2.335   1.173  15.835  0.6132  0.9067 -0.2005
 9459SOL    HW139836   2.288   1.153  15.916 -0.0487  0.6768 -0.6440
 9459SOL    HW239837   2.328   1.090  15.787 -2.2331  1.3865 -0.5856
 9460SOL     OW39838   4.429   0.868  10.450 -0.3475  0.1472  0.5850
 9460SOL    HW139839   4.514   0.886  10.492  0.6410  0.7374 -1.7108
 9460SOL    HW239840   4.450   0.831  10.365  0.4623  0.6637  0.5598
 9461SOL     OW39841   4.544   3.982   3.351  0.5581  0.4433  0.3689
 9461SOL    HW139842   4.628   3.946   3.323  0.5874  0.9256 -0.1607
 9461SOL    HW239843   4.496   3.964   3.271  1.1705  0.8234 -0.0880
 9462SOL     OW39844   2.731   2.614   2.685  0.2935  0.0016 -0.3074
 9462SOL    HW139845   2.743   2.541   2.623 -0.6422 -0.7311  0.3698
 9462SOL    HW239846   2.758   2.587   2.773 -0.5046 -0.5480 -0.2356
 9463SOL     OW39847   1.413   0.834   9.254  0.1451  0.2369 -0.0203
 9463SOL    HW139848   1.353   0.892   9.300 -0.3293 -0.3248  0.0727
 9463SOL    HW239849   1.373   0.827   9.167  1.8785 -0.1417 -0.7985
 9464SOL     OW39850   4.036   3.218   1.464  0.3770  0.0126  0.6641
 9464SOL    HW139851   4.101   3.181   1.524  1.3689 -0.8469 -0.9424
 9464SOL    HW239852   4.090   3.218   1.385  2.2893  0.9719  1.9654
 9465SOL     OW39853   1.910   3.712   7.381 -0.2863 -0.0336 -0.1538
 9465SOL    HW139854   1.919   3.759   7.463  1.5706 -2.8649  1.2360
 9465SOL    HW239855   1.931   3.623   7.407  1.4075  1.2161  2.6855
 9466SOL     OW39856   4.494   0.680   5.915  0.0029  0.0476 -0.5755
 9466SOL    HW139857   4.411   0.710   5.952 -0.0286 -0.9834  0.1576
 9466SOL    HW239858   4.470   0.655   5.826 -0.8944  0.5277 -0.4704
 9467SOL     OW39859   2.084   3.701   8.781 -0.3098 -0.2794 -0.1159
 9467SOL    HW139860   2.146   3.666   8.846 -1.5025  0.2296  1.2851
 9467SOL    HW239861   2.138   3.750   8.719 -1.4028  0.3513 -0.5480
 9468SOL     OW39862   1.793   4.005   9.016 -0.5899  0.1079  0.1875
 9468SOL    HW139863   1.871   4.043   9.057 -1.0458  0.6828  0.5186
 9468SOL    HW239864   1.728   4.041   9.075  0.4683 -1.5769  2.3710
 9469SOL     OW39865   0.931   1.486  11.385 -0.3464  0.0170  0.4483
 9469SOL    HW139866   0.956   1.508  11.475 -0.4230  1.1468  0.1885
 9469SOL    HW239867   0.978   1.403  11.374 -0.0743  0.6467 -2.9911
 9470SOL     OW39868   0.989   4.262  15.895  0.0903  0.0997  0.1076
 9470SOL    HW139869   1.029   4.176  15.882  1.0708  0.3801  1.2869
 9470SOL    HW239870   0.998   4.301  15.808 -0.1756 -1.1056 -0.4476
 9471SOL     OW39871   4.382   0.342   5.493 -0.0669 -0.1225  0.4831
 9471SOL    HW139872   4.312   0.292   5.451 -1.7568 -0.4654  3.7409
 9471SOL    HW239873   4.434   0.342   5.413 -2.8546 -3.2320 -1.3363
 9472SOL     OW39874   4.150   2.733   9.002  0.5691 -0.1681 -0.2467
 9472SOL    HW139875   4.091   2.658   8.997  1.4287 -0.7999 -0.7870
 9472SOL    HW239876   4.094   2.805   8.972 -0.5548 -1.3755 -1.0132
 9473SOL     OW39877   3.329   1.822   7.227  0.3102 -0.5435 -0.5718
 9473SOL    HW139878   3.424   1.818   7.241  0.2454  0.5890  0.2031
 9473SOL    HW239879   3.318   1.728   7.214  1.4600 -0.4655 -2.0296
 9474SOL     OW39880   4.703   2.447   5.070  0.0346 -0.3972 -0.5435
 9474SOL    HW139881   4.692   2.393   4.991 -0.8730  1.3778 -1.6341
 9474SOL    HW239882   0.078   2.442   5.075  0.0631 -2.7824 -3.0081
 9475SOL     OW39883   4.049   0.449   3.577 -0.0058 -0.2605 -0.5351
 9475SOL    HW139884   3.971   0.485   3.619 -0.4522  0.9117 -2.4086
 9475SOL    HW239885   4.112   0.465   3.648 -0.7265  2.6448 -0.5587
 9476SOL     OW39886   4.323   2.822  10.290  0.6797 -0.5921  0.1514
 9476SOL    HW139887   4.386   2.765  10.245  0.8963 -0.8802  0.8233
 9476SOL    HW239888   4.318   2.772  10.371 -0.2323 -1.8894 -0.7113
 9477SOL     OW39889   3.695   0.259  13.376 -0.2362  0.5194  0.2853
 9477SOL    HW139890   3.621   0.319  13.377 -0.3253  0.4109 -0.1271
 9477SOL    HW239891   3.652   0.174  13.376 -0.8738  0.8452  0.3201
 9478SOL     OW39892   2.151   2.884   8.634  0.5757 -0.3391  0.0911
 9478SOL    HW139893   2.234   2.839   8.621  0.3296 -1.2662  1.6774
 9478SOL    HW239894   2.160   2.885   8.730  1.1127 -0.0652  0.0362
 9479SOL     OW39895   3.037   4.197   7.695 -0.1887 -0.4622 -0.0977
 9479SOL    HW139896   3.095   4.272   7.711  2.0390 -2.0393 -0.7957
 9479SOL    HW239897   2.967   4.242   7.648  2.2157  2.8995 -0.4981
 9480SOL     OW39898   3.427   3.584   4.820 -0.8891 -0.7540  0.0742
 9480SOL    HW139899   3.434   3.676   4.845 -3.5704 -0.8405  1.1507
 9480SOL    HW239900   3.517   3.562   4.796 -0.8538 -0.0745 -0.3928
 9481SOL     OW39901   2.291   4.149   7.350 -0.4589 -0.0361  0.7229
 9481SOL    HW139902   2.335   4.234   7.348  0.2618 -0.4341  0.0633
 9481SOL    HW239903   2.328   4.110   7.271 -1.8378  0.9805 -0.4311
 9482SOL     OW39904   2.853   2.083   3.415  0.1564 -0.4596 -0.0031
 9482SOL    HW139905   2.909   2.090   3.337  1.2927 -2.5609  0.6182
 9482SOL    HW239906   2.920   2.060   3.479 -1.0699 -0.2300  1.3451
 9483SOL     OW39907   3.993   2.073  10.606 -0.4284 -0.1142 -0.3830
 9483SOL    HW139908   3.936   1.996  10.607  1.9361 -1.8266  0.7267
 9483SOL    HW239909   4.080   2.038  10.590 -0.4664 -0.3450 -0.0776
 9484SOL     OW39910   3.170   2.622   7.295  0.1021  0.2379 -0.1274
 9484SOL    HW139911   3.175   2.699   7.238  3.7044 -1.0888 -1.6115
 9484SOL    HW239912   3.191   2.661   7.380 -4.3733  1.3502  0.5055
 9485SOL     OW39913   4.413   1.248  15.428  0.2124  0.5471  0.2184
 9485SOL    HW139914   4.401   1.266  15.334  3.9858  1.1654 -0.1383
 9485SOL    HW239915   4.379   1.330  15.462  1.6895  1.7289 -1.1350
 9486SOL     OW39916   0.329   2.447   5.340 -0.1193 -0.3141 -0.5908
 9486SOL    HW139917   0.268   2.373   5.345 -1.0512  0.4756 -0.3046
 9486SOL    HW239918   0.304   2.497   5.263  0.4222 -1.7548 -1.6991
 9487SOL     OW39919   0.999   1.136   5.485 -0.2672 -0.4798  0.8657
 9487SOL    HW139920   1.026   1.205   5.424  1.5136 -0.2980  1.8690
 9487SOL    HW239921   0.974   1.191   5.559  1.1933 -0.2191  1.1615
 9488SOL     OW39922   2.059   3.166   1.872  0.1310  0.3785  0.3718
 9488SOL    HW139923   2.103   3.143   1.954  0.2446  1.3446  0.5747
 9488SOL    HW239924   2.134   3.198   1.823  0.2507  1.2188  1.1035
 9489SOL     OW39925   0.312   1.283   7.454  0.2896  0.2537  0.4095
 9489SOL    HW139926   0.309   1.226   7.376 -0.9502 -2.7358  2.6545
 9489SOL    HW239927   0.318   1.372   7.420 -0.8380  0.0603 -0.2968
 9490SOL     OW39928   1.706   4.676   4.571  0.0313  0.3107  0.3412
 9490SOL    HW139929   1.716   0.010   4.493  0.9733  0.0668  0.2840
 9490SOL    HW239930   1.663   4.604   4.524 -0.8448  1.1188 -0.0867
 9491SOL     OW39931   1.601   1.004   6.210 -0.8406 -0.0058 -0.5653
 9491SOL    HW139932   1.670   1.066   6.188  0.6115 -0.6645  2.1841
 9491SOL    HW239933   1.613   1.006   6.305 -0.4706 -1.9333 -0.5643
 9492SOL     OW39934   4.134   2.007   6.308  0.0653  0.0762 -0.5535
 9492SOL    HW139935   4.058   1.956   6.335  0.6644 -1.9346 -2.6437
 9492SOL    HW239936   4.148   1.976   6.219 -0.6190 -0.6758 -0.3969
 9493SOL     OW39937   4.088   0.108   4.141  0.2096 -0.2969 -0.3265
 9493SOL    HW139938   4.024   0.115   4.212  1.3082 -1.8536  0.8455
 9493SOL    HW239939   4.160   0.061   4.184  0.7877  1.1498  0.2779
 9494SOL     OW39940   2.127   4.480   2.724 -0.1597 -0.0827  0.0511
 9494SOL    HW139941   2.123   4.497   2.630 -0.2618  1.5061  0.3518
 9494SOL    HW239942   2.165   4.560   2.759  0.5120 -0.5688  0.4292
 9495SOL     OW39943   2.176   2.524   7.389 -0.4613 -0.2446 -0.2289
 9495SOL    HW139944   2.213   2.608   7.417  1.8039 -2.0130  2.0797
 9495SOL    HW239945   2.166   2.479   7.473 -1.3574 -3.2219 -1.9488
 9496SOL     OW39946   3.488   0.250   3.968  0.1730 -0.0768 -0.0871
 9496SOL    HW139947   3.434   0.235   4.045  0.3869  1.6053  0.3769
 9496SOL    HW239948   3.509   0.343   3.970 -1.7786  0.3090  1.5759
 9497SOL     OW39949   1.672   1.823   6.212  0.0737 -0.0168  0.6685
 9497SOL    HW139950   1.594   1.785   6.252 -0.5251 -0.9764 -1.3819
 9497SOL    HW239951   1.729   1.842   6.286  2.4445 -2.2393 -0.5657
 9498SOL     OW39952   1.026   1.323   5.999 -0.0620  0.0988  0.1012
 9498SOL    HW139953   0.983   1.408   6.015  2.1757  0.7174  2.7475
 9498SOL    HW239954   1.104   1.362   5.959  1.2907 -1.6634  1.0575
 9499SOL     OW39955   0.300   3.121   9.082 -0.1161  0.2368  0.1321
 9499SOL    HW139956   0.268   3.037   9.115 -2.4444  1.0179 -0.1206
 9499SOL    HW239957   0.213   3.161   9.073  0.0651  0.1950 -1.8283
 9500SOL     OW39958   1.026   0.602  14.227 -0.0983  0.4419  0.4837
 9500SOL    HW139959   1.049   0.642  14.143  2.3033 -1.9108  0.0455
 9500SOL    HW239960   0.934   0.582  14.209  0.8573 -2.7217 -0.8428
 9501SOL     OW39961   0.209   0.136  15.350 -0.4551 -0.3863  0.0449
 9501SOL    HW139962   0.240   0.198  15.416 -0.9941  2.5076 -2.3741
 9501SOL    HW239963   0.221   0.191  15.272  1.9097  1.7501  1.9010
 9502SOL     OW39964   2.828   4.664  12.982 -0.4396 -0.4411  0.2721
 9502SOL    HW139965   2.744   4.619  12.985 -1.0719  0.8200  1.7151
 9502SOL    HW239966   2.822   4.711  13.065 -1.2514 -0.2110  0.0866
 9503SOL     OW39967   4.138   1.193   6.357 -0.2603  0.6466  0.0545
 9503SOL    HW139968   4.148   1.255   6.429 -0.0575  1.8521 -1.0186
 9503SOL    HW239969   4.192   1.116   6.376 -0.1121  0.4738 -1.0921
 9504SOL     OW39970   2.610   1.159  14.615  0.4414 -0.0935 -0.2946
 9504SOL    HW139971   2.668   1.145  14.539 -0.2181 -0.0486 -0.8038
 9504SOL    HW239972   2.597   1.254  14.607  0.4980 -0.1782 -1.4326
 9505SOL     OW39973   2.584   3.665   8.302 -0.1443 -0.3466  0.6623
 9505SOL    HW139974   2.628   3.650   8.218  0.7311 -0.6324  1.1683
 9505SOL    HW239975   2.494   3.666   8.269 -0.0464 -2.4840  0.3693
 9506SOL     OW39976   2.799   4.391   4.140 -0.1349 -0.4796  0.5222
 9506SOL    HW139977   2.710   4.366   4.166  0.4790 -1.8833  1.2842
 9506SOL    HW239978   2.815   4.478   4.175  0.5501 -0.3725 -0.0548
 9507SOL     OW39979   0.099   2.441  17.604  0.1059 -0.2507 -0.0687
 9507SOL    HW139980   0.119   2.525  17.644  1.0117  0.0358 -1.1165
 9507SOL    HW239981   0.011   2.445  17.566 -0.1265  1.2243  0.6275
 9508SOL     OW39982   0.647   1.860   4.766 -0.2504  0.8870  0.1191
 9508SOL    HW139983   0.614   1.905   4.688 -3.1162 -3.1417 -0.9632
 9508SOL    HW239984   0.578   1.795   4.776 -0.7751  1.7146  2.0022
 9509SOL     OW39985   3.660   0.223   8.007  0.0268 -0.7723  0.2556
 9509SOL    HW139986   3.658   0.295   7.943  0.7148  0.1067  1.2265
 9509SOL    HW239987   3.582   0.174   7.979 -1.8699  0.0791  4.1185
 9510SOL     OW39988   1.922   1.328  16.155  0.4265 -0.2043 -0.0521
 9510SOL    HW139989   1.871   1.343  16.234 -1.3694  1.6769 -1.6010
 9510SOL    HW239990   1.914   1.412  16.110  1.0267  0.2721  0.7370
 9511SOL     OW39991   1.339   1.556   6.409  0.1806 -0.3680 -0.1641
 9511SOL    HW139992   1.254   1.552   6.451  0.3909  0.4804  0.3482
 9511SOL    HW239993   1.367   1.644   6.435  1.5740 -0.9910  0.4435
 9512SOL     OW39994   0.881   4.074  11.403 -0.3132  0.1646 -0.1375
 9512SOL    HW139995   0.862   3.981  11.414 -1.5685  0.2338 -1.7565
 9512SOL    HW239996   0.858   4.108  11.490  2.8725 -0.8600  1.1119
 9513SOL     OW39997   1.409   0.747   1.181 -0.3051 -0.2895  0.4379
 9513SOL    HW139998   1.449   0.833   1.173 -0.7885 -0.0142  0.9796
 9513SOL    HW239999   1.342   0.749   1.112 -0.4304  0.3846  0.5801
 9514SOL     OW40000   0.214   0.619  14.030 -0.0608  0.0487  0.0284
 9514SOL    HW140001   0.217   0.669  13.948  0.0766  1.9643  1.2065
 9514SOL    HW240002   0.146   0.556  14.008  0.2485 -0.7499  1.3723
 9515SOL     OW40003   1.884   0.442   0.262  0.0031 -0.3708  0.2018
 9515SOL    HW140004   1.849   0.522   0.301  0.2664 -0.1461 -0.0244
 9515SOL    HW240005   1.809   0.401   0.218 -0.6964  0.9520  0.1836
 9516SOL     OW40006   3.335   3.212   6.886  0.6555  0.1216 -0.0926
 9516SOL    HW140007   3.370   3.298   6.905  0.1011 -0.4359  3.4234
 9516SOL    HW240008   3.381   3.156   6.948 -2.8582 -0.5271  1.9241
 9517SOL     OW40009   3.317   2.293   4.066  0.0050  0.7587 -0.8228
 9517SOL    HW140010   3.256   2.259   4.001  0.8572 -0.4553 -0.9790
 9517SOL    HW240011   3.273   2.305   4.151  0.0117 -0.8888 -0.5998
 9518SOL     OW40012   0.346   2.909   6.339  0.1763  0.1680  0.2401
 9518SOL    HW140013   0.252   2.926   6.352  0.0087  0.2530 -1.0568
 9518SOL    HW240014   0.363   2.951   6.255 -0.3763 -2.0712 -1.0172
 9519SOL     OW40015   3.597   4.210   4.062  0.3885  0.4600  0.0062
 9519SOL    HW140016   3.650   4.283   4.094 -2.0566  1.2717  2.1101
 9519SOL    HW240017   3.557   4.172   4.139 -0.7382 -1.8003 -1.7001
 9520SOL     OW40018   3.627   3.493   8.654 -0.4443  0.0528 -0.0020
 9520SOL    HW140019   3.646   3.498   8.560  1.8904 -1.1827  0.4062
 9520SOL    HW240020   3.671   3.575   8.679 -0.3052  0.6760 -2.3358
 9521SOL     OW40021   2.750   0.601   0.929 -0.3700 -0.1031  0.7809
 9521SOL    HW140022   2.798   0.520   0.942  0.3345  0.4727  1.8094
 9521SOL    HW240023   2.663   0.570   0.904 -0.2216 -0.1054  0.2696
 9522SOL     OW40024   1.323   4.540  14.889 -0.5877  0.0061 -0.2529
 9522SOL    HW140025   1.324   4.447  14.867  0.5980 -0.1040  0.2757
 9522SOL    HW240026   1.381   4.572  14.820 -0.8004 -0.2631 -0.5572
 9523SOL     OW40027   4.067   2.442   2.090  0.4839  0.2357 -0.5824
 9523SOL    HW140028   4.074   2.405   2.178  1.1754 -1.5994 -1.3937
 9523SOL    HW240029   3.991   2.494   2.111 -0.8987 -2.3668  0.8305
 9524SOL     OW40030   3.663   3.099   6.053  0.4059 -0.0058 -0.1545
 9524SOL    HW140031   3.654   3.009   6.022 -1.0471  0.2925 -0.6000
 9524SOL    HW240032   3.745   3.114   6.006  1.0327  0.7951  1.1930
 9525SOL     OW40033   3.960   2.934   3.601  0.0945  0.6740 -0.5806
 9525SOL    HW140034   3.884   2.885   3.569 -0.4868  3.0269 -2.8225
 9525SOL    HW240035   3.924   3.022   3.594  1.0369  0.9612 -1.8732
 9526SOL     OW40036   2.879   0.307   3.924 -0.1807 -0.7526 -0.1796
 9526SOL    HW140037   2.923   0.375   3.974 -1.7136 -0.6473  1.0263
 9526SOL    HW240038   2.829   0.273   3.998 -1.0761 -0.0347 -0.4597
 9527SOL     OW40039   0.456   3.264  14.553  0.4852  0.2674 -0.9020
 9527SOL    HW140040   0.470   3.354  14.524  0.2638  0.4808 -0.3393
 9527SOL    HW240041   0.520   3.259  14.624 -2.0485 -2.4290  1.2126
 9528SOL     OW40042   3.643   3.940  15.512 -0.0952  0.3921 -0.3386
 9528SOL    HW140043   3.708   3.916  15.447  0.2056  0.4338 -0.0513
 9528SOL    HW240044   3.643   3.856  15.557  0.2649  0.2905 -0.5333
 9529SOL     OW40045   1.723   1.897  16.311 -0.9310 -0.8031  0.1660
 9529SOL    HW140046   1.786   1.850  16.257 -0.1032 -0.1811  0.5920
 9529SOL    HW240047   1.739   1.858  16.397 -0.7292 -2.2810 -0.5455
 9530SOL     OW40048   0.657   4.613   8.568 -0.2785 -0.3920 -0.0407
 9530SOL    HW140049   0.589   4.681   8.571 -0.3023 -0.4265  0.1559
 9530SOL    HW240050   0.738   4.662   8.581 -2.0708  2.4113  0.5649
 9531SOL     OW40051   0.958   2.196   4.936  0.2350 -0.0181 -0.8229
 9531SOL    HW140052   0.877   2.233   4.900  0.0120  0.2749 -0.0310
 9531SOL    HW240053   0.995   2.151   4.860  3.5987 -0.0594  0.8687
 9532SOL     OW40054   3.365   1.709  10.256  0.3364  0.2142 -0.5526
 9532SOL    HW140055   3.297   1.777  10.262  0.5017  0.3631 -0.3585
 9532SOL    HW240056   3.407   1.713  10.342 -1.2177 -1.2131  0.2681
 9533SOL     OW40057   3.859   4.363   6.262 -0.4951 -0.4561 -0.2580
 9533SOL    HW140058   3.766   4.375   6.283 -0.9413 -1.7281 -1.4298
 9533SOL    HW240059   3.882   4.282   6.308 -0.7939 -2.1729 -3.1194
 9534SOL     OW40060   1.367   3.884  14.683 -0.3859  0.4517 -0.6978
 9534SOL    HW140061   1.390   3.964  14.730  0.8002 -0.0668 -0.4109
 9534SOL    HW240062   1.325   3.916  14.603  1.3594  3.7676 -0.2980
 9535SOL     OW40063   0.168   3.676  16.242 -0.0739 -0.2571  0.4904
 9535SOL    HW140064   0.244   3.618  16.249 -0.0397 -0.1053  1.3970
 9535SOL    HW240065   0.147   3.661  16.150  0.1496  4.9002 -0.4156
 9536SOL     OW40066   2.709   2.270   8.075  0.8550 -0.5763  0.1034
 9536SOL    HW140067   2.715   2.325   8.153 -1.8894 -0.5048  0.2569
 9536SOL    HW240068   2.641   2.323   8.033  0.4885 -0.5195  0.7615
 9537SOL     OW40069   2.277   0.456   0.712 -0.3360  0.1023  0.5584
 9537SOL    HW140070   2.196   0.476   0.759 -0.3068  0.4470  0.4624
 9537SOL    HW240071   2.285   0.363   0.734  1.7159 -0.0467 -0.8326
 9538SOL     OW40072   0.467   2.516  14.484  0.1284  0.0888 -0.3443
 9538SOL    HW140073   0.481   2.608  14.508  2.6022 -0.5913  0.9088
 9538SOL    HW240074   0.506   2.469  14.558  0.2040  3.8161  1.9846
 9539SOL     OW40075   1.649   4.585   4.050  0.2401 -0.0008  0.6508
 9539SOL    HW140076   1.698   4.660   4.017 -1.5285  0.4445 -0.9271
 9539SOL    HW240077   1.575   4.593   3.990  0.4011  1.5064  0.6593
 9540SOL     OW40078   0.807   0.027   4.471  0.2861 -0.0054  0.4542
 9540SOL    HW140079   0.778   0.020   4.562  0.1807  1.1384  0.5141
 9540SOL    HW240080   0.723   0.048   4.429  1.2296 -0.2004 -1.5312
 9541SOL     OW40081   2.100   1.947  17.063 -0.0498 -0.1547  0.2390
 9541SOL    HW140082   2.012   1.983  17.048 -0.5742 -0.3501  2.8285
 9541SOL    HW240083   2.129   1.934  16.973  0.1740 -0.2219  0.3223
 9542SOL     OW40084   1.739   2.837  11.366 -0.4031  0.1587 -0.5011
 9542SOL    HW140085   1.748   2.792  11.451  1.4175  0.3454 -0.5963
 9542SOL    HW240086   1.790   2.916  11.384  2.5859 -2.0618  0.8028
 9543SOL     OW40087   4.102   2.844  13.549  0.2052 -0.1902 -0.0510
 9543SOL    HW140088   4.066   2.884  13.470  0.3428 -0.4647 -0.2522
 9543SOL    HW240089   4.133   2.760  13.516  0.9756 -0.5368  1.5523
 9544SOL     OW40090   1.354   2.584  17.516  0.1593 -0.0734 -0.5413
 9544SOL    HW140091   1.327   2.668  17.478  0.6195  0.0107 -0.6863
 9544SOL    HW240092   1.450   2.589  17.512  0.1166  0.8808 -0.3284
 9545SOL     OW40093   1.252   0.356   8.680  0.9223 -0.1330 -0.1835
 9545SOL    HW140094   1.221   0.268   8.702 -1.7294  0.8664  0.0078
 9545SOL    HW240095   1.348   0.353   8.678  0.9424 -0.0922  0.6979
 9546SOL     OW40096   3.043   1.926   9.156 -0.2245  0.0289  0.0514
 9546SOL    HW140097   3.039   1.964   9.068  0.5766 -0.9951 -0.4357
 9546SOL    HW240098   2.972   1.861   9.157 -1.7213  1.7267  4.8745
 9547SOL     OW40099   4.653   0.685   6.658 -0.2642  0.0408  0.1220
 9547SOL    HW140100   4.608   0.617   6.608 -0.2613  1.5362 -1.8687
 9547SOL    HW240101   4.698   0.628   6.721 -1.3545 -0.7169  0.2259
 9548SOL     OW40102   4.680   3.606   7.018  0.5705 -0.0096  0.1832
 9548SOL    HW140103   4.652   3.675   6.957 -2.1770 -0.0538  1.4181
 9548SOL    HW240104   0.034   3.577   6.965 -0.6629  0.0250 -1.6040
 9549SOL     OW40105   1.076   2.732   2.298 -0.1303  0.3965 -0.3672
 9549SOL    HW140106   1.009   2.799   2.282 -0.0287  0.3774 -0.8664
 9549SOL    HW240107   1.097   2.708   2.208  1.0038 -3.0049  0.8005
 9550SOL     OW40108   0.047   0.706   3.947  0.4839 -0.0070  0.5872
 9550SOL    HW140109   4.715   0.758   3.886 -0.2305 -0.3654  0.9040
 9550SOL    HW240110   4.702   0.648   3.985 -0.3703 -1.1777 -2.6313
 9551SOL     OW40111   3.278   1.416   8.871  0.3514 -0.1172  0.2848
 9551SOL    HW140112   3.281   1.336   8.922  0.2896  0.2638  0.8787
 9551SOL    HW240113   3.269   1.484   8.937  0.6586  0.8654 -0.6854
 9552SOL     OW40114   4.672   4.556   8.250  0.0309  0.7258  0.3760
 9552SOL    HW140115   4.613   4.615   8.297  1.3599  0.4617  2.3500
 9552SOL    HW240116   0.010   4.621   8.209 -0.7165  0.5699 -0.9634
 9553SOL     OW40117   4.224   2.994   7.530 -0.0490 -0.3703 -0.4957
 9553SOL    HW140118   4.224   3.082   7.569  2.3097 -0.7870  0.4671
 9553SOL    HW240119   4.238   3.016   7.438 -0.4846  1.5761 -0.1162
 9554SOL     OW40120   0.460   3.572  10.068 -0.9145  0.2669  0.1604
 9554SOL    HW140121   0.537   3.545  10.017 -0.1830  1.3847  0.6643
 9554SOL    HW240122   0.502   3.623  10.137 -0.3731  0.5485 -0.3676
 9555SOL     OW40123   2.756   1.680  13.619 -0.0678 -0.3992  0.2579
 9555SOL    HW140124   2.752   1.707  13.711 -3.4262 -1.5317  0.4718
 9555SOL    HW240125   2.672   1.711  13.584 -0.6853 -0.7920  1.4001
 9556SOL     OW40126   3.245   0.864  13.612  0.2798  0.1039 -0.2214
 9556SOL    HW140127   3.272   0.805  13.542 -0.6964  0.4318 -0.8674
 9556SOL    HW240128   3.181   0.807  13.656 -1.9372  2.3149 -0.6300
 9557SOL     OW40129   3.094   3.319   3.649 -0.2800 -0.0678  0.7003
 9557SOL    HW140130   3.167   3.270   3.687 -0.8133 -1.3926  0.0206
 9557SOL    HW240131   3.114   3.305   3.556 -0.1767  1.6359  0.4592
 9558SOL     OW40132   3.946   4.589  16.512 -0.0650 -0.0385 -0.3525
 9558SOL    HW140133   3.961   4.614  16.604 -0.6014 -0.7365 -0.0794
 9558SOL    HW240134   3.974   4.662  16.457  1.6049 -0.5900 -0.2550
 9559SOL     OW40135   0.821   4.037   5.134  0.1321 -0.2404 -0.4090
 9559SOL    HW140136   0.887   3.972   5.157  0.0923 -0.3666 -0.6531
 9559SOL    HW240137   0.748   4.026   5.196  0.1154  0.1719 -0.3561
 9560SOL     OW40138   3.683   1.599   7.433 -0.0014 -0.0328  0.8439
 9560SOL    HW140139   3.705   1.519   7.481 -1.3874  1.0304  3.2523
 9560SOL    HW240140   3.727   1.662   7.491  1.2077 -1.8504  1.8990
 9561SOL     OW40141   3.482   2.045   4.604  0.5286 -0.0067  0.0087
 9561SOL    HW140142   3.403   2.023   4.653  1.2541  1.4808  1.8601
 9561SOL    HW240143   3.487   1.961   4.558 -0.1826  1.0524 -2.0264
 9562SOL     OW40144   3.588   1.018   6.622 -0.5092  0.4754  0.3638
 9562SOL    HW140145   3.671   1.015   6.573 -1.7883 -1.8187 -1.6950
 9562SOL    HW240146   3.584   0.926   6.648 -4.3405 -0.2405 -2.6679
 9563SOL     OW40147   4.122   0.752   8.834  0.8046 -0.2151  0.7356
 9563SOL    HW140148   4.212   0.725   8.849  0.6051 -0.8990  0.7192
 9563SOL    HW240149   4.066   0.710   8.900  1.1884 -0.2979  1.0049
 9564SOL     OW40150   4.575   4.235   0.250 -0.1318 -0.1186 -0.0437
 9564SOL    HW140151   4.568   4.309   0.311 -1.2305  0.4096 -0.7935
 9564SOL    HW240152   4.646   4.189   0.295 -2.2914  0.1116  3.6342
 9565SOL     OW40153   3.526   2.600   7.533 -0.0153  0.0289 -0.2262
 9565SOL    HW140154   3.571   2.596   7.448 -0.3101 -1.6167 -0.3056
 9565SOL    HW240155   3.554   2.687   7.563 -0.2613  0.1462 -0.3360
   4.72077   4.72077  17.68557
